;
;   File g6dpncore_petim.itp  was generated
;   By user: sairam (1000)
;   On host: sairam
;   At date: Tue. January  2 17:01:16 2025
;
;   This is a standalone topology file
;
;   Created by:
;   ParmEd:       amb2gro_top_gro.py, VERSION 3.4.1
;   Executable:   amb2gro_top_gro.py
;   Library dir:  /usr/local/gromacs/share/gromacs/top
;   Command line:
;     ./amb2gro_top_gro.py -p g6dpncore_petim.prmtop -c g6dpncore_petim.inpcrd -t g6dpncore_petim.itp -g g6dpncore_petim.gro -b g6dpncore_petim.pdb
;

;[ defaults ]
;; nbfunc        comb-rule       gen-pairs       fudgeLJ fudgeQQ
;1               2               yes             0.5          0.83333333  
;
;[ atomtypes ]
;; name    at.num    mass    charge ptype  sigma      epsilon
;n4             7  14.010000  0.00000000  A     0.32499985        0.71128
;c3             6  12.010000  0.00000000  A     0.33996695      0.4577296
;hx             1   1.008000  0.00000000  A     0.19599772      0.0656888
;hc             1   1.008000  0.00000000  A     0.26495328      0.0656888
;h1             1   1.008000  0.00000000  A      0.2471353      0.0656888
;hn             1   1.008000  0.00000000  A     0.10690785      0.0656888
;os             8  16.000000  0.00000000  A     0.30000123        0.71128


[ moleculetype ]
; Name            nrexcl
g6dpncore_petim          3

[ atoms ]
;   nr       type  resnr residue  atom   cgnr    charge       mass  typeB    chargeB      massB
; residue    1 aaa rtp aaa q 1.0
    1         n4      1    aaa     N1      1 -0.24795800  14.010000   ; qtot -0.247958
    2         c3      1    aaa     C1      2 0.15727100  12.010000   ; qtot -0.090687
    3         hx      1    aaa     H1      3 0.05072400   1.008000   ; qtot -0.039963
    4         hx      1    aaa     H2      4 0.05072400   1.008000   ; qtot 0.010761
    5         c3      1    aaa     C2      5 0.15727100  12.010000   ; qtot 0.168032
    6         hx      1    aaa     H3      6 0.05072400   1.008000   ; qtot 0.218756
    7         hx      1    aaa     H4      7 0.05072400   1.008000   ; qtot 0.269480
    8         c3      1    aaa     C3      8 0.15727100  12.010000   ; qtot 0.426751
    9         hx      1    aaa     H5      9 0.05072400   1.008000   ; qtot 0.477475
   10         hx      1    aaa     H6     10 0.05072400   1.008000   ; qtot 0.528199
   11         c3      1    aaa     C4     11 0.05437700  12.010000   ; qtot 0.582576
   12         hc      1    aaa     H7     12 0.07708700   1.008000   ; qtot 0.659663
   13         hc      1    aaa     H8     13 0.07708700   1.008000   ; qtot 0.736750
   14         c3      1    aaa     C5     14 0.05437700  12.010000   ; qtot 0.791127
   15         hc      1    aaa     H9     15 0.07708700   1.008000   ; qtot 0.868214
   16         hc      1    aaa    H10     16 0.07708700   1.008000   ; qtot 0.945301
   17         c3      1    aaa     C6     17 0.05437700  12.010000   ; qtot 0.999678
   18         hc      1    aaa    H11     18 0.07708700   1.008000   ; qtot 1.076765
   19         hc      1    aaa    H12     19 0.07708700   1.008000   ; qtot 1.153852
   20         c3      1    aaa     C7     20 -0.74569400  12.010000   ; qtot 0.408158
   21         h1      1    aaa    H13     21 0.30837900   1.008000   ; qtot 0.716537
   22         h1      1    aaa    H14     22 0.30837900   1.008000   ; qtot 1.024916
   23         c3      1    aaa     C8     23 -0.74569400  12.010000   ; qtot 0.279222
   24         h1      1    aaa    H15     24 0.30837900   1.008000   ; qtot 0.587601
   25         h1      1    aaa    H16     25 0.30837900   1.008000   ; qtot 0.895980
   26         c3      1    aaa     C9     26 -0.74569400  12.010000   ; qtot 0.150286
   27         h1      1    aaa    H17     27 0.30837900   1.008000   ; qtot 0.458665
   28         h1      1    aaa    H18     28 0.30837900   1.008000   ; qtot 0.767044
   29         hn      1    aaa    H19     29 0.23295100   1.008000   ; qtot 0.999995
; residue    2 bbb rtp bbb q 1.0
   30         n4      2    bbb     N1     30 0.03726400  14.010000   ; qtot 1.037259
   31         c3      2    bbb     C1     31 -0.07020100  12.010000   ; qtot 0.967058
   32         hx      2    bbb     H1     32 0.12219000   1.008000   ; qtot 1.089248
   33         hx      2    bbb     H2     33 0.12219000   1.008000   ; qtot 1.211438
   34         c3      2    bbb     C2     34 -0.07020100  12.010000   ; qtot 1.141237
   35         hx      2    bbb     H3     35 0.12219000   1.008000   ; qtot 1.263427
   36         hx      2    bbb     H4     36 0.12219000   1.008000   ; qtot 1.385617
   37         c3      2    bbb     C3     37 -0.39007700  12.010000   ; qtot 0.995540
   38         hx      2    bbb     H5     38 0.14940300   1.008000   ; qtot 1.144943
   39         hx      2    bbb     H6     39 0.14940300   1.008000   ; qtot 1.294346
   40         c3      2    bbb     C4     40 0.18057300  12.010000   ; qtot 1.474919
   41         hc      2    bbb     H7     41 0.01788900   1.008000   ; qtot 1.492808
   42         hc      2    bbb     H8     42 0.01788900   1.008000   ; qtot 1.510697
   43         c3      2    bbb     C5     43 -0.11337700  12.010000   ; qtot 1.397320
   44         hc      2    bbb     H9     44 0.09515400   1.008000   ; qtot 1.492474
   45         hc      2    bbb    H10     45 0.09515400   1.008000   ; qtot 1.587628
   46         c3      2    bbb     C6     46 -0.11337700  12.010000   ; qtot 1.474251
   47         hc      2    bbb    H11     47 0.09515400   1.008000   ; qtot 1.569405
   48         hc      2    bbb    H12     48 0.09515400   1.008000   ; qtot 1.664559
   49         c3      2    bbb     C7     49 0.21842400  12.010000   ; qtot 1.882983
   50         h1      2    bbb    H13     50 0.04500300   1.008000   ; qtot 1.927986
   51         h1      2    bbb    H14     51 0.04500300   1.008000   ; qtot 1.972989
   52         c3      2    bbb     C8     52 -0.06455200  12.010000   ; qtot 1.908437
   53         h1      2    bbb    H15     53 0.13554100   1.008000   ; qtot 2.043978
   54         h1      2    bbb    H16     54 0.13554100   1.008000   ; qtot 2.179519
   55         c3      2    bbb     C9     55 -0.06455200  12.010000   ; qtot 2.114967
   56         h1      2    bbb    H17     56 0.13554100   1.008000   ; qtot 2.250508
   57         h1      2    bbb    H18     57 0.13554100   1.008000   ; qtot 2.386049
   58         os      2    bbb     O1     58 -0.62587700  16.000000   ; qtot 1.760172
   59         hn      2    bbb    H19     59 0.23982500   1.008000   ; qtot 1.999997
; residue    3 bbb rtp bbb q 1.0
   60         n4      3    bbb     N1     60 0.03726400  14.010000   ; qtot 2.037261
   61         c3      3    bbb     C1     61 -0.07020100  12.010000   ; qtot 1.967060
   62         hx      3    bbb     H1     62 0.12219000   1.008000   ; qtot 2.089250
   63         hx      3    bbb     H2     63 0.12219000   1.008000   ; qtot 2.211440
   64         c3      3    bbb     C2     64 -0.07020100  12.010000   ; qtot 2.141239
   65         hx      3    bbb     H3     65 0.12219000   1.008000   ; qtot 2.263429
   66         hx      3    bbb     H4     66 0.12219000   1.008000   ; qtot 2.385619
   67         c3      3    bbb     C3     67 -0.39007700  12.010000   ; qtot 1.995542
   68         hx      3    bbb     H5     68 0.14940300   1.008000   ; qtot 2.144945
   69         hx      3    bbb     H6     69 0.14940300   1.008000   ; qtot 2.294348
   70         c3      3    bbb     C4     70 0.18057300  12.010000   ; qtot 2.474921
   71         hc      3    bbb     H7     71 0.01788900   1.008000   ; qtot 2.492810
   72         hc      3    bbb     H8     72 0.01788900   1.008000   ; qtot 2.510699
   73         c3      3    bbb     C5     73 -0.11337700  12.010000   ; qtot 2.397322
   74         hc      3    bbb     H9     74 0.09515400   1.008000   ; qtot 2.492476
   75         hc      3    bbb    H10     75 0.09515400   1.008000   ; qtot 2.587630
   76         c3      3    bbb     C6     76 -0.11337700  12.010000   ; qtot 2.474253
   77         hc      3    bbb    H11     77 0.09515400   1.008000   ; qtot 2.569407
   78         hc      3    bbb    H12     78 0.09515400   1.008000   ; qtot 2.664561
   79         c3      3    bbb     C7     79 0.21842400  12.010000   ; qtot 2.882985
   80         h1      3    bbb    H13     80 0.04500300   1.008000   ; qtot 2.927988
   81         h1      3    bbb    H14     81 0.04500300   1.008000   ; qtot 2.972991
   82         c3      3    bbb     C8     82 -0.06455200  12.010000   ; qtot 2.908439
   83         h1      3    bbb    H15     83 0.13554100   1.008000   ; qtot 3.043980
   84         h1      3    bbb    H16     84 0.13554100   1.008000   ; qtot 3.179521
   85         c3      3    bbb     C9     85 -0.06455200  12.010000   ; qtot 3.114969
   86         h1      3    bbb    H17     86 0.13554100   1.008000   ; qtot 3.250510
   87         h1      3    bbb    H18     87 0.13554100   1.008000   ; qtot 3.386051
   88         os      3    bbb     O1     88 -0.62587700  16.000000   ; qtot 2.760174
   89         hn      3    bbb    H19     89 0.23982500   1.008000   ; qtot 2.999999
; residue    4 bbb rtp bbb q 1.0
   90         n4      4    bbb     N1     90 0.03726400  14.010000   ; qtot 3.037263
   91         c3      4    bbb     C1     91 -0.07020100  12.010000   ; qtot 2.967062
   92         hx      4    bbb     H1     92 0.12219000   1.008000   ; qtot 3.089252
   93         hx      4    bbb     H2     93 0.12219000   1.008000   ; qtot 3.211442
   94         c3      4    bbb     C2     94 -0.07020100  12.010000   ; qtot 3.141241
   95         hx      4    bbb     H3     95 0.12219000   1.008000   ; qtot 3.263431
   96         hx      4    bbb     H4     96 0.12219000   1.008000   ; qtot 3.385621
   97         c3      4    bbb     C3     97 -0.39007700  12.010000   ; qtot 2.995544
   98         hx      4    bbb     H5     98 0.14940300   1.008000   ; qtot 3.144947
   99         hx      4    bbb     H6     99 0.14940300   1.008000   ; qtot 3.294350
  100         c3      4    bbb     C4    100 0.18057300  12.010000   ; qtot 3.474923
  101         hc      4    bbb     H7    101 0.01788900   1.008000   ; qtot 3.492812
  102         hc      4    bbb     H8    102 0.01788900   1.008000   ; qtot 3.510701
  103         c3      4    bbb     C5    103 -0.11337700  12.010000   ; qtot 3.397324
  104         hc      4    bbb     H9    104 0.09515400   1.008000   ; qtot 3.492478
  105         hc      4    bbb    H10    105 0.09515400   1.008000   ; qtot 3.587632
  106         c3      4    bbb     C6    106 -0.11337700  12.010000   ; qtot 3.474255
  107         hc      4    bbb    H11    107 0.09515400   1.008000   ; qtot 3.569409
  108         hc      4    bbb    H12    108 0.09515400   1.008000   ; qtot 3.664563
  109         c3      4    bbb     C7    109 0.21842400  12.010000   ; qtot 3.882987
  110         h1      4    bbb    H13    110 0.04500300   1.008000   ; qtot 3.927990
  111         h1      4    bbb    H14    111 0.04500300   1.008000   ; qtot 3.972993
  112         c3      4    bbb     C8    112 -0.06455200  12.010000   ; qtot 3.908441
  113         h1      4    bbb    H15    113 0.13554100   1.008000   ; qtot 4.043982
  114         h1      4    bbb    H16    114 0.13554100   1.008000   ; qtot 4.179523
  115         c3      4    bbb     C9    115 -0.06455200  12.010000   ; qtot 4.114971
  116         h1      4    bbb    H17    116 0.13554100   1.008000   ; qtot 4.250512
  117         h1      4    bbb    H18    117 0.13554100   1.008000   ; qtot 4.386053
  118         os      4    bbb     O1    118 -0.62587700  16.000000   ; qtot 3.760176
  119         hn      4    bbb    H19    119 0.23982500   1.008000   ; qtot 4.000001
; residue    5 bbb rtp bbb q 1.0
  120         n4      5    bbb     N1    120 0.03726400  14.010000   ; qtot 4.037265
  121         c3      5    bbb     C1    121 -0.07020100  12.010000   ; qtot 3.967064
  122         hx      5    bbb     H1    122 0.12219000   1.008000   ; qtot 4.089254
  123         hx      5    bbb     H2    123 0.12219000   1.008000   ; qtot 4.211444
  124         c3      5    bbb     C2    124 -0.07020100  12.010000   ; qtot 4.141243
  125         hx      5    bbb     H3    125 0.12219000   1.008000   ; qtot 4.263433
  126         hx      5    bbb     H4    126 0.12219000   1.008000   ; qtot 4.385623
  127         c3      5    bbb     C3    127 -0.39007700  12.010000   ; qtot 3.995546
  128         hx      5    bbb     H5    128 0.14940300   1.008000   ; qtot 4.144949
  129         hx      5    bbb     H6    129 0.14940300   1.008000   ; qtot 4.294352
  130         c3      5    bbb     C4    130 0.18057300  12.010000   ; qtot 4.474925
  131         hc      5    bbb     H7    131 0.01788900   1.008000   ; qtot 4.492814
  132         hc      5    bbb     H8    132 0.01788900   1.008000   ; qtot 4.510703
  133         c3      5    bbb     C5    133 -0.11337700  12.010000   ; qtot 4.397326
  134         hc      5    bbb     H9    134 0.09515400   1.008000   ; qtot 4.492480
  135         hc      5    bbb    H10    135 0.09515400   1.008000   ; qtot 4.587634
  136         c3      5    bbb     C6    136 -0.11337700  12.010000   ; qtot 4.474257
  137         hc      5    bbb    H11    137 0.09515400   1.008000   ; qtot 4.569411
  138         hc      5    bbb    H12    138 0.09515400   1.008000   ; qtot 4.664565
  139         c3      5    bbb     C7    139 0.21842400  12.010000   ; qtot 4.882989
  140         h1      5    bbb    H13    140 0.04500300   1.008000   ; qtot 4.927992
  141         h1      5    bbb    H14    141 0.04500300   1.008000   ; qtot 4.972995
  142         c3      5    bbb     C8    142 -0.06455200  12.010000   ; qtot 4.908443
  143         h1      5    bbb    H15    143 0.13554100   1.008000   ; qtot 5.043984
  144         h1      5    bbb    H16    144 0.13554100   1.008000   ; qtot 5.179525
  145         c3      5    bbb     C9    145 -0.06455200  12.010000   ; qtot 5.114973
  146         h1      5    bbb    H17    146 0.13554100   1.008000   ; qtot 5.250514
  147         h1      5    bbb    H18    147 0.13554100   1.008000   ; qtot 5.386055
  148         os      5    bbb     O1    148 -0.62587700  16.000000   ; qtot 4.760178
  149         hn      5    bbb    H19    149 0.23982500   1.008000   ; qtot 5.000003
; residue    6 bbb rtp bbb q 1.0
  150         n4      6    bbb     N1    150 0.03726400  14.010000   ; qtot 5.037267
  151         c3      6    bbb     C1    151 -0.07020100  12.010000   ; qtot 4.967066
  152         hx      6    bbb     H1    152 0.12219000   1.008000   ; qtot 5.089256
  153         hx      6    bbb     H2    153 0.12219000   1.008000   ; qtot 5.211446
  154         c3      6    bbb     C2    154 -0.07020100  12.010000   ; qtot 5.141245
  155         hx      6    bbb     H3    155 0.12219000   1.008000   ; qtot 5.263435
  156         hx      6    bbb     H4    156 0.12219000   1.008000   ; qtot 5.385625
  157         c3      6    bbb     C3    157 -0.39007700  12.010000   ; qtot 4.995548
  158         hx      6    bbb     H5    158 0.14940300   1.008000   ; qtot 5.144951
  159         hx      6    bbb     H6    159 0.14940300   1.008000   ; qtot 5.294354
  160         c3      6    bbb     C4    160 0.18057300  12.010000   ; qtot 5.474927
  161         hc      6    bbb     H7    161 0.01788900   1.008000   ; qtot 5.492816
  162         hc      6    bbb     H8    162 0.01788900   1.008000   ; qtot 5.510705
  163         c3      6    bbb     C5    163 -0.11337700  12.010000   ; qtot 5.397328
  164         hc      6    bbb     H9    164 0.09515400   1.008000   ; qtot 5.492482
  165         hc      6    bbb    H10    165 0.09515400   1.008000   ; qtot 5.587636
  166         c3      6    bbb     C6    166 -0.11337700  12.010000   ; qtot 5.474259
  167         hc      6    bbb    H11    167 0.09515400   1.008000   ; qtot 5.569413
  168         hc      6    bbb    H12    168 0.09515400   1.008000   ; qtot 5.664567
  169         c3      6    bbb     C7    169 0.21842400  12.010000   ; qtot 5.882991
  170         h1      6    bbb    H13    170 0.04500300   1.008000   ; qtot 5.927994
  171         h1      6    bbb    H14    171 0.04500300   1.008000   ; qtot 5.972997
  172         c3      6    bbb     C8    172 -0.06455200  12.010000   ; qtot 5.908445
  173         h1      6    bbb    H15    173 0.13554100   1.008000   ; qtot 6.043986
  174         h1      6    bbb    H16    174 0.13554100   1.008000   ; qtot 6.179527
  175         c3      6    bbb     C9    175 -0.06455200  12.010000   ; qtot 6.114975
  176         h1      6    bbb    H17    176 0.13554100   1.008000   ; qtot 6.250516
  177         h1      6    bbb    H18    177 0.13554100   1.008000   ; qtot 6.386057
  178         os      6    bbb     O1    178 -0.62587700  16.000000   ; qtot 5.760180
  179         hn      6    bbb    H19    179 0.23982500   1.008000   ; qtot 6.000005
; residue    7 bbb rtp bbb q 1.0
  180         n4      7    bbb     N1    180 0.03726400  14.010000   ; qtot 6.037269
  181         c3      7    bbb     C1    181 -0.07020100  12.010000   ; qtot 5.967068
  182         hx      7    bbb     H1    182 0.12219000   1.008000   ; qtot 6.089258
  183         hx      7    bbb     H2    183 0.12219000   1.008000   ; qtot 6.211448
  184         c3      7    bbb     C2    184 -0.07020100  12.010000   ; qtot 6.141247
  185         hx      7    bbb     H3    185 0.12219000   1.008000   ; qtot 6.263437
  186         hx      7    bbb     H4    186 0.12219000   1.008000   ; qtot 6.385627
  187         c3      7    bbb     C3    187 -0.39007700  12.010000   ; qtot 5.995550
  188         hx      7    bbb     H5    188 0.14940300   1.008000   ; qtot 6.144953
  189         hx      7    bbb     H6    189 0.14940300   1.008000   ; qtot 6.294356
  190         c3      7    bbb     C4    190 0.18057300  12.010000   ; qtot 6.474929
  191         hc      7    bbb     H7    191 0.01788900   1.008000   ; qtot 6.492818
  192         hc      7    bbb     H8    192 0.01788900   1.008000   ; qtot 6.510707
  193         c3      7    bbb     C5    193 -0.11337700  12.010000   ; qtot 6.397330
  194         hc      7    bbb     H9    194 0.09515400   1.008000   ; qtot 6.492484
  195         hc      7    bbb    H10    195 0.09515400   1.008000   ; qtot 6.587638
  196         c3      7    bbb     C6    196 -0.11337700  12.010000   ; qtot 6.474261
  197         hc      7    bbb    H11    197 0.09515400   1.008000   ; qtot 6.569415
  198         hc      7    bbb    H12    198 0.09515400   1.008000   ; qtot 6.664569
  199         c3      7    bbb     C7    199 0.21842400  12.010000   ; qtot 6.882993
  200         h1      7    bbb    H13    200 0.04500300   1.008000   ; qtot 6.927996
  201         h1      7    bbb    H14    201 0.04500300   1.008000   ; qtot 6.972999
  202         c3      7    bbb     C8    202 -0.06455200  12.010000   ; qtot 6.908447
  203         h1      7    bbb    H15    203 0.13554100   1.008000   ; qtot 7.043988
  204         h1      7    bbb    H16    204 0.13554100   1.008000   ; qtot 7.179529
  205         c3      7    bbb     C9    205 -0.06455200  12.010000   ; qtot 7.114977
  206         h1      7    bbb    H17    206 0.13554100   1.008000   ; qtot 7.250518
  207         h1      7    bbb    H18    207 0.13554100   1.008000   ; qtot 7.386059
  208         os      7    bbb     O1    208 -0.62587700  16.000000   ; qtot 6.760182
  209         hn      7    bbb    H19    209 0.23982500   1.008000   ; qtot 7.000007
; residue    8 bbb rtp bbb q 1.0
  210         n4      8    bbb     N1    210 0.03726400  14.010000   ; qtot 7.037271
  211         c3      8    bbb     C1    211 -0.07020100  12.010000   ; qtot 6.967070
  212         hx      8    bbb     H1    212 0.12219000   1.008000   ; qtot 7.089260
  213         hx      8    bbb     H2    213 0.12219000   1.008000   ; qtot 7.211450
  214         c3      8    bbb     C2    214 -0.07020100  12.010000   ; qtot 7.141249
  215         hx      8    bbb     H3    215 0.12219000   1.008000   ; qtot 7.263439
  216         hx      8    bbb     H4    216 0.12219000   1.008000   ; qtot 7.385629
  217         c3      8    bbb     C3    217 -0.39007700  12.010000   ; qtot 6.995552
  218         hx      8    bbb     H5    218 0.14940300   1.008000   ; qtot 7.144955
  219         hx      8    bbb     H6    219 0.14940300   1.008000   ; qtot 7.294358
  220         c3      8    bbb     C4    220 0.18057300  12.010000   ; qtot 7.474931
  221         hc      8    bbb     H7    221 0.01788900   1.008000   ; qtot 7.492820
  222         hc      8    bbb     H8    222 0.01788900   1.008000   ; qtot 7.510709
  223         c3      8    bbb     C5    223 -0.11337700  12.010000   ; qtot 7.397332
  224         hc      8    bbb     H9    224 0.09515400   1.008000   ; qtot 7.492486
  225         hc      8    bbb    H10    225 0.09515400   1.008000   ; qtot 7.587640
  226         c3      8    bbb     C6    226 -0.11337700  12.010000   ; qtot 7.474263
  227         hc      8    bbb    H11    227 0.09515400   1.008000   ; qtot 7.569417
  228         hc      8    bbb    H12    228 0.09515400   1.008000   ; qtot 7.664571
  229         c3      8    bbb     C7    229 0.21842400  12.010000   ; qtot 7.882995
  230         h1      8    bbb    H13    230 0.04500300   1.008000   ; qtot 7.927998
  231         h1      8    bbb    H14    231 0.04500300   1.008000   ; qtot 7.973001
  232         c3      8    bbb     C8    232 -0.06455200  12.010000   ; qtot 7.908449
  233         h1      8    bbb    H15    233 0.13554100   1.008000   ; qtot 8.043990
  234         h1      8    bbb    H16    234 0.13554100   1.008000   ; qtot 8.179531
  235         c3      8    bbb     C9    235 -0.06455200  12.010000   ; qtot 8.114979
  236         h1      8    bbb    H17    236 0.13554100   1.008000   ; qtot 8.250520
  237         h1      8    bbb    H18    237 0.13554100   1.008000   ; qtot 8.386061
  238         os      8    bbb     O1    238 -0.62587700  16.000000   ; qtot 7.760184
  239         hn      8    bbb    H19    239 0.23982500   1.008000   ; qtot 8.000009
; residue    9 bbb rtp bbb q 1.0
  240         n4      9    bbb     N1    240 0.03726400  14.010000   ; qtot 8.037273
  241         c3      9    bbb     C1    241 -0.07020100  12.010000   ; qtot 7.967072
  242         hx      9    bbb     H1    242 0.12219000   1.008000   ; qtot 8.089262
  243         hx      9    bbb     H2    243 0.12219000   1.008000   ; qtot 8.211452
  244         c3      9    bbb     C2    244 -0.07020100  12.010000   ; qtot 8.141251
  245         hx      9    bbb     H3    245 0.12219000   1.008000   ; qtot 8.263441
  246         hx      9    bbb     H4    246 0.12219000   1.008000   ; qtot 8.385631
  247         c3      9    bbb     C3    247 -0.39007700  12.010000   ; qtot 7.995554
  248         hx      9    bbb     H5    248 0.14940300   1.008000   ; qtot 8.144957
  249         hx      9    bbb     H6    249 0.14940300   1.008000   ; qtot 8.294360
  250         c3      9    bbb     C4    250 0.18057300  12.010000   ; qtot 8.474933
  251         hc      9    bbb     H7    251 0.01788900   1.008000   ; qtot 8.492822
  252         hc      9    bbb     H8    252 0.01788900   1.008000   ; qtot 8.510711
  253         c3      9    bbb     C5    253 -0.11337700  12.010000   ; qtot 8.397334
  254         hc      9    bbb     H9    254 0.09515400   1.008000   ; qtot 8.492488
  255         hc      9    bbb    H10    255 0.09515400   1.008000   ; qtot 8.587642
  256         c3      9    bbb     C6    256 -0.11337700  12.010000   ; qtot 8.474265
  257         hc      9    bbb    H11    257 0.09515400   1.008000   ; qtot 8.569419
  258         hc      9    bbb    H12    258 0.09515400   1.008000   ; qtot 8.664573
  259         c3      9    bbb     C7    259 0.21842400  12.010000   ; qtot 8.882997
  260         h1      9    bbb    H13    260 0.04500300   1.008000   ; qtot 8.928000
  261         h1      9    bbb    H14    261 0.04500300   1.008000   ; qtot 8.973003
  262         c3      9    bbb     C8    262 -0.06455200  12.010000   ; qtot 8.908451
  263         h1      9    bbb    H15    263 0.13554100   1.008000   ; qtot 9.043992
  264         h1      9    bbb    H16    264 0.13554100   1.008000   ; qtot 9.179533
  265         c3      9    bbb     C9    265 -0.06455200  12.010000   ; qtot 9.114981
  266         h1      9    bbb    H17    266 0.13554100   1.008000   ; qtot 9.250522
  267         h1      9    bbb    H18    267 0.13554100   1.008000   ; qtot 9.386063
  268         os      9    bbb     O1    268 -0.62587700  16.000000   ; qtot 8.760186
  269         hn      9    bbb    H19    269 0.23982500   1.008000   ; qtot 9.000011
; residue   10 bbb rtp bbb q 1.0
  270         n4     10    bbb     N1    270 0.03726400  14.010000   ; qtot 9.037275
  271         c3     10    bbb     C1    271 -0.07020100  12.010000   ; qtot 8.967074
  272         hx     10    bbb     H1    272 0.12219000   1.008000   ; qtot 9.089264
  273         hx     10    bbb     H2    273 0.12219000   1.008000   ; qtot 9.211454
  274         c3     10    bbb     C2    274 -0.07020100  12.010000   ; qtot 9.141253
  275         hx     10    bbb     H3    275 0.12219000   1.008000   ; qtot 9.263443
  276         hx     10    bbb     H4    276 0.12219000   1.008000   ; qtot 9.385633
  277         c3     10    bbb     C3    277 -0.39007700  12.010000   ; qtot 8.995556
  278         hx     10    bbb     H5    278 0.14940300   1.008000   ; qtot 9.144959
  279         hx     10    bbb     H6    279 0.14940300   1.008000   ; qtot 9.294362
  280         c3     10    bbb     C4    280 0.18057300  12.010000   ; qtot 9.474935
  281         hc     10    bbb     H7    281 0.01788900   1.008000   ; qtot 9.492824
  282         hc     10    bbb     H8    282 0.01788900   1.008000   ; qtot 9.510713
  283         c3     10    bbb     C5    283 -0.11337700  12.010000   ; qtot 9.397336
  284         hc     10    bbb     H9    284 0.09515400   1.008000   ; qtot 9.492490
  285         hc     10    bbb    H10    285 0.09515400   1.008000   ; qtot 9.587644
  286         c3     10    bbb     C6    286 -0.11337700  12.010000   ; qtot 9.474267
  287         hc     10    bbb    H11    287 0.09515400   1.008000   ; qtot 9.569421
  288         hc     10    bbb    H12    288 0.09515400   1.008000   ; qtot 9.664575
  289         c3     10    bbb     C7    289 0.21842400  12.010000   ; qtot 9.882999
  290         h1     10    bbb    H13    290 0.04500300   1.008000   ; qtot 9.928002
  291         h1     10    bbb    H14    291 0.04500300   1.008000   ; qtot 9.973005
  292         c3     10    bbb     C8    292 -0.06455200  12.010000   ; qtot 9.908453
  293         h1     10    bbb    H15    293 0.13554100   1.008000   ; qtot 10.043994
  294         h1     10    bbb    H16    294 0.13554100   1.008000   ; qtot 10.179535
  295         c3     10    bbb     C9    295 -0.06455200  12.010000   ; qtot 10.114983
  296         h1     10    bbb    H17    296 0.13554100   1.008000   ; qtot 10.250524
  297         h1     10    bbb    H18    297 0.13554100   1.008000   ; qtot 10.386065
  298         os     10    bbb     O1    298 -0.62587700  16.000000   ; qtot 9.760188
  299         hn     10    bbb    H19    299 0.23982500   1.008000   ; qtot 10.000013
; residue   11 bbb rtp bbb q 1.0
  300         n4     11    bbb     N1    300 0.03726400  14.010000   ; qtot 10.037277
  301         c3     11    bbb     C1    301 -0.07020100  12.010000   ; qtot 9.967076
  302         hx     11    bbb     H1    302 0.12219000   1.008000   ; qtot 10.089266
  303         hx     11    bbb     H2    303 0.12219000   1.008000   ; qtot 10.211456
  304         c3     11    bbb     C2    304 -0.07020100  12.010000   ; qtot 10.141255
  305         hx     11    bbb     H3    305 0.12219000   1.008000   ; qtot 10.263445
  306         hx     11    bbb     H4    306 0.12219000   1.008000   ; qtot 10.385635
  307         c3     11    bbb     C3    307 -0.39007700  12.010000   ; qtot 9.995558
  308         hx     11    bbb     H5    308 0.14940300   1.008000   ; qtot 10.144961
  309         hx     11    bbb     H6    309 0.14940300   1.008000   ; qtot 10.294364
  310         c3     11    bbb     C4    310 0.18057300  12.010000   ; qtot 10.474937
  311         hc     11    bbb     H7    311 0.01788900   1.008000   ; qtot 10.492826
  312         hc     11    bbb     H8    312 0.01788900   1.008000   ; qtot 10.510715
  313         c3     11    bbb     C5    313 -0.11337700  12.010000   ; qtot 10.397338
  314         hc     11    bbb     H9    314 0.09515400   1.008000   ; qtot 10.492492
  315         hc     11    bbb    H10    315 0.09515400   1.008000   ; qtot 10.587646
  316         c3     11    bbb     C6    316 -0.11337700  12.010000   ; qtot 10.474269
  317         hc     11    bbb    H11    317 0.09515400   1.008000   ; qtot 10.569423
  318         hc     11    bbb    H12    318 0.09515400   1.008000   ; qtot 10.664577
  319         c3     11    bbb     C7    319 0.21842400  12.010000   ; qtot 10.883001
  320         h1     11    bbb    H13    320 0.04500300   1.008000   ; qtot 10.928004
  321         h1     11    bbb    H14    321 0.04500300   1.008000   ; qtot 10.973007
  322         c3     11    bbb     C8    322 -0.06455200  12.010000   ; qtot 10.908455
  323         h1     11    bbb    H15    323 0.13554100   1.008000   ; qtot 11.043996
  324         h1     11    bbb    H16    324 0.13554100   1.008000   ; qtot 11.179537
  325         c3     11    bbb     C9    325 -0.06455200  12.010000   ; qtot 11.114985
  326         h1     11    bbb    H17    326 0.13554100   1.008000   ; qtot 11.250526
  327         h1     11    bbb    H18    327 0.13554100   1.008000   ; qtot 11.386067
  328         os     11    bbb     O1    328 -0.62587700  16.000000   ; qtot 10.760190
  329         hn     11    bbb    H19    329 0.23982500   1.008000   ; qtot 11.000015
; residue   12 bbb rtp bbb q 1.0
  330         n4     12    bbb     N1    330 0.03726400  14.010000   ; qtot 11.037279
  331         c3     12    bbb     C1    331 -0.07020100  12.010000   ; qtot 10.967078
  332         hx     12    bbb     H1    332 0.12219000   1.008000   ; qtot 11.089268
  333         hx     12    bbb     H2    333 0.12219000   1.008000   ; qtot 11.211458
  334         c3     12    bbb     C2    334 -0.07020100  12.010000   ; qtot 11.141257
  335         hx     12    bbb     H3    335 0.12219000   1.008000   ; qtot 11.263447
  336         hx     12    bbb     H4    336 0.12219000   1.008000   ; qtot 11.385637
  337         c3     12    bbb     C3    337 -0.39007700  12.010000   ; qtot 10.995560
  338         hx     12    bbb     H5    338 0.14940300   1.008000   ; qtot 11.144963
  339         hx     12    bbb     H6    339 0.14940300   1.008000   ; qtot 11.294366
  340         c3     12    bbb     C4    340 0.18057300  12.010000   ; qtot 11.474939
  341         hc     12    bbb     H7    341 0.01788900   1.008000   ; qtot 11.492828
  342         hc     12    bbb     H8    342 0.01788900   1.008000   ; qtot 11.510717
  343         c3     12    bbb     C5    343 -0.11337700  12.010000   ; qtot 11.397340
  344         hc     12    bbb     H9    344 0.09515400   1.008000   ; qtot 11.492494
  345         hc     12    bbb    H10    345 0.09515400   1.008000   ; qtot 11.587648
  346         c3     12    bbb     C6    346 -0.11337700  12.010000   ; qtot 11.474271
  347         hc     12    bbb    H11    347 0.09515400   1.008000   ; qtot 11.569425
  348         hc     12    bbb    H12    348 0.09515400   1.008000   ; qtot 11.664579
  349         c3     12    bbb     C7    349 0.21842400  12.010000   ; qtot 11.883003
  350         h1     12    bbb    H13    350 0.04500300   1.008000   ; qtot 11.928006
  351         h1     12    bbb    H14    351 0.04500300   1.008000   ; qtot 11.973009
  352         c3     12    bbb     C8    352 -0.06455200  12.010000   ; qtot 11.908457
  353         h1     12    bbb    H15    353 0.13554100   1.008000   ; qtot 12.043998
  354         h1     12    bbb    H16    354 0.13554100   1.008000   ; qtot 12.179539
  355         c3     12    bbb     C9    355 -0.06455200  12.010000   ; qtot 12.114987
  356         h1     12    bbb    H17    356 0.13554100   1.008000   ; qtot 12.250528
  357         h1     12    bbb    H18    357 0.13554100   1.008000   ; qtot 12.386069
  358         os     12    bbb     O1    358 -0.62587700  16.000000   ; qtot 11.760192
  359         hn     12    bbb    H19    359 0.23982500   1.008000   ; qtot 12.000017
; residue   13 bbb rtp bbb q 1.0
  360         n4     13    bbb     N1    360 0.03726400  14.010000   ; qtot 12.037281
  361         c3     13    bbb     C1    361 -0.07020100  12.010000   ; qtot 11.967080
  362         hx     13    bbb     H1    362 0.12219000   1.008000   ; qtot 12.089270
  363         hx     13    bbb     H2    363 0.12219000   1.008000   ; qtot 12.211460
  364         c3     13    bbb     C2    364 -0.07020100  12.010000   ; qtot 12.141259
  365         hx     13    bbb     H3    365 0.12219000   1.008000   ; qtot 12.263449
  366         hx     13    bbb     H4    366 0.12219000   1.008000   ; qtot 12.385639
  367         c3     13    bbb     C3    367 -0.39007700  12.010000   ; qtot 11.995562
  368         hx     13    bbb     H5    368 0.14940300   1.008000   ; qtot 12.144965
  369         hx     13    bbb     H6    369 0.14940300   1.008000   ; qtot 12.294368
  370         c3     13    bbb     C4    370 0.18057300  12.010000   ; qtot 12.474941
  371         hc     13    bbb     H7    371 0.01788900   1.008000   ; qtot 12.492830
  372         hc     13    bbb     H8    372 0.01788900   1.008000   ; qtot 12.510719
  373         c3     13    bbb     C5    373 -0.11337700  12.010000   ; qtot 12.397342
  374         hc     13    bbb     H9    374 0.09515400   1.008000   ; qtot 12.492496
  375         hc     13    bbb    H10    375 0.09515400   1.008000   ; qtot 12.587650
  376         c3     13    bbb     C6    376 -0.11337700  12.010000   ; qtot 12.474273
  377         hc     13    bbb    H11    377 0.09515400   1.008000   ; qtot 12.569427
  378         hc     13    bbb    H12    378 0.09515400   1.008000   ; qtot 12.664581
  379         c3     13    bbb     C7    379 0.21842400  12.010000   ; qtot 12.883005
  380         h1     13    bbb    H13    380 0.04500300   1.008000   ; qtot 12.928008
  381         h1     13    bbb    H14    381 0.04500300   1.008000   ; qtot 12.973011
  382         c3     13    bbb     C8    382 -0.06455200  12.010000   ; qtot 12.908459
  383         h1     13    bbb    H15    383 0.13554100   1.008000   ; qtot 13.044000
  384         h1     13    bbb    H16    384 0.13554100   1.008000   ; qtot 13.179541
  385         c3     13    bbb     C9    385 -0.06455200  12.010000   ; qtot 13.114989
  386         h1     13    bbb    H17    386 0.13554100   1.008000   ; qtot 13.250530
  387         h1     13    bbb    H18    387 0.13554100   1.008000   ; qtot 13.386071
  388         os     13    bbb     O1    388 -0.62587700  16.000000   ; qtot 12.760194
  389         hn     13    bbb    H19    389 0.23982500   1.008000   ; qtot 13.000019
; residue   14 bbb rtp bbb q 1.0
  390         n4     14    bbb     N1    390 0.03726400  14.010000   ; qtot 13.037283
  391         c3     14    bbb     C1    391 -0.07020100  12.010000   ; qtot 12.967082
  392         hx     14    bbb     H1    392 0.12219000   1.008000   ; qtot 13.089272
  393         hx     14    bbb     H2    393 0.12219000   1.008000   ; qtot 13.211462
  394         c3     14    bbb     C2    394 -0.07020100  12.010000   ; qtot 13.141261
  395         hx     14    bbb     H3    395 0.12219000   1.008000   ; qtot 13.263451
  396         hx     14    bbb     H4    396 0.12219000   1.008000   ; qtot 13.385641
  397         c3     14    bbb     C3    397 -0.39007700  12.010000   ; qtot 12.995564
  398         hx     14    bbb     H5    398 0.14940300   1.008000   ; qtot 13.144967
  399         hx     14    bbb     H6    399 0.14940300   1.008000   ; qtot 13.294370
  400         c3     14    bbb     C4    400 0.18057300  12.010000   ; qtot 13.474943
  401         hc     14    bbb     H7    401 0.01788900   1.008000   ; qtot 13.492832
  402         hc     14    bbb     H8    402 0.01788900   1.008000   ; qtot 13.510721
  403         c3     14    bbb     C5    403 -0.11337700  12.010000   ; qtot 13.397344
  404         hc     14    bbb     H9    404 0.09515400   1.008000   ; qtot 13.492498
  405         hc     14    bbb    H10    405 0.09515400   1.008000   ; qtot 13.587652
  406         c3     14    bbb     C6    406 -0.11337700  12.010000   ; qtot 13.474275
  407         hc     14    bbb    H11    407 0.09515400   1.008000   ; qtot 13.569429
  408         hc     14    bbb    H12    408 0.09515400   1.008000   ; qtot 13.664583
  409         c3     14    bbb     C7    409 0.21842400  12.010000   ; qtot 13.883007
  410         h1     14    bbb    H13    410 0.04500300   1.008000   ; qtot 13.928010
  411         h1     14    bbb    H14    411 0.04500300   1.008000   ; qtot 13.973013
  412         c3     14    bbb     C8    412 -0.06455200  12.010000   ; qtot 13.908461
  413         h1     14    bbb    H15    413 0.13554100   1.008000   ; qtot 14.044002
  414         h1     14    bbb    H16    414 0.13554100   1.008000   ; qtot 14.179543
  415         c3     14    bbb     C9    415 -0.06455200  12.010000   ; qtot 14.114991
  416         h1     14    bbb    H17    416 0.13554100   1.008000   ; qtot 14.250532
  417         h1     14    bbb    H18    417 0.13554100   1.008000   ; qtot 14.386073
  418         os     14    bbb     O1    418 -0.62587700  16.000000   ; qtot 13.760196
  419         hn     14    bbb    H19    419 0.23982500   1.008000   ; qtot 14.000021
; residue   15 bbb rtp bbb q 1.0
  420         n4     15    bbb     N1    420 0.03726400  14.010000   ; qtot 14.037285
  421         c3     15    bbb     C1    421 -0.07020100  12.010000   ; qtot 13.967084
  422         hx     15    bbb     H1    422 0.12219000   1.008000   ; qtot 14.089274
  423         hx     15    bbb     H2    423 0.12219000   1.008000   ; qtot 14.211464
  424         c3     15    bbb     C2    424 -0.07020100  12.010000   ; qtot 14.141263
  425         hx     15    bbb     H3    425 0.12219000   1.008000   ; qtot 14.263453
  426         hx     15    bbb     H4    426 0.12219000   1.008000   ; qtot 14.385643
  427         c3     15    bbb     C3    427 -0.39007700  12.010000   ; qtot 13.995566
  428         hx     15    bbb     H5    428 0.14940300   1.008000   ; qtot 14.144969
  429         hx     15    bbb     H6    429 0.14940300   1.008000   ; qtot 14.294372
  430         c3     15    bbb     C4    430 0.18057300  12.010000   ; qtot 14.474945
  431         hc     15    bbb     H7    431 0.01788900   1.008000   ; qtot 14.492834
  432         hc     15    bbb     H8    432 0.01788900   1.008000   ; qtot 14.510723
  433         c3     15    bbb     C5    433 -0.11337700  12.010000   ; qtot 14.397346
  434         hc     15    bbb     H9    434 0.09515400   1.008000   ; qtot 14.492500
  435         hc     15    bbb    H10    435 0.09515400   1.008000   ; qtot 14.587654
  436         c3     15    bbb     C6    436 -0.11337700  12.010000   ; qtot 14.474277
  437         hc     15    bbb    H11    437 0.09515400   1.008000   ; qtot 14.569431
  438         hc     15    bbb    H12    438 0.09515400   1.008000   ; qtot 14.664585
  439         c3     15    bbb     C7    439 0.21842400  12.010000   ; qtot 14.883009
  440         h1     15    bbb    H13    440 0.04500300   1.008000   ; qtot 14.928012
  441         h1     15    bbb    H14    441 0.04500300   1.008000   ; qtot 14.973015
  442         c3     15    bbb     C8    442 -0.06455200  12.010000   ; qtot 14.908463
  443         h1     15    bbb    H15    443 0.13554100   1.008000   ; qtot 15.044004
  444         h1     15    bbb    H16    444 0.13554100   1.008000   ; qtot 15.179545
  445         c3     15    bbb     C9    445 -0.06455200  12.010000   ; qtot 15.114993
  446         h1     15    bbb    H17    446 0.13554100   1.008000   ; qtot 15.250534
  447         h1     15    bbb    H18    447 0.13554100   1.008000   ; qtot 15.386075
  448         os     15    bbb     O1    448 -0.62587700  16.000000   ; qtot 14.760198
  449         hn     15    bbb    H19    449 0.23982500   1.008000   ; qtot 15.000023
; residue   16 bbb rtp bbb q 1.0
  450         n4     16    bbb     N1    450 0.03726400  14.010000   ; qtot 15.037287
  451         c3     16    bbb     C1    451 -0.07020100  12.010000   ; qtot 14.967086
  452         hx     16    bbb     H1    452 0.12219000   1.008000   ; qtot 15.089276
  453         hx     16    bbb     H2    453 0.12219000   1.008000   ; qtot 15.211466
  454         c3     16    bbb     C2    454 -0.07020100  12.010000   ; qtot 15.141265
  455         hx     16    bbb     H3    455 0.12219000   1.008000   ; qtot 15.263455
  456         hx     16    bbb     H4    456 0.12219000   1.008000   ; qtot 15.385645
  457         c3     16    bbb     C3    457 -0.39007700  12.010000   ; qtot 14.995568
  458         hx     16    bbb     H5    458 0.14940300   1.008000   ; qtot 15.144971
  459         hx     16    bbb     H6    459 0.14940300   1.008000   ; qtot 15.294374
  460         c3     16    bbb     C4    460 0.18057300  12.010000   ; qtot 15.474947
  461         hc     16    bbb     H7    461 0.01788900   1.008000   ; qtot 15.492836
  462         hc     16    bbb     H8    462 0.01788900   1.008000   ; qtot 15.510725
  463         c3     16    bbb     C5    463 -0.11337700  12.010000   ; qtot 15.397348
  464         hc     16    bbb     H9    464 0.09515400   1.008000   ; qtot 15.492502
  465         hc     16    bbb    H10    465 0.09515400   1.008000   ; qtot 15.587656
  466         c3     16    bbb     C6    466 -0.11337700  12.010000   ; qtot 15.474279
  467         hc     16    bbb    H11    467 0.09515400   1.008000   ; qtot 15.569433
  468         hc     16    bbb    H12    468 0.09515400   1.008000   ; qtot 15.664587
  469         c3     16    bbb     C7    469 0.21842400  12.010000   ; qtot 15.883011
  470         h1     16    bbb    H13    470 0.04500300   1.008000   ; qtot 15.928014
  471         h1     16    bbb    H14    471 0.04500300   1.008000   ; qtot 15.973017
  472         c3     16    bbb     C8    472 -0.06455200  12.010000   ; qtot 15.908465
  473         h1     16    bbb    H15    473 0.13554100   1.008000   ; qtot 16.044006
  474         h1     16    bbb    H16    474 0.13554100   1.008000   ; qtot 16.179547
  475         c3     16    bbb     C9    475 -0.06455200  12.010000   ; qtot 16.114995
  476         h1     16    bbb    H17    476 0.13554100   1.008000   ; qtot 16.250536
  477         h1     16    bbb    H18    477 0.13554100   1.008000   ; qtot 16.386077
  478         os     16    bbb     O1    478 -0.62587700  16.000000   ; qtot 15.760200
  479         hn     16    bbb    H19    479 0.23982500   1.008000   ; qtot 16.000025
; residue   17 bbb rtp bbb q 1.0
  480         n4     17    bbb     N1    480 0.03726400  14.010000   ; qtot 16.037289
  481         c3     17    bbb     C1    481 -0.07020100  12.010000   ; qtot 15.967088
  482         hx     17    bbb     H1    482 0.12219000   1.008000   ; qtot 16.089278
  483         hx     17    bbb     H2    483 0.12219000   1.008000   ; qtot 16.211468
  484         c3     17    bbb     C2    484 -0.07020100  12.010000   ; qtot 16.141267
  485         hx     17    bbb     H3    485 0.12219000   1.008000   ; qtot 16.263457
  486         hx     17    bbb     H4    486 0.12219000   1.008000   ; qtot 16.385647
  487         c3     17    bbb     C3    487 -0.39007700  12.010000   ; qtot 15.995570
  488         hx     17    bbb     H5    488 0.14940300   1.008000   ; qtot 16.144973
  489         hx     17    bbb     H6    489 0.14940300   1.008000   ; qtot 16.294376
  490         c3     17    bbb     C4    490 0.18057300  12.010000   ; qtot 16.474949
  491         hc     17    bbb     H7    491 0.01788900   1.008000   ; qtot 16.492838
  492         hc     17    bbb     H8    492 0.01788900   1.008000   ; qtot 16.510727
  493         c3     17    bbb     C5    493 -0.11337700  12.010000   ; qtot 16.397350
  494         hc     17    bbb     H9    494 0.09515400   1.008000   ; qtot 16.492504
  495         hc     17    bbb    H10    495 0.09515400   1.008000   ; qtot 16.587658
  496         c3     17    bbb     C6    496 -0.11337700  12.010000   ; qtot 16.474281
  497         hc     17    bbb    H11    497 0.09515400   1.008000   ; qtot 16.569435
  498         hc     17    bbb    H12    498 0.09515400   1.008000   ; qtot 16.664589
  499         c3     17    bbb     C7    499 0.21842400  12.010000   ; qtot 16.883013
  500         h1     17    bbb    H13    500 0.04500300   1.008000   ; qtot 16.928016
  501         h1     17    bbb    H14    501 0.04500300   1.008000   ; qtot 16.973019
  502         c3     17    bbb     C8    502 -0.06455200  12.010000   ; qtot 16.908467
  503         h1     17    bbb    H15    503 0.13554100   1.008000   ; qtot 17.044008
  504         h1     17    bbb    H16    504 0.13554100   1.008000   ; qtot 17.179549
  505         c3     17    bbb     C9    505 -0.06455200  12.010000   ; qtot 17.114997
  506         h1     17    bbb    H17    506 0.13554100   1.008000   ; qtot 17.250538
  507         h1     17    bbb    H18    507 0.13554100   1.008000   ; qtot 17.386079
  508         os     17    bbb     O1    508 -0.62587700  16.000000   ; qtot 16.760202
  509         hn     17    bbb    H19    509 0.23982500   1.008000   ; qtot 17.000027
; residue   18 bbb rtp bbb q 1.0
  510         n4     18    bbb     N1    510 0.03726400  14.010000   ; qtot 17.037291
  511         c3     18    bbb     C1    511 -0.07020100  12.010000   ; qtot 16.967090
  512         hx     18    bbb     H1    512 0.12219000   1.008000   ; qtot 17.089280
  513         hx     18    bbb     H2    513 0.12219000   1.008000   ; qtot 17.211470
  514         c3     18    bbb     C2    514 -0.07020100  12.010000   ; qtot 17.141269
  515         hx     18    bbb     H3    515 0.12219000   1.008000   ; qtot 17.263459
  516         hx     18    bbb     H4    516 0.12219000   1.008000   ; qtot 17.385649
  517         c3     18    bbb     C3    517 -0.39007700  12.010000   ; qtot 16.995572
  518         hx     18    bbb     H5    518 0.14940300   1.008000   ; qtot 17.144975
  519         hx     18    bbb     H6    519 0.14940300   1.008000   ; qtot 17.294378
  520         c3     18    bbb     C4    520 0.18057300  12.010000   ; qtot 17.474951
  521         hc     18    bbb     H7    521 0.01788900   1.008000   ; qtot 17.492840
  522         hc     18    bbb     H8    522 0.01788900   1.008000   ; qtot 17.510729
  523         c3     18    bbb     C5    523 -0.11337700  12.010000   ; qtot 17.397352
  524         hc     18    bbb     H9    524 0.09515400   1.008000   ; qtot 17.492506
  525         hc     18    bbb    H10    525 0.09515400   1.008000   ; qtot 17.587660
  526         c3     18    bbb     C6    526 -0.11337700  12.010000   ; qtot 17.474283
  527         hc     18    bbb    H11    527 0.09515400   1.008000   ; qtot 17.569437
  528         hc     18    bbb    H12    528 0.09515400   1.008000   ; qtot 17.664591
  529         c3     18    bbb     C7    529 0.21842400  12.010000   ; qtot 17.883015
  530         h1     18    bbb    H13    530 0.04500300   1.008000   ; qtot 17.928018
  531         h1     18    bbb    H14    531 0.04500300   1.008000   ; qtot 17.973021
  532         c3     18    bbb     C8    532 -0.06455200  12.010000   ; qtot 17.908469
  533         h1     18    bbb    H15    533 0.13554100   1.008000   ; qtot 18.044010
  534         h1     18    bbb    H16    534 0.13554100   1.008000   ; qtot 18.179551
  535         c3     18    bbb     C9    535 -0.06455200  12.010000   ; qtot 18.114999
  536         h1     18    bbb    H17    536 0.13554100   1.008000   ; qtot 18.250540
  537         h1     18    bbb    H18    537 0.13554100   1.008000   ; qtot 18.386081
  538         os     18    bbb     O1    538 -0.62587700  16.000000   ; qtot 17.760204
  539         hn     18    bbb    H19    539 0.23982500   1.008000   ; qtot 18.000029
; residue   19 bbb rtp bbb q 1.0
  540         n4     19    bbb     N1    540 0.03726400  14.010000   ; qtot 18.037293
  541         c3     19    bbb     C1    541 -0.07020100  12.010000   ; qtot 17.967092
  542         hx     19    bbb     H1    542 0.12219000   1.008000   ; qtot 18.089282
  543         hx     19    bbb     H2    543 0.12219000   1.008000   ; qtot 18.211472
  544         c3     19    bbb     C2    544 -0.07020100  12.010000   ; qtot 18.141271
  545         hx     19    bbb     H3    545 0.12219000   1.008000   ; qtot 18.263461
  546         hx     19    bbb     H4    546 0.12219000   1.008000   ; qtot 18.385651
  547         c3     19    bbb     C3    547 -0.39007700  12.010000   ; qtot 17.995574
  548         hx     19    bbb     H5    548 0.14940300   1.008000   ; qtot 18.144977
  549         hx     19    bbb     H6    549 0.14940300   1.008000   ; qtot 18.294380
  550         c3     19    bbb     C4    550 0.18057300  12.010000   ; qtot 18.474953
  551         hc     19    bbb     H7    551 0.01788900   1.008000   ; qtot 18.492842
  552         hc     19    bbb     H8    552 0.01788900   1.008000   ; qtot 18.510731
  553         c3     19    bbb     C5    553 -0.11337700  12.010000   ; qtot 18.397354
  554         hc     19    bbb     H9    554 0.09515400   1.008000   ; qtot 18.492508
  555         hc     19    bbb    H10    555 0.09515400   1.008000   ; qtot 18.587662
  556         c3     19    bbb     C6    556 -0.11337700  12.010000   ; qtot 18.474285
  557         hc     19    bbb    H11    557 0.09515400   1.008000   ; qtot 18.569439
  558         hc     19    bbb    H12    558 0.09515400   1.008000   ; qtot 18.664593
  559         c3     19    bbb     C7    559 0.21842400  12.010000   ; qtot 18.883017
  560         h1     19    bbb    H13    560 0.04500300   1.008000   ; qtot 18.928020
  561         h1     19    bbb    H14    561 0.04500300   1.008000   ; qtot 18.973023
  562         c3     19    bbb     C8    562 -0.06455200  12.010000   ; qtot 18.908471
  563         h1     19    bbb    H15    563 0.13554100   1.008000   ; qtot 19.044012
  564         h1     19    bbb    H16    564 0.13554100   1.008000   ; qtot 19.179553
  565         c3     19    bbb     C9    565 -0.06455200  12.010000   ; qtot 19.115001
  566         h1     19    bbb    H17    566 0.13554100   1.008000   ; qtot 19.250542
  567         h1     19    bbb    H18    567 0.13554100   1.008000   ; qtot 19.386083
  568         os     19    bbb     O1    568 -0.62587700  16.000000   ; qtot 18.760206
  569         hn     19    bbb    H19    569 0.23982500   1.008000   ; qtot 19.000031
; residue   20 bbb rtp bbb q 1.0
  570         n4     20    bbb     N1    570 0.03726400  14.010000   ; qtot 19.037295
  571         c3     20    bbb     C1    571 -0.07020100  12.010000   ; qtot 18.967094
  572         hx     20    bbb     H1    572 0.12219000   1.008000   ; qtot 19.089284
  573         hx     20    bbb     H2    573 0.12219000   1.008000   ; qtot 19.211474
  574         c3     20    bbb     C2    574 -0.07020100  12.010000   ; qtot 19.141273
  575         hx     20    bbb     H3    575 0.12219000   1.008000   ; qtot 19.263463
  576         hx     20    bbb     H4    576 0.12219000   1.008000   ; qtot 19.385653
  577         c3     20    bbb     C3    577 -0.39007700  12.010000   ; qtot 18.995576
  578         hx     20    bbb     H5    578 0.14940300   1.008000   ; qtot 19.144979
  579         hx     20    bbb     H6    579 0.14940300   1.008000   ; qtot 19.294382
  580         c3     20    bbb     C4    580 0.18057300  12.010000   ; qtot 19.474955
  581         hc     20    bbb     H7    581 0.01788900   1.008000   ; qtot 19.492844
  582         hc     20    bbb     H8    582 0.01788900   1.008000   ; qtot 19.510733
  583         c3     20    bbb     C5    583 -0.11337700  12.010000   ; qtot 19.397356
  584         hc     20    bbb     H9    584 0.09515400   1.008000   ; qtot 19.492510
  585         hc     20    bbb    H10    585 0.09515400   1.008000   ; qtot 19.587664
  586         c3     20    bbb     C6    586 -0.11337700  12.010000   ; qtot 19.474287
  587         hc     20    bbb    H11    587 0.09515400   1.008000   ; qtot 19.569441
  588         hc     20    bbb    H12    588 0.09515400   1.008000   ; qtot 19.664595
  589         c3     20    bbb     C7    589 0.21842400  12.010000   ; qtot 19.883019
  590         h1     20    bbb    H13    590 0.04500300   1.008000   ; qtot 19.928022
  591         h1     20    bbb    H14    591 0.04500300   1.008000   ; qtot 19.973025
  592         c3     20    bbb     C8    592 -0.06455200  12.010000   ; qtot 19.908473
  593         h1     20    bbb    H15    593 0.13554100   1.008000   ; qtot 20.044014
  594         h1     20    bbb    H16    594 0.13554100   1.008000   ; qtot 20.179555
  595         c3     20    bbb     C9    595 -0.06455200  12.010000   ; qtot 20.115003
  596         h1     20    bbb    H17    596 0.13554100   1.008000   ; qtot 20.250544
  597         h1     20    bbb    H18    597 0.13554100   1.008000   ; qtot 20.386085
  598         os     20    bbb     O1    598 -0.62587700  16.000000   ; qtot 19.760208
  599         hn     20    bbb    H19    599 0.23982500   1.008000   ; qtot 20.000033
; residue   21 bbb rtp bbb q 1.0
  600         n4     21    bbb     N1    600 0.03726400  14.010000   ; qtot 20.037297
  601         c3     21    bbb     C1    601 -0.07020100  12.010000   ; qtot 19.967096
  602         hx     21    bbb     H1    602 0.12219000   1.008000   ; qtot 20.089286
  603         hx     21    bbb     H2    603 0.12219000   1.008000   ; qtot 20.211476
  604         c3     21    bbb     C2    604 -0.07020100  12.010000   ; qtot 20.141275
  605         hx     21    bbb     H3    605 0.12219000   1.008000   ; qtot 20.263465
  606         hx     21    bbb     H4    606 0.12219000   1.008000   ; qtot 20.385655
  607         c3     21    bbb     C3    607 -0.39007700  12.010000   ; qtot 19.995578
  608         hx     21    bbb     H5    608 0.14940300   1.008000   ; qtot 20.144981
  609         hx     21    bbb     H6    609 0.14940300   1.008000   ; qtot 20.294384
  610         c3     21    bbb     C4    610 0.18057300  12.010000   ; qtot 20.474957
  611         hc     21    bbb     H7    611 0.01788900   1.008000   ; qtot 20.492846
  612         hc     21    bbb     H8    612 0.01788900   1.008000   ; qtot 20.510735
  613         c3     21    bbb     C5    613 -0.11337700  12.010000   ; qtot 20.397358
  614         hc     21    bbb     H9    614 0.09515400   1.008000   ; qtot 20.492512
  615         hc     21    bbb    H10    615 0.09515400   1.008000   ; qtot 20.587666
  616         c3     21    bbb     C6    616 -0.11337700  12.010000   ; qtot 20.474289
  617         hc     21    bbb    H11    617 0.09515400   1.008000   ; qtot 20.569443
  618         hc     21    bbb    H12    618 0.09515400   1.008000   ; qtot 20.664597
  619         c3     21    bbb     C7    619 0.21842400  12.010000   ; qtot 20.883021
  620         h1     21    bbb    H13    620 0.04500300   1.008000   ; qtot 20.928024
  621         h1     21    bbb    H14    621 0.04500300   1.008000   ; qtot 20.973027
  622         c3     21    bbb     C8    622 -0.06455200  12.010000   ; qtot 20.908475
  623         h1     21    bbb    H15    623 0.13554100   1.008000   ; qtot 21.044016
  624         h1     21    bbb    H16    624 0.13554100   1.008000   ; qtot 21.179557
  625         c3     21    bbb     C9    625 -0.06455200  12.010000   ; qtot 21.115005
  626         h1     21    bbb    H17    626 0.13554100   1.008000   ; qtot 21.250546
  627         h1     21    bbb    H18    627 0.13554100   1.008000   ; qtot 21.386087
  628         os     21    bbb     O1    628 -0.62587700  16.000000   ; qtot 20.760210
  629         hn     21    bbb    H19    629 0.23982500   1.008000   ; qtot 21.000035
; residue   22 bbb rtp bbb q 1.0
  630         n4     22    bbb     N1    630 0.03726400  14.010000   ; qtot 21.037299
  631         c3     22    bbb     C1    631 -0.07020100  12.010000   ; qtot 20.967098
  632         hx     22    bbb     H1    632 0.12219000   1.008000   ; qtot 21.089288
  633         hx     22    bbb     H2    633 0.12219000   1.008000   ; qtot 21.211478
  634         c3     22    bbb     C2    634 -0.07020100  12.010000   ; qtot 21.141277
  635         hx     22    bbb     H3    635 0.12219000   1.008000   ; qtot 21.263467
  636         hx     22    bbb     H4    636 0.12219000   1.008000   ; qtot 21.385657
  637         c3     22    bbb     C3    637 -0.39007700  12.010000   ; qtot 20.995580
  638         hx     22    bbb     H5    638 0.14940300   1.008000   ; qtot 21.144983
  639         hx     22    bbb     H6    639 0.14940300   1.008000   ; qtot 21.294386
  640         c3     22    bbb     C4    640 0.18057300  12.010000   ; qtot 21.474959
  641         hc     22    bbb     H7    641 0.01788900   1.008000   ; qtot 21.492848
  642         hc     22    bbb     H8    642 0.01788900   1.008000   ; qtot 21.510737
  643         c3     22    bbb     C5    643 -0.11337700  12.010000   ; qtot 21.397360
  644         hc     22    bbb     H9    644 0.09515400   1.008000   ; qtot 21.492514
  645         hc     22    bbb    H10    645 0.09515400   1.008000   ; qtot 21.587668
  646         c3     22    bbb     C6    646 -0.11337700  12.010000   ; qtot 21.474291
  647         hc     22    bbb    H11    647 0.09515400   1.008000   ; qtot 21.569445
  648         hc     22    bbb    H12    648 0.09515400   1.008000   ; qtot 21.664599
  649         c3     22    bbb     C7    649 0.21842400  12.010000   ; qtot 21.883023
  650         h1     22    bbb    H13    650 0.04500300   1.008000   ; qtot 21.928026
  651         h1     22    bbb    H14    651 0.04500300   1.008000   ; qtot 21.973029
  652         c3     22    bbb     C8    652 -0.06455200  12.010000   ; qtot 21.908477
  653         h1     22    bbb    H15    653 0.13554100   1.008000   ; qtot 22.044018
  654         h1     22    bbb    H16    654 0.13554100   1.008000   ; qtot 22.179559
  655         c3     22    bbb     C9    655 -0.06455200  12.010000   ; qtot 22.115007
  656         h1     22    bbb    H17    656 0.13554100   1.008000   ; qtot 22.250548
  657         h1     22    bbb    H18    657 0.13554100   1.008000   ; qtot 22.386089
  658         os     22    bbb     O1    658 -0.62587700  16.000000   ; qtot 21.760212
  659         hn     22    bbb    H19    659 0.23982500   1.008000   ; qtot 22.000037
; residue   23 bbb rtp bbb q 1.0
  660         n4     23    bbb     N1    660 0.03726400  14.010000   ; qtot 22.037301
  661         c3     23    bbb     C1    661 -0.07020100  12.010000   ; qtot 21.967100
  662         hx     23    bbb     H1    662 0.12219000   1.008000   ; qtot 22.089290
  663         hx     23    bbb     H2    663 0.12219000   1.008000   ; qtot 22.211480
  664         c3     23    bbb     C2    664 -0.07020100  12.010000   ; qtot 22.141279
  665         hx     23    bbb     H3    665 0.12219000   1.008000   ; qtot 22.263469
  666         hx     23    bbb     H4    666 0.12219000   1.008000   ; qtot 22.385659
  667         c3     23    bbb     C3    667 -0.39007700  12.010000   ; qtot 21.995582
  668         hx     23    bbb     H5    668 0.14940300   1.008000   ; qtot 22.144985
  669         hx     23    bbb     H6    669 0.14940300   1.008000   ; qtot 22.294388
  670         c3     23    bbb     C4    670 0.18057300  12.010000   ; qtot 22.474961
  671         hc     23    bbb     H7    671 0.01788900   1.008000   ; qtot 22.492850
  672         hc     23    bbb     H8    672 0.01788900   1.008000   ; qtot 22.510739
  673         c3     23    bbb     C5    673 -0.11337700  12.010000   ; qtot 22.397362
  674         hc     23    bbb     H9    674 0.09515400   1.008000   ; qtot 22.492516
  675         hc     23    bbb    H10    675 0.09515400   1.008000   ; qtot 22.587670
  676         c3     23    bbb     C6    676 -0.11337700  12.010000   ; qtot 22.474293
  677         hc     23    bbb    H11    677 0.09515400   1.008000   ; qtot 22.569447
  678         hc     23    bbb    H12    678 0.09515400   1.008000   ; qtot 22.664601
  679         c3     23    bbb     C7    679 0.21842400  12.010000   ; qtot 22.883025
  680         h1     23    bbb    H13    680 0.04500300   1.008000   ; qtot 22.928028
  681         h1     23    bbb    H14    681 0.04500300   1.008000   ; qtot 22.973031
  682         c3     23    bbb     C8    682 -0.06455200  12.010000   ; qtot 22.908479
  683         h1     23    bbb    H15    683 0.13554100   1.008000   ; qtot 23.044020
  684         h1     23    bbb    H16    684 0.13554100   1.008000   ; qtot 23.179561
  685         c3     23    bbb     C9    685 -0.06455200  12.010000   ; qtot 23.115009
  686         h1     23    bbb    H17    686 0.13554100   1.008000   ; qtot 23.250550
  687         h1     23    bbb    H18    687 0.13554100   1.008000   ; qtot 23.386091
  688         os     23    bbb     O1    688 -0.62587700  16.000000   ; qtot 22.760214
  689         hn     23    bbb    H19    689 0.23982500   1.008000   ; qtot 23.000039
; residue   24 bbb rtp bbb q 1.0
  690         n4     24    bbb     N1    690 0.03726400  14.010000   ; qtot 23.037303
  691         c3     24    bbb     C1    691 -0.07020100  12.010000   ; qtot 22.967102
  692         hx     24    bbb     H1    692 0.12219000   1.008000   ; qtot 23.089292
  693         hx     24    bbb     H2    693 0.12219000   1.008000   ; qtot 23.211482
  694         c3     24    bbb     C2    694 -0.07020100  12.010000   ; qtot 23.141281
  695         hx     24    bbb     H3    695 0.12219000   1.008000   ; qtot 23.263471
  696         hx     24    bbb     H4    696 0.12219000   1.008000   ; qtot 23.385661
  697         c3     24    bbb     C3    697 -0.39007700  12.010000   ; qtot 22.995584
  698         hx     24    bbb     H5    698 0.14940300   1.008000   ; qtot 23.144987
  699         hx     24    bbb     H6    699 0.14940300   1.008000   ; qtot 23.294390
  700         c3     24    bbb     C4    700 0.18057300  12.010000   ; qtot 23.474963
  701         hc     24    bbb     H7    701 0.01788900   1.008000   ; qtot 23.492852
  702         hc     24    bbb     H8    702 0.01788900   1.008000   ; qtot 23.510741
  703         c3     24    bbb     C5    703 -0.11337700  12.010000   ; qtot 23.397364
  704         hc     24    bbb     H9    704 0.09515400   1.008000   ; qtot 23.492518
  705         hc     24    bbb    H10    705 0.09515400   1.008000   ; qtot 23.587672
  706         c3     24    bbb     C6    706 -0.11337700  12.010000   ; qtot 23.474295
  707         hc     24    bbb    H11    707 0.09515400   1.008000   ; qtot 23.569449
  708         hc     24    bbb    H12    708 0.09515400   1.008000   ; qtot 23.664603
  709         c3     24    bbb     C7    709 0.21842400  12.010000   ; qtot 23.883027
  710         h1     24    bbb    H13    710 0.04500300   1.008000   ; qtot 23.928030
  711         h1     24    bbb    H14    711 0.04500300   1.008000   ; qtot 23.973033
  712         c3     24    bbb     C8    712 -0.06455200  12.010000   ; qtot 23.908481
  713         h1     24    bbb    H15    713 0.13554100   1.008000   ; qtot 24.044022
  714         h1     24    bbb    H16    714 0.13554100   1.008000   ; qtot 24.179563
  715         c3     24    bbb     C9    715 -0.06455200  12.010000   ; qtot 24.115011
  716         h1     24    bbb    H17    716 0.13554100   1.008000   ; qtot 24.250552
  717         h1     24    bbb    H18    717 0.13554100   1.008000   ; qtot 24.386093
  718         os     24    bbb     O1    718 -0.62587700  16.000000   ; qtot 23.760216
  719         hn     24    bbb    H19    719 0.23982500   1.008000   ; qtot 24.000041
; residue   25 bbb rtp bbb q 1.0
  720         n4     25    bbb     N1    720 0.03726400  14.010000   ; qtot 24.037305
  721         c3     25    bbb     C1    721 -0.07020100  12.010000   ; qtot 23.967104
  722         hx     25    bbb     H1    722 0.12219000   1.008000   ; qtot 24.089294
  723         hx     25    bbb     H2    723 0.12219000   1.008000   ; qtot 24.211484
  724         c3     25    bbb     C2    724 -0.07020100  12.010000   ; qtot 24.141283
  725         hx     25    bbb     H3    725 0.12219000   1.008000   ; qtot 24.263473
  726         hx     25    bbb     H4    726 0.12219000   1.008000   ; qtot 24.385663
  727         c3     25    bbb     C3    727 -0.39007700  12.010000   ; qtot 23.995586
  728         hx     25    bbb     H5    728 0.14940300   1.008000   ; qtot 24.144989
  729         hx     25    bbb     H6    729 0.14940300   1.008000   ; qtot 24.294392
  730         c3     25    bbb     C4    730 0.18057300  12.010000   ; qtot 24.474965
  731         hc     25    bbb     H7    731 0.01788900   1.008000   ; qtot 24.492854
  732         hc     25    bbb     H8    732 0.01788900   1.008000   ; qtot 24.510743
  733         c3     25    bbb     C5    733 -0.11337700  12.010000   ; qtot 24.397366
  734         hc     25    bbb     H9    734 0.09515400   1.008000   ; qtot 24.492520
  735         hc     25    bbb    H10    735 0.09515400   1.008000   ; qtot 24.587674
  736         c3     25    bbb     C6    736 -0.11337700  12.010000   ; qtot 24.474297
  737         hc     25    bbb    H11    737 0.09515400   1.008000   ; qtot 24.569451
  738         hc     25    bbb    H12    738 0.09515400   1.008000   ; qtot 24.664605
  739         c3     25    bbb     C7    739 0.21842400  12.010000   ; qtot 24.883029
  740         h1     25    bbb    H13    740 0.04500300   1.008000   ; qtot 24.928032
  741         h1     25    bbb    H14    741 0.04500300   1.008000   ; qtot 24.973035
  742         c3     25    bbb     C8    742 -0.06455200  12.010000   ; qtot 24.908483
  743         h1     25    bbb    H15    743 0.13554100   1.008000   ; qtot 25.044024
  744         h1     25    bbb    H16    744 0.13554100   1.008000   ; qtot 25.179565
  745         c3     25    bbb     C9    745 -0.06455200  12.010000   ; qtot 25.115013
  746         h1     25    bbb    H17    746 0.13554100   1.008000   ; qtot 25.250554
  747         h1     25    bbb    H18    747 0.13554100   1.008000   ; qtot 25.386095
  748         os     25    bbb     O1    748 -0.62587700  16.000000   ; qtot 24.760218
  749         hn     25    bbb    H19    749 0.23982500   1.008000   ; qtot 25.000043
; residue   26 bbb rtp bbb q 1.0
  750         n4     26    bbb     N1    750 0.03726400  14.010000   ; qtot 25.037307
  751         c3     26    bbb     C1    751 -0.07020100  12.010000   ; qtot 24.967106
  752         hx     26    bbb     H1    752 0.12219000   1.008000   ; qtot 25.089296
  753         hx     26    bbb     H2    753 0.12219000   1.008000   ; qtot 25.211486
  754         c3     26    bbb     C2    754 -0.07020100  12.010000   ; qtot 25.141285
  755         hx     26    bbb     H3    755 0.12219000   1.008000   ; qtot 25.263475
  756         hx     26    bbb     H4    756 0.12219000   1.008000   ; qtot 25.385665
  757         c3     26    bbb     C3    757 -0.39007700  12.010000   ; qtot 24.995588
  758         hx     26    bbb     H5    758 0.14940300   1.008000   ; qtot 25.144991
  759         hx     26    bbb     H6    759 0.14940300   1.008000   ; qtot 25.294394
  760         c3     26    bbb     C4    760 0.18057300  12.010000   ; qtot 25.474967
  761         hc     26    bbb     H7    761 0.01788900   1.008000   ; qtot 25.492856
  762         hc     26    bbb     H8    762 0.01788900   1.008000   ; qtot 25.510745
  763         c3     26    bbb     C5    763 -0.11337700  12.010000   ; qtot 25.397368
  764         hc     26    bbb     H9    764 0.09515400   1.008000   ; qtot 25.492522
  765         hc     26    bbb    H10    765 0.09515400   1.008000   ; qtot 25.587676
  766         c3     26    bbb     C6    766 -0.11337700  12.010000   ; qtot 25.474299
  767         hc     26    bbb    H11    767 0.09515400   1.008000   ; qtot 25.569453
  768         hc     26    bbb    H12    768 0.09515400   1.008000   ; qtot 25.664607
  769         c3     26    bbb     C7    769 0.21842400  12.010000   ; qtot 25.883031
  770         h1     26    bbb    H13    770 0.04500300   1.008000   ; qtot 25.928034
  771         h1     26    bbb    H14    771 0.04500300   1.008000   ; qtot 25.973037
  772         c3     26    bbb     C8    772 -0.06455200  12.010000   ; qtot 25.908485
  773         h1     26    bbb    H15    773 0.13554100   1.008000   ; qtot 26.044026
  774         h1     26    bbb    H16    774 0.13554100   1.008000   ; qtot 26.179567
  775         c3     26    bbb     C9    775 -0.06455200  12.010000   ; qtot 26.115015
  776         h1     26    bbb    H17    776 0.13554100   1.008000   ; qtot 26.250556
  777         h1     26    bbb    H18    777 0.13554100   1.008000   ; qtot 26.386097
  778         os     26    bbb     O1    778 -0.62587700  16.000000   ; qtot 25.760220
  779         hn     26    bbb    H19    779 0.23982500   1.008000   ; qtot 26.000045
; residue   27 bbb rtp bbb q 1.0
  780         n4     27    bbb     N1    780 0.03726400  14.010000   ; qtot 26.037309
  781         c3     27    bbb     C1    781 -0.07020100  12.010000   ; qtot 25.967108
  782         hx     27    bbb     H1    782 0.12219000   1.008000   ; qtot 26.089298
  783         hx     27    bbb     H2    783 0.12219000   1.008000   ; qtot 26.211488
  784         c3     27    bbb     C2    784 -0.07020100  12.010000   ; qtot 26.141287
  785         hx     27    bbb     H3    785 0.12219000   1.008000   ; qtot 26.263477
  786         hx     27    bbb     H4    786 0.12219000   1.008000   ; qtot 26.385667
  787         c3     27    bbb     C3    787 -0.39007700  12.010000   ; qtot 25.995590
  788         hx     27    bbb     H5    788 0.14940300   1.008000   ; qtot 26.144993
  789         hx     27    bbb     H6    789 0.14940300   1.008000   ; qtot 26.294396
  790         c3     27    bbb     C4    790 0.18057300  12.010000   ; qtot 26.474969
  791         hc     27    bbb     H7    791 0.01788900   1.008000   ; qtot 26.492858
  792         hc     27    bbb     H8    792 0.01788900   1.008000   ; qtot 26.510747
  793         c3     27    bbb     C5    793 -0.11337700  12.010000   ; qtot 26.397370
  794         hc     27    bbb     H9    794 0.09515400   1.008000   ; qtot 26.492524
  795         hc     27    bbb    H10    795 0.09515400   1.008000   ; qtot 26.587678
  796         c3     27    bbb     C6    796 -0.11337700  12.010000   ; qtot 26.474301
  797         hc     27    bbb    H11    797 0.09515400   1.008000   ; qtot 26.569455
  798         hc     27    bbb    H12    798 0.09515400   1.008000   ; qtot 26.664609
  799         c3     27    bbb     C7    799 0.21842400  12.010000   ; qtot 26.883033
  800         h1     27    bbb    H13    800 0.04500300   1.008000   ; qtot 26.928036
  801         h1     27    bbb    H14    801 0.04500300   1.008000   ; qtot 26.973039
  802         c3     27    bbb     C8    802 -0.06455200  12.010000   ; qtot 26.908487
  803         h1     27    bbb    H15    803 0.13554100   1.008000   ; qtot 27.044028
  804         h1     27    bbb    H16    804 0.13554100   1.008000   ; qtot 27.179569
  805         c3     27    bbb     C9    805 -0.06455200  12.010000   ; qtot 27.115017
  806         h1     27    bbb    H17    806 0.13554100   1.008000   ; qtot 27.250558
  807         h1     27    bbb    H18    807 0.13554100   1.008000   ; qtot 27.386099
  808         os     27    bbb     O1    808 -0.62587700  16.000000   ; qtot 26.760222
  809         hn     27    bbb    H19    809 0.23982500   1.008000   ; qtot 27.000047
; residue   28 bbb rtp bbb q 1.0
  810         n4     28    bbb     N1    810 0.03726400  14.010000   ; qtot 27.037311
  811         c3     28    bbb     C1    811 -0.07020100  12.010000   ; qtot 26.967110
  812         hx     28    bbb     H1    812 0.12219000   1.008000   ; qtot 27.089300
  813         hx     28    bbb     H2    813 0.12219000   1.008000   ; qtot 27.211490
  814         c3     28    bbb     C2    814 -0.07020100  12.010000   ; qtot 27.141289
  815         hx     28    bbb     H3    815 0.12219000   1.008000   ; qtot 27.263479
  816         hx     28    bbb     H4    816 0.12219000   1.008000   ; qtot 27.385669
  817         c3     28    bbb     C3    817 -0.39007700  12.010000   ; qtot 26.995592
  818         hx     28    bbb     H5    818 0.14940300   1.008000   ; qtot 27.144995
  819         hx     28    bbb     H6    819 0.14940300   1.008000   ; qtot 27.294398
  820         c3     28    bbb     C4    820 0.18057300  12.010000   ; qtot 27.474971
  821         hc     28    bbb     H7    821 0.01788900   1.008000   ; qtot 27.492860
  822         hc     28    bbb     H8    822 0.01788900   1.008000   ; qtot 27.510749
  823         c3     28    bbb     C5    823 -0.11337700  12.010000   ; qtot 27.397372
  824         hc     28    bbb     H9    824 0.09515400   1.008000   ; qtot 27.492526
  825         hc     28    bbb    H10    825 0.09515400   1.008000   ; qtot 27.587680
  826         c3     28    bbb     C6    826 -0.11337700  12.010000   ; qtot 27.474303
  827         hc     28    bbb    H11    827 0.09515400   1.008000   ; qtot 27.569457
  828         hc     28    bbb    H12    828 0.09515400   1.008000   ; qtot 27.664611
  829         c3     28    bbb     C7    829 0.21842400  12.010000   ; qtot 27.883035
  830         h1     28    bbb    H13    830 0.04500300   1.008000   ; qtot 27.928038
  831         h1     28    bbb    H14    831 0.04500300   1.008000   ; qtot 27.973041
  832         c3     28    bbb     C8    832 -0.06455200  12.010000   ; qtot 27.908489
  833         h1     28    bbb    H15    833 0.13554100   1.008000   ; qtot 28.044030
  834         h1     28    bbb    H16    834 0.13554100   1.008000   ; qtot 28.179571
  835         c3     28    bbb     C9    835 -0.06455200  12.010000   ; qtot 28.115019
  836         h1     28    bbb    H17    836 0.13554100   1.008000   ; qtot 28.250560
  837         h1     28    bbb    H18    837 0.13554100   1.008000   ; qtot 28.386101
  838         os     28    bbb     O1    838 -0.62587700  16.000000   ; qtot 27.760224
  839         hn     28    bbb    H19    839 0.23982500   1.008000   ; qtot 28.000049
; residue   29 bbb rtp bbb q 1.0
  840         n4     29    bbb     N1    840 0.03726400  14.010000   ; qtot 28.037313
  841         c3     29    bbb     C1    841 -0.07020100  12.010000   ; qtot 27.967112
  842         hx     29    bbb     H1    842 0.12219000   1.008000   ; qtot 28.089302
  843         hx     29    bbb     H2    843 0.12219000   1.008000   ; qtot 28.211492
  844         c3     29    bbb     C2    844 -0.07020100  12.010000   ; qtot 28.141291
  845         hx     29    bbb     H3    845 0.12219000   1.008000   ; qtot 28.263481
  846         hx     29    bbb     H4    846 0.12219000   1.008000   ; qtot 28.385671
  847         c3     29    bbb     C3    847 -0.39007700  12.010000   ; qtot 27.995594
  848         hx     29    bbb     H5    848 0.14940300   1.008000   ; qtot 28.144997
  849         hx     29    bbb     H6    849 0.14940300   1.008000   ; qtot 28.294400
  850         c3     29    bbb     C4    850 0.18057300  12.010000   ; qtot 28.474973
  851         hc     29    bbb     H7    851 0.01788900   1.008000   ; qtot 28.492862
  852         hc     29    bbb     H8    852 0.01788900   1.008000   ; qtot 28.510751
  853         c3     29    bbb     C5    853 -0.11337700  12.010000   ; qtot 28.397374
  854         hc     29    bbb     H9    854 0.09515400   1.008000   ; qtot 28.492528
  855         hc     29    bbb    H10    855 0.09515400   1.008000   ; qtot 28.587682
  856         c3     29    bbb     C6    856 -0.11337700  12.010000   ; qtot 28.474305
  857         hc     29    bbb    H11    857 0.09515400   1.008000   ; qtot 28.569459
  858         hc     29    bbb    H12    858 0.09515400   1.008000   ; qtot 28.664613
  859         c3     29    bbb     C7    859 0.21842400  12.010000   ; qtot 28.883037
  860         h1     29    bbb    H13    860 0.04500300   1.008000   ; qtot 28.928040
  861         h1     29    bbb    H14    861 0.04500300   1.008000   ; qtot 28.973043
  862         c3     29    bbb     C8    862 -0.06455200  12.010000   ; qtot 28.908491
  863         h1     29    bbb    H15    863 0.13554100   1.008000   ; qtot 29.044032
  864         h1     29    bbb    H16    864 0.13554100   1.008000   ; qtot 29.179573
  865         c3     29    bbb     C9    865 -0.06455200  12.010000   ; qtot 29.115021
  866         h1     29    bbb    H17    866 0.13554100   1.008000   ; qtot 29.250562
  867         h1     29    bbb    H18    867 0.13554100   1.008000   ; qtot 29.386103
  868         os     29    bbb     O1    868 -0.62587700  16.000000   ; qtot 28.760226
  869         hn     29    bbb    H19    869 0.23982500   1.008000   ; qtot 29.000051
; residue   30 bbb rtp bbb q 1.0
  870         n4     30    bbb     N1    870 0.03726400  14.010000   ; qtot 29.037315
  871         c3     30    bbb     C1    871 -0.07020100  12.010000   ; qtot 28.967114
  872         hx     30    bbb     H1    872 0.12219000   1.008000   ; qtot 29.089304
  873         hx     30    bbb     H2    873 0.12219000   1.008000   ; qtot 29.211494
  874         c3     30    bbb     C2    874 -0.07020100  12.010000   ; qtot 29.141293
  875         hx     30    bbb     H3    875 0.12219000   1.008000   ; qtot 29.263483
  876         hx     30    bbb     H4    876 0.12219000   1.008000   ; qtot 29.385673
  877         c3     30    bbb     C3    877 -0.39007700  12.010000   ; qtot 28.995596
  878         hx     30    bbb     H5    878 0.14940300   1.008000   ; qtot 29.144999
  879         hx     30    bbb     H6    879 0.14940300   1.008000   ; qtot 29.294402
  880         c3     30    bbb     C4    880 0.18057300  12.010000   ; qtot 29.474975
  881         hc     30    bbb     H7    881 0.01788900   1.008000   ; qtot 29.492864
  882         hc     30    bbb     H8    882 0.01788900   1.008000   ; qtot 29.510753
  883         c3     30    bbb     C5    883 -0.11337700  12.010000   ; qtot 29.397376
  884         hc     30    bbb     H9    884 0.09515400   1.008000   ; qtot 29.492530
  885         hc     30    bbb    H10    885 0.09515400   1.008000   ; qtot 29.587684
  886         c3     30    bbb     C6    886 -0.11337700  12.010000   ; qtot 29.474307
  887         hc     30    bbb    H11    887 0.09515400   1.008000   ; qtot 29.569461
  888         hc     30    bbb    H12    888 0.09515400   1.008000   ; qtot 29.664615
  889         c3     30    bbb     C7    889 0.21842400  12.010000   ; qtot 29.883039
  890         h1     30    bbb    H13    890 0.04500300   1.008000   ; qtot 29.928042
  891         h1     30    bbb    H14    891 0.04500300   1.008000   ; qtot 29.973045
  892         c3     30    bbb     C8    892 -0.06455200  12.010000   ; qtot 29.908493
  893         h1     30    bbb    H15    893 0.13554100   1.008000   ; qtot 30.044034
  894         h1     30    bbb    H16    894 0.13554100   1.008000   ; qtot 30.179575
  895         c3     30    bbb     C9    895 -0.06455200  12.010000   ; qtot 30.115023
  896         h1     30    bbb    H17    896 0.13554100   1.008000   ; qtot 30.250564
  897         h1     30    bbb    H18    897 0.13554100   1.008000   ; qtot 30.386105
  898         os     30    bbb     O1    898 -0.62587700  16.000000   ; qtot 29.760228
  899         hn     30    bbb    H19    899 0.23982500   1.008000   ; qtot 30.000053
; residue   31 bbb rtp bbb q 1.0
  900         n4     31    bbb     N1    900 0.03726400  14.010000   ; qtot 30.037317
  901         c3     31    bbb     C1    901 -0.07020100  12.010000   ; qtot 29.967116
  902         hx     31    bbb     H1    902 0.12219000   1.008000   ; qtot 30.089306
  903         hx     31    bbb     H2    903 0.12219000   1.008000   ; qtot 30.211496
  904         c3     31    bbb     C2    904 -0.07020100  12.010000   ; qtot 30.141295
  905         hx     31    bbb     H3    905 0.12219000   1.008000   ; qtot 30.263485
  906         hx     31    bbb     H4    906 0.12219000   1.008000   ; qtot 30.385675
  907         c3     31    bbb     C3    907 -0.39007700  12.010000   ; qtot 29.995598
  908         hx     31    bbb     H5    908 0.14940300   1.008000   ; qtot 30.145001
  909         hx     31    bbb     H6    909 0.14940300   1.008000   ; qtot 30.294404
  910         c3     31    bbb     C4    910 0.18057300  12.010000   ; qtot 30.474977
  911         hc     31    bbb     H7    911 0.01788900   1.008000   ; qtot 30.492866
  912         hc     31    bbb     H8    912 0.01788900   1.008000   ; qtot 30.510755
  913         c3     31    bbb     C5    913 -0.11337700  12.010000   ; qtot 30.397378
  914         hc     31    bbb     H9    914 0.09515400   1.008000   ; qtot 30.492532
  915         hc     31    bbb    H10    915 0.09515400   1.008000   ; qtot 30.587686
  916         c3     31    bbb     C6    916 -0.11337700  12.010000   ; qtot 30.474309
  917         hc     31    bbb    H11    917 0.09515400   1.008000   ; qtot 30.569463
  918         hc     31    bbb    H12    918 0.09515400   1.008000   ; qtot 30.664617
  919         c3     31    bbb     C7    919 0.21842400  12.010000   ; qtot 30.883041
  920         h1     31    bbb    H13    920 0.04500300   1.008000   ; qtot 30.928044
  921         h1     31    bbb    H14    921 0.04500300   1.008000   ; qtot 30.973047
  922         c3     31    bbb     C8    922 -0.06455200  12.010000   ; qtot 30.908495
  923         h1     31    bbb    H15    923 0.13554100   1.008000   ; qtot 31.044036
  924         h1     31    bbb    H16    924 0.13554100   1.008000   ; qtot 31.179577
  925         c3     31    bbb     C9    925 -0.06455200  12.010000   ; qtot 31.115025
  926         h1     31    bbb    H17    926 0.13554100   1.008000   ; qtot 31.250566
  927         h1     31    bbb    H18    927 0.13554100   1.008000   ; qtot 31.386107
  928         os     31    bbb     O1    928 -0.62587700  16.000000   ; qtot 30.760230
  929         hn     31    bbb    H19    929 0.23982500   1.008000   ; qtot 31.000055
; residue   32 bbb rtp bbb q 1.0
  930         n4     32    bbb     N1    930 0.03726400  14.010000   ; qtot 31.037319
  931         c3     32    bbb     C1    931 -0.07020100  12.010000   ; qtot 30.967118
  932         hx     32    bbb     H1    932 0.12219000   1.008000   ; qtot 31.089308
  933         hx     32    bbb     H2    933 0.12219000   1.008000   ; qtot 31.211498
  934         c3     32    bbb     C2    934 -0.07020100  12.010000   ; qtot 31.141297
  935         hx     32    bbb     H3    935 0.12219000   1.008000   ; qtot 31.263487
  936         hx     32    bbb     H4    936 0.12219000   1.008000   ; qtot 31.385677
  937         c3     32    bbb     C3    937 -0.39007700  12.010000   ; qtot 30.995600
  938         hx     32    bbb     H5    938 0.14940300   1.008000   ; qtot 31.145003
  939         hx     32    bbb     H6    939 0.14940300   1.008000   ; qtot 31.294406
  940         c3     32    bbb     C4    940 0.18057300  12.010000   ; qtot 31.474979
  941         hc     32    bbb     H7    941 0.01788900   1.008000   ; qtot 31.492868
  942         hc     32    bbb     H8    942 0.01788900   1.008000   ; qtot 31.510757
  943         c3     32    bbb     C5    943 -0.11337700  12.010000   ; qtot 31.397380
  944         hc     32    bbb     H9    944 0.09515400   1.008000   ; qtot 31.492534
  945         hc     32    bbb    H10    945 0.09515400   1.008000   ; qtot 31.587688
  946         c3     32    bbb     C6    946 -0.11337700  12.010000   ; qtot 31.474311
  947         hc     32    bbb    H11    947 0.09515400   1.008000   ; qtot 31.569465
  948         hc     32    bbb    H12    948 0.09515400   1.008000   ; qtot 31.664619
  949         c3     32    bbb     C7    949 0.21842400  12.010000   ; qtot 31.883043
  950         h1     32    bbb    H13    950 0.04500300   1.008000   ; qtot 31.928046
  951         h1     32    bbb    H14    951 0.04500300   1.008000   ; qtot 31.973049
  952         c3     32    bbb     C8    952 -0.06455200  12.010000   ; qtot 31.908497
  953         h1     32    bbb    H15    953 0.13554100   1.008000   ; qtot 32.044038
  954         h1     32    bbb    H16    954 0.13554100   1.008000   ; qtot 32.179579
  955         c3     32    bbb     C9    955 -0.06455200  12.010000   ; qtot 32.115027
  956         h1     32    bbb    H17    956 0.13554100   1.008000   ; qtot 32.250568
  957         h1     32    bbb    H18    957 0.13554100   1.008000   ; qtot 32.386109
  958         os     32    bbb     O1    958 -0.62587700  16.000000   ; qtot 31.760232
  959         hn     32    bbb    H19    959 0.23982500   1.008000   ; qtot 32.000057
; residue   33 bbb rtp bbb q 1.0
  960         n4     33    bbb     N1    960 0.03726400  14.010000   ; qtot 32.037321
  961         c3     33    bbb     C1    961 -0.07020100  12.010000   ; qtot 31.967120
  962         hx     33    bbb     H1    962 0.12219000   1.008000   ; qtot 32.089310
  963         hx     33    bbb     H2    963 0.12219000   1.008000   ; qtot 32.211500
  964         c3     33    bbb     C2    964 -0.07020100  12.010000   ; qtot 32.141299
  965         hx     33    bbb     H3    965 0.12219000   1.008000   ; qtot 32.263489
  966         hx     33    bbb     H4    966 0.12219000   1.008000   ; qtot 32.385679
  967         c3     33    bbb     C3    967 -0.39007700  12.010000   ; qtot 31.995602
  968         hx     33    bbb     H5    968 0.14940300   1.008000   ; qtot 32.145005
  969         hx     33    bbb     H6    969 0.14940300   1.008000   ; qtot 32.294408
  970         c3     33    bbb     C4    970 0.18057300  12.010000   ; qtot 32.474981
  971         hc     33    bbb     H7    971 0.01788900   1.008000   ; qtot 32.492870
  972         hc     33    bbb     H8    972 0.01788900   1.008000   ; qtot 32.510759
  973         c3     33    bbb     C5    973 -0.11337700  12.010000   ; qtot 32.397382
  974         hc     33    bbb     H9    974 0.09515400   1.008000   ; qtot 32.492536
  975         hc     33    bbb    H10    975 0.09515400   1.008000   ; qtot 32.587690
  976         c3     33    bbb     C6    976 -0.11337700  12.010000   ; qtot 32.474313
  977         hc     33    bbb    H11    977 0.09515400   1.008000   ; qtot 32.569467
  978         hc     33    bbb    H12    978 0.09515400   1.008000   ; qtot 32.664621
  979         c3     33    bbb     C7    979 0.21842400  12.010000   ; qtot 32.883045
  980         h1     33    bbb    H13    980 0.04500300   1.008000   ; qtot 32.928048
  981         h1     33    bbb    H14    981 0.04500300   1.008000   ; qtot 32.973051
  982         c3     33    bbb     C8    982 -0.06455200  12.010000   ; qtot 32.908499
  983         h1     33    bbb    H15    983 0.13554100   1.008000   ; qtot 33.044040
  984         h1     33    bbb    H16    984 0.13554100   1.008000   ; qtot 33.179581
  985         c3     33    bbb     C9    985 -0.06455200  12.010000   ; qtot 33.115029
  986         h1     33    bbb    H17    986 0.13554100   1.008000   ; qtot 33.250570
  987         h1     33    bbb    H18    987 0.13554100   1.008000   ; qtot 33.386111
  988         os     33    bbb     O1    988 -0.62587700  16.000000   ; qtot 32.760234
  989         hn     33    bbb    H19    989 0.23982500   1.008000   ; qtot 33.000059
; residue   34 bbb rtp bbb q 1.0
  990         n4     34    bbb     N1    990 0.03726400  14.010000   ; qtot 33.037323
  991         c3     34    bbb     C1    991 -0.07020100  12.010000   ; qtot 32.967122
  992         hx     34    bbb     H1    992 0.12219000   1.008000   ; qtot 33.089312
  993         hx     34    bbb     H2    993 0.12219000   1.008000   ; qtot 33.211502
  994         c3     34    bbb     C2    994 -0.07020100  12.010000   ; qtot 33.141301
  995         hx     34    bbb     H3    995 0.12219000   1.008000   ; qtot 33.263491
  996         hx     34    bbb     H4    996 0.12219000   1.008000   ; qtot 33.385681
  997         c3     34    bbb     C3    997 -0.39007700  12.010000   ; qtot 32.995604
  998         hx     34    bbb     H5    998 0.14940300   1.008000   ; qtot 33.145007
  999         hx     34    bbb     H6    999 0.14940300   1.008000   ; qtot 33.294410
 1000         c3     34    bbb     C4   1000 0.18057300  12.010000   ; qtot 33.474983
 1001         hc     34    bbb     H7   1001 0.01788900   1.008000   ; qtot 33.492872
 1002         hc     34    bbb     H8   1002 0.01788900   1.008000   ; qtot 33.510761
 1003         c3     34    bbb     C5   1003 -0.11337700  12.010000   ; qtot 33.397384
 1004         hc     34    bbb     H9   1004 0.09515400   1.008000   ; qtot 33.492538
 1005         hc     34    bbb    H10   1005 0.09515400   1.008000   ; qtot 33.587692
 1006         c3     34    bbb     C6   1006 -0.11337700  12.010000   ; qtot 33.474315
 1007         hc     34    bbb    H11   1007 0.09515400   1.008000   ; qtot 33.569469
 1008         hc     34    bbb    H12   1008 0.09515400   1.008000   ; qtot 33.664623
 1009         c3     34    bbb     C7   1009 0.21842400  12.010000   ; qtot 33.883047
 1010         h1     34    bbb    H13   1010 0.04500300   1.008000   ; qtot 33.928050
 1011         h1     34    bbb    H14   1011 0.04500300   1.008000   ; qtot 33.973053
 1012         c3     34    bbb     C8   1012 -0.06455200  12.010000   ; qtot 33.908501
 1013         h1     34    bbb    H15   1013 0.13554100   1.008000   ; qtot 34.044042
 1014         h1     34    bbb    H16   1014 0.13554100   1.008000   ; qtot 34.179583
 1015         c3     34    bbb     C9   1015 -0.06455200  12.010000   ; qtot 34.115031
 1016         h1     34    bbb    H17   1016 0.13554100   1.008000   ; qtot 34.250572
 1017         h1     34    bbb    H18   1017 0.13554100   1.008000   ; qtot 34.386113
 1018         os     34    bbb     O1   1018 -0.62587700  16.000000   ; qtot 33.760236
 1019         hn     34    bbb    H19   1019 0.23982500   1.008000   ; qtot 34.000061
; residue   35 bbb rtp bbb q 1.0
 1020         n4     35    bbb     N1   1020 0.03726400  14.010000   ; qtot 34.037325
 1021         c3     35    bbb     C1   1021 -0.07020100  12.010000   ; qtot 33.967124
 1022         hx     35    bbb     H1   1022 0.12219000   1.008000   ; qtot 34.089314
 1023         hx     35    bbb     H2   1023 0.12219000   1.008000   ; qtot 34.211504
 1024         c3     35    bbb     C2   1024 -0.07020100  12.010000   ; qtot 34.141303
 1025         hx     35    bbb     H3   1025 0.12219000   1.008000   ; qtot 34.263493
 1026         hx     35    bbb     H4   1026 0.12219000   1.008000   ; qtot 34.385683
 1027         c3     35    bbb     C3   1027 -0.39007700  12.010000   ; qtot 33.995606
 1028         hx     35    bbb     H5   1028 0.14940300   1.008000   ; qtot 34.145009
 1029         hx     35    bbb     H6   1029 0.14940300   1.008000   ; qtot 34.294412
 1030         c3     35    bbb     C4   1030 0.18057300  12.010000   ; qtot 34.474985
 1031         hc     35    bbb     H7   1031 0.01788900   1.008000   ; qtot 34.492874
 1032         hc     35    bbb     H8   1032 0.01788900   1.008000   ; qtot 34.510763
 1033         c3     35    bbb     C5   1033 -0.11337700  12.010000   ; qtot 34.397386
 1034         hc     35    bbb     H9   1034 0.09515400   1.008000   ; qtot 34.492540
 1035         hc     35    bbb    H10   1035 0.09515400   1.008000   ; qtot 34.587694
 1036         c3     35    bbb     C6   1036 -0.11337700  12.010000   ; qtot 34.474317
 1037         hc     35    bbb    H11   1037 0.09515400   1.008000   ; qtot 34.569471
 1038         hc     35    bbb    H12   1038 0.09515400   1.008000   ; qtot 34.664625
 1039         c3     35    bbb     C7   1039 0.21842400  12.010000   ; qtot 34.883049
 1040         h1     35    bbb    H13   1040 0.04500300   1.008000   ; qtot 34.928052
 1041         h1     35    bbb    H14   1041 0.04500300   1.008000   ; qtot 34.973055
 1042         c3     35    bbb     C8   1042 -0.06455200  12.010000   ; qtot 34.908503
 1043         h1     35    bbb    H15   1043 0.13554100   1.008000   ; qtot 35.044044
 1044         h1     35    bbb    H16   1044 0.13554100   1.008000   ; qtot 35.179585
 1045         c3     35    bbb     C9   1045 -0.06455200  12.010000   ; qtot 35.115033
 1046         h1     35    bbb    H17   1046 0.13554100   1.008000   ; qtot 35.250574
 1047         h1     35    bbb    H18   1047 0.13554100   1.008000   ; qtot 35.386115
 1048         os     35    bbb     O1   1048 -0.62587700  16.000000   ; qtot 34.760238
 1049         hn     35    bbb    H19   1049 0.23982500   1.008000   ; qtot 35.000063
; residue   36 bbb rtp bbb q 1.0
 1050         n4     36    bbb     N1   1050 0.03726400  14.010000   ; qtot 35.037327
 1051         c3     36    bbb     C1   1051 -0.07020100  12.010000   ; qtot 34.967126
 1052         hx     36    bbb     H1   1052 0.12219000   1.008000   ; qtot 35.089316
 1053         hx     36    bbb     H2   1053 0.12219000   1.008000   ; qtot 35.211506
 1054         c3     36    bbb     C2   1054 -0.07020100  12.010000   ; qtot 35.141305
 1055         hx     36    bbb     H3   1055 0.12219000   1.008000   ; qtot 35.263495
 1056         hx     36    bbb     H4   1056 0.12219000   1.008000   ; qtot 35.385685
 1057         c3     36    bbb     C3   1057 -0.39007700  12.010000   ; qtot 34.995608
 1058         hx     36    bbb     H5   1058 0.14940300   1.008000   ; qtot 35.145011
 1059         hx     36    bbb     H6   1059 0.14940300   1.008000   ; qtot 35.294414
 1060         c3     36    bbb     C4   1060 0.18057300  12.010000   ; qtot 35.474987
 1061         hc     36    bbb     H7   1061 0.01788900   1.008000   ; qtot 35.492876
 1062         hc     36    bbb     H8   1062 0.01788900   1.008000   ; qtot 35.510765
 1063         c3     36    bbb     C5   1063 -0.11337700  12.010000   ; qtot 35.397388
 1064         hc     36    bbb     H9   1064 0.09515400   1.008000   ; qtot 35.492542
 1065         hc     36    bbb    H10   1065 0.09515400   1.008000   ; qtot 35.587696
 1066         c3     36    bbb     C6   1066 -0.11337700  12.010000   ; qtot 35.474319
 1067         hc     36    bbb    H11   1067 0.09515400   1.008000   ; qtot 35.569473
 1068         hc     36    bbb    H12   1068 0.09515400   1.008000   ; qtot 35.664627
 1069         c3     36    bbb     C7   1069 0.21842400  12.010000   ; qtot 35.883051
 1070         h1     36    bbb    H13   1070 0.04500300   1.008000   ; qtot 35.928054
 1071         h1     36    bbb    H14   1071 0.04500300   1.008000   ; qtot 35.973057
 1072         c3     36    bbb     C8   1072 -0.06455200  12.010000   ; qtot 35.908505
 1073         h1     36    bbb    H15   1073 0.13554100   1.008000   ; qtot 36.044046
 1074         h1     36    bbb    H16   1074 0.13554100   1.008000   ; qtot 36.179587
 1075         c3     36    bbb     C9   1075 -0.06455200  12.010000   ; qtot 36.115035
 1076         h1     36    bbb    H17   1076 0.13554100   1.008000   ; qtot 36.250576
 1077         h1     36    bbb    H18   1077 0.13554100   1.008000   ; qtot 36.386117
 1078         os     36    bbb     O1   1078 -0.62587700  16.000000   ; qtot 35.760240
 1079         hn     36    bbb    H19   1079 0.23982500   1.008000   ; qtot 36.000065
; residue   37 bbb rtp bbb q 1.0
 1080         n4     37    bbb     N1   1080 0.03726400  14.010000   ; qtot 36.037329
 1081         c3     37    bbb     C1   1081 -0.07020100  12.010000   ; qtot 35.967128
 1082         hx     37    bbb     H1   1082 0.12219000   1.008000   ; qtot 36.089318
 1083         hx     37    bbb     H2   1083 0.12219000   1.008000   ; qtot 36.211508
 1084         c3     37    bbb     C2   1084 -0.07020100  12.010000   ; qtot 36.141307
 1085         hx     37    bbb     H3   1085 0.12219000   1.008000   ; qtot 36.263497
 1086         hx     37    bbb     H4   1086 0.12219000   1.008000   ; qtot 36.385687
 1087         c3     37    bbb     C3   1087 -0.39007700  12.010000   ; qtot 35.995610
 1088         hx     37    bbb     H5   1088 0.14940300   1.008000   ; qtot 36.145013
 1089         hx     37    bbb     H6   1089 0.14940300   1.008000   ; qtot 36.294416
 1090         c3     37    bbb     C4   1090 0.18057300  12.010000   ; qtot 36.474989
 1091         hc     37    bbb     H7   1091 0.01788900   1.008000   ; qtot 36.492878
 1092         hc     37    bbb     H8   1092 0.01788900   1.008000   ; qtot 36.510767
 1093         c3     37    bbb     C5   1093 -0.11337700  12.010000   ; qtot 36.397390
 1094         hc     37    bbb     H9   1094 0.09515400   1.008000   ; qtot 36.492544
 1095         hc     37    bbb    H10   1095 0.09515400   1.008000   ; qtot 36.587698
 1096         c3     37    bbb     C6   1096 -0.11337700  12.010000   ; qtot 36.474321
 1097         hc     37    bbb    H11   1097 0.09515400   1.008000   ; qtot 36.569475
 1098         hc     37    bbb    H12   1098 0.09515400   1.008000   ; qtot 36.664629
 1099         c3     37    bbb     C7   1099 0.21842400  12.010000   ; qtot 36.883053
 1100         h1     37    bbb    H13   1100 0.04500300   1.008000   ; qtot 36.928056
 1101         h1     37    bbb    H14   1101 0.04500300   1.008000   ; qtot 36.973059
 1102         c3     37    bbb     C8   1102 -0.06455200  12.010000   ; qtot 36.908507
 1103         h1     37    bbb    H15   1103 0.13554100   1.008000   ; qtot 37.044048
 1104         h1     37    bbb    H16   1104 0.13554100   1.008000   ; qtot 37.179589
 1105         c3     37    bbb     C9   1105 -0.06455200  12.010000   ; qtot 37.115037
 1106         h1     37    bbb    H17   1106 0.13554100   1.008000   ; qtot 37.250578
 1107         h1     37    bbb    H18   1107 0.13554100   1.008000   ; qtot 37.386119
 1108         os     37    bbb     O1   1108 -0.62587700  16.000000   ; qtot 36.760242
 1109         hn     37    bbb    H19   1109 0.23982500   1.008000   ; qtot 37.000067
; residue   38 bbb rtp bbb q 1.0
 1110         n4     38    bbb     N1   1110 0.03726400  14.010000   ; qtot 37.037331
 1111         c3     38    bbb     C1   1111 -0.07020100  12.010000   ; qtot 36.967130
 1112         hx     38    bbb     H1   1112 0.12219000   1.008000   ; qtot 37.089320
 1113         hx     38    bbb     H2   1113 0.12219000   1.008000   ; qtot 37.211510
 1114         c3     38    bbb     C2   1114 -0.07020100  12.010000   ; qtot 37.141309
 1115         hx     38    bbb     H3   1115 0.12219000   1.008000   ; qtot 37.263499
 1116         hx     38    bbb     H4   1116 0.12219000   1.008000   ; qtot 37.385689
 1117         c3     38    bbb     C3   1117 -0.39007700  12.010000   ; qtot 36.995612
 1118         hx     38    bbb     H5   1118 0.14940300   1.008000   ; qtot 37.145015
 1119         hx     38    bbb     H6   1119 0.14940300   1.008000   ; qtot 37.294418
 1120         c3     38    bbb     C4   1120 0.18057300  12.010000   ; qtot 37.474991
 1121         hc     38    bbb     H7   1121 0.01788900   1.008000   ; qtot 37.492880
 1122         hc     38    bbb     H8   1122 0.01788900   1.008000   ; qtot 37.510769
 1123         c3     38    bbb     C5   1123 -0.11337700  12.010000   ; qtot 37.397392
 1124         hc     38    bbb     H9   1124 0.09515400   1.008000   ; qtot 37.492546
 1125         hc     38    bbb    H10   1125 0.09515400   1.008000   ; qtot 37.587700
 1126         c3     38    bbb     C6   1126 -0.11337700  12.010000   ; qtot 37.474323
 1127         hc     38    bbb    H11   1127 0.09515400   1.008000   ; qtot 37.569477
 1128         hc     38    bbb    H12   1128 0.09515400   1.008000   ; qtot 37.664631
 1129         c3     38    bbb     C7   1129 0.21842400  12.010000   ; qtot 37.883055
 1130         h1     38    bbb    H13   1130 0.04500300   1.008000   ; qtot 37.928058
 1131         h1     38    bbb    H14   1131 0.04500300   1.008000   ; qtot 37.973061
 1132         c3     38    bbb     C8   1132 -0.06455200  12.010000   ; qtot 37.908509
 1133         h1     38    bbb    H15   1133 0.13554100   1.008000   ; qtot 38.044050
 1134         h1     38    bbb    H16   1134 0.13554100   1.008000   ; qtot 38.179591
 1135         c3     38    bbb     C9   1135 -0.06455200  12.010000   ; qtot 38.115039
 1136         h1     38    bbb    H17   1136 0.13554100   1.008000   ; qtot 38.250580
 1137         h1     38    bbb    H18   1137 0.13554100   1.008000   ; qtot 38.386121
 1138         os     38    bbb     O1   1138 -0.62587700  16.000000   ; qtot 37.760244
 1139         hn     38    bbb    H19   1139 0.23982500   1.008000   ; qtot 38.000069
; residue   39 bbb rtp bbb q 1.0
 1140         n4     39    bbb     N1   1140 0.03726400  14.010000   ; qtot 38.037333
 1141         c3     39    bbb     C1   1141 -0.07020100  12.010000   ; qtot 37.967132
 1142         hx     39    bbb     H1   1142 0.12219000   1.008000   ; qtot 38.089322
 1143         hx     39    bbb     H2   1143 0.12219000   1.008000   ; qtot 38.211512
 1144         c3     39    bbb     C2   1144 -0.07020100  12.010000   ; qtot 38.141311
 1145         hx     39    bbb     H3   1145 0.12219000   1.008000   ; qtot 38.263501
 1146         hx     39    bbb     H4   1146 0.12219000   1.008000   ; qtot 38.385691
 1147         c3     39    bbb     C3   1147 -0.39007700  12.010000   ; qtot 37.995614
 1148         hx     39    bbb     H5   1148 0.14940300   1.008000   ; qtot 38.145017
 1149         hx     39    bbb     H6   1149 0.14940300   1.008000   ; qtot 38.294420
 1150         c3     39    bbb     C4   1150 0.18057300  12.010000   ; qtot 38.474993
 1151         hc     39    bbb     H7   1151 0.01788900   1.008000   ; qtot 38.492882
 1152         hc     39    bbb     H8   1152 0.01788900   1.008000   ; qtot 38.510771
 1153         c3     39    bbb     C5   1153 -0.11337700  12.010000   ; qtot 38.397394
 1154         hc     39    bbb     H9   1154 0.09515400   1.008000   ; qtot 38.492548
 1155         hc     39    bbb    H10   1155 0.09515400   1.008000   ; qtot 38.587702
 1156         c3     39    bbb     C6   1156 -0.11337700  12.010000   ; qtot 38.474325
 1157         hc     39    bbb    H11   1157 0.09515400   1.008000   ; qtot 38.569479
 1158         hc     39    bbb    H12   1158 0.09515400   1.008000   ; qtot 38.664633
 1159         c3     39    bbb     C7   1159 0.21842400  12.010000   ; qtot 38.883057
 1160         h1     39    bbb    H13   1160 0.04500300   1.008000   ; qtot 38.928060
 1161         h1     39    bbb    H14   1161 0.04500300   1.008000   ; qtot 38.973063
 1162         c3     39    bbb     C8   1162 -0.06455200  12.010000   ; qtot 38.908511
 1163         h1     39    bbb    H15   1163 0.13554100   1.008000   ; qtot 39.044052
 1164         h1     39    bbb    H16   1164 0.13554100   1.008000   ; qtot 39.179593
 1165         c3     39    bbb     C9   1165 -0.06455200  12.010000   ; qtot 39.115041
 1166         h1     39    bbb    H17   1166 0.13554100   1.008000   ; qtot 39.250582
 1167         h1     39    bbb    H18   1167 0.13554100   1.008000   ; qtot 39.386123
 1168         os     39    bbb     O1   1168 -0.62587700  16.000000   ; qtot 38.760246
 1169         hn     39    bbb    H19   1169 0.23982500   1.008000   ; qtot 39.000071
; residue   40 bbb rtp bbb q 1.0
 1170         n4     40    bbb     N1   1170 0.03726400  14.010000   ; qtot 39.037335
 1171         c3     40    bbb     C1   1171 -0.07020100  12.010000   ; qtot 38.967134
 1172         hx     40    bbb     H1   1172 0.12219000   1.008000   ; qtot 39.089324
 1173         hx     40    bbb     H2   1173 0.12219000   1.008000   ; qtot 39.211514
 1174         c3     40    bbb     C2   1174 -0.07020100  12.010000   ; qtot 39.141313
 1175         hx     40    bbb     H3   1175 0.12219000   1.008000   ; qtot 39.263503
 1176         hx     40    bbb     H4   1176 0.12219000   1.008000   ; qtot 39.385693
 1177         c3     40    bbb     C3   1177 -0.39007700  12.010000   ; qtot 38.995616
 1178         hx     40    bbb     H5   1178 0.14940300   1.008000   ; qtot 39.145019
 1179         hx     40    bbb     H6   1179 0.14940300   1.008000   ; qtot 39.294422
 1180         c3     40    bbb     C4   1180 0.18057300  12.010000   ; qtot 39.474995
 1181         hc     40    bbb     H7   1181 0.01788900   1.008000   ; qtot 39.492884
 1182         hc     40    bbb     H8   1182 0.01788900   1.008000   ; qtot 39.510773
 1183         c3     40    bbb     C5   1183 -0.11337700  12.010000   ; qtot 39.397396
 1184         hc     40    bbb     H9   1184 0.09515400   1.008000   ; qtot 39.492550
 1185         hc     40    bbb    H10   1185 0.09515400   1.008000   ; qtot 39.587704
 1186         c3     40    bbb     C6   1186 -0.11337700  12.010000   ; qtot 39.474327
 1187         hc     40    bbb    H11   1187 0.09515400   1.008000   ; qtot 39.569481
 1188         hc     40    bbb    H12   1188 0.09515400   1.008000   ; qtot 39.664635
 1189         c3     40    bbb     C7   1189 0.21842400  12.010000   ; qtot 39.883059
 1190         h1     40    bbb    H13   1190 0.04500300   1.008000   ; qtot 39.928062
 1191         h1     40    bbb    H14   1191 0.04500300   1.008000   ; qtot 39.973065
 1192         c3     40    bbb     C8   1192 -0.06455200  12.010000   ; qtot 39.908513
 1193         h1     40    bbb    H15   1193 0.13554100   1.008000   ; qtot 40.044054
 1194         h1     40    bbb    H16   1194 0.13554100   1.008000   ; qtot 40.179595
 1195         c3     40    bbb     C9   1195 -0.06455200  12.010000   ; qtot 40.115043
 1196         h1     40    bbb    H17   1196 0.13554100   1.008000   ; qtot 40.250584
 1197         h1     40    bbb    H18   1197 0.13554100   1.008000   ; qtot 40.386125
 1198         os     40    bbb     O1   1198 -0.62587700  16.000000   ; qtot 39.760248
 1199         hn     40    bbb    H19   1199 0.23982500   1.008000   ; qtot 40.000073
; residue   41 bbb rtp bbb q 1.0
 1200         n4     41    bbb     N1   1200 0.03726400  14.010000   ; qtot 40.037337
 1201         c3     41    bbb     C1   1201 -0.07020100  12.010000   ; qtot 39.967136
 1202         hx     41    bbb     H1   1202 0.12219000   1.008000   ; qtot 40.089326
 1203         hx     41    bbb     H2   1203 0.12219000   1.008000   ; qtot 40.211516
 1204         c3     41    bbb     C2   1204 -0.07020100  12.010000   ; qtot 40.141315
 1205         hx     41    bbb     H3   1205 0.12219000   1.008000   ; qtot 40.263505
 1206         hx     41    bbb     H4   1206 0.12219000   1.008000   ; qtot 40.385695
 1207         c3     41    bbb     C3   1207 -0.39007700  12.010000   ; qtot 39.995618
 1208         hx     41    bbb     H5   1208 0.14940300   1.008000   ; qtot 40.145021
 1209         hx     41    bbb     H6   1209 0.14940300   1.008000   ; qtot 40.294424
 1210         c3     41    bbb     C4   1210 0.18057300  12.010000   ; qtot 40.474997
 1211         hc     41    bbb     H7   1211 0.01788900   1.008000   ; qtot 40.492886
 1212         hc     41    bbb     H8   1212 0.01788900   1.008000   ; qtot 40.510775
 1213         c3     41    bbb     C5   1213 -0.11337700  12.010000   ; qtot 40.397398
 1214         hc     41    bbb     H9   1214 0.09515400   1.008000   ; qtot 40.492552
 1215         hc     41    bbb    H10   1215 0.09515400   1.008000   ; qtot 40.587706
 1216         c3     41    bbb     C6   1216 -0.11337700  12.010000   ; qtot 40.474329
 1217         hc     41    bbb    H11   1217 0.09515400   1.008000   ; qtot 40.569483
 1218         hc     41    bbb    H12   1218 0.09515400   1.008000   ; qtot 40.664637
 1219         c3     41    bbb     C7   1219 0.21842400  12.010000   ; qtot 40.883061
 1220         h1     41    bbb    H13   1220 0.04500300   1.008000   ; qtot 40.928064
 1221         h1     41    bbb    H14   1221 0.04500300   1.008000   ; qtot 40.973067
 1222         c3     41    bbb     C8   1222 -0.06455200  12.010000   ; qtot 40.908515
 1223         h1     41    bbb    H15   1223 0.13554100   1.008000   ; qtot 41.044056
 1224         h1     41    bbb    H16   1224 0.13554100   1.008000   ; qtot 41.179597
 1225         c3     41    bbb     C9   1225 -0.06455200  12.010000   ; qtot 41.115045
 1226         h1     41    bbb    H17   1226 0.13554100   1.008000   ; qtot 41.250586
 1227         h1     41    bbb    H18   1227 0.13554100   1.008000   ; qtot 41.386127
 1228         os     41    bbb     O1   1228 -0.62587700  16.000000   ; qtot 40.760250
 1229         hn     41    bbb    H19   1229 0.23982500   1.008000   ; qtot 41.000075
; residue   42 bbb rtp bbb q 1.0
 1230         n4     42    bbb     N1   1230 0.03726400  14.010000   ; qtot 41.037339
 1231         c3     42    bbb     C1   1231 -0.07020100  12.010000   ; qtot 40.967138
 1232         hx     42    bbb     H1   1232 0.12219000   1.008000   ; qtot 41.089328
 1233         hx     42    bbb     H2   1233 0.12219000   1.008000   ; qtot 41.211518
 1234         c3     42    bbb     C2   1234 -0.07020100  12.010000   ; qtot 41.141317
 1235         hx     42    bbb     H3   1235 0.12219000   1.008000   ; qtot 41.263507
 1236         hx     42    bbb     H4   1236 0.12219000   1.008000   ; qtot 41.385697
 1237         c3     42    bbb     C3   1237 -0.39007700  12.010000   ; qtot 40.995620
 1238         hx     42    bbb     H5   1238 0.14940300   1.008000   ; qtot 41.145023
 1239         hx     42    bbb     H6   1239 0.14940300   1.008000   ; qtot 41.294426
 1240         c3     42    bbb     C4   1240 0.18057300  12.010000   ; qtot 41.474999
 1241         hc     42    bbb     H7   1241 0.01788900   1.008000   ; qtot 41.492888
 1242         hc     42    bbb     H8   1242 0.01788900   1.008000   ; qtot 41.510777
 1243         c3     42    bbb     C5   1243 -0.11337700  12.010000   ; qtot 41.397400
 1244         hc     42    bbb     H9   1244 0.09515400   1.008000   ; qtot 41.492554
 1245         hc     42    bbb    H10   1245 0.09515400   1.008000   ; qtot 41.587708
 1246         c3     42    bbb     C6   1246 -0.11337700  12.010000   ; qtot 41.474331
 1247         hc     42    bbb    H11   1247 0.09515400   1.008000   ; qtot 41.569485
 1248         hc     42    bbb    H12   1248 0.09515400   1.008000   ; qtot 41.664639
 1249         c3     42    bbb     C7   1249 0.21842400  12.010000   ; qtot 41.883063
 1250         h1     42    bbb    H13   1250 0.04500300   1.008000   ; qtot 41.928066
 1251         h1     42    bbb    H14   1251 0.04500300   1.008000   ; qtot 41.973069
 1252         c3     42    bbb     C8   1252 -0.06455200  12.010000   ; qtot 41.908517
 1253         h1     42    bbb    H15   1253 0.13554100   1.008000   ; qtot 42.044058
 1254         h1     42    bbb    H16   1254 0.13554100   1.008000   ; qtot 42.179599
 1255         c3     42    bbb     C9   1255 -0.06455200  12.010000   ; qtot 42.115047
 1256         h1     42    bbb    H17   1256 0.13554100   1.008000   ; qtot 42.250588
 1257         h1     42    bbb    H18   1257 0.13554100   1.008000   ; qtot 42.386129
 1258         os     42    bbb     O1   1258 -0.62587700  16.000000   ; qtot 41.760252
 1259         hn     42    bbb    H19   1259 0.23982500   1.008000   ; qtot 42.000077
; residue   43 bbb rtp bbb q 1.0
 1260         n4     43    bbb     N1   1260 0.03726400  14.010000   ; qtot 42.037341
 1261         c3     43    bbb     C1   1261 -0.07020100  12.010000   ; qtot 41.967140
 1262         hx     43    bbb     H1   1262 0.12219000   1.008000   ; qtot 42.089330
 1263         hx     43    bbb     H2   1263 0.12219000   1.008000   ; qtot 42.211520
 1264         c3     43    bbb     C2   1264 -0.07020100  12.010000   ; qtot 42.141319
 1265         hx     43    bbb     H3   1265 0.12219000   1.008000   ; qtot 42.263509
 1266         hx     43    bbb     H4   1266 0.12219000   1.008000   ; qtot 42.385699
 1267         c3     43    bbb     C3   1267 -0.39007700  12.010000   ; qtot 41.995622
 1268         hx     43    bbb     H5   1268 0.14940300   1.008000   ; qtot 42.145025
 1269         hx     43    bbb     H6   1269 0.14940300   1.008000   ; qtot 42.294428
 1270         c3     43    bbb     C4   1270 0.18057300  12.010000   ; qtot 42.475001
 1271         hc     43    bbb     H7   1271 0.01788900   1.008000   ; qtot 42.492890
 1272         hc     43    bbb     H8   1272 0.01788900   1.008000   ; qtot 42.510779
 1273         c3     43    bbb     C5   1273 -0.11337700  12.010000   ; qtot 42.397402
 1274         hc     43    bbb     H9   1274 0.09515400   1.008000   ; qtot 42.492556
 1275         hc     43    bbb    H10   1275 0.09515400   1.008000   ; qtot 42.587710
 1276         c3     43    bbb     C6   1276 -0.11337700  12.010000   ; qtot 42.474333
 1277         hc     43    bbb    H11   1277 0.09515400   1.008000   ; qtot 42.569487
 1278         hc     43    bbb    H12   1278 0.09515400   1.008000   ; qtot 42.664641
 1279         c3     43    bbb     C7   1279 0.21842400  12.010000   ; qtot 42.883065
 1280         h1     43    bbb    H13   1280 0.04500300   1.008000   ; qtot 42.928068
 1281         h1     43    bbb    H14   1281 0.04500300   1.008000   ; qtot 42.973071
 1282         c3     43    bbb     C8   1282 -0.06455200  12.010000   ; qtot 42.908519
 1283         h1     43    bbb    H15   1283 0.13554100   1.008000   ; qtot 43.044060
 1284         h1     43    bbb    H16   1284 0.13554100   1.008000   ; qtot 43.179601
 1285         c3     43    bbb     C9   1285 -0.06455200  12.010000   ; qtot 43.115049
 1286         h1     43    bbb    H17   1286 0.13554100   1.008000   ; qtot 43.250590
 1287         h1     43    bbb    H18   1287 0.13554100   1.008000   ; qtot 43.386131
 1288         os     43    bbb     O1   1288 -0.62587700  16.000000   ; qtot 42.760254
 1289         hn     43    bbb    H19   1289 0.23982500   1.008000   ; qtot 43.000079
; residue   44 bbb rtp bbb q 1.0
 1290         n4     44    bbb     N1   1290 0.03726400  14.010000   ; qtot 43.037343
 1291         c3     44    bbb     C1   1291 -0.07020100  12.010000   ; qtot 42.967142
 1292         hx     44    bbb     H1   1292 0.12219000   1.008000   ; qtot 43.089332
 1293         hx     44    bbb     H2   1293 0.12219000   1.008000   ; qtot 43.211522
 1294         c3     44    bbb     C2   1294 -0.07020100  12.010000   ; qtot 43.141321
 1295         hx     44    bbb     H3   1295 0.12219000   1.008000   ; qtot 43.263511
 1296         hx     44    bbb     H4   1296 0.12219000   1.008000   ; qtot 43.385701
 1297         c3     44    bbb     C3   1297 -0.39007700  12.010000   ; qtot 42.995624
 1298         hx     44    bbb     H5   1298 0.14940300   1.008000   ; qtot 43.145027
 1299         hx     44    bbb     H6   1299 0.14940300   1.008000   ; qtot 43.294430
 1300         c3     44    bbb     C4   1300 0.18057300  12.010000   ; qtot 43.475003
 1301         hc     44    bbb     H7   1301 0.01788900   1.008000   ; qtot 43.492892
 1302         hc     44    bbb     H8   1302 0.01788900   1.008000   ; qtot 43.510781
 1303         c3     44    bbb     C5   1303 -0.11337700  12.010000   ; qtot 43.397404
 1304         hc     44    bbb     H9   1304 0.09515400   1.008000   ; qtot 43.492558
 1305         hc     44    bbb    H10   1305 0.09515400   1.008000   ; qtot 43.587712
 1306         c3     44    bbb     C6   1306 -0.11337700  12.010000   ; qtot 43.474335
 1307         hc     44    bbb    H11   1307 0.09515400   1.008000   ; qtot 43.569489
 1308         hc     44    bbb    H12   1308 0.09515400   1.008000   ; qtot 43.664643
 1309         c3     44    bbb     C7   1309 0.21842400  12.010000   ; qtot 43.883067
 1310         h1     44    bbb    H13   1310 0.04500300   1.008000   ; qtot 43.928070
 1311         h1     44    bbb    H14   1311 0.04500300   1.008000   ; qtot 43.973073
 1312         c3     44    bbb     C8   1312 -0.06455200  12.010000   ; qtot 43.908521
 1313         h1     44    bbb    H15   1313 0.13554100   1.008000   ; qtot 44.044062
 1314         h1     44    bbb    H16   1314 0.13554100   1.008000   ; qtot 44.179603
 1315         c3     44    bbb     C9   1315 -0.06455200  12.010000   ; qtot 44.115051
 1316         h1     44    bbb    H17   1316 0.13554100   1.008000   ; qtot 44.250592
 1317         h1     44    bbb    H18   1317 0.13554100   1.008000   ; qtot 44.386133
 1318         os     44    bbb     O1   1318 -0.62587700  16.000000   ; qtot 43.760256
 1319         hn     44    bbb    H19   1319 0.23982500   1.008000   ; qtot 44.000081
; residue   45 bbb rtp bbb q 1.0
 1320         n4     45    bbb     N1   1320 0.03726400  14.010000   ; qtot 44.037345
 1321         c3     45    bbb     C1   1321 -0.07020100  12.010000   ; qtot 43.967144
 1322         hx     45    bbb     H1   1322 0.12219000   1.008000   ; qtot 44.089334
 1323         hx     45    bbb     H2   1323 0.12219000   1.008000   ; qtot 44.211524
 1324         c3     45    bbb     C2   1324 -0.07020100  12.010000   ; qtot 44.141323
 1325         hx     45    bbb     H3   1325 0.12219000   1.008000   ; qtot 44.263513
 1326         hx     45    bbb     H4   1326 0.12219000   1.008000   ; qtot 44.385703
 1327         c3     45    bbb     C3   1327 -0.39007700  12.010000   ; qtot 43.995626
 1328         hx     45    bbb     H5   1328 0.14940300   1.008000   ; qtot 44.145029
 1329         hx     45    bbb     H6   1329 0.14940300   1.008000   ; qtot 44.294432
 1330         c3     45    bbb     C4   1330 0.18057300  12.010000   ; qtot 44.475005
 1331         hc     45    bbb     H7   1331 0.01788900   1.008000   ; qtot 44.492894
 1332         hc     45    bbb     H8   1332 0.01788900   1.008000   ; qtot 44.510783
 1333         c3     45    bbb     C5   1333 -0.11337700  12.010000   ; qtot 44.397406
 1334         hc     45    bbb     H9   1334 0.09515400   1.008000   ; qtot 44.492560
 1335         hc     45    bbb    H10   1335 0.09515400   1.008000   ; qtot 44.587714
 1336         c3     45    bbb     C6   1336 -0.11337700  12.010000   ; qtot 44.474337
 1337         hc     45    bbb    H11   1337 0.09515400   1.008000   ; qtot 44.569491
 1338         hc     45    bbb    H12   1338 0.09515400   1.008000   ; qtot 44.664645
 1339         c3     45    bbb     C7   1339 0.21842400  12.010000   ; qtot 44.883069
 1340         h1     45    bbb    H13   1340 0.04500300   1.008000   ; qtot 44.928072
 1341         h1     45    bbb    H14   1341 0.04500300   1.008000   ; qtot 44.973075
 1342         c3     45    bbb     C8   1342 -0.06455200  12.010000   ; qtot 44.908523
 1343         h1     45    bbb    H15   1343 0.13554100   1.008000   ; qtot 45.044064
 1344         h1     45    bbb    H16   1344 0.13554100   1.008000   ; qtot 45.179605
 1345         c3     45    bbb     C9   1345 -0.06455200  12.010000   ; qtot 45.115053
 1346         h1     45    bbb    H17   1346 0.13554100   1.008000   ; qtot 45.250594
 1347         h1     45    bbb    H18   1347 0.13554100   1.008000   ; qtot 45.386135
 1348         os     45    bbb     O1   1348 -0.62587700  16.000000   ; qtot 44.760258
 1349         hn     45    bbb    H19   1349 0.23982500   1.008000   ; qtot 45.000083
; residue   46 bbb rtp bbb q 1.0
 1350         n4     46    bbb     N1   1350 0.03726400  14.010000   ; qtot 45.037347
 1351         c3     46    bbb     C1   1351 -0.07020100  12.010000   ; qtot 44.967146
 1352         hx     46    bbb     H1   1352 0.12219000   1.008000   ; qtot 45.089336
 1353         hx     46    bbb     H2   1353 0.12219000   1.008000   ; qtot 45.211526
 1354         c3     46    bbb     C2   1354 -0.07020100  12.010000   ; qtot 45.141325
 1355         hx     46    bbb     H3   1355 0.12219000   1.008000   ; qtot 45.263515
 1356         hx     46    bbb     H4   1356 0.12219000   1.008000   ; qtot 45.385705
 1357         c3     46    bbb     C3   1357 -0.39007700  12.010000   ; qtot 44.995628
 1358         hx     46    bbb     H5   1358 0.14940300   1.008000   ; qtot 45.145031
 1359         hx     46    bbb     H6   1359 0.14940300   1.008000   ; qtot 45.294434
 1360         c3     46    bbb     C4   1360 0.18057300  12.010000   ; qtot 45.475007
 1361         hc     46    bbb     H7   1361 0.01788900   1.008000   ; qtot 45.492896
 1362         hc     46    bbb     H8   1362 0.01788900   1.008000   ; qtot 45.510785
 1363         c3     46    bbb     C5   1363 -0.11337700  12.010000   ; qtot 45.397408
 1364         hc     46    bbb     H9   1364 0.09515400   1.008000   ; qtot 45.492562
 1365         hc     46    bbb    H10   1365 0.09515400   1.008000   ; qtot 45.587716
 1366         c3     46    bbb     C6   1366 -0.11337700  12.010000   ; qtot 45.474339
 1367         hc     46    bbb    H11   1367 0.09515400   1.008000   ; qtot 45.569493
 1368         hc     46    bbb    H12   1368 0.09515400   1.008000   ; qtot 45.664647
 1369         c3     46    bbb     C7   1369 0.21842400  12.010000   ; qtot 45.883071
 1370         h1     46    bbb    H13   1370 0.04500300   1.008000   ; qtot 45.928074
 1371         h1     46    bbb    H14   1371 0.04500300   1.008000   ; qtot 45.973077
 1372         c3     46    bbb     C8   1372 -0.06455200  12.010000   ; qtot 45.908525
 1373         h1     46    bbb    H15   1373 0.13554100   1.008000   ; qtot 46.044066
 1374         h1     46    bbb    H16   1374 0.13554100   1.008000   ; qtot 46.179607
 1375         c3     46    bbb     C9   1375 -0.06455200  12.010000   ; qtot 46.115055
 1376         h1     46    bbb    H17   1376 0.13554100   1.008000   ; qtot 46.250596
 1377         h1     46    bbb    H18   1377 0.13554100   1.008000   ; qtot 46.386137
 1378         os     46    bbb     O1   1378 -0.62587700  16.000000   ; qtot 45.760260
 1379         hn     46    bbb    H19   1379 0.23982500   1.008000   ; qtot 46.000085
; residue   47 bbb rtp bbb q 1.0
 1380         n4     47    bbb     N1   1380 0.03726400  14.010000   ; qtot 46.037349
 1381         c3     47    bbb     C1   1381 -0.07020100  12.010000   ; qtot 45.967148
 1382         hx     47    bbb     H1   1382 0.12219000   1.008000   ; qtot 46.089338
 1383         hx     47    bbb     H2   1383 0.12219000   1.008000   ; qtot 46.211528
 1384         c3     47    bbb     C2   1384 -0.07020100  12.010000   ; qtot 46.141327
 1385         hx     47    bbb     H3   1385 0.12219000   1.008000   ; qtot 46.263517
 1386         hx     47    bbb     H4   1386 0.12219000   1.008000   ; qtot 46.385707
 1387         c3     47    bbb     C3   1387 -0.39007700  12.010000   ; qtot 45.995630
 1388         hx     47    bbb     H5   1388 0.14940300   1.008000   ; qtot 46.145033
 1389         hx     47    bbb     H6   1389 0.14940300   1.008000   ; qtot 46.294436
 1390         c3     47    bbb     C4   1390 0.18057300  12.010000   ; qtot 46.475009
 1391         hc     47    bbb     H7   1391 0.01788900   1.008000   ; qtot 46.492898
 1392         hc     47    bbb     H8   1392 0.01788900   1.008000   ; qtot 46.510787
 1393         c3     47    bbb     C5   1393 -0.11337700  12.010000   ; qtot 46.397410
 1394         hc     47    bbb     H9   1394 0.09515400   1.008000   ; qtot 46.492564
 1395         hc     47    bbb    H10   1395 0.09515400   1.008000   ; qtot 46.587718
 1396         c3     47    bbb     C6   1396 -0.11337700  12.010000   ; qtot 46.474341
 1397         hc     47    bbb    H11   1397 0.09515400   1.008000   ; qtot 46.569495
 1398         hc     47    bbb    H12   1398 0.09515400   1.008000   ; qtot 46.664649
 1399         c3     47    bbb     C7   1399 0.21842400  12.010000   ; qtot 46.883073
 1400         h1     47    bbb    H13   1400 0.04500300   1.008000   ; qtot 46.928076
 1401         h1     47    bbb    H14   1401 0.04500300   1.008000   ; qtot 46.973079
 1402         c3     47    bbb     C8   1402 -0.06455200  12.010000   ; qtot 46.908527
 1403         h1     47    bbb    H15   1403 0.13554100   1.008000   ; qtot 47.044068
 1404         h1     47    bbb    H16   1404 0.13554100   1.008000   ; qtot 47.179609
 1405         c3     47    bbb     C9   1405 -0.06455200  12.010000   ; qtot 47.115057
 1406         h1     47    bbb    H17   1406 0.13554100   1.008000   ; qtot 47.250598
 1407         h1     47    bbb    H18   1407 0.13554100   1.008000   ; qtot 47.386139
 1408         os     47    bbb     O1   1408 -0.62587700  16.000000   ; qtot 46.760262
 1409         hn     47    bbb    H19   1409 0.23982500   1.008000   ; qtot 47.000087
; residue   48 bbb rtp bbb q 1.0
 1410         n4     48    bbb     N1   1410 0.03726400  14.010000   ; qtot 47.037351
 1411         c3     48    bbb     C1   1411 -0.07020100  12.010000   ; qtot 46.967150
 1412         hx     48    bbb     H1   1412 0.12219000   1.008000   ; qtot 47.089340
 1413         hx     48    bbb     H2   1413 0.12219000   1.008000   ; qtot 47.211530
 1414         c3     48    bbb     C2   1414 -0.07020100  12.010000   ; qtot 47.141329
 1415         hx     48    bbb     H3   1415 0.12219000   1.008000   ; qtot 47.263519
 1416         hx     48    bbb     H4   1416 0.12219000   1.008000   ; qtot 47.385709
 1417         c3     48    bbb     C3   1417 -0.39007700  12.010000   ; qtot 46.995632
 1418         hx     48    bbb     H5   1418 0.14940300   1.008000   ; qtot 47.145035
 1419         hx     48    bbb     H6   1419 0.14940300   1.008000   ; qtot 47.294438
 1420         c3     48    bbb     C4   1420 0.18057300  12.010000   ; qtot 47.475011
 1421         hc     48    bbb     H7   1421 0.01788900   1.008000   ; qtot 47.492900
 1422         hc     48    bbb     H8   1422 0.01788900   1.008000   ; qtot 47.510789
 1423         c3     48    bbb     C5   1423 -0.11337700  12.010000   ; qtot 47.397412
 1424         hc     48    bbb     H9   1424 0.09515400   1.008000   ; qtot 47.492566
 1425         hc     48    bbb    H10   1425 0.09515400   1.008000   ; qtot 47.587720
 1426         c3     48    bbb     C6   1426 -0.11337700  12.010000   ; qtot 47.474343
 1427         hc     48    bbb    H11   1427 0.09515400   1.008000   ; qtot 47.569497
 1428         hc     48    bbb    H12   1428 0.09515400   1.008000   ; qtot 47.664651
 1429         c3     48    bbb     C7   1429 0.21842400  12.010000   ; qtot 47.883075
 1430         h1     48    bbb    H13   1430 0.04500300   1.008000   ; qtot 47.928078
 1431         h1     48    bbb    H14   1431 0.04500300   1.008000   ; qtot 47.973081
 1432         c3     48    bbb     C8   1432 -0.06455200  12.010000   ; qtot 47.908529
 1433         h1     48    bbb    H15   1433 0.13554100   1.008000   ; qtot 48.044070
 1434         h1     48    bbb    H16   1434 0.13554100   1.008000   ; qtot 48.179611
 1435         c3     48    bbb     C9   1435 -0.06455200  12.010000   ; qtot 48.115059
 1436         h1     48    bbb    H17   1436 0.13554100   1.008000   ; qtot 48.250600
 1437         h1     48    bbb    H18   1437 0.13554100   1.008000   ; qtot 48.386141
 1438         os     48    bbb     O1   1438 -0.62587700  16.000000   ; qtot 47.760264
 1439         hn     48    bbb    H19   1439 0.23982500   1.008000   ; qtot 48.000089
; residue   49 bbb rtp bbb q 1.0
 1440         n4     49    bbb     N1   1440 0.03726400  14.010000   ; qtot 48.037353
 1441         c3     49    bbb     C1   1441 -0.07020100  12.010000   ; qtot 47.967152
 1442         hx     49    bbb     H1   1442 0.12219000   1.008000   ; qtot 48.089342
 1443         hx     49    bbb     H2   1443 0.12219000   1.008000   ; qtot 48.211532
 1444         c3     49    bbb     C2   1444 -0.07020100  12.010000   ; qtot 48.141331
 1445         hx     49    bbb     H3   1445 0.12219000   1.008000   ; qtot 48.263521
 1446         hx     49    bbb     H4   1446 0.12219000   1.008000   ; qtot 48.385711
 1447         c3     49    bbb     C3   1447 -0.39007700  12.010000   ; qtot 47.995634
 1448         hx     49    bbb     H5   1448 0.14940300   1.008000   ; qtot 48.145037
 1449         hx     49    bbb     H6   1449 0.14940300   1.008000   ; qtot 48.294440
 1450         c3     49    bbb     C4   1450 0.18057300  12.010000   ; qtot 48.475013
 1451         hc     49    bbb     H7   1451 0.01788900   1.008000   ; qtot 48.492902
 1452         hc     49    bbb     H8   1452 0.01788900   1.008000   ; qtot 48.510791
 1453         c3     49    bbb     C5   1453 -0.11337700  12.010000   ; qtot 48.397414
 1454         hc     49    bbb     H9   1454 0.09515400   1.008000   ; qtot 48.492568
 1455         hc     49    bbb    H10   1455 0.09515400   1.008000   ; qtot 48.587722
 1456         c3     49    bbb     C6   1456 -0.11337700  12.010000   ; qtot 48.474345
 1457         hc     49    bbb    H11   1457 0.09515400   1.008000   ; qtot 48.569499
 1458         hc     49    bbb    H12   1458 0.09515400   1.008000   ; qtot 48.664653
 1459         c3     49    bbb     C7   1459 0.21842400  12.010000   ; qtot 48.883077
 1460         h1     49    bbb    H13   1460 0.04500300   1.008000   ; qtot 48.928080
 1461         h1     49    bbb    H14   1461 0.04500300   1.008000   ; qtot 48.973083
 1462         c3     49    bbb     C8   1462 -0.06455200  12.010000   ; qtot 48.908531
 1463         h1     49    bbb    H15   1463 0.13554100   1.008000   ; qtot 49.044072
 1464         h1     49    bbb    H16   1464 0.13554100   1.008000   ; qtot 49.179613
 1465         c3     49    bbb     C9   1465 -0.06455200  12.010000   ; qtot 49.115061
 1466         h1     49    bbb    H17   1466 0.13554100   1.008000   ; qtot 49.250602
 1467         h1     49    bbb    H18   1467 0.13554100   1.008000   ; qtot 49.386143
 1468         os     49    bbb     O1   1468 -0.62587700  16.000000   ; qtot 48.760266
 1469         hn     49    bbb    H19   1469 0.23982500   1.008000   ; qtot 49.000091
; residue   50 bbb rtp bbb q 1.0
 1470         n4     50    bbb     N1   1470 0.03726400  14.010000   ; qtot 49.037355
 1471         c3     50    bbb     C1   1471 -0.07020100  12.010000   ; qtot 48.967154
 1472         hx     50    bbb     H1   1472 0.12219000   1.008000   ; qtot 49.089344
 1473         hx     50    bbb     H2   1473 0.12219000   1.008000   ; qtot 49.211534
 1474         c3     50    bbb     C2   1474 -0.07020100  12.010000   ; qtot 49.141333
 1475         hx     50    bbb     H3   1475 0.12219000   1.008000   ; qtot 49.263523
 1476         hx     50    bbb     H4   1476 0.12219000   1.008000   ; qtot 49.385713
 1477         c3     50    bbb     C3   1477 -0.39007700  12.010000   ; qtot 48.995636
 1478         hx     50    bbb     H5   1478 0.14940300   1.008000   ; qtot 49.145039
 1479         hx     50    bbb     H6   1479 0.14940300   1.008000   ; qtot 49.294442
 1480         c3     50    bbb     C4   1480 0.18057300  12.010000   ; qtot 49.475015
 1481         hc     50    bbb     H7   1481 0.01788900   1.008000   ; qtot 49.492904
 1482         hc     50    bbb     H8   1482 0.01788900   1.008000   ; qtot 49.510793
 1483         c3     50    bbb     C5   1483 -0.11337700  12.010000   ; qtot 49.397416
 1484         hc     50    bbb     H9   1484 0.09515400   1.008000   ; qtot 49.492570
 1485         hc     50    bbb    H10   1485 0.09515400   1.008000   ; qtot 49.587724
 1486         c3     50    bbb     C6   1486 -0.11337700  12.010000   ; qtot 49.474347
 1487         hc     50    bbb    H11   1487 0.09515400   1.008000   ; qtot 49.569501
 1488         hc     50    bbb    H12   1488 0.09515400   1.008000   ; qtot 49.664655
 1489         c3     50    bbb     C7   1489 0.21842400  12.010000   ; qtot 49.883079
 1490         h1     50    bbb    H13   1490 0.04500300   1.008000   ; qtot 49.928082
 1491         h1     50    bbb    H14   1491 0.04500300   1.008000   ; qtot 49.973085
 1492         c3     50    bbb     C8   1492 -0.06455200  12.010000   ; qtot 49.908533
 1493         h1     50    bbb    H15   1493 0.13554100   1.008000   ; qtot 50.044074
 1494         h1     50    bbb    H16   1494 0.13554100   1.008000   ; qtot 50.179615
 1495         c3     50    bbb     C9   1495 -0.06455200  12.010000   ; qtot 50.115063
 1496         h1     50    bbb    H17   1496 0.13554100   1.008000   ; qtot 50.250604
 1497         h1     50    bbb    H18   1497 0.13554100   1.008000   ; qtot 50.386145
 1498         os     50    bbb     O1   1498 -0.62587700  16.000000   ; qtot 49.760268
 1499         hn     50    bbb    H19   1499 0.23982500   1.008000   ; qtot 50.000093
; residue   51 bbb rtp bbb q 1.0
 1500         n4     51    bbb     N1   1500 0.03726400  14.010000   ; qtot 50.037357
 1501         c3     51    bbb     C1   1501 -0.07020100  12.010000   ; qtot 49.967156
 1502         hx     51    bbb     H1   1502 0.12219000   1.008000   ; qtot 50.089346
 1503         hx     51    bbb     H2   1503 0.12219000   1.008000   ; qtot 50.211536
 1504         c3     51    bbb     C2   1504 -0.07020100  12.010000   ; qtot 50.141335
 1505         hx     51    bbb     H3   1505 0.12219000   1.008000   ; qtot 50.263525
 1506         hx     51    bbb     H4   1506 0.12219000   1.008000   ; qtot 50.385715
 1507         c3     51    bbb     C3   1507 -0.39007700  12.010000   ; qtot 49.995638
 1508         hx     51    bbb     H5   1508 0.14940300   1.008000   ; qtot 50.145041
 1509         hx     51    bbb     H6   1509 0.14940300   1.008000   ; qtot 50.294444
 1510         c3     51    bbb     C4   1510 0.18057300  12.010000   ; qtot 50.475017
 1511         hc     51    bbb     H7   1511 0.01788900   1.008000   ; qtot 50.492906
 1512         hc     51    bbb     H8   1512 0.01788900   1.008000   ; qtot 50.510795
 1513         c3     51    bbb     C5   1513 -0.11337700  12.010000   ; qtot 50.397418
 1514         hc     51    bbb     H9   1514 0.09515400   1.008000   ; qtot 50.492572
 1515         hc     51    bbb    H10   1515 0.09515400   1.008000   ; qtot 50.587726
 1516         c3     51    bbb     C6   1516 -0.11337700  12.010000   ; qtot 50.474349
 1517         hc     51    bbb    H11   1517 0.09515400   1.008000   ; qtot 50.569503
 1518         hc     51    bbb    H12   1518 0.09515400   1.008000   ; qtot 50.664657
 1519         c3     51    bbb     C7   1519 0.21842400  12.010000   ; qtot 50.883081
 1520         h1     51    bbb    H13   1520 0.04500300   1.008000   ; qtot 50.928084
 1521         h1     51    bbb    H14   1521 0.04500300   1.008000   ; qtot 50.973087
 1522         c3     51    bbb     C8   1522 -0.06455200  12.010000   ; qtot 50.908535
 1523         h1     51    bbb    H15   1523 0.13554100   1.008000   ; qtot 51.044076
 1524         h1     51    bbb    H16   1524 0.13554100   1.008000   ; qtot 51.179617
 1525         c3     51    bbb     C9   1525 -0.06455200  12.010000   ; qtot 51.115065
 1526         h1     51    bbb    H17   1526 0.13554100   1.008000   ; qtot 51.250606
 1527         h1     51    bbb    H18   1527 0.13554100   1.008000   ; qtot 51.386147
 1528         os     51    bbb     O1   1528 -0.62587700  16.000000   ; qtot 50.760270
 1529         hn     51    bbb    H19   1529 0.23982500   1.008000   ; qtot 51.000095
; residue   52 bbb rtp bbb q 1.0
 1530         n4     52    bbb     N1   1530 0.03726400  14.010000   ; qtot 51.037359
 1531         c3     52    bbb     C1   1531 -0.07020100  12.010000   ; qtot 50.967158
 1532         hx     52    bbb     H1   1532 0.12219000   1.008000   ; qtot 51.089348
 1533         hx     52    bbb     H2   1533 0.12219000   1.008000   ; qtot 51.211538
 1534         c3     52    bbb     C2   1534 -0.07020100  12.010000   ; qtot 51.141337
 1535         hx     52    bbb     H3   1535 0.12219000   1.008000   ; qtot 51.263527
 1536         hx     52    bbb     H4   1536 0.12219000   1.008000   ; qtot 51.385717
 1537         c3     52    bbb     C3   1537 -0.39007700  12.010000   ; qtot 50.995640
 1538         hx     52    bbb     H5   1538 0.14940300   1.008000   ; qtot 51.145043
 1539         hx     52    bbb     H6   1539 0.14940300   1.008000   ; qtot 51.294446
 1540         c3     52    bbb     C4   1540 0.18057300  12.010000   ; qtot 51.475019
 1541         hc     52    bbb     H7   1541 0.01788900   1.008000   ; qtot 51.492908
 1542         hc     52    bbb     H8   1542 0.01788900   1.008000   ; qtot 51.510797
 1543         c3     52    bbb     C5   1543 -0.11337700  12.010000   ; qtot 51.397420
 1544         hc     52    bbb     H9   1544 0.09515400   1.008000   ; qtot 51.492574
 1545         hc     52    bbb    H10   1545 0.09515400   1.008000   ; qtot 51.587728
 1546         c3     52    bbb     C6   1546 -0.11337700  12.010000   ; qtot 51.474351
 1547         hc     52    bbb    H11   1547 0.09515400   1.008000   ; qtot 51.569505
 1548         hc     52    bbb    H12   1548 0.09515400   1.008000   ; qtot 51.664659
 1549         c3     52    bbb     C7   1549 0.21842400  12.010000   ; qtot 51.883083
 1550         h1     52    bbb    H13   1550 0.04500300   1.008000   ; qtot 51.928086
 1551         h1     52    bbb    H14   1551 0.04500300   1.008000   ; qtot 51.973089
 1552         c3     52    bbb     C8   1552 -0.06455200  12.010000   ; qtot 51.908537
 1553         h1     52    bbb    H15   1553 0.13554100   1.008000   ; qtot 52.044078
 1554         h1     52    bbb    H16   1554 0.13554100   1.008000   ; qtot 52.179619
 1555         c3     52    bbb     C9   1555 -0.06455200  12.010000   ; qtot 52.115067
 1556         h1     52    bbb    H17   1556 0.13554100   1.008000   ; qtot 52.250608
 1557         h1     52    bbb    H18   1557 0.13554100   1.008000   ; qtot 52.386149
 1558         os     52    bbb     O1   1558 -0.62587700  16.000000   ; qtot 51.760272
 1559         hn     52    bbb    H19   1559 0.23982500   1.008000   ; qtot 52.000097
; residue   53 bbb rtp bbb q 1.0
 1560         n4     53    bbb     N1   1560 0.03726400  14.010000   ; qtot 52.037361
 1561         c3     53    bbb     C1   1561 -0.07020100  12.010000   ; qtot 51.967160
 1562         hx     53    bbb     H1   1562 0.12219000   1.008000   ; qtot 52.089350
 1563         hx     53    bbb     H2   1563 0.12219000   1.008000   ; qtot 52.211540
 1564         c3     53    bbb     C2   1564 -0.07020100  12.010000   ; qtot 52.141339
 1565         hx     53    bbb     H3   1565 0.12219000   1.008000   ; qtot 52.263529
 1566         hx     53    bbb     H4   1566 0.12219000   1.008000   ; qtot 52.385719
 1567         c3     53    bbb     C3   1567 -0.39007700  12.010000   ; qtot 51.995642
 1568         hx     53    bbb     H5   1568 0.14940300   1.008000   ; qtot 52.145045
 1569         hx     53    bbb     H6   1569 0.14940300   1.008000   ; qtot 52.294448
 1570         c3     53    bbb     C4   1570 0.18057300  12.010000   ; qtot 52.475021
 1571         hc     53    bbb     H7   1571 0.01788900   1.008000   ; qtot 52.492910
 1572         hc     53    bbb     H8   1572 0.01788900   1.008000   ; qtot 52.510799
 1573         c3     53    bbb     C5   1573 -0.11337700  12.010000   ; qtot 52.397422
 1574         hc     53    bbb     H9   1574 0.09515400   1.008000   ; qtot 52.492576
 1575         hc     53    bbb    H10   1575 0.09515400   1.008000   ; qtot 52.587730
 1576         c3     53    bbb     C6   1576 -0.11337700  12.010000   ; qtot 52.474353
 1577         hc     53    bbb    H11   1577 0.09515400   1.008000   ; qtot 52.569507
 1578         hc     53    bbb    H12   1578 0.09515400   1.008000   ; qtot 52.664661
 1579         c3     53    bbb     C7   1579 0.21842400  12.010000   ; qtot 52.883085
 1580         h1     53    bbb    H13   1580 0.04500300   1.008000   ; qtot 52.928088
 1581         h1     53    bbb    H14   1581 0.04500300   1.008000   ; qtot 52.973091
 1582         c3     53    bbb     C8   1582 -0.06455200  12.010000   ; qtot 52.908539
 1583         h1     53    bbb    H15   1583 0.13554100   1.008000   ; qtot 53.044080
 1584         h1     53    bbb    H16   1584 0.13554100   1.008000   ; qtot 53.179621
 1585         c3     53    bbb     C9   1585 -0.06455200  12.010000   ; qtot 53.115069
 1586         h1     53    bbb    H17   1586 0.13554100   1.008000   ; qtot 53.250610
 1587         h1     53    bbb    H18   1587 0.13554100   1.008000   ; qtot 53.386151
 1588         os     53    bbb     O1   1588 -0.62587700  16.000000   ; qtot 52.760274
 1589         hn     53    bbb    H19   1589 0.23982500   1.008000   ; qtot 53.000099
; residue   54 bbb rtp bbb q 1.0
 1590         n4     54    bbb     N1   1590 0.03726400  14.010000   ; qtot 53.037363
 1591         c3     54    bbb     C1   1591 -0.07020100  12.010000   ; qtot 52.967162
 1592         hx     54    bbb     H1   1592 0.12219000   1.008000   ; qtot 53.089352
 1593         hx     54    bbb     H2   1593 0.12219000   1.008000   ; qtot 53.211542
 1594         c3     54    bbb     C2   1594 -0.07020100  12.010000   ; qtot 53.141341
 1595         hx     54    bbb     H3   1595 0.12219000   1.008000   ; qtot 53.263531
 1596         hx     54    bbb     H4   1596 0.12219000   1.008000   ; qtot 53.385721
 1597         c3     54    bbb     C3   1597 -0.39007700  12.010000   ; qtot 52.995644
 1598         hx     54    bbb     H5   1598 0.14940300   1.008000   ; qtot 53.145047
 1599         hx     54    bbb     H6   1599 0.14940300   1.008000   ; qtot 53.294450
 1600         c3     54    bbb     C4   1600 0.18057300  12.010000   ; qtot 53.475023
 1601         hc     54    bbb     H7   1601 0.01788900   1.008000   ; qtot 53.492912
 1602         hc     54    bbb     H8   1602 0.01788900   1.008000   ; qtot 53.510801
 1603         c3     54    bbb     C5   1603 -0.11337700  12.010000   ; qtot 53.397424
 1604         hc     54    bbb     H9   1604 0.09515400   1.008000   ; qtot 53.492578
 1605         hc     54    bbb    H10   1605 0.09515400   1.008000   ; qtot 53.587732
 1606         c3     54    bbb     C6   1606 -0.11337700  12.010000   ; qtot 53.474355
 1607         hc     54    bbb    H11   1607 0.09515400   1.008000   ; qtot 53.569509
 1608         hc     54    bbb    H12   1608 0.09515400   1.008000   ; qtot 53.664663
 1609         c3     54    bbb     C7   1609 0.21842400  12.010000   ; qtot 53.883087
 1610         h1     54    bbb    H13   1610 0.04500300   1.008000   ; qtot 53.928090
 1611         h1     54    bbb    H14   1611 0.04500300   1.008000   ; qtot 53.973093
 1612         c3     54    bbb     C8   1612 -0.06455200  12.010000   ; qtot 53.908541
 1613         h1     54    bbb    H15   1613 0.13554100   1.008000   ; qtot 54.044082
 1614         h1     54    bbb    H16   1614 0.13554100   1.008000   ; qtot 54.179623
 1615         c3     54    bbb     C9   1615 -0.06455200  12.010000   ; qtot 54.115071
 1616         h1     54    bbb    H17   1616 0.13554100   1.008000   ; qtot 54.250612
 1617         h1     54    bbb    H18   1617 0.13554100   1.008000   ; qtot 54.386153
 1618         os     54    bbb     O1   1618 -0.62587700  16.000000   ; qtot 53.760276
 1619         hn     54    bbb    H19   1619 0.23982500   1.008000   ; qtot 54.000101
; residue   55 bbb rtp bbb q 1.0
 1620         n4     55    bbb     N1   1620 0.03726400  14.010000   ; qtot 54.037365
 1621         c3     55    bbb     C1   1621 -0.07020100  12.010000   ; qtot 53.967164
 1622         hx     55    bbb     H1   1622 0.12219000   1.008000   ; qtot 54.089354
 1623         hx     55    bbb     H2   1623 0.12219000   1.008000   ; qtot 54.211544
 1624         c3     55    bbb     C2   1624 -0.07020100  12.010000   ; qtot 54.141343
 1625         hx     55    bbb     H3   1625 0.12219000   1.008000   ; qtot 54.263533
 1626         hx     55    bbb     H4   1626 0.12219000   1.008000   ; qtot 54.385723
 1627         c3     55    bbb     C3   1627 -0.39007700  12.010000   ; qtot 53.995646
 1628         hx     55    bbb     H5   1628 0.14940300   1.008000   ; qtot 54.145049
 1629         hx     55    bbb     H6   1629 0.14940300   1.008000   ; qtot 54.294452
 1630         c3     55    bbb     C4   1630 0.18057300  12.010000   ; qtot 54.475025
 1631         hc     55    bbb     H7   1631 0.01788900   1.008000   ; qtot 54.492914
 1632         hc     55    bbb     H8   1632 0.01788900   1.008000   ; qtot 54.510803
 1633         c3     55    bbb     C5   1633 -0.11337700  12.010000   ; qtot 54.397426
 1634         hc     55    bbb     H9   1634 0.09515400   1.008000   ; qtot 54.492580
 1635         hc     55    bbb    H10   1635 0.09515400   1.008000   ; qtot 54.587734
 1636         c3     55    bbb     C6   1636 -0.11337700  12.010000   ; qtot 54.474357
 1637         hc     55    bbb    H11   1637 0.09515400   1.008000   ; qtot 54.569511
 1638         hc     55    bbb    H12   1638 0.09515400   1.008000   ; qtot 54.664665
 1639         c3     55    bbb     C7   1639 0.21842400  12.010000   ; qtot 54.883089
 1640         h1     55    bbb    H13   1640 0.04500300   1.008000   ; qtot 54.928092
 1641         h1     55    bbb    H14   1641 0.04500300   1.008000   ; qtot 54.973095
 1642         c3     55    bbb     C8   1642 -0.06455200  12.010000   ; qtot 54.908543
 1643         h1     55    bbb    H15   1643 0.13554100   1.008000   ; qtot 55.044084
 1644         h1     55    bbb    H16   1644 0.13554100   1.008000   ; qtot 55.179625
 1645         c3     55    bbb     C9   1645 -0.06455200  12.010000   ; qtot 55.115073
 1646         h1     55    bbb    H17   1646 0.13554100   1.008000   ; qtot 55.250614
 1647         h1     55    bbb    H18   1647 0.13554100   1.008000   ; qtot 55.386155
 1648         os     55    bbb     O1   1648 -0.62587700  16.000000   ; qtot 54.760278
 1649         hn     55    bbb    H19   1649 0.23982500   1.008000   ; qtot 55.000103
; residue   56 bbb rtp bbb q 1.0
 1650         n4     56    bbb     N1   1650 0.03726400  14.010000   ; qtot 55.037367
 1651         c3     56    bbb     C1   1651 -0.07020100  12.010000   ; qtot 54.967166
 1652         hx     56    bbb     H1   1652 0.12219000   1.008000   ; qtot 55.089356
 1653         hx     56    bbb     H2   1653 0.12219000   1.008000   ; qtot 55.211546
 1654         c3     56    bbb     C2   1654 -0.07020100  12.010000   ; qtot 55.141345
 1655         hx     56    bbb     H3   1655 0.12219000   1.008000   ; qtot 55.263535
 1656         hx     56    bbb     H4   1656 0.12219000   1.008000   ; qtot 55.385725
 1657         c3     56    bbb     C3   1657 -0.39007700  12.010000   ; qtot 54.995648
 1658         hx     56    bbb     H5   1658 0.14940300   1.008000   ; qtot 55.145051
 1659         hx     56    bbb     H6   1659 0.14940300   1.008000   ; qtot 55.294454
 1660         c3     56    bbb     C4   1660 0.18057300  12.010000   ; qtot 55.475027
 1661         hc     56    bbb     H7   1661 0.01788900   1.008000   ; qtot 55.492916
 1662         hc     56    bbb     H8   1662 0.01788900   1.008000   ; qtot 55.510805
 1663         c3     56    bbb     C5   1663 -0.11337700  12.010000   ; qtot 55.397428
 1664         hc     56    bbb     H9   1664 0.09515400   1.008000   ; qtot 55.492582
 1665         hc     56    bbb    H10   1665 0.09515400   1.008000   ; qtot 55.587736
 1666         c3     56    bbb     C6   1666 -0.11337700  12.010000   ; qtot 55.474359
 1667         hc     56    bbb    H11   1667 0.09515400   1.008000   ; qtot 55.569513
 1668         hc     56    bbb    H12   1668 0.09515400   1.008000   ; qtot 55.664667
 1669         c3     56    bbb     C7   1669 0.21842400  12.010000   ; qtot 55.883091
 1670         h1     56    bbb    H13   1670 0.04500300   1.008000   ; qtot 55.928094
 1671         h1     56    bbb    H14   1671 0.04500300   1.008000   ; qtot 55.973097
 1672         c3     56    bbb     C8   1672 -0.06455200  12.010000   ; qtot 55.908545
 1673         h1     56    bbb    H15   1673 0.13554100   1.008000   ; qtot 56.044086
 1674         h1     56    bbb    H16   1674 0.13554100   1.008000   ; qtot 56.179627
 1675         c3     56    bbb     C9   1675 -0.06455200  12.010000   ; qtot 56.115075
 1676         h1     56    bbb    H17   1676 0.13554100   1.008000   ; qtot 56.250616
 1677         h1     56    bbb    H18   1677 0.13554100   1.008000   ; qtot 56.386157
 1678         os     56    bbb     O1   1678 -0.62587700  16.000000   ; qtot 55.760280
 1679         hn     56    bbb    H19   1679 0.23982500   1.008000   ; qtot 56.000105
; residue   57 bbb rtp bbb q 1.0
 1680         n4     57    bbb     N1   1680 0.03726400  14.010000   ; qtot 56.037369
 1681         c3     57    bbb     C1   1681 -0.07020100  12.010000   ; qtot 55.967168
 1682         hx     57    bbb     H1   1682 0.12219000   1.008000   ; qtot 56.089358
 1683         hx     57    bbb     H2   1683 0.12219000   1.008000   ; qtot 56.211548
 1684         c3     57    bbb     C2   1684 -0.07020100  12.010000   ; qtot 56.141347
 1685         hx     57    bbb     H3   1685 0.12219000   1.008000   ; qtot 56.263537
 1686         hx     57    bbb     H4   1686 0.12219000   1.008000   ; qtot 56.385727
 1687         c3     57    bbb     C3   1687 -0.39007700  12.010000   ; qtot 55.995650
 1688         hx     57    bbb     H5   1688 0.14940300   1.008000   ; qtot 56.145053
 1689         hx     57    bbb     H6   1689 0.14940300   1.008000   ; qtot 56.294456
 1690         c3     57    bbb     C4   1690 0.18057300  12.010000   ; qtot 56.475029
 1691         hc     57    bbb     H7   1691 0.01788900   1.008000   ; qtot 56.492918
 1692         hc     57    bbb     H8   1692 0.01788900   1.008000   ; qtot 56.510807
 1693         c3     57    bbb     C5   1693 -0.11337700  12.010000   ; qtot 56.397430
 1694         hc     57    bbb     H9   1694 0.09515400   1.008000   ; qtot 56.492584
 1695         hc     57    bbb    H10   1695 0.09515400   1.008000   ; qtot 56.587738
 1696         c3     57    bbb     C6   1696 -0.11337700  12.010000   ; qtot 56.474361
 1697         hc     57    bbb    H11   1697 0.09515400   1.008000   ; qtot 56.569515
 1698         hc     57    bbb    H12   1698 0.09515400   1.008000   ; qtot 56.664669
 1699         c3     57    bbb     C7   1699 0.21842400  12.010000   ; qtot 56.883093
 1700         h1     57    bbb    H13   1700 0.04500300   1.008000   ; qtot 56.928096
 1701         h1     57    bbb    H14   1701 0.04500300   1.008000   ; qtot 56.973099
 1702         c3     57    bbb     C8   1702 -0.06455200  12.010000   ; qtot 56.908547
 1703         h1     57    bbb    H15   1703 0.13554100   1.008000   ; qtot 57.044088
 1704         h1     57    bbb    H16   1704 0.13554100   1.008000   ; qtot 57.179629
 1705         c3     57    bbb     C9   1705 -0.06455200  12.010000   ; qtot 57.115077
 1706         h1     57    bbb    H17   1706 0.13554100   1.008000   ; qtot 57.250618
 1707         h1     57    bbb    H18   1707 0.13554100   1.008000   ; qtot 57.386159
 1708         os     57    bbb     O1   1708 -0.62587700  16.000000   ; qtot 56.760282
 1709         hn     57    bbb    H19   1709 0.23982500   1.008000   ; qtot 57.000107
; residue   58 bbb rtp bbb q 1.0
 1710         n4     58    bbb     N1   1710 0.03726400  14.010000   ; qtot 57.037371
 1711         c3     58    bbb     C1   1711 -0.07020100  12.010000   ; qtot 56.967170
 1712         hx     58    bbb     H1   1712 0.12219000   1.008000   ; qtot 57.089360
 1713         hx     58    bbb     H2   1713 0.12219000   1.008000   ; qtot 57.211550
 1714         c3     58    bbb     C2   1714 -0.07020100  12.010000   ; qtot 57.141349
 1715         hx     58    bbb     H3   1715 0.12219000   1.008000   ; qtot 57.263539
 1716         hx     58    bbb     H4   1716 0.12219000   1.008000   ; qtot 57.385729
 1717         c3     58    bbb     C3   1717 -0.39007700  12.010000   ; qtot 56.995652
 1718         hx     58    bbb     H5   1718 0.14940300   1.008000   ; qtot 57.145055
 1719         hx     58    bbb     H6   1719 0.14940300   1.008000   ; qtot 57.294458
 1720         c3     58    bbb     C4   1720 0.18057300  12.010000   ; qtot 57.475031
 1721         hc     58    bbb     H7   1721 0.01788900   1.008000   ; qtot 57.492920
 1722         hc     58    bbb     H8   1722 0.01788900   1.008000   ; qtot 57.510809
 1723         c3     58    bbb     C5   1723 -0.11337700  12.010000   ; qtot 57.397432
 1724         hc     58    bbb     H9   1724 0.09515400   1.008000   ; qtot 57.492586
 1725         hc     58    bbb    H10   1725 0.09515400   1.008000   ; qtot 57.587740
 1726         c3     58    bbb     C6   1726 -0.11337700  12.010000   ; qtot 57.474363
 1727         hc     58    bbb    H11   1727 0.09515400   1.008000   ; qtot 57.569517
 1728         hc     58    bbb    H12   1728 0.09515400   1.008000   ; qtot 57.664671
 1729         c3     58    bbb     C7   1729 0.21842400  12.010000   ; qtot 57.883095
 1730         h1     58    bbb    H13   1730 0.04500300   1.008000   ; qtot 57.928098
 1731         h1     58    bbb    H14   1731 0.04500300   1.008000   ; qtot 57.973101
 1732         c3     58    bbb     C8   1732 -0.06455200  12.010000   ; qtot 57.908549
 1733         h1     58    bbb    H15   1733 0.13554100   1.008000   ; qtot 58.044090
 1734         h1     58    bbb    H16   1734 0.13554100   1.008000   ; qtot 58.179631
 1735         c3     58    bbb     C9   1735 -0.06455200  12.010000   ; qtot 58.115079
 1736         h1     58    bbb    H17   1736 0.13554100   1.008000   ; qtot 58.250620
 1737         h1     58    bbb    H18   1737 0.13554100   1.008000   ; qtot 58.386161
 1738         os     58    bbb     O1   1738 -0.62587700  16.000000   ; qtot 57.760284
 1739         hn     58    bbb    H19   1739 0.23982500   1.008000   ; qtot 58.000109
; residue   59 bbb rtp bbb q 1.0
 1740         n4     59    bbb     N1   1740 0.03726400  14.010000   ; qtot 58.037373
 1741         c3     59    bbb     C1   1741 -0.07020100  12.010000   ; qtot 57.967172
 1742         hx     59    bbb     H1   1742 0.12219000   1.008000   ; qtot 58.089362
 1743         hx     59    bbb     H2   1743 0.12219000   1.008000   ; qtot 58.211552
 1744         c3     59    bbb     C2   1744 -0.07020100  12.010000   ; qtot 58.141351
 1745         hx     59    bbb     H3   1745 0.12219000   1.008000   ; qtot 58.263541
 1746         hx     59    bbb     H4   1746 0.12219000   1.008000   ; qtot 58.385731
 1747         c3     59    bbb     C3   1747 -0.39007700  12.010000   ; qtot 57.995654
 1748         hx     59    bbb     H5   1748 0.14940300   1.008000   ; qtot 58.145057
 1749         hx     59    bbb     H6   1749 0.14940300   1.008000   ; qtot 58.294460
 1750         c3     59    bbb     C4   1750 0.18057300  12.010000   ; qtot 58.475033
 1751         hc     59    bbb     H7   1751 0.01788900   1.008000   ; qtot 58.492922
 1752         hc     59    bbb     H8   1752 0.01788900   1.008000   ; qtot 58.510811
 1753         c3     59    bbb     C5   1753 -0.11337700  12.010000   ; qtot 58.397434
 1754         hc     59    bbb     H9   1754 0.09515400   1.008000   ; qtot 58.492588
 1755         hc     59    bbb    H10   1755 0.09515400   1.008000   ; qtot 58.587742
 1756         c3     59    bbb     C6   1756 -0.11337700  12.010000   ; qtot 58.474365
 1757         hc     59    bbb    H11   1757 0.09515400   1.008000   ; qtot 58.569519
 1758         hc     59    bbb    H12   1758 0.09515400   1.008000   ; qtot 58.664673
 1759         c3     59    bbb     C7   1759 0.21842400  12.010000   ; qtot 58.883097
 1760         h1     59    bbb    H13   1760 0.04500300   1.008000   ; qtot 58.928100
 1761         h1     59    bbb    H14   1761 0.04500300   1.008000   ; qtot 58.973103
 1762         c3     59    bbb     C8   1762 -0.06455200  12.010000   ; qtot 58.908551
 1763         h1     59    bbb    H15   1763 0.13554100   1.008000   ; qtot 59.044092
 1764         h1     59    bbb    H16   1764 0.13554100   1.008000   ; qtot 59.179633
 1765         c3     59    bbb     C9   1765 -0.06455200  12.010000   ; qtot 59.115081
 1766         h1     59    bbb    H17   1766 0.13554100   1.008000   ; qtot 59.250622
 1767         h1     59    bbb    H18   1767 0.13554100   1.008000   ; qtot 59.386163
 1768         os     59    bbb     O1   1768 -0.62587700  16.000000   ; qtot 58.760286
 1769         hn     59    bbb    H19   1769 0.23982500   1.008000   ; qtot 59.000111
; residue   60 bbb rtp bbb q 1.0
 1770         n4     60    bbb     N1   1770 0.03726400  14.010000   ; qtot 59.037375
 1771         c3     60    bbb     C1   1771 -0.07020100  12.010000   ; qtot 58.967174
 1772         hx     60    bbb     H1   1772 0.12219000   1.008000   ; qtot 59.089364
 1773         hx     60    bbb     H2   1773 0.12219000   1.008000   ; qtot 59.211554
 1774         c3     60    bbb     C2   1774 -0.07020100  12.010000   ; qtot 59.141353
 1775         hx     60    bbb     H3   1775 0.12219000   1.008000   ; qtot 59.263543
 1776         hx     60    bbb     H4   1776 0.12219000   1.008000   ; qtot 59.385733
 1777         c3     60    bbb     C3   1777 -0.39007700  12.010000   ; qtot 58.995656
 1778         hx     60    bbb     H5   1778 0.14940300   1.008000   ; qtot 59.145059
 1779         hx     60    bbb     H6   1779 0.14940300   1.008000   ; qtot 59.294462
 1780         c3     60    bbb     C4   1780 0.18057300  12.010000   ; qtot 59.475035
 1781         hc     60    bbb     H7   1781 0.01788900   1.008000   ; qtot 59.492924
 1782         hc     60    bbb     H8   1782 0.01788900   1.008000   ; qtot 59.510813
 1783         c3     60    bbb     C5   1783 -0.11337700  12.010000   ; qtot 59.397436
 1784         hc     60    bbb     H9   1784 0.09515400   1.008000   ; qtot 59.492590
 1785         hc     60    bbb    H10   1785 0.09515400   1.008000   ; qtot 59.587744
 1786         c3     60    bbb     C6   1786 -0.11337700  12.010000   ; qtot 59.474367
 1787         hc     60    bbb    H11   1787 0.09515400   1.008000   ; qtot 59.569521
 1788         hc     60    bbb    H12   1788 0.09515400   1.008000   ; qtot 59.664675
 1789         c3     60    bbb     C7   1789 0.21842400  12.010000   ; qtot 59.883099
 1790         h1     60    bbb    H13   1790 0.04500300   1.008000   ; qtot 59.928102
 1791         h1     60    bbb    H14   1791 0.04500300   1.008000   ; qtot 59.973105
 1792         c3     60    bbb     C8   1792 -0.06455200  12.010000   ; qtot 59.908553
 1793         h1     60    bbb    H15   1793 0.13554100   1.008000   ; qtot 60.044094
 1794         h1     60    bbb    H16   1794 0.13554100   1.008000   ; qtot 60.179635
 1795         c3     60    bbb     C9   1795 -0.06455200  12.010000   ; qtot 60.115083
 1796         h1     60    bbb    H17   1796 0.13554100   1.008000   ; qtot 60.250624
 1797         h1     60    bbb    H18   1797 0.13554100   1.008000   ; qtot 60.386165
 1798         os     60    bbb     O1   1798 -0.62587700  16.000000   ; qtot 59.760288
 1799         hn     60    bbb    H19   1799 0.23982500   1.008000   ; qtot 60.000113
; residue   61 bbb rtp bbb q 1.0
 1800         n4     61    bbb     N1   1800 0.03726400  14.010000   ; qtot 60.037377
 1801         c3     61    bbb     C1   1801 -0.07020100  12.010000   ; qtot 59.967176
 1802         hx     61    bbb     H1   1802 0.12219000   1.008000   ; qtot 60.089366
 1803         hx     61    bbb     H2   1803 0.12219000   1.008000   ; qtot 60.211556
 1804         c3     61    bbb     C2   1804 -0.07020100  12.010000   ; qtot 60.141355
 1805         hx     61    bbb     H3   1805 0.12219000   1.008000   ; qtot 60.263545
 1806         hx     61    bbb     H4   1806 0.12219000   1.008000   ; qtot 60.385735
 1807         c3     61    bbb     C3   1807 -0.39007700  12.010000   ; qtot 59.995658
 1808         hx     61    bbb     H5   1808 0.14940300   1.008000   ; qtot 60.145061
 1809         hx     61    bbb     H6   1809 0.14940300   1.008000   ; qtot 60.294464
 1810         c3     61    bbb     C4   1810 0.18057300  12.010000   ; qtot 60.475037
 1811         hc     61    bbb     H7   1811 0.01788900   1.008000   ; qtot 60.492926
 1812         hc     61    bbb     H8   1812 0.01788900   1.008000   ; qtot 60.510815
 1813         c3     61    bbb     C5   1813 -0.11337700  12.010000   ; qtot 60.397438
 1814         hc     61    bbb     H9   1814 0.09515400   1.008000   ; qtot 60.492592
 1815         hc     61    bbb    H10   1815 0.09515400   1.008000   ; qtot 60.587746
 1816         c3     61    bbb     C6   1816 -0.11337700  12.010000   ; qtot 60.474369
 1817         hc     61    bbb    H11   1817 0.09515400   1.008000   ; qtot 60.569523
 1818         hc     61    bbb    H12   1818 0.09515400   1.008000   ; qtot 60.664677
 1819         c3     61    bbb     C7   1819 0.21842400  12.010000   ; qtot 60.883101
 1820         h1     61    bbb    H13   1820 0.04500300   1.008000   ; qtot 60.928104
 1821         h1     61    bbb    H14   1821 0.04500300   1.008000   ; qtot 60.973107
 1822         c3     61    bbb     C8   1822 -0.06455200  12.010000   ; qtot 60.908555
 1823         h1     61    bbb    H15   1823 0.13554100   1.008000   ; qtot 61.044096
 1824         h1     61    bbb    H16   1824 0.13554100   1.008000   ; qtot 61.179637
 1825         c3     61    bbb     C9   1825 -0.06455200  12.010000   ; qtot 61.115085
 1826         h1     61    bbb    H17   1826 0.13554100   1.008000   ; qtot 61.250626
 1827         h1     61    bbb    H18   1827 0.13554100   1.008000   ; qtot 61.386167
 1828         os     61    bbb     O1   1828 -0.62587700  16.000000   ; qtot 60.760290
 1829         hn     61    bbb    H19   1829 0.23982500   1.008000   ; qtot 61.000115
; residue   62 bbb rtp bbb q 1.0
 1830         n4     62    bbb     N1   1830 0.03726400  14.010000   ; qtot 61.037379
 1831         c3     62    bbb     C1   1831 -0.07020100  12.010000   ; qtot 60.967178
 1832         hx     62    bbb     H1   1832 0.12219000   1.008000   ; qtot 61.089368
 1833         hx     62    bbb     H2   1833 0.12219000   1.008000   ; qtot 61.211558
 1834         c3     62    bbb     C2   1834 -0.07020100  12.010000   ; qtot 61.141357
 1835         hx     62    bbb     H3   1835 0.12219000   1.008000   ; qtot 61.263547
 1836         hx     62    bbb     H4   1836 0.12219000   1.008000   ; qtot 61.385737
 1837         c3     62    bbb     C3   1837 -0.39007700  12.010000   ; qtot 60.995660
 1838         hx     62    bbb     H5   1838 0.14940300   1.008000   ; qtot 61.145063
 1839         hx     62    bbb     H6   1839 0.14940300   1.008000   ; qtot 61.294466
 1840         c3     62    bbb     C4   1840 0.18057300  12.010000   ; qtot 61.475039
 1841         hc     62    bbb     H7   1841 0.01788900   1.008000   ; qtot 61.492928
 1842         hc     62    bbb     H8   1842 0.01788900   1.008000   ; qtot 61.510817
 1843         c3     62    bbb     C5   1843 -0.11337700  12.010000   ; qtot 61.397440
 1844         hc     62    bbb     H9   1844 0.09515400   1.008000   ; qtot 61.492594
 1845         hc     62    bbb    H10   1845 0.09515400   1.008000   ; qtot 61.587748
 1846         c3     62    bbb     C6   1846 -0.11337700  12.010000   ; qtot 61.474371
 1847         hc     62    bbb    H11   1847 0.09515400   1.008000   ; qtot 61.569525
 1848         hc     62    bbb    H12   1848 0.09515400   1.008000   ; qtot 61.664679
 1849         c3     62    bbb     C7   1849 0.21842400  12.010000   ; qtot 61.883103
 1850         h1     62    bbb    H13   1850 0.04500300   1.008000   ; qtot 61.928106
 1851         h1     62    bbb    H14   1851 0.04500300   1.008000   ; qtot 61.973109
 1852         c3     62    bbb     C8   1852 -0.06455200  12.010000   ; qtot 61.908557
 1853         h1     62    bbb    H15   1853 0.13554100   1.008000   ; qtot 62.044098
 1854         h1     62    bbb    H16   1854 0.13554100   1.008000   ; qtot 62.179639
 1855         c3     62    bbb     C9   1855 -0.06455200  12.010000   ; qtot 62.115087
 1856         h1     62    bbb    H17   1856 0.13554100   1.008000   ; qtot 62.250628
 1857         h1     62    bbb    H18   1857 0.13554100   1.008000   ; qtot 62.386169
 1858         os     62    bbb     O1   1858 -0.62587700  16.000000   ; qtot 61.760292
 1859         hn     62    bbb    H19   1859 0.23982500   1.008000   ; qtot 62.000117
; residue   63 bbb rtp bbb q 1.0
 1860         n4     63    bbb     N1   1860 0.03726400  14.010000   ; qtot 62.037381
 1861         c3     63    bbb     C1   1861 -0.07020100  12.010000   ; qtot 61.967180
 1862         hx     63    bbb     H1   1862 0.12219000   1.008000   ; qtot 62.089370
 1863         hx     63    bbb     H2   1863 0.12219000   1.008000   ; qtot 62.211560
 1864         c3     63    bbb     C2   1864 -0.07020100  12.010000   ; qtot 62.141359
 1865         hx     63    bbb     H3   1865 0.12219000   1.008000   ; qtot 62.263549
 1866         hx     63    bbb     H4   1866 0.12219000   1.008000   ; qtot 62.385739
 1867         c3     63    bbb     C3   1867 -0.39007700  12.010000   ; qtot 61.995662
 1868         hx     63    bbb     H5   1868 0.14940300   1.008000   ; qtot 62.145065
 1869         hx     63    bbb     H6   1869 0.14940300   1.008000   ; qtot 62.294468
 1870         c3     63    bbb     C4   1870 0.18057300  12.010000   ; qtot 62.475041
 1871         hc     63    bbb     H7   1871 0.01788900   1.008000   ; qtot 62.492930
 1872         hc     63    bbb     H8   1872 0.01788900   1.008000   ; qtot 62.510819
 1873         c3     63    bbb     C5   1873 -0.11337700  12.010000   ; qtot 62.397442
 1874         hc     63    bbb     H9   1874 0.09515400   1.008000   ; qtot 62.492596
 1875         hc     63    bbb    H10   1875 0.09515400   1.008000   ; qtot 62.587750
 1876         c3     63    bbb     C6   1876 -0.11337700  12.010000   ; qtot 62.474373
 1877         hc     63    bbb    H11   1877 0.09515400   1.008000   ; qtot 62.569527
 1878         hc     63    bbb    H12   1878 0.09515400   1.008000   ; qtot 62.664681
 1879         c3     63    bbb     C7   1879 0.21842400  12.010000   ; qtot 62.883105
 1880         h1     63    bbb    H13   1880 0.04500300   1.008000   ; qtot 62.928108
 1881         h1     63    bbb    H14   1881 0.04500300   1.008000   ; qtot 62.973111
 1882         c3     63    bbb     C8   1882 -0.06455200  12.010000   ; qtot 62.908559
 1883         h1     63    bbb    H15   1883 0.13554100   1.008000   ; qtot 63.044100
 1884         h1     63    bbb    H16   1884 0.13554100   1.008000   ; qtot 63.179641
 1885         c3     63    bbb     C9   1885 -0.06455200  12.010000   ; qtot 63.115089
 1886         h1     63    bbb    H17   1886 0.13554100   1.008000   ; qtot 63.250630
 1887         h1     63    bbb    H18   1887 0.13554100   1.008000   ; qtot 63.386171
 1888         os     63    bbb     O1   1888 -0.62587700  16.000000   ; qtot 62.760294
 1889         hn     63    bbb    H19   1889 0.23982500   1.008000   ; qtot 63.000119
; residue   64 bbb rtp bbb q 1.0
 1890         n4     64    bbb     N1   1890 0.03726400  14.010000   ; qtot 63.037383
 1891         c3     64    bbb     C1   1891 -0.07020100  12.010000   ; qtot 62.967182
 1892         hx     64    bbb     H1   1892 0.12219000   1.008000   ; qtot 63.089372
 1893         hx     64    bbb     H2   1893 0.12219000   1.008000   ; qtot 63.211562
 1894         c3     64    bbb     C2   1894 -0.07020100  12.010000   ; qtot 63.141361
 1895         hx     64    bbb     H3   1895 0.12219000   1.008000   ; qtot 63.263551
 1896         hx     64    bbb     H4   1896 0.12219000   1.008000   ; qtot 63.385741
 1897         c3     64    bbb     C3   1897 -0.39007700  12.010000   ; qtot 62.995664
 1898         hx     64    bbb     H5   1898 0.14940300   1.008000   ; qtot 63.145067
 1899         hx     64    bbb     H6   1899 0.14940300   1.008000   ; qtot 63.294470
 1900         c3     64    bbb     C4   1900 0.18057300  12.010000   ; qtot 63.475043
 1901         hc     64    bbb     H7   1901 0.01788900   1.008000   ; qtot 63.492932
 1902         hc     64    bbb     H8   1902 0.01788900   1.008000   ; qtot 63.510821
 1903         c3     64    bbb     C5   1903 -0.11337700  12.010000   ; qtot 63.397444
 1904         hc     64    bbb     H9   1904 0.09515400   1.008000   ; qtot 63.492598
 1905         hc     64    bbb    H10   1905 0.09515400   1.008000   ; qtot 63.587752
 1906         c3     64    bbb     C6   1906 -0.11337700  12.010000   ; qtot 63.474375
 1907         hc     64    bbb    H11   1907 0.09515400   1.008000   ; qtot 63.569529
 1908         hc     64    bbb    H12   1908 0.09515400   1.008000   ; qtot 63.664683
 1909         c3     64    bbb     C7   1909 0.21842400  12.010000   ; qtot 63.883107
 1910         h1     64    bbb    H13   1910 0.04500300   1.008000   ; qtot 63.928110
 1911         h1     64    bbb    H14   1911 0.04500300   1.008000   ; qtot 63.973113
 1912         c3     64    bbb     C8   1912 -0.06455200  12.010000   ; qtot 63.908561
 1913         h1     64    bbb    H15   1913 0.13554100   1.008000   ; qtot 64.044102
 1914         h1     64    bbb    H16   1914 0.13554100   1.008000   ; qtot 64.179643
 1915         c3     64    bbb     C9   1915 -0.06455200  12.010000   ; qtot 64.115091
 1916         h1     64    bbb    H17   1916 0.13554100   1.008000   ; qtot 64.250632
 1917         h1     64    bbb    H18   1917 0.13554100   1.008000   ; qtot 64.386173
 1918         os     64    bbb     O1   1918 -0.62587700  16.000000   ; qtot 63.760296
 1919         hn     64    bbb    H19   1919 0.23982500   1.008000   ; qtot 64.000121
; residue   65 bbb rtp bbb q 1.0
 1920         n4     65    bbb     N1   1920 0.03726400  14.010000   ; qtot 64.037385
 1921         c3     65    bbb     C1   1921 -0.07020100  12.010000   ; qtot 63.967184
 1922         hx     65    bbb     H1   1922 0.12219000   1.008000   ; qtot 64.089374
 1923         hx     65    bbb     H2   1923 0.12219000   1.008000   ; qtot 64.211564
 1924         c3     65    bbb     C2   1924 -0.07020100  12.010000   ; qtot 64.141363
 1925         hx     65    bbb     H3   1925 0.12219000   1.008000   ; qtot 64.263553
 1926         hx     65    bbb     H4   1926 0.12219000   1.008000   ; qtot 64.385743
 1927         c3     65    bbb     C3   1927 -0.39007700  12.010000   ; qtot 63.995666
 1928         hx     65    bbb     H5   1928 0.14940300   1.008000   ; qtot 64.145069
 1929         hx     65    bbb     H6   1929 0.14940300   1.008000   ; qtot 64.294472
 1930         c3     65    bbb     C4   1930 0.18057300  12.010000   ; qtot 64.475045
 1931         hc     65    bbb     H7   1931 0.01788900   1.008000   ; qtot 64.492934
 1932         hc     65    bbb     H8   1932 0.01788900   1.008000   ; qtot 64.510823
 1933         c3     65    bbb     C5   1933 -0.11337700  12.010000   ; qtot 64.397446
 1934         hc     65    bbb     H9   1934 0.09515400   1.008000   ; qtot 64.492600
 1935         hc     65    bbb    H10   1935 0.09515400   1.008000   ; qtot 64.587754
 1936         c3     65    bbb     C6   1936 -0.11337700  12.010000   ; qtot 64.474377
 1937         hc     65    bbb    H11   1937 0.09515400   1.008000   ; qtot 64.569531
 1938         hc     65    bbb    H12   1938 0.09515400   1.008000   ; qtot 64.664685
 1939         c3     65    bbb     C7   1939 0.21842400  12.010000   ; qtot 64.883109
 1940         h1     65    bbb    H13   1940 0.04500300   1.008000   ; qtot 64.928112
 1941         h1     65    bbb    H14   1941 0.04500300   1.008000   ; qtot 64.973115
 1942         c3     65    bbb     C8   1942 -0.06455200  12.010000   ; qtot 64.908563
 1943         h1     65    bbb    H15   1943 0.13554100   1.008000   ; qtot 65.044104
 1944         h1     65    bbb    H16   1944 0.13554100   1.008000   ; qtot 65.179645
 1945         c3     65    bbb     C9   1945 -0.06455200  12.010000   ; qtot 65.115093
 1946         h1     65    bbb    H17   1946 0.13554100   1.008000   ; qtot 65.250634
 1947         h1     65    bbb    H18   1947 0.13554100   1.008000   ; qtot 65.386175
 1948         os     65    bbb     O1   1948 -0.62587700  16.000000   ; qtot 64.760298
 1949         hn     65    bbb    H19   1949 0.23982500   1.008000   ; qtot 65.000123
; residue   66 bbb rtp bbb q 1.0
 1950         n4     66    bbb     N1   1950 0.03726400  14.010000   ; qtot 65.037387
 1951         c3     66    bbb     C1   1951 -0.07020100  12.010000   ; qtot 64.967186
 1952         hx     66    bbb     H1   1952 0.12219000   1.008000   ; qtot 65.089376
 1953         hx     66    bbb     H2   1953 0.12219000   1.008000   ; qtot 65.211566
 1954         c3     66    bbb     C2   1954 -0.07020100  12.010000   ; qtot 65.141365
 1955         hx     66    bbb     H3   1955 0.12219000   1.008000   ; qtot 65.263555
 1956         hx     66    bbb     H4   1956 0.12219000   1.008000   ; qtot 65.385745
 1957         c3     66    bbb     C3   1957 -0.39007700  12.010000   ; qtot 64.995668
 1958         hx     66    bbb     H5   1958 0.14940300   1.008000   ; qtot 65.145071
 1959         hx     66    bbb     H6   1959 0.14940300   1.008000   ; qtot 65.294474
 1960         c3     66    bbb     C4   1960 0.18057300  12.010000   ; qtot 65.475047
 1961         hc     66    bbb     H7   1961 0.01788900   1.008000   ; qtot 65.492936
 1962         hc     66    bbb     H8   1962 0.01788900   1.008000   ; qtot 65.510825
 1963         c3     66    bbb     C5   1963 -0.11337700  12.010000   ; qtot 65.397448
 1964         hc     66    bbb     H9   1964 0.09515400   1.008000   ; qtot 65.492602
 1965         hc     66    bbb    H10   1965 0.09515400   1.008000   ; qtot 65.587756
 1966         c3     66    bbb     C6   1966 -0.11337700  12.010000   ; qtot 65.474379
 1967         hc     66    bbb    H11   1967 0.09515400   1.008000   ; qtot 65.569533
 1968         hc     66    bbb    H12   1968 0.09515400   1.008000   ; qtot 65.664687
 1969         c3     66    bbb     C7   1969 0.21842400  12.010000   ; qtot 65.883111
 1970         h1     66    bbb    H13   1970 0.04500300   1.008000   ; qtot 65.928114
 1971         h1     66    bbb    H14   1971 0.04500300   1.008000   ; qtot 65.973117
 1972         c3     66    bbb     C8   1972 -0.06455200  12.010000   ; qtot 65.908565
 1973         h1     66    bbb    H15   1973 0.13554100   1.008000   ; qtot 66.044106
 1974         h1     66    bbb    H16   1974 0.13554100   1.008000   ; qtot 66.179647
 1975         c3     66    bbb     C9   1975 -0.06455200  12.010000   ; qtot 66.115095
 1976         h1     66    bbb    H17   1976 0.13554100   1.008000   ; qtot 66.250636
 1977         h1     66    bbb    H18   1977 0.13554100   1.008000   ; qtot 66.386177
 1978         os     66    bbb     O1   1978 -0.62587700  16.000000   ; qtot 65.760300
 1979         hn     66    bbb    H19   1979 0.23982500   1.008000   ; qtot 66.000125
; residue   67 bbb rtp bbb q 1.0
 1980         n4     67    bbb     N1   1980 0.03726400  14.010000   ; qtot 66.037389
 1981         c3     67    bbb     C1   1981 -0.07020100  12.010000   ; qtot 65.967188
 1982         hx     67    bbb     H1   1982 0.12219000   1.008000   ; qtot 66.089378
 1983         hx     67    bbb     H2   1983 0.12219000   1.008000   ; qtot 66.211568
 1984         c3     67    bbb     C2   1984 -0.07020100  12.010000   ; qtot 66.141367
 1985         hx     67    bbb     H3   1985 0.12219000   1.008000   ; qtot 66.263557
 1986         hx     67    bbb     H4   1986 0.12219000   1.008000   ; qtot 66.385747
 1987         c3     67    bbb     C3   1987 -0.39007700  12.010000   ; qtot 65.995670
 1988         hx     67    bbb     H5   1988 0.14940300   1.008000   ; qtot 66.145073
 1989         hx     67    bbb     H6   1989 0.14940300   1.008000   ; qtot 66.294476
 1990         c3     67    bbb     C4   1990 0.18057300  12.010000   ; qtot 66.475049
 1991         hc     67    bbb     H7   1991 0.01788900   1.008000   ; qtot 66.492938
 1992         hc     67    bbb     H8   1992 0.01788900   1.008000   ; qtot 66.510827
 1993         c3     67    bbb     C5   1993 -0.11337700  12.010000   ; qtot 66.397450
 1994         hc     67    bbb     H9   1994 0.09515400   1.008000   ; qtot 66.492604
 1995         hc     67    bbb    H10   1995 0.09515400   1.008000   ; qtot 66.587758
 1996         c3     67    bbb     C6   1996 -0.11337700  12.010000   ; qtot 66.474381
 1997         hc     67    bbb    H11   1997 0.09515400   1.008000   ; qtot 66.569535
 1998         hc     67    bbb    H12   1998 0.09515400   1.008000   ; qtot 66.664689
 1999         c3     67    bbb     C7   1999 0.21842400  12.010000   ; qtot 66.883113
 2000         h1     67    bbb    H13   2000 0.04500300   1.008000   ; qtot 66.928116
 2001         h1     67    bbb    H14   2001 0.04500300   1.008000   ; qtot 66.973119
 2002         c3     67    bbb     C8   2002 -0.06455200  12.010000   ; qtot 66.908567
 2003         h1     67    bbb    H15   2003 0.13554100   1.008000   ; qtot 67.044108
 2004         h1     67    bbb    H16   2004 0.13554100   1.008000   ; qtot 67.179649
 2005         c3     67    bbb     C9   2005 -0.06455200  12.010000   ; qtot 67.115097
 2006         h1     67    bbb    H17   2006 0.13554100   1.008000   ; qtot 67.250638
 2007         h1     67    bbb    H18   2007 0.13554100   1.008000   ; qtot 67.386179
 2008         os     67    bbb     O1   2008 -0.62587700  16.000000   ; qtot 66.760302
 2009         hn     67    bbb    H19   2009 0.23982500   1.008000   ; qtot 67.000127
; residue   68 bbb rtp bbb q 1.0
 2010         n4     68    bbb     N1   2010 0.03726400  14.010000   ; qtot 67.037391
 2011         c3     68    bbb     C1   2011 -0.07020100  12.010000   ; qtot 66.967190
 2012         hx     68    bbb     H1   2012 0.12219000   1.008000   ; qtot 67.089380
 2013         hx     68    bbb     H2   2013 0.12219000   1.008000   ; qtot 67.211570
 2014         c3     68    bbb     C2   2014 -0.07020100  12.010000   ; qtot 67.141369
 2015         hx     68    bbb     H3   2015 0.12219000   1.008000   ; qtot 67.263559
 2016         hx     68    bbb     H4   2016 0.12219000   1.008000   ; qtot 67.385749
 2017         c3     68    bbb     C3   2017 -0.39007700  12.010000   ; qtot 66.995672
 2018         hx     68    bbb     H5   2018 0.14940300   1.008000   ; qtot 67.145075
 2019         hx     68    bbb     H6   2019 0.14940300   1.008000   ; qtot 67.294478
 2020         c3     68    bbb     C4   2020 0.18057300  12.010000   ; qtot 67.475051
 2021         hc     68    bbb     H7   2021 0.01788900   1.008000   ; qtot 67.492940
 2022         hc     68    bbb     H8   2022 0.01788900   1.008000   ; qtot 67.510829
 2023         c3     68    bbb     C5   2023 -0.11337700  12.010000   ; qtot 67.397452
 2024         hc     68    bbb     H9   2024 0.09515400   1.008000   ; qtot 67.492606
 2025         hc     68    bbb    H10   2025 0.09515400   1.008000   ; qtot 67.587760
 2026         c3     68    bbb     C6   2026 -0.11337700  12.010000   ; qtot 67.474383
 2027         hc     68    bbb    H11   2027 0.09515400   1.008000   ; qtot 67.569537
 2028         hc     68    bbb    H12   2028 0.09515400   1.008000   ; qtot 67.664691
 2029         c3     68    bbb     C7   2029 0.21842400  12.010000   ; qtot 67.883115
 2030         h1     68    bbb    H13   2030 0.04500300   1.008000   ; qtot 67.928118
 2031         h1     68    bbb    H14   2031 0.04500300   1.008000   ; qtot 67.973121
 2032         c3     68    bbb     C8   2032 -0.06455200  12.010000   ; qtot 67.908569
 2033         h1     68    bbb    H15   2033 0.13554100   1.008000   ; qtot 68.044110
 2034         h1     68    bbb    H16   2034 0.13554100   1.008000   ; qtot 68.179651
 2035         c3     68    bbb     C9   2035 -0.06455200  12.010000   ; qtot 68.115099
 2036         h1     68    bbb    H17   2036 0.13554100   1.008000   ; qtot 68.250640
 2037         h1     68    bbb    H18   2037 0.13554100   1.008000   ; qtot 68.386181
 2038         os     68    bbb     O1   2038 -0.62587700  16.000000   ; qtot 67.760304
 2039         hn     68    bbb    H19   2039 0.23982500   1.008000   ; qtot 68.000129
; residue   69 bbb rtp bbb q 1.0
 2040         n4     69    bbb     N1   2040 0.03726400  14.010000   ; qtot 68.037393
 2041         c3     69    bbb     C1   2041 -0.07020100  12.010000   ; qtot 67.967192
 2042         hx     69    bbb     H1   2042 0.12219000   1.008000   ; qtot 68.089382
 2043         hx     69    bbb     H2   2043 0.12219000   1.008000   ; qtot 68.211572
 2044         c3     69    bbb     C2   2044 -0.07020100  12.010000   ; qtot 68.141371
 2045         hx     69    bbb     H3   2045 0.12219000   1.008000   ; qtot 68.263561
 2046         hx     69    bbb     H4   2046 0.12219000   1.008000   ; qtot 68.385751
 2047         c3     69    bbb     C3   2047 -0.39007700  12.010000   ; qtot 67.995674
 2048         hx     69    bbb     H5   2048 0.14940300   1.008000   ; qtot 68.145077
 2049         hx     69    bbb     H6   2049 0.14940300   1.008000   ; qtot 68.294480
 2050         c3     69    bbb     C4   2050 0.18057300  12.010000   ; qtot 68.475053
 2051         hc     69    bbb     H7   2051 0.01788900   1.008000   ; qtot 68.492942
 2052         hc     69    bbb     H8   2052 0.01788900   1.008000   ; qtot 68.510831
 2053         c3     69    bbb     C5   2053 -0.11337700  12.010000   ; qtot 68.397454
 2054         hc     69    bbb     H9   2054 0.09515400   1.008000   ; qtot 68.492608
 2055         hc     69    bbb    H10   2055 0.09515400   1.008000   ; qtot 68.587762
 2056         c3     69    bbb     C6   2056 -0.11337700  12.010000   ; qtot 68.474385
 2057         hc     69    bbb    H11   2057 0.09515400   1.008000   ; qtot 68.569539
 2058         hc     69    bbb    H12   2058 0.09515400   1.008000   ; qtot 68.664693
 2059         c3     69    bbb     C7   2059 0.21842400  12.010000   ; qtot 68.883117
 2060         h1     69    bbb    H13   2060 0.04500300   1.008000   ; qtot 68.928120
 2061         h1     69    bbb    H14   2061 0.04500300   1.008000   ; qtot 68.973123
 2062         c3     69    bbb     C8   2062 -0.06455200  12.010000   ; qtot 68.908571
 2063         h1     69    bbb    H15   2063 0.13554100   1.008000   ; qtot 69.044112
 2064         h1     69    bbb    H16   2064 0.13554100   1.008000   ; qtot 69.179653
 2065         c3     69    bbb     C9   2065 -0.06455200  12.010000   ; qtot 69.115101
 2066         h1     69    bbb    H17   2066 0.13554100   1.008000   ; qtot 69.250642
 2067         h1     69    bbb    H18   2067 0.13554100   1.008000   ; qtot 69.386183
 2068         os     69    bbb     O1   2068 -0.62587700  16.000000   ; qtot 68.760306
 2069         hn     69    bbb    H19   2069 0.23982500   1.008000   ; qtot 69.000131
; residue   70 bbb rtp bbb q 1.0
 2070         n4     70    bbb     N1   2070 0.03726400  14.010000   ; qtot 69.037395
 2071         c3     70    bbb     C1   2071 -0.07020100  12.010000   ; qtot 68.967194
 2072         hx     70    bbb     H1   2072 0.12219000   1.008000   ; qtot 69.089384
 2073         hx     70    bbb     H2   2073 0.12219000   1.008000   ; qtot 69.211574
 2074         c3     70    bbb     C2   2074 -0.07020100  12.010000   ; qtot 69.141373
 2075         hx     70    bbb     H3   2075 0.12219000   1.008000   ; qtot 69.263563
 2076         hx     70    bbb     H4   2076 0.12219000   1.008000   ; qtot 69.385753
 2077         c3     70    bbb     C3   2077 -0.39007700  12.010000   ; qtot 68.995676
 2078         hx     70    bbb     H5   2078 0.14940300   1.008000   ; qtot 69.145079
 2079         hx     70    bbb     H6   2079 0.14940300   1.008000   ; qtot 69.294482
 2080         c3     70    bbb     C4   2080 0.18057300  12.010000   ; qtot 69.475055
 2081         hc     70    bbb     H7   2081 0.01788900   1.008000   ; qtot 69.492944
 2082         hc     70    bbb     H8   2082 0.01788900   1.008000   ; qtot 69.510833
 2083         c3     70    bbb     C5   2083 -0.11337700  12.010000   ; qtot 69.397456
 2084         hc     70    bbb     H9   2084 0.09515400   1.008000   ; qtot 69.492610
 2085         hc     70    bbb    H10   2085 0.09515400   1.008000   ; qtot 69.587764
 2086         c3     70    bbb     C6   2086 -0.11337700  12.010000   ; qtot 69.474387
 2087         hc     70    bbb    H11   2087 0.09515400   1.008000   ; qtot 69.569541
 2088         hc     70    bbb    H12   2088 0.09515400   1.008000   ; qtot 69.664695
 2089         c3     70    bbb     C7   2089 0.21842400  12.010000   ; qtot 69.883119
 2090         h1     70    bbb    H13   2090 0.04500300   1.008000   ; qtot 69.928122
 2091         h1     70    bbb    H14   2091 0.04500300   1.008000   ; qtot 69.973125
 2092         c3     70    bbb     C8   2092 -0.06455200  12.010000   ; qtot 69.908573
 2093         h1     70    bbb    H15   2093 0.13554100   1.008000   ; qtot 70.044114
 2094         h1     70    bbb    H16   2094 0.13554100   1.008000   ; qtot 70.179655
 2095         c3     70    bbb     C9   2095 -0.06455200  12.010000   ; qtot 70.115103
 2096         h1     70    bbb    H17   2096 0.13554100   1.008000   ; qtot 70.250644
 2097         h1     70    bbb    H18   2097 0.13554100   1.008000   ; qtot 70.386185
 2098         os     70    bbb     O1   2098 -0.62587700  16.000000   ; qtot 69.760308
 2099         hn     70    bbb    H19   2099 0.23982500   1.008000   ; qtot 70.000133
; residue   71 bbb rtp bbb q 1.0
 2100         n4     71    bbb     N1   2100 0.03726400  14.010000   ; qtot 70.037397
 2101         c3     71    bbb     C1   2101 -0.07020100  12.010000   ; qtot 69.967196
 2102         hx     71    bbb     H1   2102 0.12219000   1.008000   ; qtot 70.089386
 2103         hx     71    bbb     H2   2103 0.12219000   1.008000   ; qtot 70.211576
 2104         c3     71    bbb     C2   2104 -0.07020100  12.010000   ; qtot 70.141375
 2105         hx     71    bbb     H3   2105 0.12219000   1.008000   ; qtot 70.263565
 2106         hx     71    bbb     H4   2106 0.12219000   1.008000   ; qtot 70.385755
 2107         c3     71    bbb     C3   2107 -0.39007700  12.010000   ; qtot 69.995678
 2108         hx     71    bbb     H5   2108 0.14940300   1.008000   ; qtot 70.145081
 2109         hx     71    bbb     H6   2109 0.14940300   1.008000   ; qtot 70.294484
 2110         c3     71    bbb     C4   2110 0.18057300  12.010000   ; qtot 70.475057
 2111         hc     71    bbb     H7   2111 0.01788900   1.008000   ; qtot 70.492946
 2112         hc     71    bbb     H8   2112 0.01788900   1.008000   ; qtot 70.510835
 2113         c3     71    bbb     C5   2113 -0.11337700  12.010000   ; qtot 70.397458
 2114         hc     71    bbb     H9   2114 0.09515400   1.008000   ; qtot 70.492612
 2115         hc     71    bbb    H10   2115 0.09515400   1.008000   ; qtot 70.587766
 2116         c3     71    bbb     C6   2116 -0.11337700  12.010000   ; qtot 70.474389
 2117         hc     71    bbb    H11   2117 0.09515400   1.008000   ; qtot 70.569543
 2118         hc     71    bbb    H12   2118 0.09515400   1.008000   ; qtot 70.664697
 2119         c3     71    bbb     C7   2119 0.21842400  12.010000   ; qtot 70.883121
 2120         h1     71    bbb    H13   2120 0.04500300   1.008000   ; qtot 70.928124
 2121         h1     71    bbb    H14   2121 0.04500300   1.008000   ; qtot 70.973127
 2122         c3     71    bbb     C8   2122 -0.06455200  12.010000   ; qtot 70.908575
 2123         h1     71    bbb    H15   2123 0.13554100   1.008000   ; qtot 71.044116
 2124         h1     71    bbb    H16   2124 0.13554100   1.008000   ; qtot 71.179657
 2125         c3     71    bbb     C9   2125 -0.06455200  12.010000   ; qtot 71.115105
 2126         h1     71    bbb    H17   2126 0.13554100   1.008000   ; qtot 71.250646
 2127         h1     71    bbb    H18   2127 0.13554100   1.008000   ; qtot 71.386187
 2128         os     71    bbb     O1   2128 -0.62587700  16.000000   ; qtot 70.760310
 2129         hn     71    bbb    H19   2129 0.23982500   1.008000   ; qtot 71.000135
; residue   72 bbb rtp bbb q 1.0
 2130         n4     72    bbb     N1   2130 0.03726400  14.010000   ; qtot 71.037399
 2131         c3     72    bbb     C1   2131 -0.07020100  12.010000   ; qtot 70.967198
 2132         hx     72    bbb     H1   2132 0.12219000   1.008000   ; qtot 71.089388
 2133         hx     72    bbb     H2   2133 0.12219000   1.008000   ; qtot 71.211578
 2134         c3     72    bbb     C2   2134 -0.07020100  12.010000   ; qtot 71.141377
 2135         hx     72    bbb     H3   2135 0.12219000   1.008000   ; qtot 71.263567
 2136         hx     72    bbb     H4   2136 0.12219000   1.008000   ; qtot 71.385757
 2137         c3     72    bbb     C3   2137 -0.39007700  12.010000   ; qtot 70.995680
 2138         hx     72    bbb     H5   2138 0.14940300   1.008000   ; qtot 71.145083
 2139         hx     72    bbb     H6   2139 0.14940300   1.008000   ; qtot 71.294486
 2140         c3     72    bbb     C4   2140 0.18057300  12.010000   ; qtot 71.475059
 2141         hc     72    bbb     H7   2141 0.01788900   1.008000   ; qtot 71.492948
 2142         hc     72    bbb     H8   2142 0.01788900   1.008000   ; qtot 71.510837
 2143         c3     72    bbb     C5   2143 -0.11337700  12.010000   ; qtot 71.397460
 2144         hc     72    bbb     H9   2144 0.09515400   1.008000   ; qtot 71.492614
 2145         hc     72    bbb    H10   2145 0.09515400   1.008000   ; qtot 71.587768
 2146         c3     72    bbb     C6   2146 -0.11337700  12.010000   ; qtot 71.474391
 2147         hc     72    bbb    H11   2147 0.09515400   1.008000   ; qtot 71.569545
 2148         hc     72    bbb    H12   2148 0.09515400   1.008000   ; qtot 71.664699
 2149         c3     72    bbb     C7   2149 0.21842400  12.010000   ; qtot 71.883123
 2150         h1     72    bbb    H13   2150 0.04500300   1.008000   ; qtot 71.928126
 2151         h1     72    bbb    H14   2151 0.04500300   1.008000   ; qtot 71.973129
 2152         c3     72    bbb     C8   2152 -0.06455200  12.010000   ; qtot 71.908577
 2153         h1     72    bbb    H15   2153 0.13554100   1.008000   ; qtot 72.044118
 2154         h1     72    bbb    H16   2154 0.13554100   1.008000   ; qtot 72.179659
 2155         c3     72    bbb     C9   2155 -0.06455200  12.010000   ; qtot 72.115107
 2156         h1     72    bbb    H17   2156 0.13554100   1.008000   ; qtot 72.250648
 2157         h1     72    bbb    H18   2157 0.13554100   1.008000   ; qtot 72.386189
 2158         os     72    bbb     O1   2158 -0.62587700  16.000000   ; qtot 71.760312
 2159         hn     72    bbb    H19   2159 0.23982500   1.008000   ; qtot 72.000137
; residue   73 bbb rtp bbb q 1.0
 2160         n4     73    bbb     N1   2160 0.03726400  14.010000   ; qtot 72.037401
 2161         c3     73    bbb     C1   2161 -0.07020100  12.010000   ; qtot 71.967200
 2162         hx     73    bbb     H1   2162 0.12219000   1.008000   ; qtot 72.089390
 2163         hx     73    bbb     H2   2163 0.12219000   1.008000   ; qtot 72.211580
 2164         c3     73    bbb     C2   2164 -0.07020100  12.010000   ; qtot 72.141379
 2165         hx     73    bbb     H3   2165 0.12219000   1.008000   ; qtot 72.263569
 2166         hx     73    bbb     H4   2166 0.12219000   1.008000   ; qtot 72.385759
 2167         c3     73    bbb     C3   2167 -0.39007700  12.010000   ; qtot 71.995682
 2168         hx     73    bbb     H5   2168 0.14940300   1.008000   ; qtot 72.145085
 2169         hx     73    bbb     H6   2169 0.14940300   1.008000   ; qtot 72.294488
 2170         c3     73    bbb     C4   2170 0.18057300  12.010000   ; qtot 72.475061
 2171         hc     73    bbb     H7   2171 0.01788900   1.008000   ; qtot 72.492950
 2172         hc     73    bbb     H8   2172 0.01788900   1.008000   ; qtot 72.510839
 2173         c3     73    bbb     C5   2173 -0.11337700  12.010000   ; qtot 72.397462
 2174         hc     73    bbb     H9   2174 0.09515400   1.008000   ; qtot 72.492616
 2175         hc     73    bbb    H10   2175 0.09515400   1.008000   ; qtot 72.587770
 2176         c3     73    bbb     C6   2176 -0.11337700  12.010000   ; qtot 72.474393
 2177         hc     73    bbb    H11   2177 0.09515400   1.008000   ; qtot 72.569547
 2178         hc     73    bbb    H12   2178 0.09515400   1.008000   ; qtot 72.664701
 2179         c3     73    bbb     C7   2179 0.21842400  12.010000   ; qtot 72.883125
 2180         h1     73    bbb    H13   2180 0.04500300   1.008000   ; qtot 72.928128
 2181         h1     73    bbb    H14   2181 0.04500300   1.008000   ; qtot 72.973131
 2182         c3     73    bbb     C8   2182 -0.06455200  12.010000   ; qtot 72.908579
 2183         h1     73    bbb    H15   2183 0.13554100   1.008000   ; qtot 73.044120
 2184         h1     73    bbb    H16   2184 0.13554100   1.008000   ; qtot 73.179661
 2185         c3     73    bbb     C9   2185 -0.06455200  12.010000   ; qtot 73.115109
 2186         h1     73    bbb    H17   2186 0.13554100   1.008000   ; qtot 73.250650
 2187         h1     73    bbb    H18   2187 0.13554100   1.008000   ; qtot 73.386191
 2188         os     73    bbb     O1   2188 -0.62587700  16.000000   ; qtot 72.760314
 2189         hn     73    bbb    H19   2189 0.23982500   1.008000   ; qtot 73.000139
; residue   74 bbb rtp bbb q 1.0
 2190         n4     74    bbb     N1   2190 0.03726400  14.010000   ; qtot 73.037403
 2191         c3     74    bbb     C1   2191 -0.07020100  12.010000   ; qtot 72.967202
 2192         hx     74    bbb     H1   2192 0.12219000   1.008000   ; qtot 73.089392
 2193         hx     74    bbb     H2   2193 0.12219000   1.008000   ; qtot 73.211582
 2194         c3     74    bbb     C2   2194 -0.07020100  12.010000   ; qtot 73.141381
 2195         hx     74    bbb     H3   2195 0.12219000   1.008000   ; qtot 73.263571
 2196         hx     74    bbb     H4   2196 0.12219000   1.008000   ; qtot 73.385761
 2197         c3     74    bbb     C3   2197 -0.39007700  12.010000   ; qtot 72.995684
 2198         hx     74    bbb     H5   2198 0.14940300   1.008000   ; qtot 73.145087
 2199         hx     74    bbb     H6   2199 0.14940300   1.008000   ; qtot 73.294490
 2200         c3     74    bbb     C4   2200 0.18057300  12.010000   ; qtot 73.475063
 2201         hc     74    bbb     H7   2201 0.01788900   1.008000   ; qtot 73.492952
 2202         hc     74    bbb     H8   2202 0.01788900   1.008000   ; qtot 73.510841
 2203         c3     74    bbb     C5   2203 -0.11337700  12.010000   ; qtot 73.397464
 2204         hc     74    bbb     H9   2204 0.09515400   1.008000   ; qtot 73.492618
 2205         hc     74    bbb    H10   2205 0.09515400   1.008000   ; qtot 73.587772
 2206         c3     74    bbb     C6   2206 -0.11337700  12.010000   ; qtot 73.474395
 2207         hc     74    bbb    H11   2207 0.09515400   1.008000   ; qtot 73.569549
 2208         hc     74    bbb    H12   2208 0.09515400   1.008000   ; qtot 73.664703
 2209         c3     74    bbb     C7   2209 0.21842400  12.010000   ; qtot 73.883127
 2210         h1     74    bbb    H13   2210 0.04500300   1.008000   ; qtot 73.928130
 2211         h1     74    bbb    H14   2211 0.04500300   1.008000   ; qtot 73.973133
 2212         c3     74    bbb     C8   2212 -0.06455200  12.010000   ; qtot 73.908581
 2213         h1     74    bbb    H15   2213 0.13554100   1.008000   ; qtot 74.044122
 2214         h1     74    bbb    H16   2214 0.13554100   1.008000   ; qtot 74.179663
 2215         c3     74    bbb     C9   2215 -0.06455200  12.010000   ; qtot 74.115111
 2216         h1     74    bbb    H17   2216 0.13554100   1.008000   ; qtot 74.250652
 2217         h1     74    bbb    H18   2217 0.13554100   1.008000   ; qtot 74.386193
 2218         os     74    bbb     O1   2218 -0.62587700  16.000000   ; qtot 73.760316
 2219         hn     74    bbb    H19   2219 0.23982500   1.008000   ; qtot 74.000141
; residue   75 bbb rtp bbb q 1.0
 2220         n4     75    bbb     N1   2220 0.03726400  14.010000   ; qtot 74.037405
 2221         c3     75    bbb     C1   2221 -0.07020100  12.010000   ; qtot 73.967204
 2222         hx     75    bbb     H1   2222 0.12219000   1.008000   ; qtot 74.089394
 2223         hx     75    bbb     H2   2223 0.12219000   1.008000   ; qtot 74.211584
 2224         c3     75    bbb     C2   2224 -0.07020100  12.010000   ; qtot 74.141383
 2225         hx     75    bbb     H3   2225 0.12219000   1.008000   ; qtot 74.263573
 2226         hx     75    bbb     H4   2226 0.12219000   1.008000   ; qtot 74.385763
 2227         c3     75    bbb     C3   2227 -0.39007700  12.010000   ; qtot 73.995686
 2228         hx     75    bbb     H5   2228 0.14940300   1.008000   ; qtot 74.145089
 2229         hx     75    bbb     H6   2229 0.14940300   1.008000   ; qtot 74.294492
 2230         c3     75    bbb     C4   2230 0.18057300  12.010000   ; qtot 74.475065
 2231         hc     75    bbb     H7   2231 0.01788900   1.008000   ; qtot 74.492954
 2232         hc     75    bbb     H8   2232 0.01788900   1.008000   ; qtot 74.510843
 2233         c3     75    bbb     C5   2233 -0.11337700  12.010000   ; qtot 74.397466
 2234         hc     75    bbb     H9   2234 0.09515400   1.008000   ; qtot 74.492620
 2235         hc     75    bbb    H10   2235 0.09515400   1.008000   ; qtot 74.587774
 2236         c3     75    bbb     C6   2236 -0.11337700  12.010000   ; qtot 74.474397
 2237         hc     75    bbb    H11   2237 0.09515400   1.008000   ; qtot 74.569551
 2238         hc     75    bbb    H12   2238 0.09515400   1.008000   ; qtot 74.664705
 2239         c3     75    bbb     C7   2239 0.21842400  12.010000   ; qtot 74.883129
 2240         h1     75    bbb    H13   2240 0.04500300   1.008000   ; qtot 74.928132
 2241         h1     75    bbb    H14   2241 0.04500300   1.008000   ; qtot 74.973135
 2242         c3     75    bbb     C8   2242 -0.06455200  12.010000   ; qtot 74.908583
 2243         h1     75    bbb    H15   2243 0.13554100   1.008000   ; qtot 75.044124
 2244         h1     75    bbb    H16   2244 0.13554100   1.008000   ; qtot 75.179665
 2245         c3     75    bbb     C9   2245 -0.06455200  12.010000   ; qtot 75.115113
 2246         h1     75    bbb    H17   2246 0.13554100   1.008000   ; qtot 75.250654
 2247         h1     75    bbb    H18   2247 0.13554100   1.008000   ; qtot 75.386195
 2248         os     75    bbb     O1   2248 -0.62587700  16.000000   ; qtot 74.760318
 2249         hn     75    bbb    H19   2249 0.23982500   1.008000   ; qtot 75.000143
; residue   76 bbb rtp bbb q 1.0
 2250         n4     76    bbb     N1   2250 0.03726400  14.010000   ; qtot 75.037407
 2251         c3     76    bbb     C1   2251 -0.07020100  12.010000   ; qtot 74.967206
 2252         hx     76    bbb     H1   2252 0.12219000   1.008000   ; qtot 75.089396
 2253         hx     76    bbb     H2   2253 0.12219000   1.008000   ; qtot 75.211586
 2254         c3     76    bbb     C2   2254 -0.07020100  12.010000   ; qtot 75.141385
 2255         hx     76    bbb     H3   2255 0.12219000   1.008000   ; qtot 75.263575
 2256         hx     76    bbb     H4   2256 0.12219000   1.008000   ; qtot 75.385765
 2257         c3     76    bbb     C3   2257 -0.39007700  12.010000   ; qtot 74.995688
 2258         hx     76    bbb     H5   2258 0.14940300   1.008000   ; qtot 75.145091
 2259         hx     76    bbb     H6   2259 0.14940300   1.008000   ; qtot 75.294494
 2260         c3     76    bbb     C4   2260 0.18057300  12.010000   ; qtot 75.475067
 2261         hc     76    bbb     H7   2261 0.01788900   1.008000   ; qtot 75.492956
 2262         hc     76    bbb     H8   2262 0.01788900   1.008000   ; qtot 75.510845
 2263         c3     76    bbb     C5   2263 -0.11337700  12.010000   ; qtot 75.397468
 2264         hc     76    bbb     H9   2264 0.09515400   1.008000   ; qtot 75.492622
 2265         hc     76    bbb    H10   2265 0.09515400   1.008000   ; qtot 75.587776
 2266         c3     76    bbb     C6   2266 -0.11337700  12.010000   ; qtot 75.474399
 2267         hc     76    bbb    H11   2267 0.09515400   1.008000   ; qtot 75.569553
 2268         hc     76    bbb    H12   2268 0.09515400   1.008000   ; qtot 75.664707
 2269         c3     76    bbb     C7   2269 0.21842400  12.010000   ; qtot 75.883131
 2270         h1     76    bbb    H13   2270 0.04500300   1.008000   ; qtot 75.928134
 2271         h1     76    bbb    H14   2271 0.04500300   1.008000   ; qtot 75.973137
 2272         c3     76    bbb     C8   2272 -0.06455200  12.010000   ; qtot 75.908585
 2273         h1     76    bbb    H15   2273 0.13554100   1.008000   ; qtot 76.044126
 2274         h1     76    bbb    H16   2274 0.13554100   1.008000   ; qtot 76.179667
 2275         c3     76    bbb     C9   2275 -0.06455200  12.010000   ; qtot 76.115115
 2276         h1     76    bbb    H17   2276 0.13554100   1.008000   ; qtot 76.250656
 2277         h1     76    bbb    H18   2277 0.13554100   1.008000   ; qtot 76.386197
 2278         os     76    bbb     O1   2278 -0.62587700  16.000000   ; qtot 75.760320
 2279         hn     76    bbb    H19   2279 0.23982500   1.008000   ; qtot 76.000145
; residue   77 bbb rtp bbb q 1.0
 2280         n4     77    bbb     N1   2280 0.03726400  14.010000   ; qtot 76.037409
 2281         c3     77    bbb     C1   2281 -0.07020100  12.010000   ; qtot 75.967208
 2282         hx     77    bbb     H1   2282 0.12219000   1.008000   ; qtot 76.089398
 2283         hx     77    bbb     H2   2283 0.12219000   1.008000   ; qtot 76.211588
 2284         c3     77    bbb     C2   2284 -0.07020100  12.010000   ; qtot 76.141387
 2285         hx     77    bbb     H3   2285 0.12219000   1.008000   ; qtot 76.263577
 2286         hx     77    bbb     H4   2286 0.12219000   1.008000   ; qtot 76.385767
 2287         c3     77    bbb     C3   2287 -0.39007700  12.010000   ; qtot 75.995690
 2288         hx     77    bbb     H5   2288 0.14940300   1.008000   ; qtot 76.145093
 2289         hx     77    bbb     H6   2289 0.14940300   1.008000   ; qtot 76.294496
 2290         c3     77    bbb     C4   2290 0.18057300  12.010000   ; qtot 76.475069
 2291         hc     77    bbb     H7   2291 0.01788900   1.008000   ; qtot 76.492958
 2292         hc     77    bbb     H8   2292 0.01788900   1.008000   ; qtot 76.510847
 2293         c3     77    bbb     C5   2293 -0.11337700  12.010000   ; qtot 76.397470
 2294         hc     77    bbb     H9   2294 0.09515400   1.008000   ; qtot 76.492624
 2295         hc     77    bbb    H10   2295 0.09515400   1.008000   ; qtot 76.587778
 2296         c3     77    bbb     C6   2296 -0.11337700  12.010000   ; qtot 76.474401
 2297         hc     77    bbb    H11   2297 0.09515400   1.008000   ; qtot 76.569555
 2298         hc     77    bbb    H12   2298 0.09515400   1.008000   ; qtot 76.664709
 2299         c3     77    bbb     C7   2299 0.21842400  12.010000   ; qtot 76.883133
 2300         h1     77    bbb    H13   2300 0.04500300   1.008000   ; qtot 76.928136
 2301         h1     77    bbb    H14   2301 0.04500300   1.008000   ; qtot 76.973139
 2302         c3     77    bbb     C8   2302 -0.06455200  12.010000   ; qtot 76.908587
 2303         h1     77    bbb    H15   2303 0.13554100   1.008000   ; qtot 77.044128
 2304         h1     77    bbb    H16   2304 0.13554100   1.008000   ; qtot 77.179669
 2305         c3     77    bbb     C9   2305 -0.06455200  12.010000   ; qtot 77.115117
 2306         h1     77    bbb    H17   2306 0.13554100   1.008000   ; qtot 77.250658
 2307         h1     77    bbb    H18   2307 0.13554100   1.008000   ; qtot 77.386199
 2308         os     77    bbb     O1   2308 -0.62587700  16.000000   ; qtot 76.760322
 2309         hn     77    bbb    H19   2309 0.23982500   1.008000   ; qtot 77.000147
; residue   78 bbb rtp bbb q 1.0
 2310         n4     78    bbb     N1   2310 0.03726400  14.010000   ; qtot 77.037411
 2311         c3     78    bbb     C1   2311 -0.07020100  12.010000   ; qtot 76.967210
 2312         hx     78    bbb     H1   2312 0.12219000   1.008000   ; qtot 77.089400
 2313         hx     78    bbb     H2   2313 0.12219000   1.008000   ; qtot 77.211590
 2314         c3     78    bbb     C2   2314 -0.07020100  12.010000   ; qtot 77.141389
 2315         hx     78    bbb     H3   2315 0.12219000   1.008000   ; qtot 77.263579
 2316         hx     78    bbb     H4   2316 0.12219000   1.008000   ; qtot 77.385769
 2317         c3     78    bbb     C3   2317 -0.39007700  12.010000   ; qtot 76.995692
 2318         hx     78    bbb     H5   2318 0.14940300   1.008000   ; qtot 77.145095
 2319         hx     78    bbb     H6   2319 0.14940300   1.008000   ; qtot 77.294498
 2320         c3     78    bbb     C4   2320 0.18057300  12.010000   ; qtot 77.475071
 2321         hc     78    bbb     H7   2321 0.01788900   1.008000   ; qtot 77.492960
 2322         hc     78    bbb     H8   2322 0.01788900   1.008000   ; qtot 77.510849
 2323         c3     78    bbb     C5   2323 -0.11337700  12.010000   ; qtot 77.397472
 2324         hc     78    bbb     H9   2324 0.09515400   1.008000   ; qtot 77.492626
 2325         hc     78    bbb    H10   2325 0.09515400   1.008000   ; qtot 77.587780
 2326         c3     78    bbb     C6   2326 -0.11337700  12.010000   ; qtot 77.474403
 2327         hc     78    bbb    H11   2327 0.09515400   1.008000   ; qtot 77.569557
 2328         hc     78    bbb    H12   2328 0.09515400   1.008000   ; qtot 77.664711
 2329         c3     78    bbb     C7   2329 0.21842400  12.010000   ; qtot 77.883135
 2330         h1     78    bbb    H13   2330 0.04500300   1.008000   ; qtot 77.928138
 2331         h1     78    bbb    H14   2331 0.04500300   1.008000   ; qtot 77.973141
 2332         c3     78    bbb     C8   2332 -0.06455200  12.010000   ; qtot 77.908589
 2333         h1     78    bbb    H15   2333 0.13554100   1.008000   ; qtot 78.044130
 2334         h1     78    bbb    H16   2334 0.13554100   1.008000   ; qtot 78.179671
 2335         c3     78    bbb     C9   2335 -0.06455200  12.010000   ; qtot 78.115119
 2336         h1     78    bbb    H17   2336 0.13554100   1.008000   ; qtot 78.250660
 2337         h1     78    bbb    H18   2337 0.13554100   1.008000   ; qtot 78.386201
 2338         os     78    bbb     O1   2338 -0.62587700  16.000000   ; qtot 77.760324
 2339         hn     78    bbb    H19   2339 0.23982500   1.008000   ; qtot 78.000149
; residue   79 bbb rtp bbb q 1.0
 2340         n4     79    bbb     N1   2340 0.03726400  14.010000   ; qtot 78.037413
 2341         c3     79    bbb     C1   2341 -0.07020100  12.010000   ; qtot 77.967212
 2342         hx     79    bbb     H1   2342 0.12219000   1.008000   ; qtot 78.089402
 2343         hx     79    bbb     H2   2343 0.12219000   1.008000   ; qtot 78.211592
 2344         c3     79    bbb     C2   2344 -0.07020100  12.010000   ; qtot 78.141391
 2345         hx     79    bbb     H3   2345 0.12219000   1.008000   ; qtot 78.263581
 2346         hx     79    bbb     H4   2346 0.12219000   1.008000   ; qtot 78.385771
 2347         c3     79    bbb     C3   2347 -0.39007700  12.010000   ; qtot 77.995694
 2348         hx     79    bbb     H5   2348 0.14940300   1.008000   ; qtot 78.145097
 2349         hx     79    bbb     H6   2349 0.14940300   1.008000   ; qtot 78.294500
 2350         c3     79    bbb     C4   2350 0.18057300  12.010000   ; qtot 78.475073
 2351         hc     79    bbb     H7   2351 0.01788900   1.008000   ; qtot 78.492962
 2352         hc     79    bbb     H8   2352 0.01788900   1.008000   ; qtot 78.510851
 2353         c3     79    bbb     C5   2353 -0.11337700  12.010000   ; qtot 78.397474
 2354         hc     79    bbb     H9   2354 0.09515400   1.008000   ; qtot 78.492628
 2355         hc     79    bbb    H10   2355 0.09515400   1.008000   ; qtot 78.587782
 2356         c3     79    bbb     C6   2356 -0.11337700  12.010000   ; qtot 78.474405
 2357         hc     79    bbb    H11   2357 0.09515400   1.008000   ; qtot 78.569559
 2358         hc     79    bbb    H12   2358 0.09515400   1.008000   ; qtot 78.664713
 2359         c3     79    bbb     C7   2359 0.21842400  12.010000   ; qtot 78.883137
 2360         h1     79    bbb    H13   2360 0.04500300   1.008000   ; qtot 78.928140
 2361         h1     79    bbb    H14   2361 0.04500300   1.008000   ; qtot 78.973143
 2362         c3     79    bbb     C8   2362 -0.06455200  12.010000   ; qtot 78.908591
 2363         h1     79    bbb    H15   2363 0.13554100   1.008000   ; qtot 79.044132
 2364         h1     79    bbb    H16   2364 0.13554100   1.008000   ; qtot 79.179673
 2365         c3     79    bbb     C9   2365 -0.06455200  12.010000   ; qtot 79.115121
 2366         h1     79    bbb    H17   2366 0.13554100   1.008000   ; qtot 79.250662
 2367         h1     79    bbb    H18   2367 0.13554100   1.008000   ; qtot 79.386203
 2368         os     79    bbb     O1   2368 -0.62587700  16.000000   ; qtot 78.760326
 2369         hn     79    bbb    H19   2369 0.23982500   1.008000   ; qtot 79.000151
; residue   80 bbb rtp bbb q 1.0
 2370         n4     80    bbb     N1   2370 0.03726400  14.010000   ; qtot 79.037415
 2371         c3     80    bbb     C1   2371 -0.07020100  12.010000   ; qtot 78.967214
 2372         hx     80    bbb     H1   2372 0.12219000   1.008000   ; qtot 79.089404
 2373         hx     80    bbb     H2   2373 0.12219000   1.008000   ; qtot 79.211594
 2374         c3     80    bbb     C2   2374 -0.07020100  12.010000   ; qtot 79.141393
 2375         hx     80    bbb     H3   2375 0.12219000   1.008000   ; qtot 79.263583
 2376         hx     80    bbb     H4   2376 0.12219000   1.008000   ; qtot 79.385773
 2377         c3     80    bbb     C3   2377 -0.39007700  12.010000   ; qtot 78.995696
 2378         hx     80    bbb     H5   2378 0.14940300   1.008000   ; qtot 79.145099
 2379         hx     80    bbb     H6   2379 0.14940300   1.008000   ; qtot 79.294502
 2380         c3     80    bbb     C4   2380 0.18057300  12.010000   ; qtot 79.475075
 2381         hc     80    bbb     H7   2381 0.01788900   1.008000   ; qtot 79.492964
 2382         hc     80    bbb     H8   2382 0.01788900   1.008000   ; qtot 79.510853
 2383         c3     80    bbb     C5   2383 -0.11337700  12.010000   ; qtot 79.397476
 2384         hc     80    bbb     H9   2384 0.09515400   1.008000   ; qtot 79.492630
 2385         hc     80    bbb    H10   2385 0.09515400   1.008000   ; qtot 79.587784
 2386         c3     80    bbb     C6   2386 -0.11337700  12.010000   ; qtot 79.474407
 2387         hc     80    bbb    H11   2387 0.09515400   1.008000   ; qtot 79.569561
 2388         hc     80    bbb    H12   2388 0.09515400   1.008000   ; qtot 79.664715
 2389         c3     80    bbb     C7   2389 0.21842400  12.010000   ; qtot 79.883139
 2390         h1     80    bbb    H13   2390 0.04500300   1.008000   ; qtot 79.928142
 2391         h1     80    bbb    H14   2391 0.04500300   1.008000   ; qtot 79.973145
 2392         c3     80    bbb     C8   2392 -0.06455200  12.010000   ; qtot 79.908593
 2393         h1     80    bbb    H15   2393 0.13554100   1.008000   ; qtot 80.044134
 2394         h1     80    bbb    H16   2394 0.13554100   1.008000   ; qtot 80.179675
 2395         c3     80    bbb     C9   2395 -0.06455200  12.010000   ; qtot 80.115123
 2396         h1     80    bbb    H17   2396 0.13554100   1.008000   ; qtot 80.250664
 2397         h1     80    bbb    H18   2397 0.13554100   1.008000   ; qtot 80.386205
 2398         os     80    bbb     O1   2398 -0.62587700  16.000000   ; qtot 79.760328
 2399         hn     80    bbb    H19   2399 0.23982500   1.008000   ; qtot 80.000153
; residue   81 bbb rtp bbb q 1.0
 2400         n4     81    bbb     N1   2400 0.03726400  14.010000   ; qtot 80.037417
 2401         c3     81    bbb     C1   2401 -0.07020100  12.010000   ; qtot 79.967216
 2402         hx     81    bbb     H1   2402 0.12219000   1.008000   ; qtot 80.089406
 2403         hx     81    bbb     H2   2403 0.12219000   1.008000   ; qtot 80.211596
 2404         c3     81    bbb     C2   2404 -0.07020100  12.010000   ; qtot 80.141395
 2405         hx     81    bbb     H3   2405 0.12219000   1.008000   ; qtot 80.263585
 2406         hx     81    bbb     H4   2406 0.12219000   1.008000   ; qtot 80.385775
 2407         c3     81    bbb     C3   2407 -0.39007700  12.010000   ; qtot 79.995698
 2408         hx     81    bbb     H5   2408 0.14940300   1.008000   ; qtot 80.145101
 2409         hx     81    bbb     H6   2409 0.14940300   1.008000   ; qtot 80.294504
 2410         c3     81    bbb     C4   2410 0.18057300  12.010000   ; qtot 80.475077
 2411         hc     81    bbb     H7   2411 0.01788900   1.008000   ; qtot 80.492966
 2412         hc     81    bbb     H8   2412 0.01788900   1.008000   ; qtot 80.510855
 2413         c3     81    bbb     C5   2413 -0.11337700  12.010000   ; qtot 80.397478
 2414         hc     81    bbb     H9   2414 0.09515400   1.008000   ; qtot 80.492632
 2415         hc     81    bbb    H10   2415 0.09515400   1.008000   ; qtot 80.587786
 2416         c3     81    bbb     C6   2416 -0.11337700  12.010000   ; qtot 80.474409
 2417         hc     81    bbb    H11   2417 0.09515400   1.008000   ; qtot 80.569563
 2418         hc     81    bbb    H12   2418 0.09515400   1.008000   ; qtot 80.664717
 2419         c3     81    bbb     C7   2419 0.21842400  12.010000   ; qtot 80.883141
 2420         h1     81    bbb    H13   2420 0.04500300   1.008000   ; qtot 80.928144
 2421         h1     81    bbb    H14   2421 0.04500300   1.008000   ; qtot 80.973147
 2422         c3     81    bbb     C8   2422 -0.06455200  12.010000   ; qtot 80.908595
 2423         h1     81    bbb    H15   2423 0.13554100   1.008000   ; qtot 81.044136
 2424         h1     81    bbb    H16   2424 0.13554100   1.008000   ; qtot 81.179677
 2425         c3     81    bbb     C9   2425 -0.06455200  12.010000   ; qtot 81.115125
 2426         h1     81    bbb    H17   2426 0.13554100   1.008000   ; qtot 81.250666
 2427         h1     81    bbb    H18   2427 0.13554100   1.008000   ; qtot 81.386207
 2428         os     81    bbb     O1   2428 -0.62587700  16.000000   ; qtot 80.760330
 2429         hn     81    bbb    H19   2429 0.23982500   1.008000   ; qtot 81.000155
; residue   82 bbb rtp bbb q 1.0
 2430         n4     82    bbb     N1   2430 0.03726400  14.010000   ; qtot 81.037419
 2431         c3     82    bbb     C1   2431 -0.07020100  12.010000   ; qtot 80.967218
 2432         hx     82    bbb     H1   2432 0.12219000   1.008000   ; qtot 81.089408
 2433         hx     82    bbb     H2   2433 0.12219000   1.008000   ; qtot 81.211598
 2434         c3     82    bbb     C2   2434 -0.07020100  12.010000   ; qtot 81.141397
 2435         hx     82    bbb     H3   2435 0.12219000   1.008000   ; qtot 81.263587
 2436         hx     82    bbb     H4   2436 0.12219000   1.008000   ; qtot 81.385777
 2437         c3     82    bbb     C3   2437 -0.39007700  12.010000   ; qtot 80.995700
 2438         hx     82    bbb     H5   2438 0.14940300   1.008000   ; qtot 81.145103
 2439         hx     82    bbb     H6   2439 0.14940300   1.008000   ; qtot 81.294506
 2440         c3     82    bbb     C4   2440 0.18057300  12.010000   ; qtot 81.475079
 2441         hc     82    bbb     H7   2441 0.01788900   1.008000   ; qtot 81.492968
 2442         hc     82    bbb     H8   2442 0.01788900   1.008000   ; qtot 81.510857
 2443         c3     82    bbb     C5   2443 -0.11337700  12.010000   ; qtot 81.397480
 2444         hc     82    bbb     H9   2444 0.09515400   1.008000   ; qtot 81.492634
 2445         hc     82    bbb    H10   2445 0.09515400   1.008000   ; qtot 81.587788
 2446         c3     82    bbb     C6   2446 -0.11337700  12.010000   ; qtot 81.474411
 2447         hc     82    bbb    H11   2447 0.09515400   1.008000   ; qtot 81.569565
 2448         hc     82    bbb    H12   2448 0.09515400   1.008000   ; qtot 81.664719
 2449         c3     82    bbb     C7   2449 0.21842400  12.010000   ; qtot 81.883143
 2450         h1     82    bbb    H13   2450 0.04500300   1.008000   ; qtot 81.928146
 2451         h1     82    bbb    H14   2451 0.04500300   1.008000   ; qtot 81.973149
 2452         c3     82    bbb     C8   2452 -0.06455200  12.010000   ; qtot 81.908597
 2453         h1     82    bbb    H15   2453 0.13554100   1.008000   ; qtot 82.044138
 2454         h1     82    bbb    H16   2454 0.13554100   1.008000   ; qtot 82.179679
 2455         c3     82    bbb     C9   2455 -0.06455200  12.010000   ; qtot 82.115127
 2456         h1     82    bbb    H17   2456 0.13554100   1.008000   ; qtot 82.250668
 2457         h1     82    bbb    H18   2457 0.13554100   1.008000   ; qtot 82.386209
 2458         os     82    bbb     O1   2458 -0.62587700  16.000000   ; qtot 81.760332
 2459         hn     82    bbb    H19   2459 0.23982500   1.008000   ; qtot 82.000157
; residue   83 bbb rtp bbb q 1.0
 2460         n4     83    bbb     N1   2460 0.03726400  14.010000   ; qtot 82.037421
 2461         c3     83    bbb     C1   2461 -0.07020100  12.010000   ; qtot 81.967220
 2462         hx     83    bbb     H1   2462 0.12219000   1.008000   ; qtot 82.089410
 2463         hx     83    bbb     H2   2463 0.12219000   1.008000   ; qtot 82.211600
 2464         c3     83    bbb     C2   2464 -0.07020100  12.010000   ; qtot 82.141399
 2465         hx     83    bbb     H3   2465 0.12219000   1.008000   ; qtot 82.263589
 2466         hx     83    bbb     H4   2466 0.12219000   1.008000   ; qtot 82.385779
 2467         c3     83    bbb     C3   2467 -0.39007700  12.010000   ; qtot 81.995702
 2468         hx     83    bbb     H5   2468 0.14940300   1.008000   ; qtot 82.145105
 2469         hx     83    bbb     H6   2469 0.14940300   1.008000   ; qtot 82.294508
 2470         c3     83    bbb     C4   2470 0.18057300  12.010000   ; qtot 82.475081
 2471         hc     83    bbb     H7   2471 0.01788900   1.008000   ; qtot 82.492970
 2472         hc     83    bbb     H8   2472 0.01788900   1.008000   ; qtot 82.510859
 2473         c3     83    bbb     C5   2473 -0.11337700  12.010000   ; qtot 82.397482
 2474         hc     83    bbb     H9   2474 0.09515400   1.008000   ; qtot 82.492636
 2475         hc     83    bbb    H10   2475 0.09515400   1.008000   ; qtot 82.587790
 2476         c3     83    bbb     C6   2476 -0.11337700  12.010000   ; qtot 82.474413
 2477         hc     83    bbb    H11   2477 0.09515400   1.008000   ; qtot 82.569567
 2478         hc     83    bbb    H12   2478 0.09515400   1.008000   ; qtot 82.664721
 2479         c3     83    bbb     C7   2479 0.21842400  12.010000   ; qtot 82.883145
 2480         h1     83    bbb    H13   2480 0.04500300   1.008000   ; qtot 82.928148
 2481         h1     83    bbb    H14   2481 0.04500300   1.008000   ; qtot 82.973151
 2482         c3     83    bbb     C8   2482 -0.06455200  12.010000   ; qtot 82.908599
 2483         h1     83    bbb    H15   2483 0.13554100   1.008000   ; qtot 83.044140
 2484         h1     83    bbb    H16   2484 0.13554100   1.008000   ; qtot 83.179681
 2485         c3     83    bbb     C9   2485 -0.06455200  12.010000   ; qtot 83.115129
 2486         h1     83    bbb    H17   2486 0.13554100   1.008000   ; qtot 83.250670
 2487         h1     83    bbb    H18   2487 0.13554100   1.008000   ; qtot 83.386211
 2488         os     83    bbb     O1   2488 -0.62587700  16.000000   ; qtot 82.760334
 2489         hn     83    bbb    H19   2489 0.23982500   1.008000   ; qtot 83.000159
; residue   84 bbb rtp bbb q 1.0
 2490         n4     84    bbb     N1   2490 0.03726400  14.010000   ; qtot 83.037423
 2491         c3     84    bbb     C1   2491 -0.07020100  12.010000   ; qtot 82.967222
 2492         hx     84    bbb     H1   2492 0.12219000   1.008000   ; qtot 83.089412
 2493         hx     84    bbb     H2   2493 0.12219000   1.008000   ; qtot 83.211602
 2494         c3     84    bbb     C2   2494 -0.07020100  12.010000   ; qtot 83.141401
 2495         hx     84    bbb     H3   2495 0.12219000   1.008000   ; qtot 83.263591
 2496         hx     84    bbb     H4   2496 0.12219000   1.008000   ; qtot 83.385781
 2497         c3     84    bbb     C3   2497 -0.39007700  12.010000   ; qtot 82.995704
 2498         hx     84    bbb     H5   2498 0.14940300   1.008000   ; qtot 83.145107
 2499         hx     84    bbb     H6   2499 0.14940300   1.008000   ; qtot 83.294510
 2500         c3     84    bbb     C4   2500 0.18057300  12.010000   ; qtot 83.475083
 2501         hc     84    bbb     H7   2501 0.01788900   1.008000   ; qtot 83.492972
 2502         hc     84    bbb     H8   2502 0.01788900   1.008000   ; qtot 83.510861
 2503         c3     84    bbb     C5   2503 -0.11337700  12.010000   ; qtot 83.397484
 2504         hc     84    bbb     H9   2504 0.09515400   1.008000   ; qtot 83.492638
 2505         hc     84    bbb    H10   2505 0.09515400   1.008000   ; qtot 83.587792
 2506         c3     84    bbb     C6   2506 -0.11337700  12.010000   ; qtot 83.474415
 2507         hc     84    bbb    H11   2507 0.09515400   1.008000   ; qtot 83.569569
 2508         hc     84    bbb    H12   2508 0.09515400   1.008000   ; qtot 83.664723
 2509         c3     84    bbb     C7   2509 0.21842400  12.010000   ; qtot 83.883147
 2510         h1     84    bbb    H13   2510 0.04500300   1.008000   ; qtot 83.928150
 2511         h1     84    bbb    H14   2511 0.04500300   1.008000   ; qtot 83.973153
 2512         c3     84    bbb     C8   2512 -0.06455200  12.010000   ; qtot 83.908601
 2513         h1     84    bbb    H15   2513 0.13554100   1.008000   ; qtot 84.044142
 2514         h1     84    bbb    H16   2514 0.13554100   1.008000   ; qtot 84.179683
 2515         c3     84    bbb     C9   2515 -0.06455200  12.010000   ; qtot 84.115131
 2516         h1     84    bbb    H17   2516 0.13554100   1.008000   ; qtot 84.250672
 2517         h1     84    bbb    H18   2517 0.13554100   1.008000   ; qtot 84.386213
 2518         os     84    bbb     O1   2518 -0.62587700  16.000000   ; qtot 83.760336
 2519         hn     84    bbb    H19   2519 0.23982500   1.008000   ; qtot 84.000161
; residue   85 bbb rtp bbb q 1.0
 2520         n4     85    bbb     N1   2520 0.03726400  14.010000   ; qtot 84.037425
 2521         c3     85    bbb     C1   2521 -0.07020100  12.010000   ; qtot 83.967224
 2522         hx     85    bbb     H1   2522 0.12219000   1.008000   ; qtot 84.089414
 2523         hx     85    bbb     H2   2523 0.12219000   1.008000   ; qtot 84.211604
 2524         c3     85    bbb     C2   2524 -0.07020100  12.010000   ; qtot 84.141403
 2525         hx     85    bbb     H3   2525 0.12219000   1.008000   ; qtot 84.263593
 2526         hx     85    bbb     H4   2526 0.12219000   1.008000   ; qtot 84.385783
 2527         c3     85    bbb     C3   2527 -0.39007700  12.010000   ; qtot 83.995706
 2528         hx     85    bbb     H5   2528 0.14940300   1.008000   ; qtot 84.145109
 2529         hx     85    bbb     H6   2529 0.14940300   1.008000   ; qtot 84.294512
 2530         c3     85    bbb     C4   2530 0.18057300  12.010000   ; qtot 84.475085
 2531         hc     85    bbb     H7   2531 0.01788900   1.008000   ; qtot 84.492974
 2532         hc     85    bbb     H8   2532 0.01788900   1.008000   ; qtot 84.510863
 2533         c3     85    bbb     C5   2533 -0.11337700  12.010000   ; qtot 84.397486
 2534         hc     85    bbb     H9   2534 0.09515400   1.008000   ; qtot 84.492640
 2535         hc     85    bbb    H10   2535 0.09515400   1.008000   ; qtot 84.587794
 2536         c3     85    bbb     C6   2536 -0.11337700  12.010000   ; qtot 84.474417
 2537         hc     85    bbb    H11   2537 0.09515400   1.008000   ; qtot 84.569571
 2538         hc     85    bbb    H12   2538 0.09515400   1.008000   ; qtot 84.664725
 2539         c3     85    bbb     C7   2539 0.21842400  12.010000   ; qtot 84.883149
 2540         h1     85    bbb    H13   2540 0.04500300   1.008000   ; qtot 84.928152
 2541         h1     85    bbb    H14   2541 0.04500300   1.008000   ; qtot 84.973155
 2542         c3     85    bbb     C8   2542 -0.06455200  12.010000   ; qtot 84.908603
 2543         h1     85    bbb    H15   2543 0.13554100   1.008000   ; qtot 85.044144
 2544         h1     85    bbb    H16   2544 0.13554100   1.008000   ; qtot 85.179685
 2545         c3     85    bbb     C9   2545 -0.06455200  12.010000   ; qtot 85.115133
 2546         h1     85    bbb    H17   2546 0.13554100   1.008000   ; qtot 85.250674
 2547         h1     85    bbb    H18   2547 0.13554100   1.008000   ; qtot 85.386215
 2548         os     85    bbb     O1   2548 -0.62587700  16.000000   ; qtot 84.760338
 2549         hn     85    bbb    H19   2549 0.23982500   1.008000   ; qtot 85.000163
; residue   86 bbb rtp bbb q 1.0
 2550         n4     86    bbb     N1   2550 0.03726400  14.010000   ; qtot 85.037427
 2551         c3     86    bbb     C1   2551 -0.07020100  12.010000   ; qtot 84.967226
 2552         hx     86    bbb     H1   2552 0.12219000   1.008000   ; qtot 85.089416
 2553         hx     86    bbb     H2   2553 0.12219000   1.008000   ; qtot 85.211606
 2554         c3     86    bbb     C2   2554 -0.07020100  12.010000   ; qtot 85.141405
 2555         hx     86    bbb     H3   2555 0.12219000   1.008000   ; qtot 85.263595
 2556         hx     86    bbb     H4   2556 0.12219000   1.008000   ; qtot 85.385785
 2557         c3     86    bbb     C3   2557 -0.39007700  12.010000   ; qtot 84.995708
 2558         hx     86    bbb     H5   2558 0.14940300   1.008000   ; qtot 85.145111
 2559         hx     86    bbb     H6   2559 0.14940300   1.008000   ; qtot 85.294514
 2560         c3     86    bbb     C4   2560 0.18057300  12.010000   ; qtot 85.475087
 2561         hc     86    bbb     H7   2561 0.01788900   1.008000   ; qtot 85.492976
 2562         hc     86    bbb     H8   2562 0.01788900   1.008000   ; qtot 85.510865
 2563         c3     86    bbb     C5   2563 -0.11337700  12.010000   ; qtot 85.397488
 2564         hc     86    bbb     H9   2564 0.09515400   1.008000   ; qtot 85.492642
 2565         hc     86    bbb    H10   2565 0.09515400   1.008000   ; qtot 85.587796
 2566         c3     86    bbb     C6   2566 -0.11337700  12.010000   ; qtot 85.474419
 2567         hc     86    bbb    H11   2567 0.09515400   1.008000   ; qtot 85.569573
 2568         hc     86    bbb    H12   2568 0.09515400   1.008000   ; qtot 85.664727
 2569         c3     86    bbb     C7   2569 0.21842400  12.010000   ; qtot 85.883151
 2570         h1     86    bbb    H13   2570 0.04500300   1.008000   ; qtot 85.928154
 2571         h1     86    bbb    H14   2571 0.04500300   1.008000   ; qtot 85.973157
 2572         c3     86    bbb     C8   2572 -0.06455200  12.010000   ; qtot 85.908605
 2573         h1     86    bbb    H15   2573 0.13554100   1.008000   ; qtot 86.044146
 2574         h1     86    bbb    H16   2574 0.13554100   1.008000   ; qtot 86.179687
 2575         c3     86    bbb     C9   2575 -0.06455200  12.010000   ; qtot 86.115135
 2576         h1     86    bbb    H17   2576 0.13554100   1.008000   ; qtot 86.250676
 2577         h1     86    bbb    H18   2577 0.13554100   1.008000   ; qtot 86.386217
 2578         os     86    bbb     O1   2578 -0.62587700  16.000000   ; qtot 85.760340
 2579         hn     86    bbb    H19   2579 0.23982500   1.008000   ; qtot 86.000165
; residue   87 bbb rtp bbb q 1.0
 2580         n4     87    bbb     N1   2580 0.03726400  14.010000   ; qtot 86.037429
 2581         c3     87    bbb     C1   2581 -0.07020100  12.010000   ; qtot 85.967228
 2582         hx     87    bbb     H1   2582 0.12219000   1.008000   ; qtot 86.089418
 2583         hx     87    bbb     H2   2583 0.12219000   1.008000   ; qtot 86.211608
 2584         c3     87    bbb     C2   2584 -0.07020100  12.010000   ; qtot 86.141407
 2585         hx     87    bbb     H3   2585 0.12219000   1.008000   ; qtot 86.263597
 2586         hx     87    bbb     H4   2586 0.12219000   1.008000   ; qtot 86.385787
 2587         c3     87    bbb     C3   2587 -0.39007700  12.010000   ; qtot 85.995710
 2588         hx     87    bbb     H5   2588 0.14940300   1.008000   ; qtot 86.145113
 2589         hx     87    bbb     H6   2589 0.14940300   1.008000   ; qtot 86.294516
 2590         c3     87    bbb     C4   2590 0.18057300  12.010000   ; qtot 86.475089
 2591         hc     87    bbb     H7   2591 0.01788900   1.008000   ; qtot 86.492978
 2592         hc     87    bbb     H8   2592 0.01788900   1.008000   ; qtot 86.510867
 2593         c3     87    bbb     C5   2593 -0.11337700  12.010000   ; qtot 86.397490
 2594         hc     87    bbb     H9   2594 0.09515400   1.008000   ; qtot 86.492644
 2595         hc     87    bbb    H10   2595 0.09515400   1.008000   ; qtot 86.587798
 2596         c3     87    bbb     C6   2596 -0.11337700  12.010000   ; qtot 86.474421
 2597         hc     87    bbb    H11   2597 0.09515400   1.008000   ; qtot 86.569575
 2598         hc     87    bbb    H12   2598 0.09515400   1.008000   ; qtot 86.664729
 2599         c3     87    bbb     C7   2599 0.21842400  12.010000   ; qtot 86.883153
 2600         h1     87    bbb    H13   2600 0.04500300   1.008000   ; qtot 86.928156
 2601         h1     87    bbb    H14   2601 0.04500300   1.008000   ; qtot 86.973159
 2602         c3     87    bbb     C8   2602 -0.06455200  12.010000   ; qtot 86.908607
 2603         h1     87    bbb    H15   2603 0.13554100   1.008000   ; qtot 87.044148
 2604         h1     87    bbb    H16   2604 0.13554100   1.008000   ; qtot 87.179689
 2605         c3     87    bbb     C9   2605 -0.06455200  12.010000   ; qtot 87.115137
 2606         h1     87    bbb    H17   2606 0.13554100   1.008000   ; qtot 87.250678
 2607         h1     87    bbb    H18   2607 0.13554100   1.008000   ; qtot 87.386219
 2608         os     87    bbb     O1   2608 -0.62587700  16.000000   ; qtot 86.760342
 2609         hn     87    bbb    H19   2609 0.23982500   1.008000   ; qtot 87.000167
; residue   88 bbb rtp bbb q 1.0
 2610         n4     88    bbb     N1   2610 0.03726400  14.010000   ; qtot 87.037431
 2611         c3     88    bbb     C1   2611 -0.07020100  12.010000   ; qtot 86.967230
 2612         hx     88    bbb     H1   2612 0.12219000   1.008000   ; qtot 87.089420
 2613         hx     88    bbb     H2   2613 0.12219000   1.008000   ; qtot 87.211610
 2614         c3     88    bbb     C2   2614 -0.07020100  12.010000   ; qtot 87.141409
 2615         hx     88    bbb     H3   2615 0.12219000   1.008000   ; qtot 87.263599
 2616         hx     88    bbb     H4   2616 0.12219000   1.008000   ; qtot 87.385789
 2617         c3     88    bbb     C3   2617 -0.39007700  12.010000   ; qtot 86.995712
 2618         hx     88    bbb     H5   2618 0.14940300   1.008000   ; qtot 87.145115
 2619         hx     88    bbb     H6   2619 0.14940300   1.008000   ; qtot 87.294518
 2620         c3     88    bbb     C4   2620 0.18057300  12.010000   ; qtot 87.475091
 2621         hc     88    bbb     H7   2621 0.01788900   1.008000   ; qtot 87.492980
 2622         hc     88    bbb     H8   2622 0.01788900   1.008000   ; qtot 87.510869
 2623         c3     88    bbb     C5   2623 -0.11337700  12.010000   ; qtot 87.397492
 2624         hc     88    bbb     H9   2624 0.09515400   1.008000   ; qtot 87.492646
 2625         hc     88    bbb    H10   2625 0.09515400   1.008000   ; qtot 87.587800
 2626         c3     88    bbb     C6   2626 -0.11337700  12.010000   ; qtot 87.474423
 2627         hc     88    bbb    H11   2627 0.09515400   1.008000   ; qtot 87.569577
 2628         hc     88    bbb    H12   2628 0.09515400   1.008000   ; qtot 87.664731
 2629         c3     88    bbb     C7   2629 0.21842400  12.010000   ; qtot 87.883155
 2630         h1     88    bbb    H13   2630 0.04500300   1.008000   ; qtot 87.928158
 2631         h1     88    bbb    H14   2631 0.04500300   1.008000   ; qtot 87.973161
 2632         c3     88    bbb     C8   2632 -0.06455200  12.010000   ; qtot 87.908609
 2633         h1     88    bbb    H15   2633 0.13554100   1.008000   ; qtot 88.044150
 2634         h1     88    bbb    H16   2634 0.13554100   1.008000   ; qtot 88.179691
 2635         c3     88    bbb     C9   2635 -0.06455200  12.010000   ; qtot 88.115139
 2636         h1     88    bbb    H17   2636 0.13554100   1.008000   ; qtot 88.250680
 2637         h1     88    bbb    H18   2637 0.13554100   1.008000   ; qtot 88.386221
 2638         os     88    bbb     O1   2638 -0.62587700  16.000000   ; qtot 87.760344
 2639         hn     88    bbb    H19   2639 0.23982500   1.008000   ; qtot 88.000169
; residue   89 bbb rtp bbb q 1.0
 2640         n4     89    bbb     N1   2640 0.03726400  14.010000   ; qtot 88.037433
 2641         c3     89    bbb     C1   2641 -0.07020100  12.010000   ; qtot 87.967232
 2642         hx     89    bbb     H1   2642 0.12219000   1.008000   ; qtot 88.089422
 2643         hx     89    bbb     H2   2643 0.12219000   1.008000   ; qtot 88.211612
 2644         c3     89    bbb     C2   2644 -0.07020100  12.010000   ; qtot 88.141411
 2645         hx     89    bbb     H3   2645 0.12219000   1.008000   ; qtot 88.263601
 2646         hx     89    bbb     H4   2646 0.12219000   1.008000   ; qtot 88.385791
 2647         c3     89    bbb     C3   2647 -0.39007700  12.010000   ; qtot 87.995714
 2648         hx     89    bbb     H5   2648 0.14940300   1.008000   ; qtot 88.145117
 2649         hx     89    bbb     H6   2649 0.14940300   1.008000   ; qtot 88.294520
 2650         c3     89    bbb     C4   2650 0.18057300  12.010000   ; qtot 88.475093
 2651         hc     89    bbb     H7   2651 0.01788900   1.008000   ; qtot 88.492982
 2652         hc     89    bbb     H8   2652 0.01788900   1.008000   ; qtot 88.510871
 2653         c3     89    bbb     C5   2653 -0.11337700  12.010000   ; qtot 88.397494
 2654         hc     89    bbb     H9   2654 0.09515400   1.008000   ; qtot 88.492648
 2655         hc     89    bbb    H10   2655 0.09515400   1.008000   ; qtot 88.587802
 2656         c3     89    bbb     C6   2656 -0.11337700  12.010000   ; qtot 88.474425
 2657         hc     89    bbb    H11   2657 0.09515400   1.008000   ; qtot 88.569579
 2658         hc     89    bbb    H12   2658 0.09515400   1.008000   ; qtot 88.664733
 2659         c3     89    bbb     C7   2659 0.21842400  12.010000   ; qtot 88.883157
 2660         h1     89    bbb    H13   2660 0.04500300   1.008000   ; qtot 88.928160
 2661         h1     89    bbb    H14   2661 0.04500300   1.008000   ; qtot 88.973163
 2662         c3     89    bbb     C8   2662 -0.06455200  12.010000   ; qtot 88.908611
 2663         h1     89    bbb    H15   2663 0.13554100   1.008000   ; qtot 89.044152
 2664         h1     89    bbb    H16   2664 0.13554100   1.008000   ; qtot 89.179693
 2665         c3     89    bbb     C9   2665 -0.06455200  12.010000   ; qtot 89.115141
 2666         h1     89    bbb    H17   2666 0.13554100   1.008000   ; qtot 89.250682
 2667         h1     89    bbb    H18   2667 0.13554100   1.008000   ; qtot 89.386223
 2668         os     89    bbb     O1   2668 -0.62587700  16.000000   ; qtot 88.760346
 2669         hn     89    bbb    H19   2669 0.23982500   1.008000   ; qtot 89.000171
; residue   90 bbb rtp bbb q 1.0
 2670         n4     90    bbb     N1   2670 0.03726400  14.010000   ; qtot 89.037435
 2671         c3     90    bbb     C1   2671 -0.07020100  12.010000   ; qtot 88.967234
 2672         hx     90    bbb     H1   2672 0.12219000   1.008000   ; qtot 89.089424
 2673         hx     90    bbb     H2   2673 0.12219000   1.008000   ; qtot 89.211614
 2674         c3     90    bbb     C2   2674 -0.07020100  12.010000   ; qtot 89.141413
 2675         hx     90    bbb     H3   2675 0.12219000   1.008000   ; qtot 89.263603
 2676         hx     90    bbb     H4   2676 0.12219000   1.008000   ; qtot 89.385793
 2677         c3     90    bbb     C3   2677 -0.39007700  12.010000   ; qtot 88.995716
 2678         hx     90    bbb     H5   2678 0.14940300   1.008000   ; qtot 89.145119
 2679         hx     90    bbb     H6   2679 0.14940300   1.008000   ; qtot 89.294522
 2680         c3     90    bbb     C4   2680 0.18057300  12.010000   ; qtot 89.475095
 2681         hc     90    bbb     H7   2681 0.01788900   1.008000   ; qtot 89.492984
 2682         hc     90    bbb     H8   2682 0.01788900   1.008000   ; qtot 89.510873
 2683         c3     90    bbb     C5   2683 -0.11337700  12.010000   ; qtot 89.397496
 2684         hc     90    bbb     H9   2684 0.09515400   1.008000   ; qtot 89.492650
 2685         hc     90    bbb    H10   2685 0.09515400   1.008000   ; qtot 89.587804
 2686         c3     90    bbb     C6   2686 -0.11337700  12.010000   ; qtot 89.474427
 2687         hc     90    bbb    H11   2687 0.09515400   1.008000   ; qtot 89.569581
 2688         hc     90    bbb    H12   2688 0.09515400   1.008000   ; qtot 89.664735
 2689         c3     90    bbb     C7   2689 0.21842400  12.010000   ; qtot 89.883159
 2690         h1     90    bbb    H13   2690 0.04500300   1.008000   ; qtot 89.928162
 2691         h1     90    bbb    H14   2691 0.04500300   1.008000   ; qtot 89.973165
 2692         c3     90    bbb     C8   2692 -0.06455200  12.010000   ; qtot 89.908613
 2693         h1     90    bbb    H15   2693 0.13554100   1.008000   ; qtot 90.044154
 2694         h1     90    bbb    H16   2694 0.13554100   1.008000   ; qtot 90.179695
 2695         c3     90    bbb     C9   2695 -0.06455200  12.010000   ; qtot 90.115143
 2696         h1     90    bbb    H17   2696 0.13554100   1.008000   ; qtot 90.250684
 2697         h1     90    bbb    H18   2697 0.13554100   1.008000   ; qtot 90.386225
 2698         os     90    bbb     O1   2698 -0.62587700  16.000000   ; qtot 89.760348
 2699         hn     90    bbb    H19   2699 0.23982500   1.008000   ; qtot 90.000173
; residue   91 bbb rtp bbb q 1.0
 2700         n4     91    bbb     N1   2700 0.03726400  14.010000   ; qtot 90.037437
 2701         c3     91    bbb     C1   2701 -0.07020100  12.010000   ; qtot 89.967236
 2702         hx     91    bbb     H1   2702 0.12219000   1.008000   ; qtot 90.089426
 2703         hx     91    bbb     H2   2703 0.12219000   1.008000   ; qtot 90.211616
 2704         c3     91    bbb     C2   2704 -0.07020100  12.010000   ; qtot 90.141415
 2705         hx     91    bbb     H3   2705 0.12219000   1.008000   ; qtot 90.263605
 2706         hx     91    bbb     H4   2706 0.12219000   1.008000   ; qtot 90.385795
 2707         c3     91    bbb     C3   2707 -0.39007700  12.010000   ; qtot 89.995718
 2708         hx     91    bbb     H5   2708 0.14940300   1.008000   ; qtot 90.145121
 2709         hx     91    bbb     H6   2709 0.14940300   1.008000   ; qtot 90.294524
 2710         c3     91    bbb     C4   2710 0.18057300  12.010000   ; qtot 90.475097
 2711         hc     91    bbb     H7   2711 0.01788900   1.008000   ; qtot 90.492986
 2712         hc     91    bbb     H8   2712 0.01788900   1.008000   ; qtot 90.510875
 2713         c3     91    bbb     C5   2713 -0.11337700  12.010000   ; qtot 90.397498
 2714         hc     91    bbb     H9   2714 0.09515400   1.008000   ; qtot 90.492652
 2715         hc     91    bbb    H10   2715 0.09515400   1.008000   ; qtot 90.587806
 2716         c3     91    bbb     C6   2716 -0.11337700  12.010000   ; qtot 90.474429
 2717         hc     91    bbb    H11   2717 0.09515400   1.008000   ; qtot 90.569583
 2718         hc     91    bbb    H12   2718 0.09515400   1.008000   ; qtot 90.664737
 2719         c3     91    bbb     C7   2719 0.21842400  12.010000   ; qtot 90.883161
 2720         h1     91    bbb    H13   2720 0.04500300   1.008000   ; qtot 90.928164
 2721         h1     91    bbb    H14   2721 0.04500300   1.008000   ; qtot 90.973167
 2722         c3     91    bbb     C8   2722 -0.06455200  12.010000   ; qtot 90.908615
 2723         h1     91    bbb    H15   2723 0.13554100   1.008000   ; qtot 91.044156
 2724         h1     91    bbb    H16   2724 0.13554100   1.008000   ; qtot 91.179697
 2725         c3     91    bbb     C9   2725 -0.06455200  12.010000   ; qtot 91.115145
 2726         h1     91    bbb    H17   2726 0.13554100   1.008000   ; qtot 91.250686
 2727         h1     91    bbb    H18   2727 0.13554100   1.008000   ; qtot 91.386227
 2728         os     91    bbb     O1   2728 -0.62587700  16.000000   ; qtot 90.760350
 2729         hn     91    bbb    H19   2729 0.23982500   1.008000   ; qtot 91.000175
; residue   92 bbb rtp bbb q 1.0
 2730         n4     92    bbb     N1   2730 0.03726400  14.010000   ; qtot 91.037439
 2731         c3     92    bbb     C1   2731 -0.07020100  12.010000   ; qtot 90.967238
 2732         hx     92    bbb     H1   2732 0.12219000   1.008000   ; qtot 91.089428
 2733         hx     92    bbb     H2   2733 0.12219000   1.008000   ; qtot 91.211618
 2734         c3     92    bbb     C2   2734 -0.07020100  12.010000   ; qtot 91.141417
 2735         hx     92    bbb     H3   2735 0.12219000   1.008000   ; qtot 91.263607
 2736         hx     92    bbb     H4   2736 0.12219000   1.008000   ; qtot 91.385797
 2737         c3     92    bbb     C3   2737 -0.39007700  12.010000   ; qtot 90.995720
 2738         hx     92    bbb     H5   2738 0.14940300   1.008000   ; qtot 91.145123
 2739         hx     92    bbb     H6   2739 0.14940300   1.008000   ; qtot 91.294526
 2740         c3     92    bbb     C4   2740 0.18057300  12.010000   ; qtot 91.475099
 2741         hc     92    bbb     H7   2741 0.01788900   1.008000   ; qtot 91.492988
 2742         hc     92    bbb     H8   2742 0.01788900   1.008000   ; qtot 91.510877
 2743         c3     92    bbb     C5   2743 -0.11337700  12.010000   ; qtot 91.397500
 2744         hc     92    bbb     H9   2744 0.09515400   1.008000   ; qtot 91.492654
 2745         hc     92    bbb    H10   2745 0.09515400   1.008000   ; qtot 91.587808
 2746         c3     92    bbb     C6   2746 -0.11337700  12.010000   ; qtot 91.474431
 2747         hc     92    bbb    H11   2747 0.09515400   1.008000   ; qtot 91.569585
 2748         hc     92    bbb    H12   2748 0.09515400   1.008000   ; qtot 91.664739
 2749         c3     92    bbb     C7   2749 0.21842400  12.010000   ; qtot 91.883163
 2750         h1     92    bbb    H13   2750 0.04500300   1.008000   ; qtot 91.928166
 2751         h1     92    bbb    H14   2751 0.04500300   1.008000   ; qtot 91.973169
 2752         c3     92    bbb     C8   2752 -0.06455200  12.010000   ; qtot 91.908617
 2753         h1     92    bbb    H15   2753 0.13554100   1.008000   ; qtot 92.044158
 2754         h1     92    bbb    H16   2754 0.13554100   1.008000   ; qtot 92.179699
 2755         c3     92    bbb     C9   2755 -0.06455200  12.010000   ; qtot 92.115147
 2756         h1     92    bbb    H17   2756 0.13554100   1.008000   ; qtot 92.250688
 2757         h1     92    bbb    H18   2757 0.13554100   1.008000   ; qtot 92.386229
 2758         os     92    bbb     O1   2758 -0.62587700  16.000000   ; qtot 91.760352
 2759         hn     92    bbb    H19   2759 0.23982500   1.008000   ; qtot 92.000177
; residue   93 bbb rtp bbb q 1.0
 2760         n4     93    bbb     N1   2760 0.03726400  14.010000   ; qtot 92.037441
 2761         c3     93    bbb     C1   2761 -0.07020100  12.010000   ; qtot 91.967240
 2762         hx     93    bbb     H1   2762 0.12219000   1.008000   ; qtot 92.089430
 2763         hx     93    bbb     H2   2763 0.12219000   1.008000   ; qtot 92.211620
 2764         c3     93    bbb     C2   2764 -0.07020100  12.010000   ; qtot 92.141419
 2765         hx     93    bbb     H3   2765 0.12219000   1.008000   ; qtot 92.263609
 2766         hx     93    bbb     H4   2766 0.12219000   1.008000   ; qtot 92.385799
 2767         c3     93    bbb     C3   2767 -0.39007700  12.010000   ; qtot 91.995722
 2768         hx     93    bbb     H5   2768 0.14940300   1.008000   ; qtot 92.145125
 2769         hx     93    bbb     H6   2769 0.14940300   1.008000   ; qtot 92.294528
 2770         c3     93    bbb     C4   2770 0.18057300  12.010000   ; qtot 92.475101
 2771         hc     93    bbb     H7   2771 0.01788900   1.008000   ; qtot 92.492990
 2772         hc     93    bbb     H8   2772 0.01788900   1.008000   ; qtot 92.510879
 2773         c3     93    bbb     C5   2773 -0.11337700  12.010000   ; qtot 92.397502
 2774         hc     93    bbb     H9   2774 0.09515400   1.008000   ; qtot 92.492656
 2775         hc     93    bbb    H10   2775 0.09515400   1.008000   ; qtot 92.587810
 2776         c3     93    bbb     C6   2776 -0.11337700  12.010000   ; qtot 92.474433
 2777         hc     93    bbb    H11   2777 0.09515400   1.008000   ; qtot 92.569587
 2778         hc     93    bbb    H12   2778 0.09515400   1.008000   ; qtot 92.664741
 2779         c3     93    bbb     C7   2779 0.21842400  12.010000   ; qtot 92.883165
 2780         h1     93    bbb    H13   2780 0.04500300   1.008000   ; qtot 92.928168
 2781         h1     93    bbb    H14   2781 0.04500300   1.008000   ; qtot 92.973171
 2782         c3     93    bbb     C8   2782 -0.06455200  12.010000   ; qtot 92.908619
 2783         h1     93    bbb    H15   2783 0.13554100   1.008000   ; qtot 93.044160
 2784         h1     93    bbb    H16   2784 0.13554100   1.008000   ; qtot 93.179701
 2785         c3     93    bbb     C9   2785 -0.06455200  12.010000   ; qtot 93.115149
 2786         h1     93    bbb    H17   2786 0.13554100   1.008000   ; qtot 93.250690
 2787         h1     93    bbb    H18   2787 0.13554100   1.008000   ; qtot 93.386231
 2788         os     93    bbb     O1   2788 -0.62587700  16.000000   ; qtot 92.760354
 2789         hn     93    bbb    H19   2789 0.23982500   1.008000   ; qtot 93.000179
; residue   94 bbb rtp bbb q 1.0
 2790         n4     94    bbb     N1   2790 0.03726400  14.010000   ; qtot 93.037443
 2791         c3     94    bbb     C1   2791 -0.07020100  12.010000   ; qtot 92.967242
 2792         hx     94    bbb     H1   2792 0.12219000   1.008000   ; qtot 93.089432
 2793         hx     94    bbb     H2   2793 0.12219000   1.008000   ; qtot 93.211622
 2794         c3     94    bbb     C2   2794 -0.07020100  12.010000   ; qtot 93.141421
 2795         hx     94    bbb     H3   2795 0.12219000   1.008000   ; qtot 93.263611
 2796         hx     94    bbb     H4   2796 0.12219000   1.008000   ; qtot 93.385801
 2797         c3     94    bbb     C3   2797 -0.39007700  12.010000   ; qtot 92.995724
 2798         hx     94    bbb     H5   2798 0.14940300   1.008000   ; qtot 93.145127
 2799         hx     94    bbb     H6   2799 0.14940300   1.008000   ; qtot 93.294530
 2800         c3     94    bbb     C4   2800 0.18057300  12.010000   ; qtot 93.475103
 2801         hc     94    bbb     H7   2801 0.01788900   1.008000   ; qtot 93.492992
 2802         hc     94    bbb     H8   2802 0.01788900   1.008000   ; qtot 93.510881
 2803         c3     94    bbb     C5   2803 -0.11337700  12.010000   ; qtot 93.397504
 2804         hc     94    bbb     H9   2804 0.09515400   1.008000   ; qtot 93.492658
 2805         hc     94    bbb    H10   2805 0.09515400   1.008000   ; qtot 93.587812
 2806         c3     94    bbb     C6   2806 -0.11337700  12.010000   ; qtot 93.474435
 2807         hc     94    bbb    H11   2807 0.09515400   1.008000   ; qtot 93.569589
 2808         hc     94    bbb    H12   2808 0.09515400   1.008000   ; qtot 93.664743
 2809         c3     94    bbb     C7   2809 0.21842400  12.010000   ; qtot 93.883167
 2810         h1     94    bbb    H13   2810 0.04500300   1.008000   ; qtot 93.928170
 2811         h1     94    bbb    H14   2811 0.04500300   1.008000   ; qtot 93.973173
 2812         c3     94    bbb     C8   2812 -0.06455200  12.010000   ; qtot 93.908621
 2813         h1     94    bbb    H15   2813 0.13554100   1.008000   ; qtot 94.044162
 2814         h1     94    bbb    H16   2814 0.13554100   1.008000   ; qtot 94.179703
 2815         c3     94    bbb     C9   2815 -0.06455200  12.010000   ; qtot 94.115151
 2816         h1     94    bbb    H17   2816 0.13554100   1.008000   ; qtot 94.250692
 2817         h1     94    bbb    H18   2817 0.13554100   1.008000   ; qtot 94.386233
 2818         os     94    bbb     O1   2818 -0.62587700  16.000000   ; qtot 93.760356
 2819         hn     94    bbb    H19   2819 0.23982500   1.008000   ; qtot 94.000181
; residue   95 bbb rtp bbb q 1.0
 2820         n4     95    bbb     N1   2820 0.03726400  14.010000   ; qtot 94.037445
 2821         c3     95    bbb     C1   2821 -0.07020100  12.010000   ; qtot 93.967244
 2822         hx     95    bbb     H1   2822 0.12219000   1.008000   ; qtot 94.089434
 2823         hx     95    bbb     H2   2823 0.12219000   1.008000   ; qtot 94.211624
 2824         c3     95    bbb     C2   2824 -0.07020100  12.010000   ; qtot 94.141423
 2825         hx     95    bbb     H3   2825 0.12219000   1.008000   ; qtot 94.263613
 2826         hx     95    bbb     H4   2826 0.12219000   1.008000   ; qtot 94.385803
 2827         c3     95    bbb     C3   2827 -0.39007700  12.010000   ; qtot 93.995726
 2828         hx     95    bbb     H5   2828 0.14940300   1.008000   ; qtot 94.145129
 2829         hx     95    bbb     H6   2829 0.14940300   1.008000   ; qtot 94.294532
 2830         c3     95    bbb     C4   2830 0.18057300  12.010000   ; qtot 94.475105
 2831         hc     95    bbb     H7   2831 0.01788900   1.008000   ; qtot 94.492994
 2832         hc     95    bbb     H8   2832 0.01788900   1.008000   ; qtot 94.510883
 2833         c3     95    bbb     C5   2833 -0.11337700  12.010000   ; qtot 94.397506
 2834         hc     95    bbb     H9   2834 0.09515400   1.008000   ; qtot 94.492660
 2835         hc     95    bbb    H10   2835 0.09515400   1.008000   ; qtot 94.587814
 2836         c3     95    bbb     C6   2836 -0.11337700  12.010000   ; qtot 94.474437
 2837         hc     95    bbb    H11   2837 0.09515400   1.008000   ; qtot 94.569591
 2838         hc     95    bbb    H12   2838 0.09515400   1.008000   ; qtot 94.664745
 2839         c3     95    bbb     C7   2839 0.21842400  12.010000   ; qtot 94.883169
 2840         h1     95    bbb    H13   2840 0.04500300   1.008000   ; qtot 94.928172
 2841         h1     95    bbb    H14   2841 0.04500300   1.008000   ; qtot 94.973175
 2842         c3     95    bbb     C8   2842 -0.06455200  12.010000   ; qtot 94.908623
 2843         h1     95    bbb    H15   2843 0.13554100   1.008000   ; qtot 95.044164
 2844         h1     95    bbb    H16   2844 0.13554100   1.008000   ; qtot 95.179705
 2845         c3     95    bbb     C9   2845 -0.06455200  12.010000   ; qtot 95.115153
 2846         h1     95    bbb    H17   2846 0.13554100   1.008000   ; qtot 95.250694
 2847         h1     95    bbb    H18   2847 0.13554100   1.008000   ; qtot 95.386235
 2848         os     95    bbb     O1   2848 -0.62587700  16.000000   ; qtot 94.760358
 2849         hn     95    bbb    H19   2849 0.23982500   1.008000   ; qtot 95.000183
; residue   96 bbb rtp bbb q 1.0
 2850         n4     96    bbb     N1   2850 0.03726400  14.010000   ; qtot 95.037447
 2851         c3     96    bbb     C1   2851 -0.07020100  12.010000   ; qtot 94.967246
 2852         hx     96    bbb     H1   2852 0.12219000   1.008000   ; qtot 95.089436
 2853         hx     96    bbb     H2   2853 0.12219000   1.008000   ; qtot 95.211626
 2854         c3     96    bbb     C2   2854 -0.07020100  12.010000   ; qtot 95.141425
 2855         hx     96    bbb     H3   2855 0.12219000   1.008000   ; qtot 95.263615
 2856         hx     96    bbb     H4   2856 0.12219000   1.008000   ; qtot 95.385805
 2857         c3     96    bbb     C3   2857 -0.39007700  12.010000   ; qtot 94.995728
 2858         hx     96    bbb     H5   2858 0.14940300   1.008000   ; qtot 95.145131
 2859         hx     96    bbb     H6   2859 0.14940300   1.008000   ; qtot 95.294534
 2860         c3     96    bbb     C4   2860 0.18057300  12.010000   ; qtot 95.475107
 2861         hc     96    bbb     H7   2861 0.01788900   1.008000   ; qtot 95.492996
 2862         hc     96    bbb     H8   2862 0.01788900   1.008000   ; qtot 95.510885
 2863         c3     96    bbb     C5   2863 -0.11337700  12.010000   ; qtot 95.397508
 2864         hc     96    bbb     H9   2864 0.09515400   1.008000   ; qtot 95.492662
 2865         hc     96    bbb    H10   2865 0.09515400   1.008000   ; qtot 95.587816
 2866         c3     96    bbb     C6   2866 -0.11337700  12.010000   ; qtot 95.474439
 2867         hc     96    bbb    H11   2867 0.09515400   1.008000   ; qtot 95.569593
 2868         hc     96    bbb    H12   2868 0.09515400   1.008000   ; qtot 95.664747
 2869         c3     96    bbb     C7   2869 0.21842400  12.010000   ; qtot 95.883171
 2870         h1     96    bbb    H13   2870 0.04500300   1.008000   ; qtot 95.928174
 2871         h1     96    bbb    H14   2871 0.04500300   1.008000   ; qtot 95.973177
 2872         c3     96    bbb     C8   2872 -0.06455200  12.010000   ; qtot 95.908625
 2873         h1     96    bbb    H15   2873 0.13554100   1.008000   ; qtot 96.044166
 2874         h1     96    bbb    H16   2874 0.13554100   1.008000   ; qtot 96.179707
 2875         c3     96    bbb     C9   2875 -0.06455200  12.010000   ; qtot 96.115155
 2876         h1     96    bbb    H17   2876 0.13554100   1.008000   ; qtot 96.250696
 2877         h1     96    bbb    H18   2877 0.13554100   1.008000   ; qtot 96.386237
 2878         os     96    bbb     O1   2878 -0.62587700  16.000000   ; qtot 95.760360
 2879         hn     96    bbb    H19   2879 0.23982500   1.008000   ; qtot 96.000185
; residue   97 bbb rtp bbb q 1.0
 2880         n4     97    bbb     N1   2880 0.03726400  14.010000   ; qtot 96.037449
 2881         c3     97    bbb     C1   2881 -0.07020100  12.010000   ; qtot 95.967248
 2882         hx     97    bbb     H1   2882 0.12219000   1.008000   ; qtot 96.089438
 2883         hx     97    bbb     H2   2883 0.12219000   1.008000   ; qtot 96.211628
 2884         c3     97    bbb     C2   2884 -0.07020100  12.010000   ; qtot 96.141427
 2885         hx     97    bbb     H3   2885 0.12219000   1.008000   ; qtot 96.263617
 2886         hx     97    bbb     H4   2886 0.12219000   1.008000   ; qtot 96.385807
 2887         c3     97    bbb     C3   2887 -0.39007700  12.010000   ; qtot 95.995730
 2888         hx     97    bbb     H5   2888 0.14940300   1.008000   ; qtot 96.145133
 2889         hx     97    bbb     H6   2889 0.14940300   1.008000   ; qtot 96.294536
 2890         c3     97    bbb     C4   2890 0.18057300  12.010000   ; qtot 96.475109
 2891         hc     97    bbb     H7   2891 0.01788900   1.008000   ; qtot 96.492998
 2892         hc     97    bbb     H8   2892 0.01788900   1.008000   ; qtot 96.510887
 2893         c3     97    bbb     C5   2893 -0.11337700  12.010000   ; qtot 96.397510
 2894         hc     97    bbb     H9   2894 0.09515400   1.008000   ; qtot 96.492664
 2895         hc     97    bbb    H10   2895 0.09515400   1.008000   ; qtot 96.587818
 2896         c3     97    bbb     C6   2896 -0.11337700  12.010000   ; qtot 96.474441
 2897         hc     97    bbb    H11   2897 0.09515400   1.008000   ; qtot 96.569595
 2898         hc     97    bbb    H12   2898 0.09515400   1.008000   ; qtot 96.664749
 2899         c3     97    bbb     C7   2899 0.21842400  12.010000   ; qtot 96.883173
 2900         h1     97    bbb    H13   2900 0.04500300   1.008000   ; qtot 96.928176
 2901         h1     97    bbb    H14   2901 0.04500300   1.008000   ; qtot 96.973179
 2902         c3     97    bbb     C8   2902 -0.06455200  12.010000   ; qtot 96.908627
 2903         h1     97    bbb    H15   2903 0.13554100   1.008000   ; qtot 97.044168
 2904         h1     97    bbb    H16   2904 0.13554100   1.008000   ; qtot 97.179709
 2905         c3     97    bbb     C9   2905 -0.06455200  12.010000   ; qtot 97.115157
 2906         h1     97    bbb    H17   2906 0.13554100   1.008000   ; qtot 97.250698
 2907         h1     97    bbb    H18   2907 0.13554100   1.008000   ; qtot 97.386239
 2908         os     97    bbb     O1   2908 -0.62587700  16.000000   ; qtot 96.760362
 2909         hn     97    bbb    H19   2909 0.23982500   1.008000   ; qtot 97.000187
; residue   98 bbb rtp bbb q 1.0
 2910         n4     98    bbb     N1   2910 0.03726400  14.010000   ; qtot 97.037451
 2911         c3     98    bbb     C1   2911 -0.07020100  12.010000   ; qtot 96.967250
 2912         hx     98    bbb     H1   2912 0.12219000   1.008000   ; qtot 97.089440
 2913         hx     98    bbb     H2   2913 0.12219000   1.008000   ; qtot 97.211630
 2914         c3     98    bbb     C2   2914 -0.07020100  12.010000   ; qtot 97.141429
 2915         hx     98    bbb     H3   2915 0.12219000   1.008000   ; qtot 97.263619
 2916         hx     98    bbb     H4   2916 0.12219000   1.008000   ; qtot 97.385809
 2917         c3     98    bbb     C3   2917 -0.39007700  12.010000   ; qtot 96.995732
 2918         hx     98    bbb     H5   2918 0.14940300   1.008000   ; qtot 97.145135
 2919         hx     98    bbb     H6   2919 0.14940300   1.008000   ; qtot 97.294538
 2920         c3     98    bbb     C4   2920 0.18057300  12.010000   ; qtot 97.475111
 2921         hc     98    bbb     H7   2921 0.01788900   1.008000   ; qtot 97.493000
 2922         hc     98    bbb     H8   2922 0.01788900   1.008000   ; qtot 97.510889
 2923         c3     98    bbb     C5   2923 -0.11337700  12.010000   ; qtot 97.397512
 2924         hc     98    bbb     H9   2924 0.09515400   1.008000   ; qtot 97.492666
 2925         hc     98    bbb    H10   2925 0.09515400   1.008000   ; qtot 97.587820
 2926         c3     98    bbb     C6   2926 -0.11337700  12.010000   ; qtot 97.474443
 2927         hc     98    bbb    H11   2927 0.09515400   1.008000   ; qtot 97.569597
 2928         hc     98    bbb    H12   2928 0.09515400   1.008000   ; qtot 97.664751
 2929         c3     98    bbb     C7   2929 0.21842400  12.010000   ; qtot 97.883175
 2930         h1     98    bbb    H13   2930 0.04500300   1.008000   ; qtot 97.928178
 2931         h1     98    bbb    H14   2931 0.04500300   1.008000   ; qtot 97.973181
 2932         c3     98    bbb     C8   2932 -0.06455200  12.010000   ; qtot 97.908629
 2933         h1     98    bbb    H15   2933 0.13554100   1.008000   ; qtot 98.044170
 2934         h1     98    bbb    H16   2934 0.13554100   1.008000   ; qtot 98.179711
 2935         c3     98    bbb     C9   2935 -0.06455200  12.010000   ; qtot 98.115159
 2936         h1     98    bbb    H17   2936 0.13554100   1.008000   ; qtot 98.250700
 2937         h1     98    bbb    H18   2937 0.13554100   1.008000   ; qtot 98.386241
 2938         os     98    bbb     O1   2938 -0.62587700  16.000000   ; qtot 97.760364
 2939         hn     98    bbb    H19   2939 0.23982500   1.008000   ; qtot 98.000189
; residue   99 bbb rtp bbb q 1.0
 2940         n4     99    bbb     N1   2940 0.03726400  14.010000   ; qtot 98.037453
 2941         c3     99    bbb     C1   2941 -0.07020100  12.010000   ; qtot 97.967252
 2942         hx     99    bbb     H1   2942 0.12219000   1.008000   ; qtot 98.089442
 2943         hx     99    bbb     H2   2943 0.12219000   1.008000   ; qtot 98.211632
 2944         c3     99    bbb     C2   2944 -0.07020100  12.010000   ; qtot 98.141431
 2945         hx     99    bbb     H3   2945 0.12219000   1.008000   ; qtot 98.263621
 2946         hx     99    bbb     H4   2946 0.12219000   1.008000   ; qtot 98.385811
 2947         c3     99    bbb     C3   2947 -0.39007700  12.010000   ; qtot 97.995734
 2948         hx     99    bbb     H5   2948 0.14940300   1.008000   ; qtot 98.145137
 2949         hx     99    bbb     H6   2949 0.14940300   1.008000   ; qtot 98.294540
 2950         c3     99    bbb     C4   2950 0.18057300  12.010000   ; qtot 98.475113
 2951         hc     99    bbb     H7   2951 0.01788900   1.008000   ; qtot 98.493002
 2952         hc     99    bbb     H8   2952 0.01788900   1.008000   ; qtot 98.510891
 2953         c3     99    bbb     C5   2953 -0.11337700  12.010000   ; qtot 98.397514
 2954         hc     99    bbb     H9   2954 0.09515400   1.008000   ; qtot 98.492668
 2955         hc     99    bbb    H10   2955 0.09515400   1.008000   ; qtot 98.587822
 2956         c3     99    bbb     C6   2956 -0.11337700  12.010000   ; qtot 98.474445
 2957         hc     99    bbb    H11   2957 0.09515400   1.008000   ; qtot 98.569599
 2958         hc     99    bbb    H12   2958 0.09515400   1.008000   ; qtot 98.664753
 2959         c3     99    bbb     C7   2959 0.21842400  12.010000   ; qtot 98.883177
 2960         h1     99    bbb    H13   2960 0.04500300   1.008000   ; qtot 98.928180
 2961         h1     99    bbb    H14   2961 0.04500300   1.008000   ; qtot 98.973183
 2962         c3     99    bbb     C8   2962 -0.06455200  12.010000   ; qtot 98.908631
 2963         h1     99    bbb    H15   2963 0.13554100   1.008000   ; qtot 99.044172
 2964         h1     99    bbb    H16   2964 0.13554100   1.008000   ; qtot 99.179713
 2965         c3     99    bbb     C9   2965 -0.06455200  12.010000   ; qtot 99.115161
 2966         h1     99    bbb    H17   2966 0.13554100   1.008000   ; qtot 99.250702
 2967         h1     99    bbb    H18   2967 0.13554100   1.008000   ; qtot 99.386243
 2968         os     99    bbb     O1   2968 -0.62587700  16.000000   ; qtot 98.760366
 2969         hn     99    bbb    H19   2969 0.23982500   1.008000   ; qtot 99.000191
; residue  100 bbb rtp bbb q 1.0
 2970         n4    100    bbb     N1   2970 0.03726400  14.010000   ; qtot 99.037455
 2971         c3    100    bbb     C1   2971 -0.07020100  12.010000   ; qtot 98.967254
 2972         hx    100    bbb     H1   2972 0.12219000   1.008000   ; qtot 99.089444
 2973         hx    100    bbb     H2   2973 0.12219000   1.008000   ; qtot 99.211634
 2974         c3    100    bbb     C2   2974 -0.07020100  12.010000   ; qtot 99.141433
 2975         hx    100    bbb     H3   2975 0.12219000   1.008000   ; qtot 99.263623
 2976         hx    100    bbb     H4   2976 0.12219000   1.008000   ; qtot 99.385813
 2977         c3    100    bbb     C3   2977 -0.39007700  12.010000   ; qtot 98.995736
 2978         hx    100    bbb     H5   2978 0.14940300   1.008000   ; qtot 99.145139
 2979         hx    100    bbb     H6   2979 0.14940300   1.008000   ; qtot 99.294542
 2980         c3    100    bbb     C4   2980 0.18057300  12.010000   ; qtot 99.475115
 2981         hc    100    bbb     H7   2981 0.01788900   1.008000   ; qtot 99.493004
 2982         hc    100    bbb     H8   2982 0.01788900   1.008000   ; qtot 99.510893
 2983         c3    100    bbb     C5   2983 -0.11337700  12.010000   ; qtot 99.397516
 2984         hc    100    bbb     H9   2984 0.09515400   1.008000   ; qtot 99.492670
 2985         hc    100    bbb    H10   2985 0.09515400   1.008000   ; qtot 99.587824
 2986         c3    100    bbb     C6   2986 -0.11337700  12.010000   ; qtot 99.474447
 2987         hc    100    bbb    H11   2987 0.09515400   1.008000   ; qtot 99.569601
 2988         hc    100    bbb    H12   2988 0.09515400   1.008000   ; qtot 99.664755
 2989         c3    100    bbb     C7   2989 0.21842400  12.010000   ; qtot 99.883179
 2990         h1    100    bbb    H13   2990 0.04500300   1.008000   ; qtot 99.928182
 2991         h1    100    bbb    H14   2991 0.04500300   1.008000   ; qtot 99.973185
 2992         c3    100    bbb     C8   2992 -0.06455200  12.010000   ; qtot 99.908633
 2993         h1    100    bbb    H15   2993 0.13554100   1.008000   ; qtot 100.044174
 2994         h1    100    bbb    H16   2994 0.13554100   1.008000   ; qtot 100.179715
 2995         c3    100    bbb     C9   2995 -0.06455200  12.010000   ; qtot 100.115163
 2996         h1    100    bbb    H17   2996 0.13554100   1.008000   ; qtot 100.250704
 2997         h1    100    bbb    H18   2997 0.13554100   1.008000   ; qtot 100.386245
 2998         os    100    bbb     O1   2998 -0.62587700  16.000000   ; qtot 99.760368
 2999         hn    100    bbb    H19   2999 0.23982500   1.008000   ; qtot 100.000193
; residue  101 bbb rtp bbb q 1.0
 3000         n4    101    bbb     N1   3000 0.03726400  14.010000   ; qtot 100.037457
 3001         c3    101    bbb     C1   3001 -0.07020100  12.010000   ; qtot 99.967256
 3002         hx    101    bbb     H1   3002 0.12219000   1.008000   ; qtot 100.089446
 3003         hx    101    bbb     H2   3003 0.12219000   1.008000   ; qtot 100.211636
 3004         c3    101    bbb     C2   3004 -0.07020100  12.010000   ; qtot 100.141435
 3005         hx    101    bbb     H3   3005 0.12219000   1.008000   ; qtot 100.263625
 3006         hx    101    bbb     H4   3006 0.12219000   1.008000   ; qtot 100.385815
 3007         c3    101    bbb     C3   3007 -0.39007700  12.010000   ; qtot 99.995738
 3008         hx    101    bbb     H5   3008 0.14940300   1.008000   ; qtot 100.145141
 3009         hx    101    bbb     H6   3009 0.14940300   1.008000   ; qtot 100.294544
 3010         c3    101    bbb     C4   3010 0.18057300  12.010000   ; qtot 100.475117
 3011         hc    101    bbb     H7   3011 0.01788900   1.008000   ; qtot 100.493006
 3012         hc    101    bbb     H8   3012 0.01788900   1.008000   ; qtot 100.510895
 3013         c3    101    bbb     C5   3013 -0.11337700  12.010000   ; qtot 100.397518
 3014         hc    101    bbb     H9   3014 0.09515400   1.008000   ; qtot 100.492672
 3015         hc    101    bbb    H10   3015 0.09515400   1.008000   ; qtot 100.587826
 3016         c3    101    bbb     C6   3016 -0.11337700  12.010000   ; qtot 100.474449
 3017         hc    101    bbb    H11   3017 0.09515400   1.008000   ; qtot 100.569603
 3018         hc    101    bbb    H12   3018 0.09515400   1.008000   ; qtot 100.664757
 3019         c3    101    bbb     C7   3019 0.21842400  12.010000   ; qtot 100.883181
 3020         h1    101    bbb    H13   3020 0.04500300   1.008000   ; qtot 100.928184
 3021         h1    101    bbb    H14   3021 0.04500300   1.008000   ; qtot 100.973187
 3022         c3    101    bbb     C8   3022 -0.06455200  12.010000   ; qtot 100.908635
 3023         h1    101    bbb    H15   3023 0.13554100   1.008000   ; qtot 101.044176
 3024         h1    101    bbb    H16   3024 0.13554100   1.008000   ; qtot 101.179717
 3025         c3    101    bbb     C9   3025 -0.06455200  12.010000   ; qtot 101.115165
 3026         h1    101    bbb    H17   3026 0.13554100   1.008000   ; qtot 101.250706
 3027         h1    101    bbb    H18   3027 0.13554100   1.008000   ; qtot 101.386247
 3028         os    101    bbb     O1   3028 -0.62587700  16.000000   ; qtot 100.760370
 3029         hn    101    bbb    H19   3029 0.23982500   1.008000   ; qtot 101.000195
; residue  102 bbb rtp bbb q 1.0
 3030         n4    102    bbb     N1   3030 0.03726400  14.010000   ; qtot 101.037459
 3031         c3    102    bbb     C1   3031 -0.07020100  12.010000   ; qtot 100.967258
 3032         hx    102    bbb     H1   3032 0.12219000   1.008000   ; qtot 101.089448
 3033         hx    102    bbb     H2   3033 0.12219000   1.008000   ; qtot 101.211638
 3034         c3    102    bbb     C2   3034 -0.07020100  12.010000   ; qtot 101.141437
 3035         hx    102    bbb     H3   3035 0.12219000   1.008000   ; qtot 101.263627
 3036         hx    102    bbb     H4   3036 0.12219000   1.008000   ; qtot 101.385817
 3037         c3    102    bbb     C3   3037 -0.39007700  12.010000   ; qtot 100.995740
 3038         hx    102    bbb     H5   3038 0.14940300   1.008000   ; qtot 101.145143
 3039         hx    102    bbb     H6   3039 0.14940300   1.008000   ; qtot 101.294546
 3040         c3    102    bbb     C4   3040 0.18057300  12.010000   ; qtot 101.475119
 3041         hc    102    bbb     H7   3041 0.01788900   1.008000   ; qtot 101.493008
 3042         hc    102    bbb     H8   3042 0.01788900   1.008000   ; qtot 101.510897
 3043         c3    102    bbb     C5   3043 -0.11337700  12.010000   ; qtot 101.397520
 3044         hc    102    bbb     H9   3044 0.09515400   1.008000   ; qtot 101.492674
 3045         hc    102    bbb    H10   3045 0.09515400   1.008000   ; qtot 101.587828
 3046         c3    102    bbb     C6   3046 -0.11337700  12.010000   ; qtot 101.474451
 3047         hc    102    bbb    H11   3047 0.09515400   1.008000   ; qtot 101.569605
 3048         hc    102    bbb    H12   3048 0.09515400   1.008000   ; qtot 101.664759
 3049         c3    102    bbb     C7   3049 0.21842400  12.010000   ; qtot 101.883183
 3050         h1    102    bbb    H13   3050 0.04500300   1.008000   ; qtot 101.928186
 3051         h1    102    bbb    H14   3051 0.04500300   1.008000   ; qtot 101.973189
 3052         c3    102    bbb     C8   3052 -0.06455200  12.010000   ; qtot 101.908637
 3053         h1    102    bbb    H15   3053 0.13554100   1.008000   ; qtot 102.044178
 3054         h1    102    bbb    H16   3054 0.13554100   1.008000   ; qtot 102.179719
 3055         c3    102    bbb     C9   3055 -0.06455200  12.010000   ; qtot 102.115167
 3056         h1    102    bbb    H17   3056 0.13554100   1.008000   ; qtot 102.250708
 3057         h1    102    bbb    H18   3057 0.13554100   1.008000   ; qtot 102.386249
 3058         os    102    bbb     O1   3058 -0.62587700  16.000000   ; qtot 101.760372
 3059         hn    102    bbb    H19   3059 0.23982500   1.008000   ; qtot 102.000197
; residue  103 bbb rtp bbb q 1.0
 3060         n4    103    bbb     N1   3060 0.03726400  14.010000   ; qtot 102.037461
 3061         c3    103    bbb     C1   3061 -0.07020100  12.010000   ; qtot 101.967260
 3062         hx    103    bbb     H1   3062 0.12219000   1.008000   ; qtot 102.089450
 3063         hx    103    bbb     H2   3063 0.12219000   1.008000   ; qtot 102.211640
 3064         c3    103    bbb     C2   3064 -0.07020100  12.010000   ; qtot 102.141439
 3065         hx    103    bbb     H3   3065 0.12219000   1.008000   ; qtot 102.263629
 3066         hx    103    bbb     H4   3066 0.12219000   1.008000   ; qtot 102.385819
 3067         c3    103    bbb     C3   3067 -0.39007700  12.010000   ; qtot 101.995742
 3068         hx    103    bbb     H5   3068 0.14940300   1.008000   ; qtot 102.145145
 3069         hx    103    bbb     H6   3069 0.14940300   1.008000   ; qtot 102.294548
 3070         c3    103    bbb     C4   3070 0.18057300  12.010000   ; qtot 102.475121
 3071         hc    103    bbb     H7   3071 0.01788900   1.008000   ; qtot 102.493010
 3072         hc    103    bbb     H8   3072 0.01788900   1.008000   ; qtot 102.510899
 3073         c3    103    bbb     C5   3073 -0.11337700  12.010000   ; qtot 102.397522
 3074         hc    103    bbb     H9   3074 0.09515400   1.008000   ; qtot 102.492676
 3075         hc    103    bbb    H10   3075 0.09515400   1.008000   ; qtot 102.587830
 3076         c3    103    bbb     C6   3076 -0.11337700  12.010000   ; qtot 102.474453
 3077         hc    103    bbb    H11   3077 0.09515400   1.008000   ; qtot 102.569607
 3078         hc    103    bbb    H12   3078 0.09515400   1.008000   ; qtot 102.664761
 3079         c3    103    bbb     C7   3079 0.21842400  12.010000   ; qtot 102.883185
 3080         h1    103    bbb    H13   3080 0.04500300   1.008000   ; qtot 102.928188
 3081         h1    103    bbb    H14   3081 0.04500300   1.008000   ; qtot 102.973191
 3082         c3    103    bbb     C8   3082 -0.06455200  12.010000   ; qtot 102.908639
 3083         h1    103    bbb    H15   3083 0.13554100   1.008000   ; qtot 103.044180
 3084         h1    103    bbb    H16   3084 0.13554100   1.008000   ; qtot 103.179721
 3085         c3    103    bbb     C9   3085 -0.06455200  12.010000   ; qtot 103.115169
 3086         h1    103    bbb    H17   3086 0.13554100   1.008000   ; qtot 103.250710
 3087         h1    103    bbb    H18   3087 0.13554100   1.008000   ; qtot 103.386251
 3088         os    103    bbb     O1   3088 -0.62587700  16.000000   ; qtot 102.760374
 3089         hn    103    bbb    H19   3089 0.23982500   1.008000   ; qtot 103.000199
; residue  104 bbb rtp bbb q 1.0
 3090         n4    104    bbb     N1   3090 0.03726400  14.010000   ; qtot 103.037463
 3091         c3    104    bbb     C1   3091 -0.07020100  12.010000   ; qtot 102.967262
 3092         hx    104    bbb     H1   3092 0.12219000   1.008000   ; qtot 103.089452
 3093         hx    104    bbb     H2   3093 0.12219000   1.008000   ; qtot 103.211642
 3094         c3    104    bbb     C2   3094 -0.07020100  12.010000   ; qtot 103.141441
 3095         hx    104    bbb     H3   3095 0.12219000   1.008000   ; qtot 103.263631
 3096         hx    104    bbb     H4   3096 0.12219000   1.008000   ; qtot 103.385821
 3097         c3    104    bbb     C3   3097 -0.39007700  12.010000   ; qtot 102.995744
 3098         hx    104    bbb     H5   3098 0.14940300   1.008000   ; qtot 103.145147
 3099         hx    104    bbb     H6   3099 0.14940300   1.008000   ; qtot 103.294550
 3100         c3    104    bbb     C4   3100 0.18057300  12.010000   ; qtot 103.475123
 3101         hc    104    bbb     H7   3101 0.01788900   1.008000   ; qtot 103.493012
 3102         hc    104    bbb     H8   3102 0.01788900   1.008000   ; qtot 103.510901
 3103         c3    104    bbb     C5   3103 -0.11337700  12.010000   ; qtot 103.397524
 3104         hc    104    bbb     H9   3104 0.09515400   1.008000   ; qtot 103.492678
 3105         hc    104    bbb    H10   3105 0.09515400   1.008000   ; qtot 103.587832
 3106         c3    104    bbb     C6   3106 -0.11337700  12.010000   ; qtot 103.474455
 3107         hc    104    bbb    H11   3107 0.09515400   1.008000   ; qtot 103.569609
 3108         hc    104    bbb    H12   3108 0.09515400   1.008000   ; qtot 103.664763
 3109         c3    104    bbb     C7   3109 0.21842400  12.010000   ; qtot 103.883187
 3110         h1    104    bbb    H13   3110 0.04500300   1.008000   ; qtot 103.928190
 3111         h1    104    bbb    H14   3111 0.04500300   1.008000   ; qtot 103.973193
 3112         c3    104    bbb     C8   3112 -0.06455200  12.010000   ; qtot 103.908641
 3113         h1    104    bbb    H15   3113 0.13554100   1.008000   ; qtot 104.044182
 3114         h1    104    bbb    H16   3114 0.13554100   1.008000   ; qtot 104.179723
 3115         c3    104    bbb     C9   3115 -0.06455200  12.010000   ; qtot 104.115171
 3116         h1    104    bbb    H17   3116 0.13554100   1.008000   ; qtot 104.250712
 3117         h1    104    bbb    H18   3117 0.13554100   1.008000   ; qtot 104.386253
 3118         os    104    bbb     O1   3118 -0.62587700  16.000000   ; qtot 103.760376
 3119         hn    104    bbb    H19   3119 0.23982500   1.008000   ; qtot 104.000201
; residue  105 bbb rtp bbb q 1.0
 3120         n4    105    bbb     N1   3120 0.03726400  14.010000   ; qtot 104.037465
 3121         c3    105    bbb     C1   3121 -0.07020100  12.010000   ; qtot 103.967264
 3122         hx    105    bbb     H1   3122 0.12219000   1.008000   ; qtot 104.089454
 3123         hx    105    bbb     H2   3123 0.12219000   1.008000   ; qtot 104.211644
 3124         c3    105    bbb     C2   3124 -0.07020100  12.010000   ; qtot 104.141443
 3125         hx    105    bbb     H3   3125 0.12219000   1.008000   ; qtot 104.263633
 3126         hx    105    bbb     H4   3126 0.12219000   1.008000   ; qtot 104.385823
 3127         c3    105    bbb     C3   3127 -0.39007700  12.010000   ; qtot 103.995746
 3128         hx    105    bbb     H5   3128 0.14940300   1.008000   ; qtot 104.145149
 3129         hx    105    bbb     H6   3129 0.14940300   1.008000   ; qtot 104.294552
 3130         c3    105    bbb     C4   3130 0.18057300  12.010000   ; qtot 104.475125
 3131         hc    105    bbb     H7   3131 0.01788900   1.008000   ; qtot 104.493014
 3132         hc    105    bbb     H8   3132 0.01788900   1.008000   ; qtot 104.510903
 3133         c3    105    bbb     C5   3133 -0.11337700  12.010000   ; qtot 104.397526
 3134         hc    105    bbb     H9   3134 0.09515400   1.008000   ; qtot 104.492680
 3135         hc    105    bbb    H10   3135 0.09515400   1.008000   ; qtot 104.587834
 3136         c3    105    bbb     C6   3136 -0.11337700  12.010000   ; qtot 104.474457
 3137         hc    105    bbb    H11   3137 0.09515400   1.008000   ; qtot 104.569611
 3138         hc    105    bbb    H12   3138 0.09515400   1.008000   ; qtot 104.664765
 3139         c3    105    bbb     C7   3139 0.21842400  12.010000   ; qtot 104.883189
 3140         h1    105    bbb    H13   3140 0.04500300   1.008000   ; qtot 104.928192
 3141         h1    105    bbb    H14   3141 0.04500300   1.008000   ; qtot 104.973195
 3142         c3    105    bbb     C8   3142 -0.06455200  12.010000   ; qtot 104.908643
 3143         h1    105    bbb    H15   3143 0.13554100   1.008000   ; qtot 105.044184
 3144         h1    105    bbb    H16   3144 0.13554100   1.008000   ; qtot 105.179725
 3145         c3    105    bbb     C9   3145 -0.06455200  12.010000   ; qtot 105.115173
 3146         h1    105    bbb    H17   3146 0.13554100   1.008000   ; qtot 105.250714
 3147         h1    105    bbb    H18   3147 0.13554100   1.008000   ; qtot 105.386255
 3148         os    105    bbb     O1   3148 -0.62587700  16.000000   ; qtot 104.760378
 3149         hn    105    bbb    H19   3149 0.23982500   1.008000   ; qtot 105.000203
; residue  106 bbb rtp bbb q 1.0
 3150         n4    106    bbb     N1   3150 0.03726400  14.010000   ; qtot 105.037467
 3151         c3    106    bbb     C1   3151 -0.07020100  12.010000   ; qtot 104.967266
 3152         hx    106    bbb     H1   3152 0.12219000   1.008000   ; qtot 105.089456
 3153         hx    106    bbb     H2   3153 0.12219000   1.008000   ; qtot 105.211646
 3154         c3    106    bbb     C2   3154 -0.07020100  12.010000   ; qtot 105.141445
 3155         hx    106    bbb     H3   3155 0.12219000   1.008000   ; qtot 105.263635
 3156         hx    106    bbb     H4   3156 0.12219000   1.008000   ; qtot 105.385825
 3157         c3    106    bbb     C3   3157 -0.39007700  12.010000   ; qtot 104.995748
 3158         hx    106    bbb     H5   3158 0.14940300   1.008000   ; qtot 105.145151
 3159         hx    106    bbb     H6   3159 0.14940300   1.008000   ; qtot 105.294554
 3160         c3    106    bbb     C4   3160 0.18057300  12.010000   ; qtot 105.475127
 3161         hc    106    bbb     H7   3161 0.01788900   1.008000   ; qtot 105.493016
 3162         hc    106    bbb     H8   3162 0.01788900   1.008000   ; qtot 105.510905
 3163         c3    106    bbb     C5   3163 -0.11337700  12.010000   ; qtot 105.397528
 3164         hc    106    bbb     H9   3164 0.09515400   1.008000   ; qtot 105.492682
 3165         hc    106    bbb    H10   3165 0.09515400   1.008000   ; qtot 105.587836
 3166         c3    106    bbb     C6   3166 -0.11337700  12.010000   ; qtot 105.474459
 3167         hc    106    bbb    H11   3167 0.09515400   1.008000   ; qtot 105.569613
 3168         hc    106    bbb    H12   3168 0.09515400   1.008000   ; qtot 105.664767
 3169         c3    106    bbb     C7   3169 0.21842400  12.010000   ; qtot 105.883191
 3170         h1    106    bbb    H13   3170 0.04500300   1.008000   ; qtot 105.928194
 3171         h1    106    bbb    H14   3171 0.04500300   1.008000   ; qtot 105.973197
 3172         c3    106    bbb     C8   3172 -0.06455200  12.010000   ; qtot 105.908645
 3173         h1    106    bbb    H15   3173 0.13554100   1.008000   ; qtot 106.044186
 3174         h1    106    bbb    H16   3174 0.13554100   1.008000   ; qtot 106.179727
 3175         c3    106    bbb     C9   3175 -0.06455200  12.010000   ; qtot 106.115175
 3176         h1    106    bbb    H17   3176 0.13554100   1.008000   ; qtot 106.250716
 3177         h1    106    bbb    H18   3177 0.13554100   1.008000   ; qtot 106.386257
 3178         os    106    bbb     O1   3178 -0.62587700  16.000000   ; qtot 105.760380
 3179         hn    106    bbb    H19   3179 0.23982500   1.008000   ; qtot 106.000205
; residue  107 bbb rtp bbb q 1.0
 3180         n4    107    bbb     N1   3180 0.03726400  14.010000   ; qtot 106.037469
 3181         c3    107    bbb     C1   3181 -0.07020100  12.010000   ; qtot 105.967268
 3182         hx    107    bbb     H1   3182 0.12219000   1.008000   ; qtot 106.089458
 3183         hx    107    bbb     H2   3183 0.12219000   1.008000   ; qtot 106.211648
 3184         c3    107    bbb     C2   3184 -0.07020100  12.010000   ; qtot 106.141447
 3185         hx    107    bbb     H3   3185 0.12219000   1.008000   ; qtot 106.263637
 3186         hx    107    bbb     H4   3186 0.12219000   1.008000   ; qtot 106.385827
 3187         c3    107    bbb     C3   3187 -0.39007700  12.010000   ; qtot 105.995750
 3188         hx    107    bbb     H5   3188 0.14940300   1.008000   ; qtot 106.145153
 3189         hx    107    bbb     H6   3189 0.14940300   1.008000   ; qtot 106.294556
 3190         c3    107    bbb     C4   3190 0.18057300  12.010000   ; qtot 106.475129
 3191         hc    107    bbb     H7   3191 0.01788900   1.008000   ; qtot 106.493018
 3192         hc    107    bbb     H8   3192 0.01788900   1.008000   ; qtot 106.510907
 3193         c3    107    bbb     C5   3193 -0.11337700  12.010000   ; qtot 106.397530
 3194         hc    107    bbb     H9   3194 0.09515400   1.008000   ; qtot 106.492684
 3195         hc    107    bbb    H10   3195 0.09515400   1.008000   ; qtot 106.587838
 3196         c3    107    bbb     C6   3196 -0.11337700  12.010000   ; qtot 106.474461
 3197         hc    107    bbb    H11   3197 0.09515400   1.008000   ; qtot 106.569615
 3198         hc    107    bbb    H12   3198 0.09515400   1.008000   ; qtot 106.664769
 3199         c3    107    bbb     C7   3199 0.21842400  12.010000   ; qtot 106.883193
 3200         h1    107    bbb    H13   3200 0.04500300   1.008000   ; qtot 106.928196
 3201         h1    107    bbb    H14   3201 0.04500300   1.008000   ; qtot 106.973199
 3202         c3    107    bbb     C8   3202 -0.06455200  12.010000   ; qtot 106.908647
 3203         h1    107    bbb    H15   3203 0.13554100   1.008000   ; qtot 107.044188
 3204         h1    107    bbb    H16   3204 0.13554100   1.008000   ; qtot 107.179729
 3205         c3    107    bbb     C9   3205 -0.06455200  12.010000   ; qtot 107.115177
 3206         h1    107    bbb    H17   3206 0.13554100   1.008000   ; qtot 107.250718
 3207         h1    107    bbb    H18   3207 0.13554100   1.008000   ; qtot 107.386259
 3208         os    107    bbb     O1   3208 -0.62587700  16.000000   ; qtot 106.760382
 3209         hn    107    bbb    H19   3209 0.23982500   1.008000   ; qtot 107.000207
; residue  108 bbb rtp bbb q 1.0
 3210         n4    108    bbb     N1   3210 0.03726400  14.010000   ; qtot 107.037471
 3211         c3    108    bbb     C1   3211 -0.07020100  12.010000   ; qtot 106.967270
 3212         hx    108    bbb     H1   3212 0.12219000   1.008000   ; qtot 107.089460
 3213         hx    108    bbb     H2   3213 0.12219000   1.008000   ; qtot 107.211650
 3214         c3    108    bbb     C2   3214 -0.07020100  12.010000   ; qtot 107.141449
 3215         hx    108    bbb     H3   3215 0.12219000   1.008000   ; qtot 107.263639
 3216         hx    108    bbb     H4   3216 0.12219000   1.008000   ; qtot 107.385829
 3217         c3    108    bbb     C3   3217 -0.39007700  12.010000   ; qtot 106.995752
 3218         hx    108    bbb     H5   3218 0.14940300   1.008000   ; qtot 107.145155
 3219         hx    108    bbb     H6   3219 0.14940300   1.008000   ; qtot 107.294558
 3220         c3    108    bbb     C4   3220 0.18057300  12.010000   ; qtot 107.475131
 3221         hc    108    bbb     H7   3221 0.01788900   1.008000   ; qtot 107.493020
 3222         hc    108    bbb     H8   3222 0.01788900   1.008000   ; qtot 107.510909
 3223         c3    108    bbb     C5   3223 -0.11337700  12.010000   ; qtot 107.397532
 3224         hc    108    bbb     H9   3224 0.09515400   1.008000   ; qtot 107.492686
 3225         hc    108    bbb    H10   3225 0.09515400   1.008000   ; qtot 107.587840
 3226         c3    108    bbb     C6   3226 -0.11337700  12.010000   ; qtot 107.474463
 3227         hc    108    bbb    H11   3227 0.09515400   1.008000   ; qtot 107.569617
 3228         hc    108    bbb    H12   3228 0.09515400   1.008000   ; qtot 107.664771
 3229         c3    108    bbb     C7   3229 0.21842400  12.010000   ; qtot 107.883195
 3230         h1    108    bbb    H13   3230 0.04500300   1.008000   ; qtot 107.928198
 3231         h1    108    bbb    H14   3231 0.04500300   1.008000   ; qtot 107.973201
 3232         c3    108    bbb     C8   3232 -0.06455200  12.010000   ; qtot 107.908649
 3233         h1    108    bbb    H15   3233 0.13554100   1.008000   ; qtot 108.044190
 3234         h1    108    bbb    H16   3234 0.13554100   1.008000   ; qtot 108.179731
 3235         c3    108    bbb     C9   3235 -0.06455200  12.010000   ; qtot 108.115179
 3236         h1    108    bbb    H17   3236 0.13554100   1.008000   ; qtot 108.250720
 3237         h1    108    bbb    H18   3237 0.13554100   1.008000   ; qtot 108.386261
 3238         os    108    bbb     O1   3238 -0.62587700  16.000000   ; qtot 107.760384
 3239         hn    108    bbb    H19   3239 0.23982500   1.008000   ; qtot 108.000209
; residue  109 bbb rtp bbb q 1.0
 3240         n4    109    bbb     N1   3240 0.03726400  14.010000   ; qtot 108.037473
 3241         c3    109    bbb     C1   3241 -0.07020100  12.010000   ; qtot 107.967272
 3242         hx    109    bbb     H1   3242 0.12219000   1.008000   ; qtot 108.089462
 3243         hx    109    bbb     H2   3243 0.12219000   1.008000   ; qtot 108.211652
 3244         c3    109    bbb     C2   3244 -0.07020100  12.010000   ; qtot 108.141451
 3245         hx    109    bbb     H3   3245 0.12219000   1.008000   ; qtot 108.263641
 3246         hx    109    bbb     H4   3246 0.12219000   1.008000   ; qtot 108.385831
 3247         c3    109    bbb     C3   3247 -0.39007700  12.010000   ; qtot 107.995754
 3248         hx    109    bbb     H5   3248 0.14940300   1.008000   ; qtot 108.145157
 3249         hx    109    bbb     H6   3249 0.14940300   1.008000   ; qtot 108.294560
 3250         c3    109    bbb     C4   3250 0.18057300  12.010000   ; qtot 108.475133
 3251         hc    109    bbb     H7   3251 0.01788900   1.008000   ; qtot 108.493022
 3252         hc    109    bbb     H8   3252 0.01788900   1.008000   ; qtot 108.510911
 3253         c3    109    bbb     C5   3253 -0.11337700  12.010000   ; qtot 108.397534
 3254         hc    109    bbb     H9   3254 0.09515400   1.008000   ; qtot 108.492688
 3255         hc    109    bbb    H10   3255 0.09515400   1.008000   ; qtot 108.587842
 3256         c3    109    bbb     C6   3256 -0.11337700  12.010000   ; qtot 108.474465
 3257         hc    109    bbb    H11   3257 0.09515400   1.008000   ; qtot 108.569619
 3258         hc    109    bbb    H12   3258 0.09515400   1.008000   ; qtot 108.664773
 3259         c3    109    bbb     C7   3259 0.21842400  12.010000   ; qtot 108.883197
 3260         h1    109    bbb    H13   3260 0.04500300   1.008000   ; qtot 108.928200
 3261         h1    109    bbb    H14   3261 0.04500300   1.008000   ; qtot 108.973203
 3262         c3    109    bbb     C8   3262 -0.06455200  12.010000   ; qtot 108.908651
 3263         h1    109    bbb    H15   3263 0.13554100   1.008000   ; qtot 109.044192
 3264         h1    109    bbb    H16   3264 0.13554100   1.008000   ; qtot 109.179733
 3265         c3    109    bbb     C9   3265 -0.06455200  12.010000   ; qtot 109.115181
 3266         h1    109    bbb    H17   3266 0.13554100   1.008000   ; qtot 109.250722
 3267         h1    109    bbb    H18   3267 0.13554100   1.008000   ; qtot 109.386263
 3268         os    109    bbb     O1   3268 -0.62587700  16.000000   ; qtot 108.760386
 3269         hn    109    bbb    H19   3269 0.23982500   1.008000   ; qtot 109.000211
; residue  110 bbb rtp bbb q 1.0
 3270         n4    110    bbb     N1   3270 0.03726400  14.010000   ; qtot 109.037475
 3271         c3    110    bbb     C1   3271 -0.07020100  12.010000   ; qtot 108.967274
 3272         hx    110    bbb     H1   3272 0.12219000   1.008000   ; qtot 109.089464
 3273         hx    110    bbb     H2   3273 0.12219000   1.008000   ; qtot 109.211654
 3274         c3    110    bbb     C2   3274 -0.07020100  12.010000   ; qtot 109.141453
 3275         hx    110    bbb     H3   3275 0.12219000   1.008000   ; qtot 109.263643
 3276         hx    110    bbb     H4   3276 0.12219000   1.008000   ; qtot 109.385833
 3277         c3    110    bbb     C3   3277 -0.39007700  12.010000   ; qtot 108.995756
 3278         hx    110    bbb     H5   3278 0.14940300   1.008000   ; qtot 109.145159
 3279         hx    110    bbb     H6   3279 0.14940300   1.008000   ; qtot 109.294562
 3280         c3    110    bbb     C4   3280 0.18057300  12.010000   ; qtot 109.475135
 3281         hc    110    bbb     H7   3281 0.01788900   1.008000   ; qtot 109.493024
 3282         hc    110    bbb     H8   3282 0.01788900   1.008000   ; qtot 109.510913
 3283         c3    110    bbb     C5   3283 -0.11337700  12.010000   ; qtot 109.397536
 3284         hc    110    bbb     H9   3284 0.09515400   1.008000   ; qtot 109.492690
 3285         hc    110    bbb    H10   3285 0.09515400   1.008000   ; qtot 109.587844
 3286         c3    110    bbb     C6   3286 -0.11337700  12.010000   ; qtot 109.474467
 3287         hc    110    bbb    H11   3287 0.09515400   1.008000   ; qtot 109.569621
 3288         hc    110    bbb    H12   3288 0.09515400   1.008000   ; qtot 109.664775
 3289         c3    110    bbb     C7   3289 0.21842400  12.010000   ; qtot 109.883199
 3290         h1    110    bbb    H13   3290 0.04500300   1.008000   ; qtot 109.928202
 3291         h1    110    bbb    H14   3291 0.04500300   1.008000   ; qtot 109.973205
 3292         c3    110    bbb     C8   3292 -0.06455200  12.010000   ; qtot 109.908653
 3293         h1    110    bbb    H15   3293 0.13554100   1.008000   ; qtot 110.044194
 3294         h1    110    bbb    H16   3294 0.13554100   1.008000   ; qtot 110.179735
 3295         c3    110    bbb     C9   3295 -0.06455200  12.010000   ; qtot 110.115183
 3296         h1    110    bbb    H17   3296 0.13554100   1.008000   ; qtot 110.250724
 3297         h1    110    bbb    H18   3297 0.13554100   1.008000   ; qtot 110.386265
 3298         os    110    bbb     O1   3298 -0.62587700  16.000000   ; qtot 109.760388
 3299         hn    110    bbb    H19   3299 0.23982500   1.008000   ; qtot 110.000213
; residue  111 bbb rtp bbb q 1.0
 3300         n4    111    bbb     N1   3300 0.03726400  14.010000   ; qtot 110.037477
 3301         c3    111    bbb     C1   3301 -0.07020100  12.010000   ; qtot 109.967276
 3302         hx    111    bbb     H1   3302 0.12219000   1.008000   ; qtot 110.089466
 3303         hx    111    bbb     H2   3303 0.12219000   1.008000   ; qtot 110.211656
 3304         c3    111    bbb     C2   3304 -0.07020100  12.010000   ; qtot 110.141455
 3305         hx    111    bbb     H3   3305 0.12219000   1.008000   ; qtot 110.263645
 3306         hx    111    bbb     H4   3306 0.12219000   1.008000   ; qtot 110.385835
 3307         c3    111    bbb     C3   3307 -0.39007700  12.010000   ; qtot 109.995758
 3308         hx    111    bbb     H5   3308 0.14940300   1.008000   ; qtot 110.145161
 3309         hx    111    bbb     H6   3309 0.14940300   1.008000   ; qtot 110.294564
 3310         c3    111    bbb     C4   3310 0.18057300  12.010000   ; qtot 110.475137
 3311         hc    111    bbb     H7   3311 0.01788900   1.008000   ; qtot 110.493026
 3312         hc    111    bbb     H8   3312 0.01788900   1.008000   ; qtot 110.510915
 3313         c3    111    bbb     C5   3313 -0.11337700  12.010000   ; qtot 110.397538
 3314         hc    111    bbb     H9   3314 0.09515400   1.008000   ; qtot 110.492692
 3315         hc    111    bbb    H10   3315 0.09515400   1.008000   ; qtot 110.587846
 3316         c3    111    bbb     C6   3316 -0.11337700  12.010000   ; qtot 110.474469
 3317         hc    111    bbb    H11   3317 0.09515400   1.008000   ; qtot 110.569623
 3318         hc    111    bbb    H12   3318 0.09515400   1.008000   ; qtot 110.664777
 3319         c3    111    bbb     C7   3319 0.21842400  12.010000   ; qtot 110.883201
 3320         h1    111    bbb    H13   3320 0.04500300   1.008000   ; qtot 110.928204
 3321         h1    111    bbb    H14   3321 0.04500300   1.008000   ; qtot 110.973207
 3322         c3    111    bbb     C8   3322 -0.06455200  12.010000   ; qtot 110.908655
 3323         h1    111    bbb    H15   3323 0.13554100   1.008000   ; qtot 111.044196
 3324         h1    111    bbb    H16   3324 0.13554100   1.008000   ; qtot 111.179737
 3325         c3    111    bbb     C9   3325 -0.06455200  12.010000   ; qtot 111.115185
 3326         h1    111    bbb    H17   3326 0.13554100   1.008000   ; qtot 111.250726
 3327         h1    111    bbb    H18   3327 0.13554100   1.008000   ; qtot 111.386267
 3328         os    111    bbb     O1   3328 -0.62587700  16.000000   ; qtot 110.760390
 3329         hn    111    bbb    H19   3329 0.23982500   1.008000   ; qtot 111.000215
; residue  112 bbb rtp bbb q 1.0
 3330         n4    112    bbb     N1   3330 0.03726400  14.010000   ; qtot 111.037479
 3331         c3    112    bbb     C1   3331 -0.07020100  12.010000   ; qtot 110.967278
 3332         hx    112    bbb     H1   3332 0.12219000   1.008000   ; qtot 111.089468
 3333         hx    112    bbb     H2   3333 0.12219000   1.008000   ; qtot 111.211658
 3334         c3    112    bbb     C2   3334 -0.07020100  12.010000   ; qtot 111.141457
 3335         hx    112    bbb     H3   3335 0.12219000   1.008000   ; qtot 111.263647
 3336         hx    112    bbb     H4   3336 0.12219000   1.008000   ; qtot 111.385837
 3337         c3    112    bbb     C3   3337 -0.39007700  12.010000   ; qtot 110.995760
 3338         hx    112    bbb     H5   3338 0.14940300   1.008000   ; qtot 111.145163
 3339         hx    112    bbb     H6   3339 0.14940300   1.008000   ; qtot 111.294566
 3340         c3    112    bbb     C4   3340 0.18057300  12.010000   ; qtot 111.475139
 3341         hc    112    bbb     H7   3341 0.01788900   1.008000   ; qtot 111.493028
 3342         hc    112    bbb     H8   3342 0.01788900   1.008000   ; qtot 111.510917
 3343         c3    112    bbb     C5   3343 -0.11337700  12.010000   ; qtot 111.397540
 3344         hc    112    bbb     H9   3344 0.09515400   1.008000   ; qtot 111.492694
 3345         hc    112    bbb    H10   3345 0.09515400   1.008000   ; qtot 111.587848
 3346         c3    112    bbb     C6   3346 -0.11337700  12.010000   ; qtot 111.474471
 3347         hc    112    bbb    H11   3347 0.09515400   1.008000   ; qtot 111.569625
 3348         hc    112    bbb    H12   3348 0.09515400   1.008000   ; qtot 111.664779
 3349         c3    112    bbb     C7   3349 0.21842400  12.010000   ; qtot 111.883203
 3350         h1    112    bbb    H13   3350 0.04500300   1.008000   ; qtot 111.928206
 3351         h1    112    bbb    H14   3351 0.04500300   1.008000   ; qtot 111.973209
 3352         c3    112    bbb     C8   3352 -0.06455200  12.010000   ; qtot 111.908657
 3353         h1    112    bbb    H15   3353 0.13554100   1.008000   ; qtot 112.044198
 3354         h1    112    bbb    H16   3354 0.13554100   1.008000   ; qtot 112.179739
 3355         c3    112    bbb     C9   3355 -0.06455200  12.010000   ; qtot 112.115187
 3356         h1    112    bbb    H17   3356 0.13554100   1.008000   ; qtot 112.250728
 3357         h1    112    bbb    H18   3357 0.13554100   1.008000   ; qtot 112.386269
 3358         os    112    bbb     O1   3358 -0.62587700  16.000000   ; qtot 111.760392
 3359         hn    112    bbb    H19   3359 0.23982500   1.008000   ; qtot 112.000217
; residue  113 bbb rtp bbb q 1.0
 3360         n4    113    bbb     N1   3360 0.03726400  14.010000   ; qtot 112.037481
 3361         c3    113    bbb     C1   3361 -0.07020100  12.010000   ; qtot 111.967280
 3362         hx    113    bbb     H1   3362 0.12219000   1.008000   ; qtot 112.089470
 3363         hx    113    bbb     H2   3363 0.12219000   1.008000   ; qtot 112.211660
 3364         c3    113    bbb     C2   3364 -0.07020100  12.010000   ; qtot 112.141459
 3365         hx    113    bbb     H3   3365 0.12219000   1.008000   ; qtot 112.263649
 3366         hx    113    bbb     H4   3366 0.12219000   1.008000   ; qtot 112.385839
 3367         c3    113    bbb     C3   3367 -0.39007700  12.010000   ; qtot 111.995762
 3368         hx    113    bbb     H5   3368 0.14940300   1.008000   ; qtot 112.145165
 3369         hx    113    bbb     H6   3369 0.14940300   1.008000   ; qtot 112.294568
 3370         c3    113    bbb     C4   3370 0.18057300  12.010000   ; qtot 112.475141
 3371         hc    113    bbb     H7   3371 0.01788900   1.008000   ; qtot 112.493030
 3372         hc    113    bbb     H8   3372 0.01788900   1.008000   ; qtot 112.510919
 3373         c3    113    bbb     C5   3373 -0.11337700  12.010000   ; qtot 112.397542
 3374         hc    113    bbb     H9   3374 0.09515400   1.008000   ; qtot 112.492696
 3375         hc    113    bbb    H10   3375 0.09515400   1.008000   ; qtot 112.587850
 3376         c3    113    bbb     C6   3376 -0.11337700  12.010000   ; qtot 112.474473
 3377         hc    113    bbb    H11   3377 0.09515400   1.008000   ; qtot 112.569627
 3378         hc    113    bbb    H12   3378 0.09515400   1.008000   ; qtot 112.664781
 3379         c3    113    bbb     C7   3379 0.21842400  12.010000   ; qtot 112.883205
 3380         h1    113    bbb    H13   3380 0.04500300   1.008000   ; qtot 112.928208
 3381         h1    113    bbb    H14   3381 0.04500300   1.008000   ; qtot 112.973211
 3382         c3    113    bbb     C8   3382 -0.06455200  12.010000   ; qtot 112.908659
 3383         h1    113    bbb    H15   3383 0.13554100   1.008000   ; qtot 113.044200
 3384         h1    113    bbb    H16   3384 0.13554100   1.008000   ; qtot 113.179741
 3385         c3    113    bbb     C9   3385 -0.06455200  12.010000   ; qtot 113.115189
 3386         h1    113    bbb    H17   3386 0.13554100   1.008000   ; qtot 113.250730
 3387         h1    113    bbb    H18   3387 0.13554100   1.008000   ; qtot 113.386271
 3388         os    113    bbb     O1   3388 -0.62587700  16.000000   ; qtot 112.760394
 3389         hn    113    bbb    H19   3389 0.23982500   1.008000   ; qtot 113.000219
; residue  114 bbb rtp bbb q 1.0
 3390         n4    114    bbb     N1   3390 0.03726400  14.010000   ; qtot 113.037483
 3391         c3    114    bbb     C1   3391 -0.07020100  12.010000   ; qtot 112.967282
 3392         hx    114    bbb     H1   3392 0.12219000   1.008000   ; qtot 113.089472
 3393         hx    114    bbb     H2   3393 0.12219000   1.008000   ; qtot 113.211662
 3394         c3    114    bbb     C2   3394 -0.07020100  12.010000   ; qtot 113.141461
 3395         hx    114    bbb     H3   3395 0.12219000   1.008000   ; qtot 113.263651
 3396         hx    114    bbb     H4   3396 0.12219000   1.008000   ; qtot 113.385841
 3397         c3    114    bbb     C3   3397 -0.39007700  12.010000   ; qtot 112.995764
 3398         hx    114    bbb     H5   3398 0.14940300   1.008000   ; qtot 113.145167
 3399         hx    114    bbb     H6   3399 0.14940300   1.008000   ; qtot 113.294570
 3400         c3    114    bbb     C4   3400 0.18057300  12.010000   ; qtot 113.475143
 3401         hc    114    bbb     H7   3401 0.01788900   1.008000   ; qtot 113.493032
 3402         hc    114    bbb     H8   3402 0.01788900   1.008000   ; qtot 113.510921
 3403         c3    114    bbb     C5   3403 -0.11337700  12.010000   ; qtot 113.397544
 3404         hc    114    bbb     H9   3404 0.09515400   1.008000   ; qtot 113.492698
 3405         hc    114    bbb    H10   3405 0.09515400   1.008000   ; qtot 113.587852
 3406         c3    114    bbb     C6   3406 -0.11337700  12.010000   ; qtot 113.474475
 3407         hc    114    bbb    H11   3407 0.09515400   1.008000   ; qtot 113.569629
 3408         hc    114    bbb    H12   3408 0.09515400   1.008000   ; qtot 113.664783
 3409         c3    114    bbb     C7   3409 0.21842400  12.010000   ; qtot 113.883207
 3410         h1    114    bbb    H13   3410 0.04500300   1.008000   ; qtot 113.928210
 3411         h1    114    bbb    H14   3411 0.04500300   1.008000   ; qtot 113.973213
 3412         c3    114    bbb     C8   3412 -0.06455200  12.010000   ; qtot 113.908661
 3413         h1    114    bbb    H15   3413 0.13554100   1.008000   ; qtot 114.044202
 3414         h1    114    bbb    H16   3414 0.13554100   1.008000   ; qtot 114.179743
 3415         c3    114    bbb     C9   3415 -0.06455200  12.010000   ; qtot 114.115191
 3416         h1    114    bbb    H17   3416 0.13554100   1.008000   ; qtot 114.250732
 3417         h1    114    bbb    H18   3417 0.13554100   1.008000   ; qtot 114.386273
 3418         os    114    bbb     O1   3418 -0.62587700  16.000000   ; qtot 113.760396
 3419         hn    114    bbb    H19   3419 0.23982500   1.008000   ; qtot 114.000221
; residue  115 bbb rtp bbb q 1.0
 3420         n4    115    bbb     N1   3420 0.03726400  14.010000   ; qtot 114.037485
 3421         c3    115    bbb     C1   3421 -0.07020100  12.010000   ; qtot 113.967284
 3422         hx    115    bbb     H1   3422 0.12219000   1.008000   ; qtot 114.089474
 3423         hx    115    bbb     H2   3423 0.12219000   1.008000   ; qtot 114.211664
 3424         c3    115    bbb     C2   3424 -0.07020100  12.010000   ; qtot 114.141463
 3425         hx    115    bbb     H3   3425 0.12219000   1.008000   ; qtot 114.263653
 3426         hx    115    bbb     H4   3426 0.12219000   1.008000   ; qtot 114.385843
 3427         c3    115    bbb     C3   3427 -0.39007700  12.010000   ; qtot 113.995766
 3428         hx    115    bbb     H5   3428 0.14940300   1.008000   ; qtot 114.145169
 3429         hx    115    bbb     H6   3429 0.14940300   1.008000   ; qtot 114.294572
 3430         c3    115    bbb     C4   3430 0.18057300  12.010000   ; qtot 114.475145
 3431         hc    115    bbb     H7   3431 0.01788900   1.008000   ; qtot 114.493034
 3432         hc    115    bbb     H8   3432 0.01788900   1.008000   ; qtot 114.510923
 3433         c3    115    bbb     C5   3433 -0.11337700  12.010000   ; qtot 114.397546
 3434         hc    115    bbb     H9   3434 0.09515400   1.008000   ; qtot 114.492700
 3435         hc    115    bbb    H10   3435 0.09515400   1.008000   ; qtot 114.587854
 3436         c3    115    bbb     C6   3436 -0.11337700  12.010000   ; qtot 114.474477
 3437         hc    115    bbb    H11   3437 0.09515400   1.008000   ; qtot 114.569631
 3438         hc    115    bbb    H12   3438 0.09515400   1.008000   ; qtot 114.664785
 3439         c3    115    bbb     C7   3439 0.21842400  12.010000   ; qtot 114.883209
 3440         h1    115    bbb    H13   3440 0.04500300   1.008000   ; qtot 114.928212
 3441         h1    115    bbb    H14   3441 0.04500300   1.008000   ; qtot 114.973215
 3442         c3    115    bbb     C8   3442 -0.06455200  12.010000   ; qtot 114.908663
 3443         h1    115    bbb    H15   3443 0.13554100   1.008000   ; qtot 115.044204
 3444         h1    115    bbb    H16   3444 0.13554100   1.008000   ; qtot 115.179745
 3445         c3    115    bbb     C9   3445 -0.06455200  12.010000   ; qtot 115.115193
 3446         h1    115    bbb    H17   3446 0.13554100   1.008000   ; qtot 115.250734
 3447         h1    115    bbb    H18   3447 0.13554100   1.008000   ; qtot 115.386275
 3448         os    115    bbb     O1   3448 -0.62587700  16.000000   ; qtot 114.760398
 3449         hn    115    bbb    H19   3449 0.23982500   1.008000   ; qtot 115.000223
; residue  116 bbb rtp bbb q 1.0
 3450         n4    116    bbb     N1   3450 0.03726400  14.010000   ; qtot 115.037487
 3451         c3    116    bbb     C1   3451 -0.07020100  12.010000   ; qtot 114.967286
 3452         hx    116    bbb     H1   3452 0.12219000   1.008000   ; qtot 115.089476
 3453         hx    116    bbb     H2   3453 0.12219000   1.008000   ; qtot 115.211666
 3454         c3    116    bbb     C2   3454 -0.07020100  12.010000   ; qtot 115.141465
 3455         hx    116    bbb     H3   3455 0.12219000   1.008000   ; qtot 115.263655
 3456         hx    116    bbb     H4   3456 0.12219000   1.008000   ; qtot 115.385845
 3457         c3    116    bbb     C3   3457 -0.39007700  12.010000   ; qtot 114.995768
 3458         hx    116    bbb     H5   3458 0.14940300   1.008000   ; qtot 115.145171
 3459         hx    116    bbb     H6   3459 0.14940300   1.008000   ; qtot 115.294574
 3460         c3    116    bbb     C4   3460 0.18057300  12.010000   ; qtot 115.475147
 3461         hc    116    bbb     H7   3461 0.01788900   1.008000   ; qtot 115.493036
 3462         hc    116    bbb     H8   3462 0.01788900   1.008000   ; qtot 115.510925
 3463         c3    116    bbb     C5   3463 -0.11337700  12.010000   ; qtot 115.397548
 3464         hc    116    bbb     H9   3464 0.09515400   1.008000   ; qtot 115.492702
 3465         hc    116    bbb    H10   3465 0.09515400   1.008000   ; qtot 115.587856
 3466         c3    116    bbb     C6   3466 -0.11337700  12.010000   ; qtot 115.474479
 3467         hc    116    bbb    H11   3467 0.09515400   1.008000   ; qtot 115.569633
 3468         hc    116    bbb    H12   3468 0.09515400   1.008000   ; qtot 115.664787
 3469         c3    116    bbb     C7   3469 0.21842400  12.010000   ; qtot 115.883211
 3470         h1    116    bbb    H13   3470 0.04500300   1.008000   ; qtot 115.928214
 3471         h1    116    bbb    H14   3471 0.04500300   1.008000   ; qtot 115.973217
 3472         c3    116    bbb     C8   3472 -0.06455200  12.010000   ; qtot 115.908665
 3473         h1    116    bbb    H15   3473 0.13554100   1.008000   ; qtot 116.044206
 3474         h1    116    bbb    H16   3474 0.13554100   1.008000   ; qtot 116.179747
 3475         c3    116    bbb     C9   3475 -0.06455200  12.010000   ; qtot 116.115195
 3476         h1    116    bbb    H17   3476 0.13554100   1.008000   ; qtot 116.250736
 3477         h1    116    bbb    H18   3477 0.13554100   1.008000   ; qtot 116.386277
 3478         os    116    bbb     O1   3478 -0.62587700  16.000000   ; qtot 115.760400
 3479         hn    116    bbb    H19   3479 0.23982500   1.008000   ; qtot 116.000225
; residue  117 bbb rtp bbb q 1.0
 3480         n4    117    bbb     N1   3480 0.03726400  14.010000   ; qtot 116.037489
 3481         c3    117    bbb     C1   3481 -0.07020100  12.010000   ; qtot 115.967288
 3482         hx    117    bbb     H1   3482 0.12219000   1.008000   ; qtot 116.089478
 3483         hx    117    bbb     H2   3483 0.12219000   1.008000   ; qtot 116.211668
 3484         c3    117    bbb     C2   3484 -0.07020100  12.010000   ; qtot 116.141467
 3485         hx    117    bbb     H3   3485 0.12219000   1.008000   ; qtot 116.263657
 3486         hx    117    bbb     H4   3486 0.12219000   1.008000   ; qtot 116.385847
 3487         c3    117    bbb     C3   3487 -0.39007700  12.010000   ; qtot 115.995770
 3488         hx    117    bbb     H5   3488 0.14940300   1.008000   ; qtot 116.145173
 3489         hx    117    bbb     H6   3489 0.14940300   1.008000   ; qtot 116.294576
 3490         c3    117    bbb     C4   3490 0.18057300  12.010000   ; qtot 116.475149
 3491         hc    117    bbb     H7   3491 0.01788900   1.008000   ; qtot 116.493038
 3492         hc    117    bbb     H8   3492 0.01788900   1.008000   ; qtot 116.510927
 3493         c3    117    bbb     C5   3493 -0.11337700  12.010000   ; qtot 116.397550
 3494         hc    117    bbb     H9   3494 0.09515400   1.008000   ; qtot 116.492704
 3495         hc    117    bbb    H10   3495 0.09515400   1.008000   ; qtot 116.587858
 3496         c3    117    bbb     C6   3496 -0.11337700  12.010000   ; qtot 116.474481
 3497         hc    117    bbb    H11   3497 0.09515400   1.008000   ; qtot 116.569635
 3498         hc    117    bbb    H12   3498 0.09515400   1.008000   ; qtot 116.664789
 3499         c3    117    bbb     C7   3499 0.21842400  12.010000   ; qtot 116.883213
 3500         h1    117    bbb    H13   3500 0.04500300   1.008000   ; qtot 116.928216
 3501         h1    117    bbb    H14   3501 0.04500300   1.008000   ; qtot 116.973219
 3502         c3    117    bbb     C8   3502 -0.06455200  12.010000   ; qtot 116.908667
 3503         h1    117    bbb    H15   3503 0.13554100   1.008000   ; qtot 117.044208
 3504         h1    117    bbb    H16   3504 0.13554100   1.008000   ; qtot 117.179749
 3505         c3    117    bbb     C9   3505 -0.06455200  12.010000   ; qtot 117.115197
 3506         h1    117    bbb    H17   3506 0.13554100   1.008000   ; qtot 117.250738
 3507         h1    117    bbb    H18   3507 0.13554100   1.008000   ; qtot 117.386279
 3508         os    117    bbb     O1   3508 -0.62587700  16.000000   ; qtot 116.760402
 3509         hn    117    bbb    H19   3509 0.23982500   1.008000   ; qtot 117.000227
; residue  118 bbb rtp bbb q 1.0
 3510         n4    118    bbb     N1   3510 0.03726400  14.010000   ; qtot 117.037491
 3511         c3    118    bbb     C1   3511 -0.07020100  12.010000   ; qtot 116.967290
 3512         hx    118    bbb     H1   3512 0.12219000   1.008000   ; qtot 117.089480
 3513         hx    118    bbb     H2   3513 0.12219000   1.008000   ; qtot 117.211670
 3514         c3    118    bbb     C2   3514 -0.07020100  12.010000   ; qtot 117.141469
 3515         hx    118    bbb     H3   3515 0.12219000   1.008000   ; qtot 117.263659
 3516         hx    118    bbb     H4   3516 0.12219000   1.008000   ; qtot 117.385849
 3517         c3    118    bbb     C3   3517 -0.39007700  12.010000   ; qtot 116.995772
 3518         hx    118    bbb     H5   3518 0.14940300   1.008000   ; qtot 117.145175
 3519         hx    118    bbb     H6   3519 0.14940300   1.008000   ; qtot 117.294578
 3520         c3    118    bbb     C4   3520 0.18057300  12.010000   ; qtot 117.475151
 3521         hc    118    bbb     H7   3521 0.01788900   1.008000   ; qtot 117.493040
 3522         hc    118    bbb     H8   3522 0.01788900   1.008000   ; qtot 117.510929
 3523         c3    118    bbb     C5   3523 -0.11337700  12.010000   ; qtot 117.397552
 3524         hc    118    bbb     H9   3524 0.09515400   1.008000   ; qtot 117.492706
 3525         hc    118    bbb    H10   3525 0.09515400   1.008000   ; qtot 117.587860
 3526         c3    118    bbb     C6   3526 -0.11337700  12.010000   ; qtot 117.474483
 3527         hc    118    bbb    H11   3527 0.09515400   1.008000   ; qtot 117.569637
 3528         hc    118    bbb    H12   3528 0.09515400   1.008000   ; qtot 117.664791
 3529         c3    118    bbb     C7   3529 0.21842400  12.010000   ; qtot 117.883215
 3530         h1    118    bbb    H13   3530 0.04500300   1.008000   ; qtot 117.928218
 3531         h1    118    bbb    H14   3531 0.04500300   1.008000   ; qtot 117.973221
 3532         c3    118    bbb     C8   3532 -0.06455200  12.010000   ; qtot 117.908669
 3533         h1    118    bbb    H15   3533 0.13554100   1.008000   ; qtot 118.044210
 3534         h1    118    bbb    H16   3534 0.13554100   1.008000   ; qtot 118.179751
 3535         c3    118    bbb     C9   3535 -0.06455200  12.010000   ; qtot 118.115199
 3536         h1    118    bbb    H17   3536 0.13554100   1.008000   ; qtot 118.250740
 3537         h1    118    bbb    H18   3537 0.13554100   1.008000   ; qtot 118.386281
 3538         os    118    bbb     O1   3538 -0.62587700  16.000000   ; qtot 117.760404
 3539         hn    118    bbb    H19   3539 0.23982500   1.008000   ; qtot 118.000229
; residue  119 bbb rtp bbb q 1.0
 3540         n4    119    bbb     N1   3540 0.03726400  14.010000   ; qtot 118.037493
 3541         c3    119    bbb     C1   3541 -0.07020100  12.010000   ; qtot 117.967292
 3542         hx    119    bbb     H1   3542 0.12219000   1.008000   ; qtot 118.089482
 3543         hx    119    bbb     H2   3543 0.12219000   1.008000   ; qtot 118.211672
 3544         c3    119    bbb     C2   3544 -0.07020100  12.010000   ; qtot 118.141471
 3545         hx    119    bbb     H3   3545 0.12219000   1.008000   ; qtot 118.263661
 3546         hx    119    bbb     H4   3546 0.12219000   1.008000   ; qtot 118.385851
 3547         c3    119    bbb     C3   3547 -0.39007700  12.010000   ; qtot 117.995774
 3548         hx    119    bbb     H5   3548 0.14940300   1.008000   ; qtot 118.145177
 3549         hx    119    bbb     H6   3549 0.14940300   1.008000   ; qtot 118.294580
 3550         c3    119    bbb     C4   3550 0.18057300  12.010000   ; qtot 118.475153
 3551         hc    119    bbb     H7   3551 0.01788900   1.008000   ; qtot 118.493042
 3552         hc    119    bbb     H8   3552 0.01788900   1.008000   ; qtot 118.510931
 3553         c3    119    bbb     C5   3553 -0.11337700  12.010000   ; qtot 118.397554
 3554         hc    119    bbb     H9   3554 0.09515400   1.008000   ; qtot 118.492708
 3555         hc    119    bbb    H10   3555 0.09515400   1.008000   ; qtot 118.587862
 3556         c3    119    bbb     C6   3556 -0.11337700  12.010000   ; qtot 118.474485
 3557         hc    119    bbb    H11   3557 0.09515400   1.008000   ; qtot 118.569639
 3558         hc    119    bbb    H12   3558 0.09515400   1.008000   ; qtot 118.664793
 3559         c3    119    bbb     C7   3559 0.21842400  12.010000   ; qtot 118.883217
 3560         h1    119    bbb    H13   3560 0.04500300   1.008000   ; qtot 118.928220
 3561         h1    119    bbb    H14   3561 0.04500300   1.008000   ; qtot 118.973223
 3562         c3    119    bbb     C8   3562 -0.06455200  12.010000   ; qtot 118.908671
 3563         h1    119    bbb    H15   3563 0.13554100   1.008000   ; qtot 119.044212
 3564         h1    119    bbb    H16   3564 0.13554100   1.008000   ; qtot 119.179753
 3565         c3    119    bbb     C9   3565 -0.06455200  12.010000   ; qtot 119.115201
 3566         h1    119    bbb    H17   3566 0.13554100   1.008000   ; qtot 119.250742
 3567         h1    119    bbb    H18   3567 0.13554100   1.008000   ; qtot 119.386283
 3568         os    119    bbb     O1   3568 -0.62587700  16.000000   ; qtot 118.760406
 3569         hn    119    bbb    H19   3569 0.23982500   1.008000   ; qtot 119.000231
; residue  120 bbb rtp bbb q 1.0
 3570         n4    120    bbb     N1   3570 0.03726400  14.010000   ; qtot 119.037495
 3571         c3    120    bbb     C1   3571 -0.07020100  12.010000   ; qtot 118.967294
 3572         hx    120    bbb     H1   3572 0.12219000   1.008000   ; qtot 119.089484
 3573         hx    120    bbb     H2   3573 0.12219000   1.008000   ; qtot 119.211674
 3574         c3    120    bbb     C2   3574 -0.07020100  12.010000   ; qtot 119.141473
 3575         hx    120    bbb     H3   3575 0.12219000   1.008000   ; qtot 119.263663
 3576         hx    120    bbb     H4   3576 0.12219000   1.008000   ; qtot 119.385853
 3577         c3    120    bbb     C3   3577 -0.39007700  12.010000   ; qtot 118.995776
 3578         hx    120    bbb     H5   3578 0.14940300   1.008000   ; qtot 119.145179
 3579         hx    120    bbb     H6   3579 0.14940300   1.008000   ; qtot 119.294582
 3580         c3    120    bbb     C4   3580 0.18057300  12.010000   ; qtot 119.475155
 3581         hc    120    bbb     H7   3581 0.01788900   1.008000   ; qtot 119.493044
 3582         hc    120    bbb     H8   3582 0.01788900   1.008000   ; qtot 119.510933
 3583         c3    120    bbb     C5   3583 -0.11337700  12.010000   ; qtot 119.397556
 3584         hc    120    bbb     H9   3584 0.09515400   1.008000   ; qtot 119.492710
 3585         hc    120    bbb    H10   3585 0.09515400   1.008000   ; qtot 119.587864
 3586         c3    120    bbb     C6   3586 -0.11337700  12.010000   ; qtot 119.474487
 3587         hc    120    bbb    H11   3587 0.09515400   1.008000   ; qtot 119.569641
 3588         hc    120    bbb    H12   3588 0.09515400   1.008000   ; qtot 119.664795
 3589         c3    120    bbb     C7   3589 0.21842400  12.010000   ; qtot 119.883219
 3590         h1    120    bbb    H13   3590 0.04500300   1.008000   ; qtot 119.928222
 3591         h1    120    bbb    H14   3591 0.04500300   1.008000   ; qtot 119.973225
 3592         c3    120    bbb     C8   3592 -0.06455200  12.010000   ; qtot 119.908673
 3593         h1    120    bbb    H15   3593 0.13554100   1.008000   ; qtot 120.044214
 3594         h1    120    bbb    H16   3594 0.13554100   1.008000   ; qtot 120.179755
 3595         c3    120    bbb     C9   3595 -0.06455200  12.010000   ; qtot 120.115203
 3596         h1    120    bbb    H17   3596 0.13554100   1.008000   ; qtot 120.250744
 3597         h1    120    bbb    H18   3597 0.13554100   1.008000   ; qtot 120.386285
 3598         os    120    bbb     O1   3598 -0.62587700  16.000000   ; qtot 119.760408
 3599         hn    120    bbb    H19   3599 0.23982500   1.008000   ; qtot 120.000233
; residue  121 bbb rtp bbb q 1.0
 3600         n4    121    bbb     N1   3600 0.03726400  14.010000   ; qtot 120.037497
 3601         c3    121    bbb     C1   3601 -0.07020100  12.010000   ; qtot 119.967296
 3602         hx    121    bbb     H1   3602 0.12219000   1.008000   ; qtot 120.089486
 3603         hx    121    bbb     H2   3603 0.12219000   1.008000   ; qtot 120.211676
 3604         c3    121    bbb     C2   3604 -0.07020100  12.010000   ; qtot 120.141475
 3605         hx    121    bbb     H3   3605 0.12219000   1.008000   ; qtot 120.263665
 3606         hx    121    bbb     H4   3606 0.12219000   1.008000   ; qtot 120.385855
 3607         c3    121    bbb     C3   3607 -0.39007700  12.010000   ; qtot 119.995778
 3608         hx    121    bbb     H5   3608 0.14940300   1.008000   ; qtot 120.145181
 3609         hx    121    bbb     H6   3609 0.14940300   1.008000   ; qtot 120.294584
 3610         c3    121    bbb     C4   3610 0.18057300  12.010000   ; qtot 120.475157
 3611         hc    121    bbb     H7   3611 0.01788900   1.008000   ; qtot 120.493046
 3612         hc    121    bbb     H8   3612 0.01788900   1.008000   ; qtot 120.510935
 3613         c3    121    bbb     C5   3613 -0.11337700  12.010000   ; qtot 120.397558
 3614         hc    121    bbb     H9   3614 0.09515400   1.008000   ; qtot 120.492712
 3615         hc    121    bbb    H10   3615 0.09515400   1.008000   ; qtot 120.587866
 3616         c3    121    bbb     C6   3616 -0.11337700  12.010000   ; qtot 120.474489
 3617         hc    121    bbb    H11   3617 0.09515400   1.008000   ; qtot 120.569643
 3618         hc    121    bbb    H12   3618 0.09515400   1.008000   ; qtot 120.664797
 3619         c3    121    bbb     C7   3619 0.21842400  12.010000   ; qtot 120.883221
 3620         h1    121    bbb    H13   3620 0.04500300   1.008000   ; qtot 120.928224
 3621         h1    121    bbb    H14   3621 0.04500300   1.008000   ; qtot 120.973227
 3622         c3    121    bbb     C8   3622 -0.06455200  12.010000   ; qtot 120.908675
 3623         h1    121    bbb    H15   3623 0.13554100   1.008000   ; qtot 121.044216
 3624         h1    121    bbb    H16   3624 0.13554100   1.008000   ; qtot 121.179757
 3625         c3    121    bbb     C9   3625 -0.06455200  12.010000   ; qtot 121.115205
 3626         h1    121    bbb    H17   3626 0.13554100   1.008000   ; qtot 121.250746
 3627         h1    121    bbb    H18   3627 0.13554100   1.008000   ; qtot 121.386287
 3628         os    121    bbb     O1   3628 -0.62587700  16.000000   ; qtot 120.760410
 3629         hn    121    bbb    H19   3629 0.23982500   1.008000   ; qtot 121.000235
; residue  122 bbb rtp bbb q 1.0
 3630         n4    122    bbb     N1   3630 0.03726400  14.010000   ; qtot 121.037499
 3631         c3    122    bbb     C1   3631 -0.07020100  12.010000   ; qtot 120.967298
 3632         hx    122    bbb     H1   3632 0.12219000   1.008000   ; qtot 121.089488
 3633         hx    122    bbb     H2   3633 0.12219000   1.008000   ; qtot 121.211678
 3634         c3    122    bbb     C2   3634 -0.07020100  12.010000   ; qtot 121.141477
 3635         hx    122    bbb     H3   3635 0.12219000   1.008000   ; qtot 121.263667
 3636         hx    122    bbb     H4   3636 0.12219000   1.008000   ; qtot 121.385857
 3637         c3    122    bbb     C3   3637 -0.39007700  12.010000   ; qtot 120.995780
 3638         hx    122    bbb     H5   3638 0.14940300   1.008000   ; qtot 121.145183
 3639         hx    122    bbb     H6   3639 0.14940300   1.008000   ; qtot 121.294586
 3640         c3    122    bbb     C4   3640 0.18057300  12.010000   ; qtot 121.475159
 3641         hc    122    bbb     H7   3641 0.01788900   1.008000   ; qtot 121.493048
 3642         hc    122    bbb     H8   3642 0.01788900   1.008000   ; qtot 121.510937
 3643         c3    122    bbb     C5   3643 -0.11337700  12.010000   ; qtot 121.397560
 3644         hc    122    bbb     H9   3644 0.09515400   1.008000   ; qtot 121.492714
 3645         hc    122    bbb    H10   3645 0.09515400   1.008000   ; qtot 121.587868
 3646         c3    122    bbb     C6   3646 -0.11337700  12.010000   ; qtot 121.474491
 3647         hc    122    bbb    H11   3647 0.09515400   1.008000   ; qtot 121.569645
 3648         hc    122    bbb    H12   3648 0.09515400   1.008000   ; qtot 121.664799
 3649         c3    122    bbb     C7   3649 0.21842400  12.010000   ; qtot 121.883223
 3650         h1    122    bbb    H13   3650 0.04500300   1.008000   ; qtot 121.928226
 3651         h1    122    bbb    H14   3651 0.04500300   1.008000   ; qtot 121.973229
 3652         c3    122    bbb     C8   3652 -0.06455200  12.010000   ; qtot 121.908677
 3653         h1    122    bbb    H15   3653 0.13554100   1.008000   ; qtot 122.044218
 3654         h1    122    bbb    H16   3654 0.13554100   1.008000   ; qtot 122.179759
 3655         c3    122    bbb     C9   3655 -0.06455200  12.010000   ; qtot 122.115207
 3656         h1    122    bbb    H17   3656 0.13554100   1.008000   ; qtot 122.250748
 3657         h1    122    bbb    H18   3657 0.13554100   1.008000   ; qtot 122.386289
 3658         os    122    bbb     O1   3658 -0.62587700  16.000000   ; qtot 121.760412
 3659         hn    122    bbb    H19   3659 0.23982500   1.008000   ; qtot 122.000237
; residue  123 bbb rtp bbb q 1.0
 3660         n4    123    bbb     N1   3660 0.03726400  14.010000   ; qtot 122.037501
 3661         c3    123    bbb     C1   3661 -0.07020100  12.010000   ; qtot 121.967300
 3662         hx    123    bbb     H1   3662 0.12219000   1.008000   ; qtot 122.089490
 3663         hx    123    bbb     H2   3663 0.12219000   1.008000   ; qtot 122.211680
 3664         c3    123    bbb     C2   3664 -0.07020100  12.010000   ; qtot 122.141479
 3665         hx    123    bbb     H3   3665 0.12219000   1.008000   ; qtot 122.263669
 3666         hx    123    bbb     H4   3666 0.12219000   1.008000   ; qtot 122.385859
 3667         c3    123    bbb     C3   3667 -0.39007700  12.010000   ; qtot 121.995782
 3668         hx    123    bbb     H5   3668 0.14940300   1.008000   ; qtot 122.145185
 3669         hx    123    bbb     H6   3669 0.14940300   1.008000   ; qtot 122.294588
 3670         c3    123    bbb     C4   3670 0.18057300  12.010000   ; qtot 122.475161
 3671         hc    123    bbb     H7   3671 0.01788900   1.008000   ; qtot 122.493050
 3672         hc    123    bbb     H8   3672 0.01788900   1.008000   ; qtot 122.510939
 3673         c3    123    bbb     C5   3673 -0.11337700  12.010000   ; qtot 122.397562
 3674         hc    123    bbb     H9   3674 0.09515400   1.008000   ; qtot 122.492716
 3675         hc    123    bbb    H10   3675 0.09515400   1.008000   ; qtot 122.587870
 3676         c3    123    bbb     C6   3676 -0.11337700  12.010000   ; qtot 122.474493
 3677         hc    123    bbb    H11   3677 0.09515400   1.008000   ; qtot 122.569647
 3678         hc    123    bbb    H12   3678 0.09515400   1.008000   ; qtot 122.664801
 3679         c3    123    bbb     C7   3679 0.21842400  12.010000   ; qtot 122.883225
 3680         h1    123    bbb    H13   3680 0.04500300   1.008000   ; qtot 122.928228
 3681         h1    123    bbb    H14   3681 0.04500300   1.008000   ; qtot 122.973231
 3682         c3    123    bbb     C8   3682 -0.06455200  12.010000   ; qtot 122.908679
 3683         h1    123    bbb    H15   3683 0.13554100   1.008000   ; qtot 123.044220
 3684         h1    123    bbb    H16   3684 0.13554100   1.008000   ; qtot 123.179761
 3685         c3    123    bbb     C9   3685 -0.06455200  12.010000   ; qtot 123.115209
 3686         h1    123    bbb    H17   3686 0.13554100   1.008000   ; qtot 123.250750
 3687         h1    123    bbb    H18   3687 0.13554100   1.008000   ; qtot 123.386291
 3688         os    123    bbb     O1   3688 -0.62587700  16.000000   ; qtot 122.760414
 3689         hn    123    bbb    H19   3689 0.23982500   1.008000   ; qtot 123.000239
; residue  124 bbb rtp bbb q 1.0
 3690         n4    124    bbb     N1   3690 0.03726400  14.010000   ; qtot 123.037503
 3691         c3    124    bbb     C1   3691 -0.07020100  12.010000   ; qtot 122.967302
 3692         hx    124    bbb     H1   3692 0.12219000   1.008000   ; qtot 123.089492
 3693         hx    124    bbb     H2   3693 0.12219000   1.008000   ; qtot 123.211682
 3694         c3    124    bbb     C2   3694 -0.07020100  12.010000   ; qtot 123.141481
 3695         hx    124    bbb     H3   3695 0.12219000   1.008000   ; qtot 123.263671
 3696         hx    124    bbb     H4   3696 0.12219000   1.008000   ; qtot 123.385861
 3697         c3    124    bbb     C3   3697 -0.39007700  12.010000   ; qtot 122.995784
 3698         hx    124    bbb     H5   3698 0.14940300   1.008000   ; qtot 123.145187
 3699         hx    124    bbb     H6   3699 0.14940300   1.008000   ; qtot 123.294590
 3700         c3    124    bbb     C4   3700 0.18057300  12.010000   ; qtot 123.475163
 3701         hc    124    bbb     H7   3701 0.01788900   1.008000   ; qtot 123.493052
 3702         hc    124    bbb     H8   3702 0.01788900   1.008000   ; qtot 123.510941
 3703         c3    124    bbb     C5   3703 -0.11337700  12.010000   ; qtot 123.397564
 3704         hc    124    bbb     H9   3704 0.09515400   1.008000   ; qtot 123.492718
 3705         hc    124    bbb    H10   3705 0.09515400   1.008000   ; qtot 123.587872
 3706         c3    124    bbb     C6   3706 -0.11337700  12.010000   ; qtot 123.474495
 3707         hc    124    bbb    H11   3707 0.09515400   1.008000   ; qtot 123.569649
 3708         hc    124    bbb    H12   3708 0.09515400   1.008000   ; qtot 123.664803
 3709         c3    124    bbb     C7   3709 0.21842400  12.010000   ; qtot 123.883227
 3710         h1    124    bbb    H13   3710 0.04500300   1.008000   ; qtot 123.928230
 3711         h1    124    bbb    H14   3711 0.04500300   1.008000   ; qtot 123.973233
 3712         c3    124    bbb     C8   3712 -0.06455200  12.010000   ; qtot 123.908681
 3713         h1    124    bbb    H15   3713 0.13554100   1.008000   ; qtot 124.044222
 3714         h1    124    bbb    H16   3714 0.13554100   1.008000   ; qtot 124.179763
 3715         c3    124    bbb     C9   3715 -0.06455200  12.010000   ; qtot 124.115211
 3716         h1    124    bbb    H17   3716 0.13554100   1.008000   ; qtot 124.250752
 3717         h1    124    bbb    H18   3717 0.13554100   1.008000   ; qtot 124.386293
 3718         os    124    bbb     O1   3718 -0.62587700  16.000000   ; qtot 123.760416
 3719         hn    124    bbb    H19   3719 0.23982500   1.008000   ; qtot 124.000241
; residue  125 bbb rtp bbb q 1.0
 3720         n4    125    bbb     N1   3720 0.03726400  14.010000   ; qtot 124.037505
 3721         c3    125    bbb     C1   3721 -0.07020100  12.010000   ; qtot 123.967304
 3722         hx    125    bbb     H1   3722 0.12219000   1.008000   ; qtot 124.089494
 3723         hx    125    bbb     H2   3723 0.12219000   1.008000   ; qtot 124.211684
 3724         c3    125    bbb     C2   3724 -0.07020100  12.010000   ; qtot 124.141483
 3725         hx    125    bbb     H3   3725 0.12219000   1.008000   ; qtot 124.263673
 3726         hx    125    bbb     H4   3726 0.12219000   1.008000   ; qtot 124.385863
 3727         c3    125    bbb     C3   3727 -0.39007700  12.010000   ; qtot 123.995786
 3728         hx    125    bbb     H5   3728 0.14940300   1.008000   ; qtot 124.145189
 3729         hx    125    bbb     H6   3729 0.14940300   1.008000   ; qtot 124.294592
 3730         c3    125    bbb     C4   3730 0.18057300  12.010000   ; qtot 124.475165
 3731         hc    125    bbb     H7   3731 0.01788900   1.008000   ; qtot 124.493054
 3732         hc    125    bbb     H8   3732 0.01788900   1.008000   ; qtot 124.510943
 3733         c3    125    bbb     C5   3733 -0.11337700  12.010000   ; qtot 124.397566
 3734         hc    125    bbb     H9   3734 0.09515400   1.008000   ; qtot 124.492720
 3735         hc    125    bbb    H10   3735 0.09515400   1.008000   ; qtot 124.587874
 3736         c3    125    bbb     C6   3736 -0.11337700  12.010000   ; qtot 124.474497
 3737         hc    125    bbb    H11   3737 0.09515400   1.008000   ; qtot 124.569651
 3738         hc    125    bbb    H12   3738 0.09515400   1.008000   ; qtot 124.664805
 3739         c3    125    bbb     C7   3739 0.21842400  12.010000   ; qtot 124.883229
 3740         h1    125    bbb    H13   3740 0.04500300   1.008000   ; qtot 124.928232
 3741         h1    125    bbb    H14   3741 0.04500300   1.008000   ; qtot 124.973235
 3742         c3    125    bbb     C8   3742 -0.06455200  12.010000   ; qtot 124.908683
 3743         h1    125    bbb    H15   3743 0.13554100   1.008000   ; qtot 125.044224
 3744         h1    125    bbb    H16   3744 0.13554100   1.008000   ; qtot 125.179765
 3745         c3    125    bbb     C9   3745 -0.06455200  12.010000   ; qtot 125.115213
 3746         h1    125    bbb    H17   3746 0.13554100   1.008000   ; qtot 125.250754
 3747         h1    125    bbb    H18   3747 0.13554100   1.008000   ; qtot 125.386295
 3748         os    125    bbb     O1   3748 -0.62587700  16.000000   ; qtot 124.760418
 3749         hn    125    bbb    H19   3749 0.23982500   1.008000   ; qtot 125.000243
; residue  126 bbb rtp bbb q 1.0
 3750         n4    126    bbb     N1   3750 0.03726400  14.010000   ; qtot 125.037507
 3751         c3    126    bbb     C1   3751 -0.07020100  12.010000   ; qtot 124.967306
 3752         hx    126    bbb     H1   3752 0.12219000   1.008000   ; qtot 125.089496
 3753         hx    126    bbb     H2   3753 0.12219000   1.008000   ; qtot 125.211686
 3754         c3    126    bbb     C2   3754 -0.07020100  12.010000   ; qtot 125.141485
 3755         hx    126    bbb     H3   3755 0.12219000   1.008000   ; qtot 125.263675
 3756         hx    126    bbb     H4   3756 0.12219000   1.008000   ; qtot 125.385865
 3757         c3    126    bbb     C3   3757 -0.39007700  12.010000   ; qtot 124.995788
 3758         hx    126    bbb     H5   3758 0.14940300   1.008000   ; qtot 125.145191
 3759         hx    126    bbb     H6   3759 0.14940300   1.008000   ; qtot 125.294594
 3760         c3    126    bbb     C4   3760 0.18057300  12.010000   ; qtot 125.475167
 3761         hc    126    bbb     H7   3761 0.01788900   1.008000   ; qtot 125.493056
 3762         hc    126    bbb     H8   3762 0.01788900   1.008000   ; qtot 125.510945
 3763         c3    126    bbb     C5   3763 -0.11337700  12.010000   ; qtot 125.397568
 3764         hc    126    bbb     H9   3764 0.09515400   1.008000   ; qtot 125.492722
 3765         hc    126    bbb    H10   3765 0.09515400   1.008000   ; qtot 125.587876
 3766         c3    126    bbb     C6   3766 -0.11337700  12.010000   ; qtot 125.474499
 3767         hc    126    bbb    H11   3767 0.09515400   1.008000   ; qtot 125.569653
 3768         hc    126    bbb    H12   3768 0.09515400   1.008000   ; qtot 125.664807
 3769         c3    126    bbb     C7   3769 0.21842400  12.010000   ; qtot 125.883231
 3770         h1    126    bbb    H13   3770 0.04500300   1.008000   ; qtot 125.928234
 3771         h1    126    bbb    H14   3771 0.04500300   1.008000   ; qtot 125.973237
 3772         c3    126    bbb     C8   3772 -0.06455200  12.010000   ; qtot 125.908685
 3773         h1    126    bbb    H15   3773 0.13554100   1.008000   ; qtot 126.044226
 3774         h1    126    bbb    H16   3774 0.13554100   1.008000   ; qtot 126.179767
 3775         c3    126    bbb     C9   3775 -0.06455200  12.010000   ; qtot 126.115215
 3776         h1    126    bbb    H17   3776 0.13554100   1.008000   ; qtot 126.250756
 3777         h1    126    bbb    H18   3777 0.13554100   1.008000   ; qtot 126.386297
 3778         os    126    bbb     O1   3778 -0.62587700  16.000000   ; qtot 125.760420
 3779         hn    126    bbb    H19   3779 0.23982500   1.008000   ; qtot 126.000245
; residue  127 bbb rtp bbb q 1.0
 3780         n4    127    bbb     N1   3780 0.03726400  14.010000   ; qtot 126.037509
 3781         c3    127    bbb     C1   3781 -0.07020100  12.010000   ; qtot 125.967308
 3782         hx    127    bbb     H1   3782 0.12219000   1.008000   ; qtot 126.089498
 3783         hx    127    bbb     H2   3783 0.12219000   1.008000   ; qtot 126.211688
 3784         c3    127    bbb     C2   3784 -0.07020100  12.010000   ; qtot 126.141487
 3785         hx    127    bbb     H3   3785 0.12219000   1.008000   ; qtot 126.263677
 3786         hx    127    bbb     H4   3786 0.12219000   1.008000   ; qtot 126.385867
 3787         c3    127    bbb     C3   3787 -0.39007700  12.010000   ; qtot 125.995790
 3788         hx    127    bbb     H5   3788 0.14940300   1.008000   ; qtot 126.145193
 3789         hx    127    bbb     H6   3789 0.14940300   1.008000   ; qtot 126.294596
 3790         c3    127    bbb     C4   3790 0.18057300  12.010000   ; qtot 126.475169
 3791         hc    127    bbb     H7   3791 0.01788900   1.008000   ; qtot 126.493058
 3792         hc    127    bbb     H8   3792 0.01788900   1.008000   ; qtot 126.510947
 3793         c3    127    bbb     C5   3793 -0.11337700  12.010000   ; qtot 126.397570
 3794         hc    127    bbb     H9   3794 0.09515400   1.008000   ; qtot 126.492724
 3795         hc    127    bbb    H10   3795 0.09515400   1.008000   ; qtot 126.587878
 3796         c3    127    bbb     C6   3796 -0.11337700  12.010000   ; qtot 126.474501
 3797         hc    127    bbb    H11   3797 0.09515400   1.008000   ; qtot 126.569655
 3798         hc    127    bbb    H12   3798 0.09515400   1.008000   ; qtot 126.664809
 3799         c3    127    bbb     C7   3799 0.21842400  12.010000   ; qtot 126.883233
 3800         h1    127    bbb    H13   3800 0.04500300   1.008000   ; qtot 126.928236
 3801         h1    127    bbb    H14   3801 0.04500300   1.008000   ; qtot 126.973239
 3802         c3    127    bbb     C8   3802 -0.06455200  12.010000   ; qtot 126.908687
 3803         h1    127    bbb    H15   3803 0.13554100   1.008000   ; qtot 127.044228
 3804         h1    127    bbb    H16   3804 0.13554100   1.008000   ; qtot 127.179769
 3805         c3    127    bbb     C9   3805 -0.06455200  12.010000   ; qtot 127.115217
 3806         h1    127    bbb    H17   3806 0.13554100   1.008000   ; qtot 127.250758
 3807         h1    127    bbb    H18   3807 0.13554100   1.008000   ; qtot 127.386299
 3808         os    127    bbb     O1   3808 -0.62587700  16.000000   ; qtot 126.760422
 3809         hn    127    bbb    H19   3809 0.23982500   1.008000   ; qtot 127.000247
; residue  128 bbb rtp bbb q 1.0
 3810         n4    128    bbb     N1   3810 0.03726400  14.010000   ; qtot 127.037511
 3811         c3    128    bbb     C1   3811 -0.07020100  12.010000   ; qtot 126.967310
 3812         hx    128    bbb     H1   3812 0.12219000   1.008000   ; qtot 127.089500
 3813         hx    128    bbb     H2   3813 0.12219000   1.008000   ; qtot 127.211690
 3814         c3    128    bbb     C2   3814 -0.07020100  12.010000   ; qtot 127.141489
 3815         hx    128    bbb     H3   3815 0.12219000   1.008000   ; qtot 127.263679
 3816         hx    128    bbb     H4   3816 0.12219000   1.008000   ; qtot 127.385869
 3817         c3    128    bbb     C3   3817 -0.39007700  12.010000   ; qtot 126.995792
 3818         hx    128    bbb     H5   3818 0.14940300   1.008000   ; qtot 127.145195
 3819         hx    128    bbb     H6   3819 0.14940300   1.008000   ; qtot 127.294598
 3820         c3    128    bbb     C4   3820 0.18057300  12.010000   ; qtot 127.475171
 3821         hc    128    bbb     H7   3821 0.01788900   1.008000   ; qtot 127.493060
 3822         hc    128    bbb     H8   3822 0.01788900   1.008000   ; qtot 127.510949
 3823         c3    128    bbb     C5   3823 -0.11337700  12.010000   ; qtot 127.397572
 3824         hc    128    bbb     H9   3824 0.09515400   1.008000   ; qtot 127.492726
 3825         hc    128    bbb    H10   3825 0.09515400   1.008000   ; qtot 127.587880
 3826         c3    128    bbb     C6   3826 -0.11337700  12.010000   ; qtot 127.474503
 3827         hc    128    bbb    H11   3827 0.09515400   1.008000   ; qtot 127.569657
 3828         hc    128    bbb    H12   3828 0.09515400   1.008000   ; qtot 127.664811
 3829         c3    128    bbb     C7   3829 0.21842400  12.010000   ; qtot 127.883235
 3830         h1    128    bbb    H13   3830 0.04500300   1.008000   ; qtot 127.928238
 3831         h1    128    bbb    H14   3831 0.04500300   1.008000   ; qtot 127.973241
 3832         c3    128    bbb     C8   3832 -0.06455200  12.010000   ; qtot 127.908689
 3833         h1    128    bbb    H15   3833 0.13554100   1.008000   ; qtot 128.044230
 3834         h1    128    bbb    H16   3834 0.13554100   1.008000   ; qtot 128.179771
 3835         c3    128    bbb     C9   3835 -0.06455200  12.010000   ; qtot 128.115219
 3836         h1    128    bbb    H17   3836 0.13554100   1.008000   ; qtot 128.250760
 3837         h1    128    bbb    H18   3837 0.13554100   1.008000   ; qtot 128.386301
 3838         os    128    bbb     O1   3838 -0.62587700  16.000000   ; qtot 127.760424
 3839         hn    128    bbb    H19   3839 0.23982500   1.008000   ; qtot 128.000249
; residue  129 bbb rtp bbb q 1.0
 3840         n4    129    bbb     N1   3840 0.03726400  14.010000   ; qtot 128.037513
 3841         c3    129    bbb     C1   3841 -0.07020100  12.010000   ; qtot 127.967312
 3842         hx    129    bbb     H1   3842 0.12219000   1.008000   ; qtot 128.089502
 3843         hx    129    bbb     H2   3843 0.12219000   1.008000   ; qtot 128.211692
 3844         c3    129    bbb     C2   3844 -0.07020100  12.010000   ; qtot 128.141491
 3845         hx    129    bbb     H3   3845 0.12219000   1.008000   ; qtot 128.263681
 3846         hx    129    bbb     H4   3846 0.12219000   1.008000   ; qtot 128.385871
 3847         c3    129    bbb     C3   3847 -0.39007700  12.010000   ; qtot 127.995794
 3848         hx    129    bbb     H5   3848 0.14940300   1.008000   ; qtot 128.145197
 3849         hx    129    bbb     H6   3849 0.14940300   1.008000   ; qtot 128.294600
 3850         c3    129    bbb     C4   3850 0.18057300  12.010000   ; qtot 128.475173
 3851         hc    129    bbb     H7   3851 0.01788900   1.008000   ; qtot 128.493062
 3852         hc    129    bbb     H8   3852 0.01788900   1.008000   ; qtot 128.510951
 3853         c3    129    bbb     C5   3853 -0.11337700  12.010000   ; qtot 128.397574
 3854         hc    129    bbb     H9   3854 0.09515400   1.008000   ; qtot 128.492728
 3855         hc    129    bbb    H10   3855 0.09515400   1.008000   ; qtot 128.587882
 3856         c3    129    bbb     C6   3856 -0.11337700  12.010000   ; qtot 128.474505
 3857         hc    129    bbb    H11   3857 0.09515400   1.008000   ; qtot 128.569659
 3858         hc    129    bbb    H12   3858 0.09515400   1.008000   ; qtot 128.664813
 3859         c3    129    bbb     C7   3859 0.21842400  12.010000   ; qtot 128.883237
 3860         h1    129    bbb    H13   3860 0.04500300   1.008000   ; qtot 128.928240
 3861         h1    129    bbb    H14   3861 0.04500300   1.008000   ; qtot 128.973243
 3862         c3    129    bbb     C8   3862 -0.06455200  12.010000   ; qtot 128.908691
 3863         h1    129    bbb    H15   3863 0.13554100   1.008000   ; qtot 129.044232
 3864         h1    129    bbb    H16   3864 0.13554100   1.008000   ; qtot 129.179773
 3865         c3    129    bbb     C9   3865 -0.06455200  12.010000   ; qtot 129.115221
 3866         h1    129    bbb    H17   3866 0.13554100   1.008000   ; qtot 129.250762
 3867         h1    129    bbb    H18   3867 0.13554100   1.008000   ; qtot 129.386303
 3868         os    129    bbb     O1   3868 -0.62587700  16.000000   ; qtot 128.760426
 3869         hn    129    bbb    H19   3869 0.23982500   1.008000   ; qtot 129.000251
; residue  130 bbb rtp bbb q 1.0
 3870         n4    130    bbb     N1   3870 0.03726400  14.010000   ; qtot 129.037515
 3871         c3    130    bbb     C1   3871 -0.07020100  12.010000   ; qtot 128.967314
 3872         hx    130    bbb     H1   3872 0.12219000   1.008000   ; qtot 129.089504
 3873         hx    130    bbb     H2   3873 0.12219000   1.008000   ; qtot 129.211694
 3874         c3    130    bbb     C2   3874 -0.07020100  12.010000   ; qtot 129.141493
 3875         hx    130    bbb     H3   3875 0.12219000   1.008000   ; qtot 129.263683
 3876         hx    130    bbb     H4   3876 0.12219000   1.008000   ; qtot 129.385873
 3877         c3    130    bbb     C3   3877 -0.39007700  12.010000   ; qtot 128.995796
 3878         hx    130    bbb     H5   3878 0.14940300   1.008000   ; qtot 129.145199
 3879         hx    130    bbb     H6   3879 0.14940300   1.008000   ; qtot 129.294602
 3880         c3    130    bbb     C4   3880 0.18057300  12.010000   ; qtot 129.475175
 3881         hc    130    bbb     H7   3881 0.01788900   1.008000   ; qtot 129.493064
 3882         hc    130    bbb     H8   3882 0.01788900   1.008000   ; qtot 129.510953
 3883         c3    130    bbb     C5   3883 -0.11337700  12.010000   ; qtot 129.397576
 3884         hc    130    bbb     H9   3884 0.09515400   1.008000   ; qtot 129.492730
 3885         hc    130    bbb    H10   3885 0.09515400   1.008000   ; qtot 129.587884
 3886         c3    130    bbb     C6   3886 -0.11337700  12.010000   ; qtot 129.474507
 3887         hc    130    bbb    H11   3887 0.09515400   1.008000   ; qtot 129.569661
 3888         hc    130    bbb    H12   3888 0.09515400   1.008000   ; qtot 129.664815
 3889         c3    130    bbb     C7   3889 0.21842400  12.010000   ; qtot 129.883239
 3890         h1    130    bbb    H13   3890 0.04500300   1.008000   ; qtot 129.928242
 3891         h1    130    bbb    H14   3891 0.04500300   1.008000   ; qtot 129.973245
 3892         c3    130    bbb     C8   3892 -0.06455200  12.010000   ; qtot 129.908693
 3893         h1    130    bbb    H15   3893 0.13554100   1.008000   ; qtot 130.044234
 3894         h1    130    bbb    H16   3894 0.13554100   1.008000   ; qtot 130.179775
 3895         c3    130    bbb     C9   3895 -0.06455200  12.010000   ; qtot 130.115223
 3896         h1    130    bbb    H17   3896 0.13554100   1.008000   ; qtot 130.250764
 3897         h1    130    bbb    H18   3897 0.13554100   1.008000   ; qtot 130.386305
 3898         os    130    bbb     O1   3898 -0.62587700  16.000000   ; qtot 129.760428
 3899         hn    130    bbb    H19   3899 0.23982500   1.008000   ; qtot 130.000253
; residue  131 bbb rtp bbb q 1.0
 3900         n4    131    bbb     N1   3900 0.03726400  14.010000   ; qtot 130.037517
 3901         c3    131    bbb     C1   3901 -0.07020100  12.010000   ; qtot 129.967316
 3902         hx    131    bbb     H1   3902 0.12219000   1.008000   ; qtot 130.089506
 3903         hx    131    bbb     H2   3903 0.12219000   1.008000   ; qtot 130.211696
 3904         c3    131    bbb     C2   3904 -0.07020100  12.010000   ; qtot 130.141495
 3905         hx    131    bbb     H3   3905 0.12219000   1.008000   ; qtot 130.263685
 3906         hx    131    bbb     H4   3906 0.12219000   1.008000   ; qtot 130.385875
 3907         c3    131    bbb     C3   3907 -0.39007700  12.010000   ; qtot 129.995798
 3908         hx    131    bbb     H5   3908 0.14940300   1.008000   ; qtot 130.145201
 3909         hx    131    bbb     H6   3909 0.14940300   1.008000   ; qtot 130.294604
 3910         c3    131    bbb     C4   3910 0.18057300  12.010000   ; qtot 130.475177
 3911         hc    131    bbb     H7   3911 0.01788900   1.008000   ; qtot 130.493066
 3912         hc    131    bbb     H8   3912 0.01788900   1.008000   ; qtot 130.510955
 3913         c3    131    bbb     C5   3913 -0.11337700  12.010000   ; qtot 130.397578
 3914         hc    131    bbb     H9   3914 0.09515400   1.008000   ; qtot 130.492732
 3915         hc    131    bbb    H10   3915 0.09515400   1.008000   ; qtot 130.587886
 3916         c3    131    bbb     C6   3916 -0.11337700  12.010000   ; qtot 130.474509
 3917         hc    131    bbb    H11   3917 0.09515400   1.008000   ; qtot 130.569663
 3918         hc    131    bbb    H12   3918 0.09515400   1.008000   ; qtot 130.664817
 3919         c3    131    bbb     C7   3919 0.21842400  12.010000   ; qtot 130.883241
 3920         h1    131    bbb    H13   3920 0.04500300   1.008000   ; qtot 130.928244
 3921         h1    131    bbb    H14   3921 0.04500300   1.008000   ; qtot 130.973247
 3922         c3    131    bbb     C8   3922 -0.06455200  12.010000   ; qtot 130.908695
 3923         h1    131    bbb    H15   3923 0.13554100   1.008000   ; qtot 131.044236
 3924         h1    131    bbb    H16   3924 0.13554100   1.008000   ; qtot 131.179777
 3925         c3    131    bbb     C9   3925 -0.06455200  12.010000   ; qtot 131.115225
 3926         h1    131    bbb    H17   3926 0.13554100   1.008000   ; qtot 131.250766
 3927         h1    131    bbb    H18   3927 0.13554100   1.008000   ; qtot 131.386307
 3928         os    131    bbb     O1   3928 -0.62587700  16.000000   ; qtot 130.760430
 3929         hn    131    bbb    H19   3929 0.23982500   1.008000   ; qtot 131.000255
; residue  132 bbb rtp bbb q 1.0
 3930         n4    132    bbb     N1   3930 0.03726400  14.010000   ; qtot 131.037519
 3931         c3    132    bbb     C1   3931 -0.07020100  12.010000   ; qtot 130.967318
 3932         hx    132    bbb     H1   3932 0.12219000   1.008000   ; qtot 131.089508
 3933         hx    132    bbb     H2   3933 0.12219000   1.008000   ; qtot 131.211698
 3934         c3    132    bbb     C2   3934 -0.07020100  12.010000   ; qtot 131.141497
 3935         hx    132    bbb     H3   3935 0.12219000   1.008000   ; qtot 131.263687
 3936         hx    132    bbb     H4   3936 0.12219000   1.008000   ; qtot 131.385877
 3937         c3    132    bbb     C3   3937 -0.39007700  12.010000   ; qtot 130.995800
 3938         hx    132    bbb     H5   3938 0.14940300   1.008000   ; qtot 131.145203
 3939         hx    132    bbb     H6   3939 0.14940300   1.008000   ; qtot 131.294606
 3940         c3    132    bbb     C4   3940 0.18057300  12.010000   ; qtot 131.475179
 3941         hc    132    bbb     H7   3941 0.01788900   1.008000   ; qtot 131.493068
 3942         hc    132    bbb     H8   3942 0.01788900   1.008000   ; qtot 131.510957
 3943         c3    132    bbb     C5   3943 -0.11337700  12.010000   ; qtot 131.397580
 3944         hc    132    bbb     H9   3944 0.09515400   1.008000   ; qtot 131.492734
 3945         hc    132    bbb    H10   3945 0.09515400   1.008000   ; qtot 131.587888
 3946         c3    132    bbb     C6   3946 -0.11337700  12.010000   ; qtot 131.474511
 3947         hc    132    bbb    H11   3947 0.09515400   1.008000   ; qtot 131.569665
 3948         hc    132    bbb    H12   3948 0.09515400   1.008000   ; qtot 131.664819
 3949         c3    132    bbb     C7   3949 0.21842400  12.010000   ; qtot 131.883243
 3950         h1    132    bbb    H13   3950 0.04500300   1.008000   ; qtot 131.928246
 3951         h1    132    bbb    H14   3951 0.04500300   1.008000   ; qtot 131.973249
 3952         c3    132    bbb     C8   3952 -0.06455200  12.010000   ; qtot 131.908697
 3953         h1    132    bbb    H15   3953 0.13554100   1.008000   ; qtot 132.044238
 3954         h1    132    bbb    H16   3954 0.13554100   1.008000   ; qtot 132.179779
 3955         c3    132    bbb     C9   3955 -0.06455200  12.010000   ; qtot 132.115227
 3956         h1    132    bbb    H17   3956 0.13554100   1.008000   ; qtot 132.250768
 3957         h1    132    bbb    H18   3957 0.13554100   1.008000   ; qtot 132.386309
 3958         os    132    bbb     O1   3958 -0.62587700  16.000000   ; qtot 131.760432
 3959         hn    132    bbb    H19   3959 0.23982500   1.008000   ; qtot 132.000257
; residue  133 bbb rtp bbb q 1.0
 3960         n4    133    bbb     N1   3960 0.03726400  14.010000   ; qtot 132.037521
 3961         c3    133    bbb     C1   3961 -0.07020100  12.010000   ; qtot 131.967320
 3962         hx    133    bbb     H1   3962 0.12219000   1.008000   ; qtot 132.089510
 3963         hx    133    bbb     H2   3963 0.12219000   1.008000   ; qtot 132.211700
 3964         c3    133    bbb     C2   3964 -0.07020100  12.010000   ; qtot 132.141499
 3965         hx    133    bbb     H3   3965 0.12219000   1.008000   ; qtot 132.263689
 3966         hx    133    bbb     H4   3966 0.12219000   1.008000   ; qtot 132.385879
 3967         c3    133    bbb     C3   3967 -0.39007700  12.010000   ; qtot 131.995802
 3968         hx    133    bbb     H5   3968 0.14940300   1.008000   ; qtot 132.145205
 3969         hx    133    bbb     H6   3969 0.14940300   1.008000   ; qtot 132.294608
 3970         c3    133    bbb     C4   3970 0.18057300  12.010000   ; qtot 132.475181
 3971         hc    133    bbb     H7   3971 0.01788900   1.008000   ; qtot 132.493070
 3972         hc    133    bbb     H8   3972 0.01788900   1.008000   ; qtot 132.510959
 3973         c3    133    bbb     C5   3973 -0.11337700  12.010000   ; qtot 132.397582
 3974         hc    133    bbb     H9   3974 0.09515400   1.008000   ; qtot 132.492736
 3975         hc    133    bbb    H10   3975 0.09515400   1.008000   ; qtot 132.587890
 3976         c3    133    bbb     C6   3976 -0.11337700  12.010000   ; qtot 132.474513
 3977         hc    133    bbb    H11   3977 0.09515400   1.008000   ; qtot 132.569667
 3978         hc    133    bbb    H12   3978 0.09515400   1.008000   ; qtot 132.664821
 3979         c3    133    bbb     C7   3979 0.21842400  12.010000   ; qtot 132.883245
 3980         h1    133    bbb    H13   3980 0.04500300   1.008000   ; qtot 132.928248
 3981         h1    133    bbb    H14   3981 0.04500300   1.008000   ; qtot 132.973251
 3982         c3    133    bbb     C8   3982 -0.06455200  12.010000   ; qtot 132.908699
 3983         h1    133    bbb    H15   3983 0.13554100   1.008000   ; qtot 133.044240
 3984         h1    133    bbb    H16   3984 0.13554100   1.008000   ; qtot 133.179781
 3985         c3    133    bbb     C9   3985 -0.06455200  12.010000   ; qtot 133.115229
 3986         h1    133    bbb    H17   3986 0.13554100   1.008000   ; qtot 133.250770
 3987         h1    133    bbb    H18   3987 0.13554100   1.008000   ; qtot 133.386311
 3988         os    133    bbb     O1   3988 -0.62587700  16.000000   ; qtot 132.760434
 3989         hn    133    bbb    H19   3989 0.23982500   1.008000   ; qtot 133.000259
; residue  134 bbb rtp bbb q 1.0
 3990         n4    134    bbb     N1   3990 0.03726400  14.010000   ; qtot 133.037523
 3991         c3    134    bbb     C1   3991 -0.07020100  12.010000   ; qtot 132.967322
 3992         hx    134    bbb     H1   3992 0.12219000   1.008000   ; qtot 133.089512
 3993         hx    134    bbb     H2   3993 0.12219000   1.008000   ; qtot 133.211702
 3994         c3    134    bbb     C2   3994 -0.07020100  12.010000   ; qtot 133.141501
 3995         hx    134    bbb     H3   3995 0.12219000   1.008000   ; qtot 133.263691
 3996         hx    134    bbb     H4   3996 0.12219000   1.008000   ; qtot 133.385881
 3997         c3    134    bbb     C3   3997 -0.39007700  12.010000   ; qtot 132.995804
 3998         hx    134    bbb     H5   3998 0.14940300   1.008000   ; qtot 133.145207
 3999         hx    134    bbb     H6   3999 0.14940300   1.008000   ; qtot 133.294610
 4000         c3    134    bbb     C4   4000 0.18057300  12.010000   ; qtot 133.475183
 4001         hc    134    bbb     H7   4001 0.01788900   1.008000   ; qtot 133.493072
 4002         hc    134    bbb     H8   4002 0.01788900   1.008000   ; qtot 133.510961
 4003         c3    134    bbb     C5   4003 -0.11337700  12.010000   ; qtot 133.397584
 4004         hc    134    bbb     H9   4004 0.09515400   1.008000   ; qtot 133.492738
 4005         hc    134    bbb    H10   4005 0.09515400   1.008000   ; qtot 133.587892
 4006         c3    134    bbb     C6   4006 -0.11337700  12.010000   ; qtot 133.474515
 4007         hc    134    bbb    H11   4007 0.09515400   1.008000   ; qtot 133.569669
 4008         hc    134    bbb    H12   4008 0.09515400   1.008000   ; qtot 133.664823
 4009         c3    134    bbb     C7   4009 0.21842400  12.010000   ; qtot 133.883247
 4010         h1    134    bbb    H13   4010 0.04500300   1.008000   ; qtot 133.928250
 4011         h1    134    bbb    H14   4011 0.04500300   1.008000   ; qtot 133.973253
 4012         c3    134    bbb     C8   4012 -0.06455200  12.010000   ; qtot 133.908701
 4013         h1    134    bbb    H15   4013 0.13554100   1.008000   ; qtot 134.044242
 4014         h1    134    bbb    H16   4014 0.13554100   1.008000   ; qtot 134.179783
 4015         c3    134    bbb     C9   4015 -0.06455200  12.010000   ; qtot 134.115231
 4016         h1    134    bbb    H17   4016 0.13554100   1.008000   ; qtot 134.250772
 4017         h1    134    bbb    H18   4017 0.13554100   1.008000   ; qtot 134.386313
 4018         os    134    bbb     O1   4018 -0.62587700  16.000000   ; qtot 133.760436
 4019         hn    134    bbb    H19   4019 0.23982500   1.008000   ; qtot 134.000261
; residue  135 bbb rtp bbb q 1.0
 4020         n4    135    bbb     N1   4020 0.03726400  14.010000   ; qtot 134.037525
 4021         c3    135    bbb     C1   4021 -0.07020100  12.010000   ; qtot 133.967324
 4022         hx    135    bbb     H1   4022 0.12219000   1.008000   ; qtot 134.089514
 4023         hx    135    bbb     H2   4023 0.12219000   1.008000   ; qtot 134.211704
 4024         c3    135    bbb     C2   4024 -0.07020100  12.010000   ; qtot 134.141503
 4025         hx    135    bbb     H3   4025 0.12219000   1.008000   ; qtot 134.263693
 4026         hx    135    bbb     H4   4026 0.12219000   1.008000   ; qtot 134.385883
 4027         c3    135    bbb     C3   4027 -0.39007700  12.010000   ; qtot 133.995806
 4028         hx    135    bbb     H5   4028 0.14940300   1.008000   ; qtot 134.145209
 4029         hx    135    bbb     H6   4029 0.14940300   1.008000   ; qtot 134.294612
 4030         c3    135    bbb     C4   4030 0.18057300  12.010000   ; qtot 134.475185
 4031         hc    135    bbb     H7   4031 0.01788900   1.008000   ; qtot 134.493074
 4032         hc    135    bbb     H8   4032 0.01788900   1.008000   ; qtot 134.510963
 4033         c3    135    bbb     C5   4033 -0.11337700  12.010000   ; qtot 134.397586
 4034         hc    135    bbb     H9   4034 0.09515400   1.008000   ; qtot 134.492740
 4035         hc    135    bbb    H10   4035 0.09515400   1.008000   ; qtot 134.587894
 4036         c3    135    bbb     C6   4036 -0.11337700  12.010000   ; qtot 134.474517
 4037         hc    135    bbb    H11   4037 0.09515400   1.008000   ; qtot 134.569671
 4038         hc    135    bbb    H12   4038 0.09515400   1.008000   ; qtot 134.664825
 4039         c3    135    bbb     C7   4039 0.21842400  12.010000   ; qtot 134.883249
 4040         h1    135    bbb    H13   4040 0.04500300   1.008000   ; qtot 134.928252
 4041         h1    135    bbb    H14   4041 0.04500300   1.008000   ; qtot 134.973255
 4042         c3    135    bbb     C8   4042 -0.06455200  12.010000   ; qtot 134.908703
 4043         h1    135    bbb    H15   4043 0.13554100   1.008000   ; qtot 135.044244
 4044         h1    135    bbb    H16   4044 0.13554100   1.008000   ; qtot 135.179785
 4045         c3    135    bbb     C9   4045 -0.06455200  12.010000   ; qtot 135.115233
 4046         h1    135    bbb    H17   4046 0.13554100   1.008000   ; qtot 135.250774
 4047         h1    135    bbb    H18   4047 0.13554100   1.008000   ; qtot 135.386315
 4048         os    135    bbb     O1   4048 -0.62587700  16.000000   ; qtot 134.760438
 4049         hn    135    bbb    H19   4049 0.23982500   1.008000   ; qtot 135.000263
; residue  136 bbb rtp bbb q 1.0
 4050         n4    136    bbb     N1   4050 0.03726400  14.010000   ; qtot 135.037527
 4051         c3    136    bbb     C1   4051 -0.07020100  12.010000   ; qtot 134.967326
 4052         hx    136    bbb     H1   4052 0.12219000   1.008000   ; qtot 135.089516
 4053         hx    136    bbb     H2   4053 0.12219000   1.008000   ; qtot 135.211706
 4054         c3    136    bbb     C2   4054 -0.07020100  12.010000   ; qtot 135.141505
 4055         hx    136    bbb     H3   4055 0.12219000   1.008000   ; qtot 135.263695
 4056         hx    136    bbb     H4   4056 0.12219000   1.008000   ; qtot 135.385885
 4057         c3    136    bbb     C3   4057 -0.39007700  12.010000   ; qtot 134.995808
 4058         hx    136    bbb     H5   4058 0.14940300   1.008000   ; qtot 135.145211
 4059         hx    136    bbb     H6   4059 0.14940300   1.008000   ; qtot 135.294614
 4060         c3    136    bbb     C4   4060 0.18057300  12.010000   ; qtot 135.475187
 4061         hc    136    bbb     H7   4061 0.01788900   1.008000   ; qtot 135.493076
 4062         hc    136    bbb     H8   4062 0.01788900   1.008000   ; qtot 135.510965
 4063         c3    136    bbb     C5   4063 -0.11337700  12.010000   ; qtot 135.397588
 4064         hc    136    bbb     H9   4064 0.09515400   1.008000   ; qtot 135.492742
 4065         hc    136    bbb    H10   4065 0.09515400   1.008000   ; qtot 135.587896
 4066         c3    136    bbb     C6   4066 -0.11337700  12.010000   ; qtot 135.474519
 4067         hc    136    bbb    H11   4067 0.09515400   1.008000   ; qtot 135.569673
 4068         hc    136    bbb    H12   4068 0.09515400   1.008000   ; qtot 135.664827
 4069         c3    136    bbb     C7   4069 0.21842400  12.010000   ; qtot 135.883251
 4070         h1    136    bbb    H13   4070 0.04500300   1.008000   ; qtot 135.928254
 4071         h1    136    bbb    H14   4071 0.04500300   1.008000   ; qtot 135.973257
 4072         c3    136    bbb     C8   4072 -0.06455200  12.010000   ; qtot 135.908705
 4073         h1    136    bbb    H15   4073 0.13554100   1.008000   ; qtot 136.044246
 4074         h1    136    bbb    H16   4074 0.13554100   1.008000   ; qtot 136.179787
 4075         c3    136    bbb     C9   4075 -0.06455200  12.010000   ; qtot 136.115235
 4076         h1    136    bbb    H17   4076 0.13554100   1.008000   ; qtot 136.250776
 4077         h1    136    bbb    H18   4077 0.13554100   1.008000   ; qtot 136.386317
 4078         os    136    bbb     O1   4078 -0.62587700  16.000000   ; qtot 135.760440
 4079         hn    136    bbb    H19   4079 0.23982500   1.008000   ; qtot 136.000265
; residue  137 bbb rtp bbb q 1.0
 4080         n4    137    bbb     N1   4080 0.03726400  14.010000   ; qtot 136.037529
 4081         c3    137    bbb     C1   4081 -0.07020100  12.010000   ; qtot 135.967328
 4082         hx    137    bbb     H1   4082 0.12219000   1.008000   ; qtot 136.089518
 4083         hx    137    bbb     H2   4083 0.12219000   1.008000   ; qtot 136.211708
 4084         c3    137    bbb     C2   4084 -0.07020100  12.010000   ; qtot 136.141507
 4085         hx    137    bbb     H3   4085 0.12219000   1.008000   ; qtot 136.263697
 4086         hx    137    bbb     H4   4086 0.12219000   1.008000   ; qtot 136.385887
 4087         c3    137    bbb     C3   4087 -0.39007700  12.010000   ; qtot 135.995810
 4088         hx    137    bbb     H5   4088 0.14940300   1.008000   ; qtot 136.145213
 4089         hx    137    bbb     H6   4089 0.14940300   1.008000   ; qtot 136.294616
 4090         c3    137    bbb     C4   4090 0.18057300  12.010000   ; qtot 136.475189
 4091         hc    137    bbb     H7   4091 0.01788900   1.008000   ; qtot 136.493078
 4092         hc    137    bbb     H8   4092 0.01788900   1.008000   ; qtot 136.510967
 4093         c3    137    bbb     C5   4093 -0.11337700  12.010000   ; qtot 136.397590
 4094         hc    137    bbb     H9   4094 0.09515400   1.008000   ; qtot 136.492744
 4095         hc    137    bbb    H10   4095 0.09515400   1.008000   ; qtot 136.587898
 4096         c3    137    bbb     C6   4096 -0.11337700  12.010000   ; qtot 136.474521
 4097         hc    137    bbb    H11   4097 0.09515400   1.008000   ; qtot 136.569675
 4098         hc    137    bbb    H12   4098 0.09515400   1.008000   ; qtot 136.664829
 4099         c3    137    bbb     C7   4099 0.21842400  12.010000   ; qtot 136.883253
 4100         h1    137    bbb    H13   4100 0.04500300   1.008000   ; qtot 136.928256
 4101         h1    137    bbb    H14   4101 0.04500300   1.008000   ; qtot 136.973259
 4102         c3    137    bbb     C8   4102 -0.06455200  12.010000   ; qtot 136.908707
 4103         h1    137    bbb    H15   4103 0.13554100   1.008000   ; qtot 137.044248
 4104         h1    137    bbb    H16   4104 0.13554100   1.008000   ; qtot 137.179789
 4105         c3    137    bbb     C9   4105 -0.06455200  12.010000   ; qtot 137.115237
 4106         h1    137    bbb    H17   4106 0.13554100   1.008000   ; qtot 137.250778
 4107         h1    137    bbb    H18   4107 0.13554100   1.008000   ; qtot 137.386319
 4108         os    137    bbb     O1   4108 -0.62587700  16.000000   ; qtot 136.760442
 4109         hn    137    bbb    H19   4109 0.23982500   1.008000   ; qtot 137.000267
; residue  138 bbb rtp bbb q 1.0
 4110         n4    138    bbb     N1   4110 0.03726400  14.010000   ; qtot 137.037531
 4111         c3    138    bbb     C1   4111 -0.07020100  12.010000   ; qtot 136.967330
 4112         hx    138    bbb     H1   4112 0.12219000   1.008000   ; qtot 137.089520
 4113         hx    138    bbb     H2   4113 0.12219000   1.008000   ; qtot 137.211710
 4114         c3    138    bbb     C2   4114 -0.07020100  12.010000   ; qtot 137.141509
 4115         hx    138    bbb     H3   4115 0.12219000   1.008000   ; qtot 137.263699
 4116         hx    138    bbb     H4   4116 0.12219000   1.008000   ; qtot 137.385889
 4117         c3    138    bbb     C3   4117 -0.39007700  12.010000   ; qtot 136.995812
 4118         hx    138    bbb     H5   4118 0.14940300   1.008000   ; qtot 137.145215
 4119         hx    138    bbb     H6   4119 0.14940300   1.008000   ; qtot 137.294618
 4120         c3    138    bbb     C4   4120 0.18057300  12.010000   ; qtot 137.475191
 4121         hc    138    bbb     H7   4121 0.01788900   1.008000   ; qtot 137.493080
 4122         hc    138    bbb     H8   4122 0.01788900   1.008000   ; qtot 137.510969
 4123         c3    138    bbb     C5   4123 -0.11337700  12.010000   ; qtot 137.397592
 4124         hc    138    bbb     H9   4124 0.09515400   1.008000   ; qtot 137.492746
 4125         hc    138    bbb    H10   4125 0.09515400   1.008000   ; qtot 137.587900
 4126         c3    138    bbb     C6   4126 -0.11337700  12.010000   ; qtot 137.474523
 4127         hc    138    bbb    H11   4127 0.09515400   1.008000   ; qtot 137.569677
 4128         hc    138    bbb    H12   4128 0.09515400   1.008000   ; qtot 137.664831
 4129         c3    138    bbb     C7   4129 0.21842400  12.010000   ; qtot 137.883255
 4130         h1    138    bbb    H13   4130 0.04500300   1.008000   ; qtot 137.928258
 4131         h1    138    bbb    H14   4131 0.04500300   1.008000   ; qtot 137.973261
 4132         c3    138    bbb     C8   4132 -0.06455200  12.010000   ; qtot 137.908709
 4133         h1    138    bbb    H15   4133 0.13554100   1.008000   ; qtot 138.044250
 4134         h1    138    bbb    H16   4134 0.13554100   1.008000   ; qtot 138.179791
 4135         c3    138    bbb     C9   4135 -0.06455200  12.010000   ; qtot 138.115239
 4136         h1    138    bbb    H17   4136 0.13554100   1.008000   ; qtot 138.250780
 4137         h1    138    bbb    H18   4137 0.13554100   1.008000   ; qtot 138.386321
 4138         os    138    bbb     O1   4138 -0.62587700  16.000000   ; qtot 137.760444
 4139         hn    138    bbb    H19   4139 0.23982500   1.008000   ; qtot 138.000269
; residue  139 bbb rtp bbb q 1.0
 4140         n4    139    bbb     N1   4140 0.03726400  14.010000   ; qtot 138.037533
 4141         c3    139    bbb     C1   4141 -0.07020100  12.010000   ; qtot 137.967332
 4142         hx    139    bbb     H1   4142 0.12219000   1.008000   ; qtot 138.089522
 4143         hx    139    bbb     H2   4143 0.12219000   1.008000   ; qtot 138.211712
 4144         c3    139    bbb     C2   4144 -0.07020100  12.010000   ; qtot 138.141511
 4145         hx    139    bbb     H3   4145 0.12219000   1.008000   ; qtot 138.263701
 4146         hx    139    bbb     H4   4146 0.12219000   1.008000   ; qtot 138.385891
 4147         c3    139    bbb     C3   4147 -0.39007700  12.010000   ; qtot 137.995814
 4148         hx    139    bbb     H5   4148 0.14940300   1.008000   ; qtot 138.145217
 4149         hx    139    bbb     H6   4149 0.14940300   1.008000   ; qtot 138.294620
 4150         c3    139    bbb     C4   4150 0.18057300  12.010000   ; qtot 138.475193
 4151         hc    139    bbb     H7   4151 0.01788900   1.008000   ; qtot 138.493082
 4152         hc    139    bbb     H8   4152 0.01788900   1.008000   ; qtot 138.510971
 4153         c3    139    bbb     C5   4153 -0.11337700  12.010000   ; qtot 138.397594
 4154         hc    139    bbb     H9   4154 0.09515400   1.008000   ; qtot 138.492748
 4155         hc    139    bbb    H10   4155 0.09515400   1.008000   ; qtot 138.587902
 4156         c3    139    bbb     C6   4156 -0.11337700  12.010000   ; qtot 138.474525
 4157         hc    139    bbb    H11   4157 0.09515400   1.008000   ; qtot 138.569679
 4158         hc    139    bbb    H12   4158 0.09515400   1.008000   ; qtot 138.664833
 4159         c3    139    bbb     C7   4159 0.21842400  12.010000   ; qtot 138.883257
 4160         h1    139    bbb    H13   4160 0.04500300   1.008000   ; qtot 138.928260
 4161         h1    139    bbb    H14   4161 0.04500300   1.008000   ; qtot 138.973263
 4162         c3    139    bbb     C8   4162 -0.06455200  12.010000   ; qtot 138.908711
 4163         h1    139    bbb    H15   4163 0.13554100   1.008000   ; qtot 139.044252
 4164         h1    139    bbb    H16   4164 0.13554100   1.008000   ; qtot 139.179793
 4165         c3    139    bbb     C9   4165 -0.06455200  12.010000   ; qtot 139.115241
 4166         h1    139    bbb    H17   4166 0.13554100   1.008000   ; qtot 139.250782
 4167         h1    139    bbb    H18   4167 0.13554100   1.008000   ; qtot 139.386323
 4168         os    139    bbb     O1   4168 -0.62587700  16.000000   ; qtot 138.760446
 4169         hn    139    bbb    H19   4169 0.23982500   1.008000   ; qtot 139.000271
; residue  140 bbb rtp bbb q 1.0
 4170         n4    140    bbb     N1   4170 0.03726400  14.010000   ; qtot 139.037535
 4171         c3    140    bbb     C1   4171 -0.07020100  12.010000   ; qtot 138.967334
 4172         hx    140    bbb     H1   4172 0.12219000   1.008000   ; qtot 139.089524
 4173         hx    140    bbb     H2   4173 0.12219000   1.008000   ; qtot 139.211714
 4174         c3    140    bbb     C2   4174 -0.07020100  12.010000   ; qtot 139.141513
 4175         hx    140    bbb     H3   4175 0.12219000   1.008000   ; qtot 139.263703
 4176         hx    140    bbb     H4   4176 0.12219000   1.008000   ; qtot 139.385893
 4177         c3    140    bbb     C3   4177 -0.39007700  12.010000   ; qtot 138.995816
 4178         hx    140    bbb     H5   4178 0.14940300   1.008000   ; qtot 139.145219
 4179         hx    140    bbb     H6   4179 0.14940300   1.008000   ; qtot 139.294622
 4180         c3    140    bbb     C4   4180 0.18057300  12.010000   ; qtot 139.475195
 4181         hc    140    bbb     H7   4181 0.01788900   1.008000   ; qtot 139.493084
 4182         hc    140    bbb     H8   4182 0.01788900   1.008000   ; qtot 139.510973
 4183         c3    140    bbb     C5   4183 -0.11337700  12.010000   ; qtot 139.397596
 4184         hc    140    bbb     H9   4184 0.09515400   1.008000   ; qtot 139.492750
 4185         hc    140    bbb    H10   4185 0.09515400   1.008000   ; qtot 139.587904
 4186         c3    140    bbb     C6   4186 -0.11337700  12.010000   ; qtot 139.474527
 4187         hc    140    bbb    H11   4187 0.09515400   1.008000   ; qtot 139.569681
 4188         hc    140    bbb    H12   4188 0.09515400   1.008000   ; qtot 139.664835
 4189         c3    140    bbb     C7   4189 0.21842400  12.010000   ; qtot 139.883259
 4190         h1    140    bbb    H13   4190 0.04500300   1.008000   ; qtot 139.928262
 4191         h1    140    bbb    H14   4191 0.04500300   1.008000   ; qtot 139.973265
 4192         c3    140    bbb     C8   4192 -0.06455200  12.010000   ; qtot 139.908713
 4193         h1    140    bbb    H15   4193 0.13554100   1.008000   ; qtot 140.044254
 4194         h1    140    bbb    H16   4194 0.13554100   1.008000   ; qtot 140.179795
 4195         c3    140    bbb     C9   4195 -0.06455200  12.010000   ; qtot 140.115243
 4196         h1    140    bbb    H17   4196 0.13554100   1.008000   ; qtot 140.250784
 4197         h1    140    bbb    H18   4197 0.13554100   1.008000   ; qtot 140.386325
 4198         os    140    bbb     O1   4198 -0.62587700  16.000000   ; qtot 139.760448
 4199         hn    140    bbb    H19   4199 0.23982500   1.008000   ; qtot 140.000273
; residue  141 bbb rtp bbb q 1.0
 4200         n4    141    bbb     N1   4200 0.03726400  14.010000   ; qtot 140.037537
 4201         c3    141    bbb     C1   4201 -0.07020100  12.010000   ; qtot 139.967336
 4202         hx    141    bbb     H1   4202 0.12219000   1.008000   ; qtot 140.089526
 4203         hx    141    bbb     H2   4203 0.12219000   1.008000   ; qtot 140.211716
 4204         c3    141    bbb     C2   4204 -0.07020100  12.010000   ; qtot 140.141515
 4205         hx    141    bbb     H3   4205 0.12219000   1.008000   ; qtot 140.263705
 4206         hx    141    bbb     H4   4206 0.12219000   1.008000   ; qtot 140.385895
 4207         c3    141    bbb     C3   4207 -0.39007700  12.010000   ; qtot 139.995818
 4208         hx    141    bbb     H5   4208 0.14940300   1.008000   ; qtot 140.145221
 4209         hx    141    bbb     H6   4209 0.14940300   1.008000   ; qtot 140.294624
 4210         c3    141    bbb     C4   4210 0.18057300  12.010000   ; qtot 140.475197
 4211         hc    141    bbb     H7   4211 0.01788900   1.008000   ; qtot 140.493086
 4212         hc    141    bbb     H8   4212 0.01788900   1.008000   ; qtot 140.510975
 4213         c3    141    bbb     C5   4213 -0.11337700  12.010000   ; qtot 140.397598
 4214         hc    141    bbb     H9   4214 0.09515400   1.008000   ; qtot 140.492752
 4215         hc    141    bbb    H10   4215 0.09515400   1.008000   ; qtot 140.587906
 4216         c3    141    bbb     C6   4216 -0.11337700  12.010000   ; qtot 140.474529
 4217         hc    141    bbb    H11   4217 0.09515400   1.008000   ; qtot 140.569683
 4218         hc    141    bbb    H12   4218 0.09515400   1.008000   ; qtot 140.664837
 4219         c3    141    bbb     C7   4219 0.21842400  12.010000   ; qtot 140.883261
 4220         h1    141    bbb    H13   4220 0.04500300   1.008000   ; qtot 140.928264
 4221         h1    141    bbb    H14   4221 0.04500300   1.008000   ; qtot 140.973267
 4222         c3    141    bbb     C8   4222 -0.06455200  12.010000   ; qtot 140.908715
 4223         h1    141    bbb    H15   4223 0.13554100   1.008000   ; qtot 141.044256
 4224         h1    141    bbb    H16   4224 0.13554100   1.008000   ; qtot 141.179797
 4225         c3    141    bbb     C9   4225 -0.06455200  12.010000   ; qtot 141.115245
 4226         h1    141    bbb    H17   4226 0.13554100   1.008000   ; qtot 141.250786
 4227         h1    141    bbb    H18   4227 0.13554100   1.008000   ; qtot 141.386327
 4228         os    141    bbb     O1   4228 -0.62587700  16.000000   ; qtot 140.760450
 4229         hn    141    bbb    H19   4229 0.23982500   1.008000   ; qtot 141.000275
; residue  142 bbb rtp bbb q 1.0
 4230         n4    142    bbb     N1   4230 0.03726400  14.010000   ; qtot 141.037539
 4231         c3    142    bbb     C1   4231 -0.07020100  12.010000   ; qtot 140.967338
 4232         hx    142    bbb     H1   4232 0.12219000   1.008000   ; qtot 141.089528
 4233         hx    142    bbb     H2   4233 0.12219000   1.008000   ; qtot 141.211718
 4234         c3    142    bbb     C2   4234 -0.07020100  12.010000   ; qtot 141.141517
 4235         hx    142    bbb     H3   4235 0.12219000   1.008000   ; qtot 141.263707
 4236         hx    142    bbb     H4   4236 0.12219000   1.008000   ; qtot 141.385897
 4237         c3    142    bbb     C3   4237 -0.39007700  12.010000   ; qtot 140.995820
 4238         hx    142    bbb     H5   4238 0.14940300   1.008000   ; qtot 141.145223
 4239         hx    142    bbb     H6   4239 0.14940300   1.008000   ; qtot 141.294626
 4240         c3    142    bbb     C4   4240 0.18057300  12.010000   ; qtot 141.475199
 4241         hc    142    bbb     H7   4241 0.01788900   1.008000   ; qtot 141.493088
 4242         hc    142    bbb     H8   4242 0.01788900   1.008000   ; qtot 141.510977
 4243         c3    142    bbb     C5   4243 -0.11337700  12.010000   ; qtot 141.397600
 4244         hc    142    bbb     H9   4244 0.09515400   1.008000   ; qtot 141.492754
 4245         hc    142    bbb    H10   4245 0.09515400   1.008000   ; qtot 141.587908
 4246         c3    142    bbb     C6   4246 -0.11337700  12.010000   ; qtot 141.474531
 4247         hc    142    bbb    H11   4247 0.09515400   1.008000   ; qtot 141.569685
 4248         hc    142    bbb    H12   4248 0.09515400   1.008000   ; qtot 141.664839
 4249         c3    142    bbb     C7   4249 0.21842400  12.010000   ; qtot 141.883263
 4250         h1    142    bbb    H13   4250 0.04500300   1.008000   ; qtot 141.928266
 4251         h1    142    bbb    H14   4251 0.04500300   1.008000   ; qtot 141.973269
 4252         c3    142    bbb     C8   4252 -0.06455200  12.010000   ; qtot 141.908717
 4253         h1    142    bbb    H15   4253 0.13554100   1.008000   ; qtot 142.044258
 4254         h1    142    bbb    H16   4254 0.13554100   1.008000   ; qtot 142.179799
 4255         c3    142    bbb     C9   4255 -0.06455200  12.010000   ; qtot 142.115247
 4256         h1    142    bbb    H17   4256 0.13554100   1.008000   ; qtot 142.250788
 4257         h1    142    bbb    H18   4257 0.13554100   1.008000   ; qtot 142.386329
 4258         os    142    bbb     O1   4258 -0.62587700  16.000000   ; qtot 141.760452
 4259         hn    142    bbb    H19   4259 0.23982500   1.008000   ; qtot 142.000277
; residue  143 bbb rtp bbb q 1.0
 4260         n4    143    bbb     N1   4260 0.03726400  14.010000   ; qtot 142.037541
 4261         c3    143    bbb     C1   4261 -0.07020100  12.010000   ; qtot 141.967340
 4262         hx    143    bbb     H1   4262 0.12219000   1.008000   ; qtot 142.089530
 4263         hx    143    bbb     H2   4263 0.12219000   1.008000   ; qtot 142.211720
 4264         c3    143    bbb     C2   4264 -0.07020100  12.010000   ; qtot 142.141519
 4265         hx    143    bbb     H3   4265 0.12219000   1.008000   ; qtot 142.263709
 4266         hx    143    bbb     H4   4266 0.12219000   1.008000   ; qtot 142.385899
 4267         c3    143    bbb     C3   4267 -0.39007700  12.010000   ; qtot 141.995822
 4268         hx    143    bbb     H5   4268 0.14940300   1.008000   ; qtot 142.145225
 4269         hx    143    bbb     H6   4269 0.14940300   1.008000   ; qtot 142.294628
 4270         c3    143    bbb     C4   4270 0.18057300  12.010000   ; qtot 142.475201
 4271         hc    143    bbb     H7   4271 0.01788900   1.008000   ; qtot 142.493090
 4272         hc    143    bbb     H8   4272 0.01788900   1.008000   ; qtot 142.510979
 4273         c3    143    bbb     C5   4273 -0.11337700  12.010000   ; qtot 142.397602
 4274         hc    143    bbb     H9   4274 0.09515400   1.008000   ; qtot 142.492756
 4275         hc    143    bbb    H10   4275 0.09515400   1.008000   ; qtot 142.587910
 4276         c3    143    bbb     C6   4276 -0.11337700  12.010000   ; qtot 142.474533
 4277         hc    143    bbb    H11   4277 0.09515400   1.008000   ; qtot 142.569687
 4278         hc    143    bbb    H12   4278 0.09515400   1.008000   ; qtot 142.664841
 4279         c3    143    bbb     C7   4279 0.21842400  12.010000   ; qtot 142.883265
 4280         h1    143    bbb    H13   4280 0.04500300   1.008000   ; qtot 142.928268
 4281         h1    143    bbb    H14   4281 0.04500300   1.008000   ; qtot 142.973271
 4282         c3    143    bbb     C8   4282 -0.06455200  12.010000   ; qtot 142.908719
 4283         h1    143    bbb    H15   4283 0.13554100   1.008000   ; qtot 143.044260
 4284         h1    143    bbb    H16   4284 0.13554100   1.008000   ; qtot 143.179801
 4285         c3    143    bbb     C9   4285 -0.06455200  12.010000   ; qtot 143.115249
 4286         h1    143    bbb    H17   4286 0.13554100   1.008000   ; qtot 143.250790
 4287         h1    143    bbb    H18   4287 0.13554100   1.008000   ; qtot 143.386331
 4288         os    143    bbb     O1   4288 -0.62587700  16.000000   ; qtot 142.760454
 4289         hn    143    bbb    H19   4289 0.23982500   1.008000   ; qtot 143.000279
; residue  144 bbb rtp bbb q 1.0
 4290         n4    144    bbb     N1   4290 0.03726400  14.010000   ; qtot 143.037543
 4291         c3    144    bbb     C1   4291 -0.07020100  12.010000   ; qtot 142.967342
 4292         hx    144    bbb     H1   4292 0.12219000   1.008000   ; qtot 143.089532
 4293         hx    144    bbb     H2   4293 0.12219000   1.008000   ; qtot 143.211722
 4294         c3    144    bbb     C2   4294 -0.07020100  12.010000   ; qtot 143.141521
 4295         hx    144    bbb     H3   4295 0.12219000   1.008000   ; qtot 143.263711
 4296         hx    144    bbb     H4   4296 0.12219000   1.008000   ; qtot 143.385901
 4297         c3    144    bbb     C3   4297 -0.39007700  12.010000   ; qtot 142.995824
 4298         hx    144    bbb     H5   4298 0.14940300   1.008000   ; qtot 143.145227
 4299         hx    144    bbb     H6   4299 0.14940300   1.008000   ; qtot 143.294630
 4300         c3    144    bbb     C4   4300 0.18057300  12.010000   ; qtot 143.475203
 4301         hc    144    bbb     H7   4301 0.01788900   1.008000   ; qtot 143.493092
 4302         hc    144    bbb     H8   4302 0.01788900   1.008000   ; qtot 143.510981
 4303         c3    144    bbb     C5   4303 -0.11337700  12.010000   ; qtot 143.397604
 4304         hc    144    bbb     H9   4304 0.09515400   1.008000   ; qtot 143.492758
 4305         hc    144    bbb    H10   4305 0.09515400   1.008000   ; qtot 143.587912
 4306         c3    144    bbb     C6   4306 -0.11337700  12.010000   ; qtot 143.474535
 4307         hc    144    bbb    H11   4307 0.09515400   1.008000   ; qtot 143.569689
 4308         hc    144    bbb    H12   4308 0.09515400   1.008000   ; qtot 143.664843
 4309         c3    144    bbb     C7   4309 0.21842400  12.010000   ; qtot 143.883267
 4310         h1    144    bbb    H13   4310 0.04500300   1.008000   ; qtot 143.928270
 4311         h1    144    bbb    H14   4311 0.04500300   1.008000   ; qtot 143.973273
 4312         c3    144    bbb     C8   4312 -0.06455200  12.010000   ; qtot 143.908721
 4313         h1    144    bbb    H15   4313 0.13554100   1.008000   ; qtot 144.044262
 4314         h1    144    bbb    H16   4314 0.13554100   1.008000   ; qtot 144.179803
 4315         c3    144    bbb     C9   4315 -0.06455200  12.010000   ; qtot 144.115251
 4316         h1    144    bbb    H17   4316 0.13554100   1.008000   ; qtot 144.250792
 4317         h1    144    bbb    H18   4317 0.13554100   1.008000   ; qtot 144.386333
 4318         os    144    bbb     O1   4318 -0.62587700  16.000000   ; qtot 143.760456
 4319         hn    144    bbb    H19   4319 0.23982500   1.008000   ; qtot 144.000281
; residue  145 bbb rtp bbb q 1.0
 4320         n4    145    bbb     N1   4320 0.03726400  14.010000   ; qtot 144.037545
 4321         c3    145    bbb     C1   4321 -0.07020100  12.010000   ; qtot 143.967344
 4322         hx    145    bbb     H1   4322 0.12219000   1.008000   ; qtot 144.089534
 4323         hx    145    bbb     H2   4323 0.12219000   1.008000   ; qtot 144.211724
 4324         c3    145    bbb     C2   4324 -0.07020100  12.010000   ; qtot 144.141523
 4325         hx    145    bbb     H3   4325 0.12219000   1.008000   ; qtot 144.263713
 4326         hx    145    bbb     H4   4326 0.12219000   1.008000   ; qtot 144.385903
 4327         c3    145    bbb     C3   4327 -0.39007700  12.010000   ; qtot 143.995826
 4328         hx    145    bbb     H5   4328 0.14940300   1.008000   ; qtot 144.145229
 4329         hx    145    bbb     H6   4329 0.14940300   1.008000   ; qtot 144.294632
 4330         c3    145    bbb     C4   4330 0.18057300  12.010000   ; qtot 144.475205
 4331         hc    145    bbb     H7   4331 0.01788900   1.008000   ; qtot 144.493094
 4332         hc    145    bbb     H8   4332 0.01788900   1.008000   ; qtot 144.510983
 4333         c3    145    bbb     C5   4333 -0.11337700  12.010000   ; qtot 144.397606
 4334         hc    145    bbb     H9   4334 0.09515400   1.008000   ; qtot 144.492760
 4335         hc    145    bbb    H10   4335 0.09515400   1.008000   ; qtot 144.587914
 4336         c3    145    bbb     C6   4336 -0.11337700  12.010000   ; qtot 144.474537
 4337         hc    145    bbb    H11   4337 0.09515400   1.008000   ; qtot 144.569691
 4338         hc    145    bbb    H12   4338 0.09515400   1.008000   ; qtot 144.664845
 4339         c3    145    bbb     C7   4339 0.21842400  12.010000   ; qtot 144.883269
 4340         h1    145    bbb    H13   4340 0.04500300   1.008000   ; qtot 144.928272
 4341         h1    145    bbb    H14   4341 0.04500300   1.008000   ; qtot 144.973275
 4342         c3    145    bbb     C8   4342 -0.06455200  12.010000   ; qtot 144.908723
 4343         h1    145    bbb    H15   4343 0.13554100   1.008000   ; qtot 145.044264
 4344         h1    145    bbb    H16   4344 0.13554100   1.008000   ; qtot 145.179805
 4345         c3    145    bbb     C9   4345 -0.06455200  12.010000   ; qtot 145.115253
 4346         h1    145    bbb    H17   4346 0.13554100   1.008000   ; qtot 145.250794
 4347         h1    145    bbb    H18   4347 0.13554100   1.008000   ; qtot 145.386335
 4348         os    145    bbb     O1   4348 -0.62587700  16.000000   ; qtot 144.760458
 4349         hn    145    bbb    H19   4349 0.23982500   1.008000   ; qtot 145.000283
; residue  146 bbb rtp bbb q 1.0
 4350         n4    146    bbb     N1   4350 0.03726400  14.010000   ; qtot 145.037547
 4351         c3    146    bbb     C1   4351 -0.07020100  12.010000   ; qtot 144.967346
 4352         hx    146    bbb     H1   4352 0.12219000   1.008000   ; qtot 145.089536
 4353         hx    146    bbb     H2   4353 0.12219000   1.008000   ; qtot 145.211726
 4354         c3    146    bbb     C2   4354 -0.07020100  12.010000   ; qtot 145.141525
 4355         hx    146    bbb     H3   4355 0.12219000   1.008000   ; qtot 145.263715
 4356         hx    146    bbb     H4   4356 0.12219000   1.008000   ; qtot 145.385905
 4357         c3    146    bbb     C3   4357 -0.39007700  12.010000   ; qtot 144.995828
 4358         hx    146    bbb     H5   4358 0.14940300   1.008000   ; qtot 145.145231
 4359         hx    146    bbb     H6   4359 0.14940300   1.008000   ; qtot 145.294634
 4360         c3    146    bbb     C4   4360 0.18057300  12.010000   ; qtot 145.475207
 4361         hc    146    bbb     H7   4361 0.01788900   1.008000   ; qtot 145.493096
 4362         hc    146    bbb     H8   4362 0.01788900   1.008000   ; qtot 145.510985
 4363         c3    146    bbb     C5   4363 -0.11337700  12.010000   ; qtot 145.397608
 4364         hc    146    bbb     H9   4364 0.09515400   1.008000   ; qtot 145.492762
 4365         hc    146    bbb    H10   4365 0.09515400   1.008000   ; qtot 145.587916
 4366         c3    146    bbb     C6   4366 -0.11337700  12.010000   ; qtot 145.474539
 4367         hc    146    bbb    H11   4367 0.09515400   1.008000   ; qtot 145.569693
 4368         hc    146    bbb    H12   4368 0.09515400   1.008000   ; qtot 145.664847
 4369         c3    146    bbb     C7   4369 0.21842400  12.010000   ; qtot 145.883271
 4370         h1    146    bbb    H13   4370 0.04500300   1.008000   ; qtot 145.928274
 4371         h1    146    bbb    H14   4371 0.04500300   1.008000   ; qtot 145.973277
 4372         c3    146    bbb     C8   4372 -0.06455200  12.010000   ; qtot 145.908725
 4373         h1    146    bbb    H15   4373 0.13554100   1.008000   ; qtot 146.044266
 4374         h1    146    bbb    H16   4374 0.13554100   1.008000   ; qtot 146.179807
 4375         c3    146    bbb     C9   4375 -0.06455200  12.010000   ; qtot 146.115255
 4376         h1    146    bbb    H17   4376 0.13554100   1.008000   ; qtot 146.250796
 4377         h1    146    bbb    H18   4377 0.13554100   1.008000   ; qtot 146.386337
 4378         os    146    bbb     O1   4378 -0.62587700  16.000000   ; qtot 145.760460
 4379         hn    146    bbb    H19   4379 0.23982500   1.008000   ; qtot 146.000285
; residue  147 bbb rtp bbb q 1.0
 4380         n4    147    bbb     N1   4380 0.03726400  14.010000   ; qtot 146.037549
 4381         c3    147    bbb     C1   4381 -0.07020100  12.010000   ; qtot 145.967348
 4382         hx    147    bbb     H1   4382 0.12219000   1.008000   ; qtot 146.089538
 4383         hx    147    bbb     H2   4383 0.12219000   1.008000   ; qtot 146.211728
 4384         c3    147    bbb     C2   4384 -0.07020100  12.010000   ; qtot 146.141527
 4385         hx    147    bbb     H3   4385 0.12219000   1.008000   ; qtot 146.263717
 4386         hx    147    bbb     H4   4386 0.12219000   1.008000   ; qtot 146.385907
 4387         c3    147    bbb     C3   4387 -0.39007700  12.010000   ; qtot 145.995830
 4388         hx    147    bbb     H5   4388 0.14940300   1.008000   ; qtot 146.145233
 4389         hx    147    bbb     H6   4389 0.14940300   1.008000   ; qtot 146.294636
 4390         c3    147    bbb     C4   4390 0.18057300  12.010000   ; qtot 146.475209
 4391         hc    147    bbb     H7   4391 0.01788900   1.008000   ; qtot 146.493098
 4392         hc    147    bbb     H8   4392 0.01788900   1.008000   ; qtot 146.510987
 4393         c3    147    bbb     C5   4393 -0.11337700  12.010000   ; qtot 146.397610
 4394         hc    147    bbb     H9   4394 0.09515400   1.008000   ; qtot 146.492764
 4395         hc    147    bbb    H10   4395 0.09515400   1.008000   ; qtot 146.587918
 4396         c3    147    bbb     C6   4396 -0.11337700  12.010000   ; qtot 146.474541
 4397         hc    147    bbb    H11   4397 0.09515400   1.008000   ; qtot 146.569695
 4398         hc    147    bbb    H12   4398 0.09515400   1.008000   ; qtot 146.664849
 4399         c3    147    bbb     C7   4399 0.21842400  12.010000   ; qtot 146.883273
 4400         h1    147    bbb    H13   4400 0.04500300   1.008000   ; qtot 146.928276
 4401         h1    147    bbb    H14   4401 0.04500300   1.008000   ; qtot 146.973279
 4402         c3    147    bbb     C8   4402 -0.06455200  12.010000   ; qtot 146.908727
 4403         h1    147    bbb    H15   4403 0.13554100   1.008000   ; qtot 147.044268
 4404         h1    147    bbb    H16   4404 0.13554100   1.008000   ; qtot 147.179809
 4405         c3    147    bbb     C9   4405 -0.06455200  12.010000   ; qtot 147.115257
 4406         h1    147    bbb    H17   4406 0.13554100   1.008000   ; qtot 147.250798
 4407         h1    147    bbb    H18   4407 0.13554100   1.008000   ; qtot 147.386339
 4408         os    147    bbb     O1   4408 -0.62587700  16.000000   ; qtot 146.760462
 4409         hn    147    bbb    H19   4409 0.23982500   1.008000   ; qtot 147.000287
; residue  148 bbb rtp bbb q 1.0
 4410         n4    148    bbb     N1   4410 0.03726400  14.010000   ; qtot 147.037551
 4411         c3    148    bbb     C1   4411 -0.07020100  12.010000   ; qtot 146.967350
 4412         hx    148    bbb     H1   4412 0.12219000   1.008000   ; qtot 147.089540
 4413         hx    148    bbb     H2   4413 0.12219000   1.008000   ; qtot 147.211730
 4414         c3    148    bbb     C2   4414 -0.07020100  12.010000   ; qtot 147.141529
 4415         hx    148    bbb     H3   4415 0.12219000   1.008000   ; qtot 147.263719
 4416         hx    148    bbb     H4   4416 0.12219000   1.008000   ; qtot 147.385909
 4417         c3    148    bbb     C3   4417 -0.39007700  12.010000   ; qtot 146.995832
 4418         hx    148    bbb     H5   4418 0.14940300   1.008000   ; qtot 147.145235
 4419         hx    148    bbb     H6   4419 0.14940300   1.008000   ; qtot 147.294638
 4420         c3    148    bbb     C4   4420 0.18057300  12.010000   ; qtot 147.475211
 4421         hc    148    bbb     H7   4421 0.01788900   1.008000   ; qtot 147.493100
 4422         hc    148    bbb     H8   4422 0.01788900   1.008000   ; qtot 147.510989
 4423         c3    148    bbb     C5   4423 -0.11337700  12.010000   ; qtot 147.397612
 4424         hc    148    bbb     H9   4424 0.09515400   1.008000   ; qtot 147.492766
 4425         hc    148    bbb    H10   4425 0.09515400   1.008000   ; qtot 147.587920
 4426         c3    148    bbb     C6   4426 -0.11337700  12.010000   ; qtot 147.474543
 4427         hc    148    bbb    H11   4427 0.09515400   1.008000   ; qtot 147.569697
 4428         hc    148    bbb    H12   4428 0.09515400   1.008000   ; qtot 147.664851
 4429         c3    148    bbb     C7   4429 0.21842400  12.010000   ; qtot 147.883275
 4430         h1    148    bbb    H13   4430 0.04500300   1.008000   ; qtot 147.928278
 4431         h1    148    bbb    H14   4431 0.04500300   1.008000   ; qtot 147.973281
 4432         c3    148    bbb     C8   4432 -0.06455200  12.010000   ; qtot 147.908729
 4433         h1    148    bbb    H15   4433 0.13554100   1.008000   ; qtot 148.044270
 4434         h1    148    bbb    H16   4434 0.13554100   1.008000   ; qtot 148.179811
 4435         c3    148    bbb     C9   4435 -0.06455200  12.010000   ; qtot 148.115259
 4436         h1    148    bbb    H17   4436 0.13554100   1.008000   ; qtot 148.250800
 4437         h1    148    bbb    H18   4437 0.13554100   1.008000   ; qtot 148.386341
 4438         os    148    bbb     O1   4438 -0.62587700  16.000000   ; qtot 147.760464
 4439         hn    148    bbb    H19   4439 0.23982500   1.008000   ; qtot 148.000289
; residue  149 bbb rtp bbb q 1.0
 4440         n4    149    bbb     N1   4440 0.03726400  14.010000   ; qtot 148.037553
 4441         c3    149    bbb     C1   4441 -0.07020100  12.010000   ; qtot 147.967352
 4442         hx    149    bbb     H1   4442 0.12219000   1.008000   ; qtot 148.089542
 4443         hx    149    bbb     H2   4443 0.12219000   1.008000   ; qtot 148.211732
 4444         c3    149    bbb     C2   4444 -0.07020100  12.010000   ; qtot 148.141531
 4445         hx    149    bbb     H3   4445 0.12219000   1.008000   ; qtot 148.263721
 4446         hx    149    bbb     H4   4446 0.12219000   1.008000   ; qtot 148.385911
 4447         c3    149    bbb     C3   4447 -0.39007700  12.010000   ; qtot 147.995834
 4448         hx    149    bbb     H5   4448 0.14940300   1.008000   ; qtot 148.145237
 4449         hx    149    bbb     H6   4449 0.14940300   1.008000   ; qtot 148.294640
 4450         c3    149    bbb     C4   4450 0.18057300  12.010000   ; qtot 148.475213
 4451         hc    149    bbb     H7   4451 0.01788900   1.008000   ; qtot 148.493102
 4452         hc    149    bbb     H8   4452 0.01788900   1.008000   ; qtot 148.510991
 4453         c3    149    bbb     C5   4453 -0.11337700  12.010000   ; qtot 148.397614
 4454         hc    149    bbb     H9   4454 0.09515400   1.008000   ; qtot 148.492768
 4455         hc    149    bbb    H10   4455 0.09515400   1.008000   ; qtot 148.587922
 4456         c3    149    bbb     C6   4456 -0.11337700  12.010000   ; qtot 148.474545
 4457         hc    149    bbb    H11   4457 0.09515400   1.008000   ; qtot 148.569699
 4458         hc    149    bbb    H12   4458 0.09515400   1.008000   ; qtot 148.664853
 4459         c3    149    bbb     C7   4459 0.21842400  12.010000   ; qtot 148.883277
 4460         h1    149    bbb    H13   4460 0.04500300   1.008000   ; qtot 148.928280
 4461         h1    149    bbb    H14   4461 0.04500300   1.008000   ; qtot 148.973283
 4462         c3    149    bbb     C8   4462 -0.06455200  12.010000   ; qtot 148.908731
 4463         h1    149    bbb    H15   4463 0.13554100   1.008000   ; qtot 149.044272
 4464         h1    149    bbb    H16   4464 0.13554100   1.008000   ; qtot 149.179813
 4465         c3    149    bbb     C9   4465 -0.06455200  12.010000   ; qtot 149.115261
 4466         h1    149    bbb    H17   4466 0.13554100   1.008000   ; qtot 149.250802
 4467         h1    149    bbb    H18   4467 0.13554100   1.008000   ; qtot 149.386343
 4468         os    149    bbb     O1   4468 -0.62587700  16.000000   ; qtot 148.760466
 4469         hn    149    bbb    H19   4469 0.23982500   1.008000   ; qtot 149.000291
; residue  150 bbb rtp bbb q 1.0
 4470         n4    150    bbb     N1   4470 0.03726400  14.010000   ; qtot 149.037555
 4471         c3    150    bbb     C1   4471 -0.07020100  12.010000   ; qtot 148.967354
 4472         hx    150    bbb     H1   4472 0.12219000   1.008000   ; qtot 149.089544
 4473         hx    150    bbb     H2   4473 0.12219000   1.008000   ; qtot 149.211734
 4474         c3    150    bbb     C2   4474 -0.07020100  12.010000   ; qtot 149.141533
 4475         hx    150    bbb     H3   4475 0.12219000   1.008000   ; qtot 149.263723
 4476         hx    150    bbb     H4   4476 0.12219000   1.008000   ; qtot 149.385913
 4477         c3    150    bbb     C3   4477 -0.39007700  12.010000   ; qtot 148.995836
 4478         hx    150    bbb     H5   4478 0.14940300   1.008000   ; qtot 149.145239
 4479         hx    150    bbb     H6   4479 0.14940300   1.008000   ; qtot 149.294642
 4480         c3    150    bbb     C4   4480 0.18057300  12.010000   ; qtot 149.475215
 4481         hc    150    bbb     H7   4481 0.01788900   1.008000   ; qtot 149.493104
 4482         hc    150    bbb     H8   4482 0.01788900   1.008000   ; qtot 149.510993
 4483         c3    150    bbb     C5   4483 -0.11337700  12.010000   ; qtot 149.397616
 4484         hc    150    bbb     H9   4484 0.09515400   1.008000   ; qtot 149.492770
 4485         hc    150    bbb    H10   4485 0.09515400   1.008000   ; qtot 149.587924
 4486         c3    150    bbb     C6   4486 -0.11337700  12.010000   ; qtot 149.474547
 4487         hc    150    bbb    H11   4487 0.09515400   1.008000   ; qtot 149.569701
 4488         hc    150    bbb    H12   4488 0.09515400   1.008000   ; qtot 149.664855
 4489         c3    150    bbb     C7   4489 0.21842400  12.010000   ; qtot 149.883279
 4490         h1    150    bbb    H13   4490 0.04500300   1.008000   ; qtot 149.928282
 4491         h1    150    bbb    H14   4491 0.04500300   1.008000   ; qtot 149.973285
 4492         c3    150    bbb     C8   4492 -0.06455200  12.010000   ; qtot 149.908733
 4493         h1    150    bbb    H15   4493 0.13554100   1.008000   ; qtot 150.044274
 4494         h1    150    bbb    H16   4494 0.13554100   1.008000   ; qtot 150.179815
 4495         c3    150    bbb     C9   4495 -0.06455200  12.010000   ; qtot 150.115263
 4496         h1    150    bbb    H17   4496 0.13554100   1.008000   ; qtot 150.250804
 4497         h1    150    bbb    H18   4497 0.13554100   1.008000   ; qtot 150.386345
 4498         os    150    bbb     O1   4498 -0.62587700  16.000000   ; qtot 149.760468
 4499         hn    150    bbb    H19   4499 0.23982500   1.008000   ; qtot 150.000293
; residue  151 bbb rtp bbb q 1.0
 4500         n4    151    bbb     N1   4500 0.03726400  14.010000   ; qtot 150.037557
 4501         c3    151    bbb     C1   4501 -0.07020100  12.010000   ; qtot 149.967356
 4502         hx    151    bbb     H1   4502 0.12219000   1.008000   ; qtot 150.089546
 4503         hx    151    bbb     H2   4503 0.12219000   1.008000   ; qtot 150.211736
 4504         c3    151    bbb     C2   4504 -0.07020100  12.010000   ; qtot 150.141535
 4505         hx    151    bbb     H3   4505 0.12219000   1.008000   ; qtot 150.263725
 4506         hx    151    bbb     H4   4506 0.12219000   1.008000   ; qtot 150.385915
 4507         c3    151    bbb     C3   4507 -0.39007700  12.010000   ; qtot 149.995838
 4508         hx    151    bbb     H5   4508 0.14940300   1.008000   ; qtot 150.145241
 4509         hx    151    bbb     H6   4509 0.14940300   1.008000   ; qtot 150.294644
 4510         c3    151    bbb     C4   4510 0.18057300  12.010000   ; qtot 150.475217
 4511         hc    151    bbb     H7   4511 0.01788900   1.008000   ; qtot 150.493106
 4512         hc    151    bbb     H8   4512 0.01788900   1.008000   ; qtot 150.510995
 4513         c3    151    bbb     C5   4513 -0.11337700  12.010000   ; qtot 150.397618
 4514         hc    151    bbb     H9   4514 0.09515400   1.008000   ; qtot 150.492772
 4515         hc    151    bbb    H10   4515 0.09515400   1.008000   ; qtot 150.587926
 4516         c3    151    bbb     C6   4516 -0.11337700  12.010000   ; qtot 150.474549
 4517         hc    151    bbb    H11   4517 0.09515400   1.008000   ; qtot 150.569703
 4518         hc    151    bbb    H12   4518 0.09515400   1.008000   ; qtot 150.664857
 4519         c3    151    bbb     C7   4519 0.21842400  12.010000   ; qtot 150.883281
 4520         h1    151    bbb    H13   4520 0.04500300   1.008000   ; qtot 150.928284
 4521         h1    151    bbb    H14   4521 0.04500300   1.008000   ; qtot 150.973287
 4522         c3    151    bbb     C8   4522 -0.06455200  12.010000   ; qtot 150.908735
 4523         h1    151    bbb    H15   4523 0.13554100   1.008000   ; qtot 151.044276
 4524         h1    151    bbb    H16   4524 0.13554100   1.008000   ; qtot 151.179817
 4525         c3    151    bbb     C9   4525 -0.06455200  12.010000   ; qtot 151.115265
 4526         h1    151    bbb    H17   4526 0.13554100   1.008000   ; qtot 151.250806
 4527         h1    151    bbb    H18   4527 0.13554100   1.008000   ; qtot 151.386347
 4528         os    151    bbb     O1   4528 -0.62587700  16.000000   ; qtot 150.760470
 4529         hn    151    bbb    H19   4529 0.23982500   1.008000   ; qtot 151.000295
; residue  152 bbb rtp bbb q 1.0
 4530         n4    152    bbb     N1   4530 0.03726400  14.010000   ; qtot 151.037559
 4531         c3    152    bbb     C1   4531 -0.07020100  12.010000   ; qtot 150.967358
 4532         hx    152    bbb     H1   4532 0.12219000   1.008000   ; qtot 151.089548
 4533         hx    152    bbb     H2   4533 0.12219000   1.008000   ; qtot 151.211738
 4534         c3    152    bbb     C2   4534 -0.07020100  12.010000   ; qtot 151.141537
 4535         hx    152    bbb     H3   4535 0.12219000   1.008000   ; qtot 151.263727
 4536         hx    152    bbb     H4   4536 0.12219000   1.008000   ; qtot 151.385917
 4537         c3    152    bbb     C3   4537 -0.39007700  12.010000   ; qtot 150.995840
 4538         hx    152    bbb     H5   4538 0.14940300   1.008000   ; qtot 151.145243
 4539         hx    152    bbb     H6   4539 0.14940300   1.008000   ; qtot 151.294646
 4540         c3    152    bbb     C4   4540 0.18057300  12.010000   ; qtot 151.475219
 4541         hc    152    bbb     H7   4541 0.01788900   1.008000   ; qtot 151.493108
 4542         hc    152    bbb     H8   4542 0.01788900   1.008000   ; qtot 151.510997
 4543         c3    152    bbb     C5   4543 -0.11337700  12.010000   ; qtot 151.397620
 4544         hc    152    bbb     H9   4544 0.09515400   1.008000   ; qtot 151.492774
 4545         hc    152    bbb    H10   4545 0.09515400   1.008000   ; qtot 151.587928
 4546         c3    152    bbb     C6   4546 -0.11337700  12.010000   ; qtot 151.474551
 4547         hc    152    bbb    H11   4547 0.09515400   1.008000   ; qtot 151.569705
 4548         hc    152    bbb    H12   4548 0.09515400   1.008000   ; qtot 151.664859
 4549         c3    152    bbb     C7   4549 0.21842400  12.010000   ; qtot 151.883283
 4550         h1    152    bbb    H13   4550 0.04500300   1.008000   ; qtot 151.928286
 4551         h1    152    bbb    H14   4551 0.04500300   1.008000   ; qtot 151.973289
 4552         c3    152    bbb     C8   4552 -0.06455200  12.010000   ; qtot 151.908737
 4553         h1    152    bbb    H15   4553 0.13554100   1.008000   ; qtot 152.044278
 4554         h1    152    bbb    H16   4554 0.13554100   1.008000   ; qtot 152.179819
 4555         c3    152    bbb     C9   4555 -0.06455200  12.010000   ; qtot 152.115267
 4556         h1    152    bbb    H17   4556 0.13554100   1.008000   ; qtot 152.250808
 4557         h1    152    bbb    H18   4557 0.13554100   1.008000   ; qtot 152.386349
 4558         os    152    bbb     O1   4558 -0.62587700  16.000000   ; qtot 151.760472
 4559         hn    152    bbb    H19   4559 0.23982500   1.008000   ; qtot 152.000297
; residue  153 bbb rtp bbb q 1.0
 4560         n4    153    bbb     N1   4560 0.03726400  14.010000   ; qtot 152.037561
 4561         c3    153    bbb     C1   4561 -0.07020100  12.010000   ; qtot 151.967360
 4562         hx    153    bbb     H1   4562 0.12219000   1.008000   ; qtot 152.089550
 4563         hx    153    bbb     H2   4563 0.12219000   1.008000   ; qtot 152.211740
 4564         c3    153    bbb     C2   4564 -0.07020100  12.010000   ; qtot 152.141539
 4565         hx    153    bbb     H3   4565 0.12219000   1.008000   ; qtot 152.263729
 4566         hx    153    bbb     H4   4566 0.12219000   1.008000   ; qtot 152.385919
 4567         c3    153    bbb     C3   4567 -0.39007700  12.010000   ; qtot 151.995842
 4568         hx    153    bbb     H5   4568 0.14940300   1.008000   ; qtot 152.145245
 4569         hx    153    bbb     H6   4569 0.14940300   1.008000   ; qtot 152.294648
 4570         c3    153    bbb     C4   4570 0.18057300  12.010000   ; qtot 152.475221
 4571         hc    153    bbb     H7   4571 0.01788900   1.008000   ; qtot 152.493110
 4572         hc    153    bbb     H8   4572 0.01788900   1.008000   ; qtot 152.510999
 4573         c3    153    bbb     C5   4573 -0.11337700  12.010000   ; qtot 152.397622
 4574         hc    153    bbb     H9   4574 0.09515400   1.008000   ; qtot 152.492776
 4575         hc    153    bbb    H10   4575 0.09515400   1.008000   ; qtot 152.587930
 4576         c3    153    bbb     C6   4576 -0.11337700  12.010000   ; qtot 152.474553
 4577         hc    153    bbb    H11   4577 0.09515400   1.008000   ; qtot 152.569707
 4578         hc    153    bbb    H12   4578 0.09515400   1.008000   ; qtot 152.664861
 4579         c3    153    bbb     C7   4579 0.21842400  12.010000   ; qtot 152.883285
 4580         h1    153    bbb    H13   4580 0.04500300   1.008000   ; qtot 152.928288
 4581         h1    153    bbb    H14   4581 0.04500300   1.008000   ; qtot 152.973291
 4582         c3    153    bbb     C8   4582 -0.06455200  12.010000   ; qtot 152.908739
 4583         h1    153    bbb    H15   4583 0.13554100   1.008000   ; qtot 153.044280
 4584         h1    153    bbb    H16   4584 0.13554100   1.008000   ; qtot 153.179821
 4585         c3    153    bbb     C9   4585 -0.06455200  12.010000   ; qtot 153.115269
 4586         h1    153    bbb    H17   4586 0.13554100   1.008000   ; qtot 153.250810
 4587         h1    153    bbb    H18   4587 0.13554100   1.008000   ; qtot 153.386351
 4588         os    153    bbb     O1   4588 -0.62587700  16.000000   ; qtot 152.760474
 4589         hn    153    bbb    H19   4589 0.23982500   1.008000   ; qtot 153.000299
; residue  154 bbb rtp bbb q 1.0
 4590         n4    154    bbb     N1   4590 0.03726400  14.010000   ; qtot 153.037563
 4591         c3    154    bbb     C1   4591 -0.07020100  12.010000   ; qtot 152.967362
 4592         hx    154    bbb     H1   4592 0.12219000   1.008000   ; qtot 153.089552
 4593         hx    154    bbb     H2   4593 0.12219000   1.008000   ; qtot 153.211742
 4594         c3    154    bbb     C2   4594 -0.07020100  12.010000   ; qtot 153.141541
 4595         hx    154    bbb     H3   4595 0.12219000   1.008000   ; qtot 153.263731
 4596         hx    154    bbb     H4   4596 0.12219000   1.008000   ; qtot 153.385921
 4597         c3    154    bbb     C3   4597 -0.39007700  12.010000   ; qtot 152.995844
 4598         hx    154    bbb     H5   4598 0.14940300   1.008000   ; qtot 153.145247
 4599         hx    154    bbb     H6   4599 0.14940300   1.008000   ; qtot 153.294650
 4600         c3    154    bbb     C4   4600 0.18057300  12.010000   ; qtot 153.475223
 4601         hc    154    bbb     H7   4601 0.01788900   1.008000   ; qtot 153.493112
 4602         hc    154    bbb     H8   4602 0.01788900   1.008000   ; qtot 153.511001
 4603         c3    154    bbb     C5   4603 -0.11337700  12.010000   ; qtot 153.397624
 4604         hc    154    bbb     H9   4604 0.09515400   1.008000   ; qtot 153.492778
 4605         hc    154    bbb    H10   4605 0.09515400   1.008000   ; qtot 153.587932
 4606         c3    154    bbb     C6   4606 -0.11337700  12.010000   ; qtot 153.474555
 4607         hc    154    bbb    H11   4607 0.09515400   1.008000   ; qtot 153.569709
 4608         hc    154    bbb    H12   4608 0.09515400   1.008000   ; qtot 153.664863
 4609         c3    154    bbb     C7   4609 0.21842400  12.010000   ; qtot 153.883287
 4610         h1    154    bbb    H13   4610 0.04500300   1.008000   ; qtot 153.928290
 4611         h1    154    bbb    H14   4611 0.04500300   1.008000   ; qtot 153.973293
 4612         c3    154    bbb     C8   4612 -0.06455200  12.010000   ; qtot 153.908741
 4613         h1    154    bbb    H15   4613 0.13554100   1.008000   ; qtot 154.044282
 4614         h1    154    bbb    H16   4614 0.13554100   1.008000   ; qtot 154.179823
 4615         c3    154    bbb     C9   4615 -0.06455200  12.010000   ; qtot 154.115271
 4616         h1    154    bbb    H17   4616 0.13554100   1.008000   ; qtot 154.250812
 4617         h1    154    bbb    H18   4617 0.13554100   1.008000   ; qtot 154.386353
 4618         os    154    bbb     O1   4618 -0.62587700  16.000000   ; qtot 153.760476
 4619         hn    154    bbb    H19   4619 0.23982500   1.008000   ; qtot 154.000301
; residue  155 bbb rtp bbb q 1.0
 4620         n4    155    bbb     N1   4620 0.03726400  14.010000   ; qtot 154.037565
 4621         c3    155    bbb     C1   4621 -0.07020100  12.010000   ; qtot 153.967364
 4622         hx    155    bbb     H1   4622 0.12219000   1.008000   ; qtot 154.089554
 4623         hx    155    bbb     H2   4623 0.12219000   1.008000   ; qtot 154.211744
 4624         c3    155    bbb     C2   4624 -0.07020100  12.010000   ; qtot 154.141543
 4625         hx    155    bbb     H3   4625 0.12219000   1.008000   ; qtot 154.263733
 4626         hx    155    bbb     H4   4626 0.12219000   1.008000   ; qtot 154.385923
 4627         c3    155    bbb     C3   4627 -0.39007700  12.010000   ; qtot 153.995846
 4628         hx    155    bbb     H5   4628 0.14940300   1.008000   ; qtot 154.145249
 4629         hx    155    bbb     H6   4629 0.14940300   1.008000   ; qtot 154.294652
 4630         c3    155    bbb     C4   4630 0.18057300  12.010000   ; qtot 154.475225
 4631         hc    155    bbb     H7   4631 0.01788900   1.008000   ; qtot 154.493114
 4632         hc    155    bbb     H8   4632 0.01788900   1.008000   ; qtot 154.511003
 4633         c3    155    bbb     C5   4633 -0.11337700  12.010000   ; qtot 154.397626
 4634         hc    155    bbb     H9   4634 0.09515400   1.008000   ; qtot 154.492780
 4635         hc    155    bbb    H10   4635 0.09515400   1.008000   ; qtot 154.587934
 4636         c3    155    bbb     C6   4636 -0.11337700  12.010000   ; qtot 154.474557
 4637         hc    155    bbb    H11   4637 0.09515400   1.008000   ; qtot 154.569711
 4638         hc    155    bbb    H12   4638 0.09515400   1.008000   ; qtot 154.664865
 4639         c3    155    bbb     C7   4639 0.21842400  12.010000   ; qtot 154.883289
 4640         h1    155    bbb    H13   4640 0.04500300   1.008000   ; qtot 154.928292
 4641         h1    155    bbb    H14   4641 0.04500300   1.008000   ; qtot 154.973295
 4642         c3    155    bbb     C8   4642 -0.06455200  12.010000   ; qtot 154.908743
 4643         h1    155    bbb    H15   4643 0.13554100   1.008000   ; qtot 155.044284
 4644         h1    155    bbb    H16   4644 0.13554100   1.008000   ; qtot 155.179825
 4645         c3    155    bbb     C9   4645 -0.06455200  12.010000   ; qtot 155.115273
 4646         h1    155    bbb    H17   4646 0.13554100   1.008000   ; qtot 155.250814
 4647         h1    155    bbb    H18   4647 0.13554100   1.008000   ; qtot 155.386355
 4648         os    155    bbb     O1   4648 -0.62587700  16.000000   ; qtot 154.760478
 4649         hn    155    bbb    H19   4649 0.23982500   1.008000   ; qtot 155.000303
; residue  156 bbb rtp bbb q 1.0
 4650         n4    156    bbb     N1   4650 0.03726400  14.010000   ; qtot 155.037567
 4651         c3    156    bbb     C1   4651 -0.07020100  12.010000   ; qtot 154.967366
 4652         hx    156    bbb     H1   4652 0.12219000   1.008000   ; qtot 155.089556
 4653         hx    156    bbb     H2   4653 0.12219000   1.008000   ; qtot 155.211746
 4654         c3    156    bbb     C2   4654 -0.07020100  12.010000   ; qtot 155.141545
 4655         hx    156    bbb     H3   4655 0.12219000   1.008000   ; qtot 155.263735
 4656         hx    156    bbb     H4   4656 0.12219000   1.008000   ; qtot 155.385925
 4657         c3    156    bbb     C3   4657 -0.39007700  12.010000   ; qtot 154.995848
 4658         hx    156    bbb     H5   4658 0.14940300   1.008000   ; qtot 155.145251
 4659         hx    156    bbb     H6   4659 0.14940300   1.008000   ; qtot 155.294654
 4660         c3    156    bbb     C4   4660 0.18057300  12.010000   ; qtot 155.475227
 4661         hc    156    bbb     H7   4661 0.01788900   1.008000   ; qtot 155.493116
 4662         hc    156    bbb     H8   4662 0.01788900   1.008000   ; qtot 155.511005
 4663         c3    156    bbb     C5   4663 -0.11337700  12.010000   ; qtot 155.397628
 4664         hc    156    bbb     H9   4664 0.09515400   1.008000   ; qtot 155.492782
 4665         hc    156    bbb    H10   4665 0.09515400   1.008000   ; qtot 155.587936
 4666         c3    156    bbb     C6   4666 -0.11337700  12.010000   ; qtot 155.474559
 4667         hc    156    bbb    H11   4667 0.09515400   1.008000   ; qtot 155.569713
 4668         hc    156    bbb    H12   4668 0.09515400   1.008000   ; qtot 155.664867
 4669         c3    156    bbb     C7   4669 0.21842400  12.010000   ; qtot 155.883291
 4670         h1    156    bbb    H13   4670 0.04500300   1.008000   ; qtot 155.928294
 4671         h1    156    bbb    H14   4671 0.04500300   1.008000   ; qtot 155.973297
 4672         c3    156    bbb     C8   4672 -0.06455200  12.010000   ; qtot 155.908745
 4673         h1    156    bbb    H15   4673 0.13554100   1.008000   ; qtot 156.044286
 4674         h1    156    bbb    H16   4674 0.13554100   1.008000   ; qtot 156.179827
 4675         c3    156    bbb     C9   4675 -0.06455200  12.010000   ; qtot 156.115275
 4676         h1    156    bbb    H17   4676 0.13554100   1.008000   ; qtot 156.250816
 4677         h1    156    bbb    H18   4677 0.13554100   1.008000   ; qtot 156.386357
 4678         os    156    bbb     O1   4678 -0.62587700  16.000000   ; qtot 155.760480
 4679         hn    156    bbb    H19   4679 0.23982500   1.008000   ; qtot 156.000305
; residue  157 bbb rtp bbb q 1.0
 4680         n4    157    bbb     N1   4680 0.03726400  14.010000   ; qtot 156.037569
 4681         c3    157    bbb     C1   4681 -0.07020100  12.010000   ; qtot 155.967368
 4682         hx    157    bbb     H1   4682 0.12219000   1.008000   ; qtot 156.089558
 4683         hx    157    bbb     H2   4683 0.12219000   1.008000   ; qtot 156.211748
 4684         c3    157    bbb     C2   4684 -0.07020100  12.010000   ; qtot 156.141547
 4685         hx    157    bbb     H3   4685 0.12219000   1.008000   ; qtot 156.263737
 4686         hx    157    bbb     H4   4686 0.12219000   1.008000   ; qtot 156.385927
 4687         c3    157    bbb     C3   4687 -0.39007700  12.010000   ; qtot 155.995850
 4688         hx    157    bbb     H5   4688 0.14940300   1.008000   ; qtot 156.145253
 4689         hx    157    bbb     H6   4689 0.14940300   1.008000   ; qtot 156.294656
 4690         c3    157    bbb     C4   4690 0.18057300  12.010000   ; qtot 156.475229
 4691         hc    157    bbb     H7   4691 0.01788900   1.008000   ; qtot 156.493118
 4692         hc    157    bbb     H8   4692 0.01788900   1.008000   ; qtot 156.511007
 4693         c3    157    bbb     C5   4693 -0.11337700  12.010000   ; qtot 156.397630
 4694         hc    157    bbb     H9   4694 0.09515400   1.008000   ; qtot 156.492784
 4695         hc    157    bbb    H10   4695 0.09515400   1.008000   ; qtot 156.587938
 4696         c3    157    bbb     C6   4696 -0.11337700  12.010000   ; qtot 156.474561
 4697         hc    157    bbb    H11   4697 0.09515400   1.008000   ; qtot 156.569715
 4698         hc    157    bbb    H12   4698 0.09515400   1.008000   ; qtot 156.664869
 4699         c3    157    bbb     C7   4699 0.21842400  12.010000   ; qtot 156.883293
 4700         h1    157    bbb    H13   4700 0.04500300   1.008000   ; qtot 156.928296
 4701         h1    157    bbb    H14   4701 0.04500300   1.008000   ; qtot 156.973299
 4702         c3    157    bbb     C8   4702 -0.06455200  12.010000   ; qtot 156.908747
 4703         h1    157    bbb    H15   4703 0.13554100   1.008000   ; qtot 157.044288
 4704         h1    157    bbb    H16   4704 0.13554100   1.008000   ; qtot 157.179829
 4705         c3    157    bbb     C9   4705 -0.06455200  12.010000   ; qtot 157.115277
 4706         h1    157    bbb    H17   4706 0.13554100   1.008000   ; qtot 157.250818
 4707         h1    157    bbb    H18   4707 0.13554100   1.008000   ; qtot 157.386359
 4708         os    157    bbb     O1   4708 -0.62587700  16.000000   ; qtot 156.760482
 4709         hn    157    bbb    H19   4709 0.23982500   1.008000   ; qtot 157.000307
; residue  158 bbb rtp bbb q 1.0
 4710         n4    158    bbb     N1   4710 0.03726400  14.010000   ; qtot 157.037571
 4711         c3    158    bbb     C1   4711 -0.07020100  12.010000   ; qtot 156.967370
 4712         hx    158    bbb     H1   4712 0.12219000   1.008000   ; qtot 157.089560
 4713         hx    158    bbb     H2   4713 0.12219000   1.008000   ; qtot 157.211750
 4714         c3    158    bbb     C2   4714 -0.07020100  12.010000   ; qtot 157.141549
 4715         hx    158    bbb     H3   4715 0.12219000   1.008000   ; qtot 157.263739
 4716         hx    158    bbb     H4   4716 0.12219000   1.008000   ; qtot 157.385929
 4717         c3    158    bbb     C3   4717 -0.39007700  12.010000   ; qtot 156.995852
 4718         hx    158    bbb     H5   4718 0.14940300   1.008000   ; qtot 157.145255
 4719         hx    158    bbb     H6   4719 0.14940300   1.008000   ; qtot 157.294658
 4720         c3    158    bbb     C4   4720 0.18057300  12.010000   ; qtot 157.475231
 4721         hc    158    bbb     H7   4721 0.01788900   1.008000   ; qtot 157.493120
 4722         hc    158    bbb     H8   4722 0.01788900   1.008000   ; qtot 157.511009
 4723         c3    158    bbb     C5   4723 -0.11337700  12.010000   ; qtot 157.397632
 4724         hc    158    bbb     H9   4724 0.09515400   1.008000   ; qtot 157.492786
 4725         hc    158    bbb    H10   4725 0.09515400   1.008000   ; qtot 157.587940
 4726         c3    158    bbb     C6   4726 -0.11337700  12.010000   ; qtot 157.474563
 4727         hc    158    bbb    H11   4727 0.09515400   1.008000   ; qtot 157.569717
 4728         hc    158    bbb    H12   4728 0.09515400   1.008000   ; qtot 157.664871
 4729         c3    158    bbb     C7   4729 0.21842400  12.010000   ; qtot 157.883295
 4730         h1    158    bbb    H13   4730 0.04500300   1.008000   ; qtot 157.928298
 4731         h1    158    bbb    H14   4731 0.04500300   1.008000   ; qtot 157.973301
 4732         c3    158    bbb     C8   4732 -0.06455200  12.010000   ; qtot 157.908749
 4733         h1    158    bbb    H15   4733 0.13554100   1.008000   ; qtot 158.044290
 4734         h1    158    bbb    H16   4734 0.13554100   1.008000   ; qtot 158.179831
 4735         c3    158    bbb     C9   4735 -0.06455200  12.010000   ; qtot 158.115279
 4736         h1    158    bbb    H17   4736 0.13554100   1.008000   ; qtot 158.250820
 4737         h1    158    bbb    H18   4737 0.13554100   1.008000   ; qtot 158.386361
 4738         os    158    bbb     O1   4738 -0.62587700  16.000000   ; qtot 157.760484
 4739         hn    158    bbb    H19   4739 0.23982500   1.008000   ; qtot 158.000309
; residue  159 bbb rtp bbb q 1.0
 4740         n4    159    bbb     N1   4740 0.03726400  14.010000   ; qtot 158.037573
 4741         c3    159    bbb     C1   4741 -0.07020100  12.010000   ; qtot 157.967372
 4742         hx    159    bbb     H1   4742 0.12219000   1.008000   ; qtot 158.089562
 4743         hx    159    bbb     H2   4743 0.12219000   1.008000   ; qtot 158.211752
 4744         c3    159    bbb     C2   4744 -0.07020100  12.010000   ; qtot 158.141551
 4745         hx    159    bbb     H3   4745 0.12219000   1.008000   ; qtot 158.263741
 4746         hx    159    bbb     H4   4746 0.12219000   1.008000   ; qtot 158.385931
 4747         c3    159    bbb     C3   4747 -0.39007700  12.010000   ; qtot 157.995854
 4748         hx    159    bbb     H5   4748 0.14940300   1.008000   ; qtot 158.145257
 4749         hx    159    bbb     H6   4749 0.14940300   1.008000   ; qtot 158.294660
 4750         c3    159    bbb     C4   4750 0.18057300  12.010000   ; qtot 158.475233
 4751         hc    159    bbb     H7   4751 0.01788900   1.008000   ; qtot 158.493122
 4752         hc    159    bbb     H8   4752 0.01788900   1.008000   ; qtot 158.511011
 4753         c3    159    bbb     C5   4753 -0.11337700  12.010000   ; qtot 158.397634
 4754         hc    159    bbb     H9   4754 0.09515400   1.008000   ; qtot 158.492788
 4755         hc    159    bbb    H10   4755 0.09515400   1.008000   ; qtot 158.587942
 4756         c3    159    bbb     C6   4756 -0.11337700  12.010000   ; qtot 158.474565
 4757         hc    159    bbb    H11   4757 0.09515400   1.008000   ; qtot 158.569719
 4758         hc    159    bbb    H12   4758 0.09515400   1.008000   ; qtot 158.664873
 4759         c3    159    bbb     C7   4759 0.21842400  12.010000   ; qtot 158.883297
 4760         h1    159    bbb    H13   4760 0.04500300   1.008000   ; qtot 158.928300
 4761         h1    159    bbb    H14   4761 0.04500300   1.008000   ; qtot 158.973303
 4762         c3    159    bbb     C8   4762 -0.06455200  12.010000   ; qtot 158.908751
 4763         h1    159    bbb    H15   4763 0.13554100   1.008000   ; qtot 159.044292
 4764         h1    159    bbb    H16   4764 0.13554100   1.008000   ; qtot 159.179833
 4765         c3    159    bbb     C9   4765 -0.06455200  12.010000   ; qtot 159.115281
 4766         h1    159    bbb    H17   4766 0.13554100   1.008000   ; qtot 159.250822
 4767         h1    159    bbb    H18   4767 0.13554100   1.008000   ; qtot 159.386363
 4768         os    159    bbb     O1   4768 -0.62587700  16.000000   ; qtot 158.760486
 4769         hn    159    bbb    H19   4769 0.23982500   1.008000   ; qtot 159.000311
; residue  160 bbb rtp bbb q 1.0
 4770         n4    160    bbb     N1   4770 0.03726400  14.010000   ; qtot 159.037575
 4771         c3    160    bbb     C1   4771 -0.07020100  12.010000   ; qtot 158.967374
 4772         hx    160    bbb     H1   4772 0.12219000   1.008000   ; qtot 159.089564
 4773         hx    160    bbb     H2   4773 0.12219000   1.008000   ; qtot 159.211754
 4774         c3    160    bbb     C2   4774 -0.07020100  12.010000   ; qtot 159.141553
 4775         hx    160    bbb     H3   4775 0.12219000   1.008000   ; qtot 159.263743
 4776         hx    160    bbb     H4   4776 0.12219000   1.008000   ; qtot 159.385933
 4777         c3    160    bbb     C3   4777 -0.39007700  12.010000   ; qtot 158.995856
 4778         hx    160    bbb     H5   4778 0.14940300   1.008000   ; qtot 159.145259
 4779         hx    160    bbb     H6   4779 0.14940300   1.008000   ; qtot 159.294662
 4780         c3    160    bbb     C4   4780 0.18057300  12.010000   ; qtot 159.475235
 4781         hc    160    bbb     H7   4781 0.01788900   1.008000   ; qtot 159.493124
 4782         hc    160    bbb     H8   4782 0.01788900   1.008000   ; qtot 159.511013
 4783         c3    160    bbb     C5   4783 -0.11337700  12.010000   ; qtot 159.397636
 4784         hc    160    bbb     H9   4784 0.09515400   1.008000   ; qtot 159.492790
 4785         hc    160    bbb    H10   4785 0.09515400   1.008000   ; qtot 159.587944
 4786         c3    160    bbb     C6   4786 -0.11337700  12.010000   ; qtot 159.474567
 4787         hc    160    bbb    H11   4787 0.09515400   1.008000   ; qtot 159.569721
 4788         hc    160    bbb    H12   4788 0.09515400   1.008000   ; qtot 159.664875
 4789         c3    160    bbb     C7   4789 0.21842400  12.010000   ; qtot 159.883299
 4790         h1    160    bbb    H13   4790 0.04500300   1.008000   ; qtot 159.928302
 4791         h1    160    bbb    H14   4791 0.04500300   1.008000   ; qtot 159.973305
 4792         c3    160    bbb     C8   4792 -0.06455200  12.010000   ; qtot 159.908753
 4793         h1    160    bbb    H15   4793 0.13554100   1.008000   ; qtot 160.044294
 4794         h1    160    bbb    H16   4794 0.13554100   1.008000   ; qtot 160.179835
 4795         c3    160    bbb     C9   4795 -0.06455200  12.010000   ; qtot 160.115283
 4796         h1    160    bbb    H17   4796 0.13554100   1.008000   ; qtot 160.250824
 4797         h1    160    bbb    H18   4797 0.13554100   1.008000   ; qtot 160.386365
 4798         os    160    bbb     O1   4798 -0.62587700  16.000000   ; qtot 159.760488
 4799         hn    160    bbb    H19   4799 0.23982500   1.008000   ; qtot 160.000313
; residue  161 bbb rtp bbb q 1.0
 4800         n4    161    bbb     N1   4800 0.03726400  14.010000   ; qtot 160.037577
 4801         c3    161    bbb     C1   4801 -0.07020100  12.010000   ; qtot 159.967376
 4802         hx    161    bbb     H1   4802 0.12219000   1.008000   ; qtot 160.089566
 4803         hx    161    bbb     H2   4803 0.12219000   1.008000   ; qtot 160.211756
 4804         c3    161    bbb     C2   4804 -0.07020100  12.010000   ; qtot 160.141555
 4805         hx    161    bbb     H3   4805 0.12219000   1.008000   ; qtot 160.263745
 4806         hx    161    bbb     H4   4806 0.12219000   1.008000   ; qtot 160.385935
 4807         c3    161    bbb     C3   4807 -0.39007700  12.010000   ; qtot 159.995858
 4808         hx    161    bbb     H5   4808 0.14940300   1.008000   ; qtot 160.145261
 4809         hx    161    bbb     H6   4809 0.14940300   1.008000   ; qtot 160.294664
 4810         c3    161    bbb     C4   4810 0.18057300  12.010000   ; qtot 160.475237
 4811         hc    161    bbb     H7   4811 0.01788900   1.008000   ; qtot 160.493126
 4812         hc    161    bbb     H8   4812 0.01788900   1.008000   ; qtot 160.511015
 4813         c3    161    bbb     C5   4813 -0.11337700  12.010000   ; qtot 160.397638
 4814         hc    161    bbb     H9   4814 0.09515400   1.008000   ; qtot 160.492792
 4815         hc    161    bbb    H10   4815 0.09515400   1.008000   ; qtot 160.587946
 4816         c3    161    bbb     C6   4816 -0.11337700  12.010000   ; qtot 160.474569
 4817         hc    161    bbb    H11   4817 0.09515400   1.008000   ; qtot 160.569723
 4818         hc    161    bbb    H12   4818 0.09515400   1.008000   ; qtot 160.664877
 4819         c3    161    bbb     C7   4819 0.21842400  12.010000   ; qtot 160.883301
 4820         h1    161    bbb    H13   4820 0.04500300   1.008000   ; qtot 160.928304
 4821         h1    161    bbb    H14   4821 0.04500300   1.008000   ; qtot 160.973307
 4822         c3    161    bbb     C8   4822 -0.06455200  12.010000   ; qtot 160.908755
 4823         h1    161    bbb    H15   4823 0.13554100   1.008000   ; qtot 161.044296
 4824         h1    161    bbb    H16   4824 0.13554100   1.008000   ; qtot 161.179837
 4825         c3    161    bbb     C9   4825 -0.06455200  12.010000   ; qtot 161.115285
 4826         h1    161    bbb    H17   4826 0.13554100   1.008000   ; qtot 161.250826
 4827         h1    161    bbb    H18   4827 0.13554100   1.008000   ; qtot 161.386367
 4828         os    161    bbb     O1   4828 -0.62587700  16.000000   ; qtot 160.760490
 4829         hn    161    bbb    H19   4829 0.23982500   1.008000   ; qtot 161.000315
; residue  162 bbb rtp bbb q 1.0
 4830         n4    162    bbb     N1   4830 0.03726400  14.010000   ; qtot 161.037579
 4831         c3    162    bbb     C1   4831 -0.07020100  12.010000   ; qtot 160.967378
 4832         hx    162    bbb     H1   4832 0.12219000   1.008000   ; qtot 161.089568
 4833         hx    162    bbb     H2   4833 0.12219000   1.008000   ; qtot 161.211758
 4834         c3    162    bbb     C2   4834 -0.07020100  12.010000   ; qtot 161.141557
 4835         hx    162    bbb     H3   4835 0.12219000   1.008000   ; qtot 161.263747
 4836         hx    162    bbb     H4   4836 0.12219000   1.008000   ; qtot 161.385937
 4837         c3    162    bbb     C3   4837 -0.39007700  12.010000   ; qtot 160.995860
 4838         hx    162    bbb     H5   4838 0.14940300   1.008000   ; qtot 161.145263
 4839         hx    162    bbb     H6   4839 0.14940300   1.008000   ; qtot 161.294666
 4840         c3    162    bbb     C4   4840 0.18057300  12.010000   ; qtot 161.475239
 4841         hc    162    bbb     H7   4841 0.01788900   1.008000   ; qtot 161.493128
 4842         hc    162    bbb     H8   4842 0.01788900   1.008000   ; qtot 161.511017
 4843         c3    162    bbb     C5   4843 -0.11337700  12.010000   ; qtot 161.397640
 4844         hc    162    bbb     H9   4844 0.09515400   1.008000   ; qtot 161.492794
 4845         hc    162    bbb    H10   4845 0.09515400   1.008000   ; qtot 161.587948
 4846         c3    162    bbb     C6   4846 -0.11337700  12.010000   ; qtot 161.474571
 4847         hc    162    bbb    H11   4847 0.09515400   1.008000   ; qtot 161.569725
 4848         hc    162    bbb    H12   4848 0.09515400   1.008000   ; qtot 161.664879
 4849         c3    162    bbb     C7   4849 0.21842400  12.010000   ; qtot 161.883303
 4850         h1    162    bbb    H13   4850 0.04500300   1.008000   ; qtot 161.928306
 4851         h1    162    bbb    H14   4851 0.04500300   1.008000   ; qtot 161.973309
 4852         c3    162    bbb     C8   4852 -0.06455200  12.010000   ; qtot 161.908757
 4853         h1    162    bbb    H15   4853 0.13554100   1.008000   ; qtot 162.044298
 4854         h1    162    bbb    H16   4854 0.13554100   1.008000   ; qtot 162.179839
 4855         c3    162    bbb     C9   4855 -0.06455200  12.010000   ; qtot 162.115287
 4856         h1    162    bbb    H17   4856 0.13554100   1.008000   ; qtot 162.250828
 4857         h1    162    bbb    H18   4857 0.13554100   1.008000   ; qtot 162.386369
 4858         os    162    bbb     O1   4858 -0.62587700  16.000000   ; qtot 161.760492
 4859         hn    162    bbb    H19   4859 0.23982500   1.008000   ; qtot 162.000317
; residue  163 bbb rtp bbb q 1.0
 4860         n4    163    bbb     N1   4860 0.03726400  14.010000   ; qtot 162.037581
 4861         c3    163    bbb     C1   4861 -0.07020100  12.010000   ; qtot 161.967380
 4862         hx    163    bbb     H1   4862 0.12219000   1.008000   ; qtot 162.089570
 4863         hx    163    bbb     H2   4863 0.12219000   1.008000   ; qtot 162.211760
 4864         c3    163    bbb     C2   4864 -0.07020100  12.010000   ; qtot 162.141559
 4865         hx    163    bbb     H3   4865 0.12219000   1.008000   ; qtot 162.263749
 4866         hx    163    bbb     H4   4866 0.12219000   1.008000   ; qtot 162.385939
 4867         c3    163    bbb     C3   4867 -0.39007700  12.010000   ; qtot 161.995862
 4868         hx    163    bbb     H5   4868 0.14940300   1.008000   ; qtot 162.145265
 4869         hx    163    bbb     H6   4869 0.14940300   1.008000   ; qtot 162.294668
 4870         c3    163    bbb     C4   4870 0.18057300  12.010000   ; qtot 162.475241
 4871         hc    163    bbb     H7   4871 0.01788900   1.008000   ; qtot 162.493130
 4872         hc    163    bbb     H8   4872 0.01788900   1.008000   ; qtot 162.511019
 4873         c3    163    bbb     C5   4873 -0.11337700  12.010000   ; qtot 162.397642
 4874         hc    163    bbb     H9   4874 0.09515400   1.008000   ; qtot 162.492796
 4875         hc    163    bbb    H10   4875 0.09515400   1.008000   ; qtot 162.587950
 4876         c3    163    bbb     C6   4876 -0.11337700  12.010000   ; qtot 162.474573
 4877         hc    163    bbb    H11   4877 0.09515400   1.008000   ; qtot 162.569727
 4878         hc    163    bbb    H12   4878 0.09515400   1.008000   ; qtot 162.664881
 4879         c3    163    bbb     C7   4879 0.21842400  12.010000   ; qtot 162.883305
 4880         h1    163    bbb    H13   4880 0.04500300   1.008000   ; qtot 162.928308
 4881         h1    163    bbb    H14   4881 0.04500300   1.008000   ; qtot 162.973311
 4882         c3    163    bbb     C8   4882 -0.06455200  12.010000   ; qtot 162.908759
 4883         h1    163    bbb    H15   4883 0.13554100   1.008000   ; qtot 163.044300
 4884         h1    163    bbb    H16   4884 0.13554100   1.008000   ; qtot 163.179841
 4885         c3    163    bbb     C9   4885 -0.06455200  12.010000   ; qtot 163.115289
 4886         h1    163    bbb    H17   4886 0.13554100   1.008000   ; qtot 163.250830
 4887         h1    163    bbb    H18   4887 0.13554100   1.008000   ; qtot 163.386371
 4888         os    163    bbb     O1   4888 -0.62587700  16.000000   ; qtot 162.760494
 4889         hn    163    bbb    H19   4889 0.23982500   1.008000   ; qtot 163.000319
; residue  164 bbb rtp bbb q 1.0
 4890         n4    164    bbb     N1   4890 0.03726400  14.010000   ; qtot 163.037583
 4891         c3    164    bbb     C1   4891 -0.07020100  12.010000   ; qtot 162.967382
 4892         hx    164    bbb     H1   4892 0.12219000   1.008000   ; qtot 163.089572
 4893         hx    164    bbb     H2   4893 0.12219000   1.008000   ; qtot 163.211762
 4894         c3    164    bbb     C2   4894 -0.07020100  12.010000   ; qtot 163.141561
 4895         hx    164    bbb     H3   4895 0.12219000   1.008000   ; qtot 163.263751
 4896         hx    164    bbb     H4   4896 0.12219000   1.008000   ; qtot 163.385941
 4897         c3    164    bbb     C3   4897 -0.39007700  12.010000   ; qtot 162.995864
 4898         hx    164    bbb     H5   4898 0.14940300   1.008000   ; qtot 163.145267
 4899         hx    164    bbb     H6   4899 0.14940300   1.008000   ; qtot 163.294670
 4900         c3    164    bbb     C4   4900 0.18057300  12.010000   ; qtot 163.475243
 4901         hc    164    bbb     H7   4901 0.01788900   1.008000   ; qtot 163.493132
 4902         hc    164    bbb     H8   4902 0.01788900   1.008000   ; qtot 163.511021
 4903         c3    164    bbb     C5   4903 -0.11337700  12.010000   ; qtot 163.397644
 4904         hc    164    bbb     H9   4904 0.09515400   1.008000   ; qtot 163.492798
 4905         hc    164    bbb    H10   4905 0.09515400   1.008000   ; qtot 163.587952
 4906         c3    164    bbb     C6   4906 -0.11337700  12.010000   ; qtot 163.474575
 4907         hc    164    bbb    H11   4907 0.09515400   1.008000   ; qtot 163.569729
 4908         hc    164    bbb    H12   4908 0.09515400   1.008000   ; qtot 163.664883
 4909         c3    164    bbb     C7   4909 0.21842400  12.010000   ; qtot 163.883307
 4910         h1    164    bbb    H13   4910 0.04500300   1.008000   ; qtot 163.928310
 4911         h1    164    bbb    H14   4911 0.04500300   1.008000   ; qtot 163.973313
 4912         c3    164    bbb     C8   4912 -0.06455200  12.010000   ; qtot 163.908761
 4913         h1    164    bbb    H15   4913 0.13554100   1.008000   ; qtot 164.044302
 4914         h1    164    bbb    H16   4914 0.13554100   1.008000   ; qtot 164.179843
 4915         c3    164    bbb     C9   4915 -0.06455200  12.010000   ; qtot 164.115291
 4916         h1    164    bbb    H17   4916 0.13554100   1.008000   ; qtot 164.250832
 4917         h1    164    bbb    H18   4917 0.13554100   1.008000   ; qtot 164.386373
 4918         os    164    bbb     O1   4918 -0.62587700  16.000000   ; qtot 163.760496
 4919         hn    164    bbb    H19   4919 0.23982500   1.008000   ; qtot 164.000321
; residue  165 bbb rtp bbb q 1.0
 4920         n4    165    bbb     N1   4920 0.03726400  14.010000   ; qtot 164.037585
 4921         c3    165    bbb     C1   4921 -0.07020100  12.010000   ; qtot 163.967384
 4922         hx    165    bbb     H1   4922 0.12219000   1.008000   ; qtot 164.089574
 4923         hx    165    bbb     H2   4923 0.12219000   1.008000   ; qtot 164.211764
 4924         c3    165    bbb     C2   4924 -0.07020100  12.010000   ; qtot 164.141563
 4925         hx    165    bbb     H3   4925 0.12219000   1.008000   ; qtot 164.263753
 4926         hx    165    bbb     H4   4926 0.12219000   1.008000   ; qtot 164.385943
 4927         c3    165    bbb     C3   4927 -0.39007700  12.010000   ; qtot 163.995866
 4928         hx    165    bbb     H5   4928 0.14940300   1.008000   ; qtot 164.145269
 4929         hx    165    bbb     H6   4929 0.14940300   1.008000   ; qtot 164.294672
 4930         c3    165    bbb     C4   4930 0.18057300  12.010000   ; qtot 164.475245
 4931         hc    165    bbb     H7   4931 0.01788900   1.008000   ; qtot 164.493134
 4932         hc    165    bbb     H8   4932 0.01788900   1.008000   ; qtot 164.511023
 4933         c3    165    bbb     C5   4933 -0.11337700  12.010000   ; qtot 164.397646
 4934         hc    165    bbb     H9   4934 0.09515400   1.008000   ; qtot 164.492800
 4935         hc    165    bbb    H10   4935 0.09515400   1.008000   ; qtot 164.587954
 4936         c3    165    bbb     C6   4936 -0.11337700  12.010000   ; qtot 164.474577
 4937         hc    165    bbb    H11   4937 0.09515400   1.008000   ; qtot 164.569731
 4938         hc    165    bbb    H12   4938 0.09515400   1.008000   ; qtot 164.664885
 4939         c3    165    bbb     C7   4939 0.21842400  12.010000   ; qtot 164.883309
 4940         h1    165    bbb    H13   4940 0.04500300   1.008000   ; qtot 164.928312
 4941         h1    165    bbb    H14   4941 0.04500300   1.008000   ; qtot 164.973315
 4942         c3    165    bbb     C8   4942 -0.06455200  12.010000   ; qtot 164.908763
 4943         h1    165    bbb    H15   4943 0.13554100   1.008000   ; qtot 165.044304
 4944         h1    165    bbb    H16   4944 0.13554100   1.008000   ; qtot 165.179845
 4945         c3    165    bbb     C9   4945 -0.06455200  12.010000   ; qtot 165.115293
 4946         h1    165    bbb    H17   4946 0.13554100   1.008000   ; qtot 165.250834
 4947         h1    165    bbb    H18   4947 0.13554100   1.008000   ; qtot 165.386375
 4948         os    165    bbb     O1   4948 -0.62587700  16.000000   ; qtot 164.760498
 4949         hn    165    bbb    H19   4949 0.23982500   1.008000   ; qtot 165.000323
; residue  166 bbb rtp bbb q 1.0
 4950         n4    166    bbb     N1   4950 0.03726400  14.010000   ; qtot 165.037587
 4951         c3    166    bbb     C1   4951 -0.07020100  12.010000   ; qtot 164.967386
 4952         hx    166    bbb     H1   4952 0.12219000   1.008000   ; qtot 165.089576
 4953         hx    166    bbb     H2   4953 0.12219000   1.008000   ; qtot 165.211766
 4954         c3    166    bbb     C2   4954 -0.07020100  12.010000   ; qtot 165.141565
 4955         hx    166    bbb     H3   4955 0.12219000   1.008000   ; qtot 165.263755
 4956         hx    166    bbb     H4   4956 0.12219000   1.008000   ; qtot 165.385945
 4957         c3    166    bbb     C3   4957 -0.39007700  12.010000   ; qtot 164.995868
 4958         hx    166    bbb     H5   4958 0.14940300   1.008000   ; qtot 165.145271
 4959         hx    166    bbb     H6   4959 0.14940300   1.008000   ; qtot 165.294674
 4960         c3    166    bbb     C4   4960 0.18057300  12.010000   ; qtot 165.475247
 4961         hc    166    bbb     H7   4961 0.01788900   1.008000   ; qtot 165.493136
 4962         hc    166    bbb     H8   4962 0.01788900   1.008000   ; qtot 165.511025
 4963         c3    166    bbb     C5   4963 -0.11337700  12.010000   ; qtot 165.397648
 4964         hc    166    bbb     H9   4964 0.09515400   1.008000   ; qtot 165.492802
 4965         hc    166    bbb    H10   4965 0.09515400   1.008000   ; qtot 165.587956
 4966         c3    166    bbb     C6   4966 -0.11337700  12.010000   ; qtot 165.474579
 4967         hc    166    bbb    H11   4967 0.09515400   1.008000   ; qtot 165.569733
 4968         hc    166    bbb    H12   4968 0.09515400   1.008000   ; qtot 165.664887
 4969         c3    166    bbb     C7   4969 0.21842400  12.010000   ; qtot 165.883311
 4970         h1    166    bbb    H13   4970 0.04500300   1.008000   ; qtot 165.928314
 4971         h1    166    bbb    H14   4971 0.04500300   1.008000   ; qtot 165.973317
 4972         c3    166    bbb     C8   4972 -0.06455200  12.010000   ; qtot 165.908765
 4973         h1    166    bbb    H15   4973 0.13554100   1.008000   ; qtot 166.044306
 4974         h1    166    bbb    H16   4974 0.13554100   1.008000   ; qtot 166.179847
 4975         c3    166    bbb     C9   4975 -0.06455200  12.010000   ; qtot 166.115295
 4976         h1    166    bbb    H17   4976 0.13554100   1.008000   ; qtot 166.250836
 4977         h1    166    bbb    H18   4977 0.13554100   1.008000   ; qtot 166.386377
 4978         os    166    bbb     O1   4978 -0.62587700  16.000000   ; qtot 165.760500
 4979         hn    166    bbb    H19   4979 0.23982500   1.008000   ; qtot 166.000325
; residue  167 bbb rtp bbb q 1.0
 4980         n4    167    bbb     N1   4980 0.03726400  14.010000   ; qtot 166.037589
 4981         c3    167    bbb     C1   4981 -0.07020100  12.010000   ; qtot 165.967388
 4982         hx    167    bbb     H1   4982 0.12219000   1.008000   ; qtot 166.089578
 4983         hx    167    bbb     H2   4983 0.12219000   1.008000   ; qtot 166.211768
 4984         c3    167    bbb     C2   4984 -0.07020100  12.010000   ; qtot 166.141567
 4985         hx    167    bbb     H3   4985 0.12219000   1.008000   ; qtot 166.263757
 4986         hx    167    bbb     H4   4986 0.12219000   1.008000   ; qtot 166.385947
 4987         c3    167    bbb     C3   4987 -0.39007700  12.010000   ; qtot 165.995870
 4988         hx    167    bbb     H5   4988 0.14940300   1.008000   ; qtot 166.145273
 4989         hx    167    bbb     H6   4989 0.14940300   1.008000   ; qtot 166.294676
 4990         c3    167    bbb     C4   4990 0.18057300  12.010000   ; qtot 166.475249
 4991         hc    167    bbb     H7   4991 0.01788900   1.008000   ; qtot 166.493138
 4992         hc    167    bbb     H8   4992 0.01788900   1.008000   ; qtot 166.511027
 4993         c3    167    bbb     C5   4993 -0.11337700  12.010000   ; qtot 166.397650
 4994         hc    167    bbb     H9   4994 0.09515400   1.008000   ; qtot 166.492804
 4995         hc    167    bbb    H10   4995 0.09515400   1.008000   ; qtot 166.587958
 4996         c3    167    bbb     C6   4996 -0.11337700  12.010000   ; qtot 166.474581
 4997         hc    167    bbb    H11   4997 0.09515400   1.008000   ; qtot 166.569735
 4998         hc    167    bbb    H12   4998 0.09515400   1.008000   ; qtot 166.664889
 4999         c3    167    bbb     C7   4999 0.21842400  12.010000   ; qtot 166.883313
 5000         h1    167    bbb    H13   5000 0.04500300   1.008000   ; qtot 166.928316
 5001         h1    167    bbb    H14   5001 0.04500300   1.008000   ; qtot 166.973319
 5002         c3    167    bbb     C8   5002 -0.06455200  12.010000   ; qtot 166.908767
 5003         h1    167    bbb    H15   5003 0.13554100   1.008000   ; qtot 167.044308
 5004         h1    167    bbb    H16   5004 0.13554100   1.008000   ; qtot 167.179849
 5005         c3    167    bbb     C9   5005 -0.06455200  12.010000   ; qtot 167.115297
 5006         h1    167    bbb    H17   5006 0.13554100   1.008000   ; qtot 167.250838
 5007         h1    167    bbb    H18   5007 0.13554100   1.008000   ; qtot 167.386379
 5008         os    167    bbb     O1   5008 -0.62587700  16.000000   ; qtot 166.760502
 5009         hn    167    bbb    H19   5009 0.23982500   1.008000   ; qtot 167.000327
; residue  168 bbb rtp bbb q 1.0
 5010         n4    168    bbb     N1   5010 0.03726400  14.010000   ; qtot 167.037591
 5011         c3    168    bbb     C1   5011 -0.07020100  12.010000   ; qtot 166.967390
 5012         hx    168    bbb     H1   5012 0.12219000   1.008000   ; qtot 167.089580
 5013         hx    168    bbb     H2   5013 0.12219000   1.008000   ; qtot 167.211770
 5014         c3    168    bbb     C2   5014 -0.07020100  12.010000   ; qtot 167.141569
 5015         hx    168    bbb     H3   5015 0.12219000   1.008000   ; qtot 167.263759
 5016         hx    168    bbb     H4   5016 0.12219000   1.008000   ; qtot 167.385949
 5017         c3    168    bbb     C3   5017 -0.39007700  12.010000   ; qtot 166.995872
 5018         hx    168    bbb     H5   5018 0.14940300   1.008000   ; qtot 167.145275
 5019         hx    168    bbb     H6   5019 0.14940300   1.008000   ; qtot 167.294678
 5020         c3    168    bbb     C4   5020 0.18057300  12.010000   ; qtot 167.475251
 5021         hc    168    bbb     H7   5021 0.01788900   1.008000   ; qtot 167.493140
 5022         hc    168    bbb     H8   5022 0.01788900   1.008000   ; qtot 167.511029
 5023         c3    168    bbb     C5   5023 -0.11337700  12.010000   ; qtot 167.397652
 5024         hc    168    bbb     H9   5024 0.09515400   1.008000   ; qtot 167.492806
 5025         hc    168    bbb    H10   5025 0.09515400   1.008000   ; qtot 167.587960
 5026         c3    168    bbb     C6   5026 -0.11337700  12.010000   ; qtot 167.474583
 5027         hc    168    bbb    H11   5027 0.09515400   1.008000   ; qtot 167.569737
 5028         hc    168    bbb    H12   5028 0.09515400   1.008000   ; qtot 167.664891
 5029         c3    168    bbb     C7   5029 0.21842400  12.010000   ; qtot 167.883315
 5030         h1    168    bbb    H13   5030 0.04500300   1.008000   ; qtot 167.928318
 5031         h1    168    bbb    H14   5031 0.04500300   1.008000   ; qtot 167.973321
 5032         c3    168    bbb     C8   5032 -0.06455200  12.010000   ; qtot 167.908769
 5033         h1    168    bbb    H15   5033 0.13554100   1.008000   ; qtot 168.044310
 5034         h1    168    bbb    H16   5034 0.13554100   1.008000   ; qtot 168.179851
 5035         c3    168    bbb     C9   5035 -0.06455200  12.010000   ; qtot 168.115299
 5036         h1    168    bbb    H17   5036 0.13554100   1.008000   ; qtot 168.250840
 5037         h1    168    bbb    H18   5037 0.13554100   1.008000   ; qtot 168.386381
 5038         os    168    bbb     O1   5038 -0.62587700  16.000000   ; qtot 167.760504
 5039         hn    168    bbb    H19   5039 0.23982500   1.008000   ; qtot 168.000329
; residue  169 bbb rtp bbb q 1.0
 5040         n4    169    bbb     N1   5040 0.03726400  14.010000   ; qtot 168.037593
 5041         c3    169    bbb     C1   5041 -0.07020100  12.010000   ; qtot 167.967392
 5042         hx    169    bbb     H1   5042 0.12219000   1.008000   ; qtot 168.089582
 5043         hx    169    bbb     H2   5043 0.12219000   1.008000   ; qtot 168.211772
 5044         c3    169    bbb     C2   5044 -0.07020100  12.010000   ; qtot 168.141571
 5045         hx    169    bbb     H3   5045 0.12219000   1.008000   ; qtot 168.263761
 5046         hx    169    bbb     H4   5046 0.12219000   1.008000   ; qtot 168.385951
 5047         c3    169    bbb     C3   5047 -0.39007700  12.010000   ; qtot 167.995874
 5048         hx    169    bbb     H5   5048 0.14940300   1.008000   ; qtot 168.145277
 5049         hx    169    bbb     H6   5049 0.14940300   1.008000   ; qtot 168.294680
 5050         c3    169    bbb     C4   5050 0.18057300  12.010000   ; qtot 168.475253
 5051         hc    169    bbb     H7   5051 0.01788900   1.008000   ; qtot 168.493142
 5052         hc    169    bbb     H8   5052 0.01788900   1.008000   ; qtot 168.511031
 5053         c3    169    bbb     C5   5053 -0.11337700  12.010000   ; qtot 168.397654
 5054         hc    169    bbb     H9   5054 0.09515400   1.008000   ; qtot 168.492808
 5055         hc    169    bbb    H10   5055 0.09515400   1.008000   ; qtot 168.587962
 5056         c3    169    bbb     C6   5056 -0.11337700  12.010000   ; qtot 168.474585
 5057         hc    169    bbb    H11   5057 0.09515400   1.008000   ; qtot 168.569739
 5058         hc    169    bbb    H12   5058 0.09515400   1.008000   ; qtot 168.664893
 5059         c3    169    bbb     C7   5059 0.21842400  12.010000   ; qtot 168.883317
 5060         h1    169    bbb    H13   5060 0.04500300   1.008000   ; qtot 168.928320
 5061         h1    169    bbb    H14   5061 0.04500300   1.008000   ; qtot 168.973323
 5062         c3    169    bbb     C8   5062 -0.06455200  12.010000   ; qtot 168.908771
 5063         h1    169    bbb    H15   5063 0.13554100   1.008000   ; qtot 169.044312
 5064         h1    169    bbb    H16   5064 0.13554100   1.008000   ; qtot 169.179853
 5065         c3    169    bbb     C9   5065 -0.06455200  12.010000   ; qtot 169.115301
 5066         h1    169    bbb    H17   5066 0.13554100   1.008000   ; qtot 169.250842
 5067         h1    169    bbb    H18   5067 0.13554100   1.008000   ; qtot 169.386383
 5068         os    169    bbb     O1   5068 -0.62587700  16.000000   ; qtot 168.760506
 5069         hn    169    bbb    H19   5069 0.23982500   1.008000   ; qtot 169.000331
; residue  170 bbb rtp bbb q 1.0
 5070         n4    170    bbb     N1   5070 0.03726400  14.010000   ; qtot 169.037595
 5071         c3    170    bbb     C1   5071 -0.07020100  12.010000   ; qtot 168.967394
 5072         hx    170    bbb     H1   5072 0.12219000   1.008000   ; qtot 169.089584
 5073         hx    170    bbb     H2   5073 0.12219000   1.008000   ; qtot 169.211774
 5074         c3    170    bbb     C2   5074 -0.07020100  12.010000   ; qtot 169.141573
 5075         hx    170    bbb     H3   5075 0.12219000   1.008000   ; qtot 169.263763
 5076         hx    170    bbb     H4   5076 0.12219000   1.008000   ; qtot 169.385953
 5077         c3    170    bbb     C3   5077 -0.39007700  12.010000   ; qtot 168.995876
 5078         hx    170    bbb     H5   5078 0.14940300   1.008000   ; qtot 169.145279
 5079         hx    170    bbb     H6   5079 0.14940300   1.008000   ; qtot 169.294682
 5080         c3    170    bbb     C4   5080 0.18057300  12.010000   ; qtot 169.475255
 5081         hc    170    bbb     H7   5081 0.01788900   1.008000   ; qtot 169.493144
 5082         hc    170    bbb     H8   5082 0.01788900   1.008000   ; qtot 169.511033
 5083         c3    170    bbb     C5   5083 -0.11337700  12.010000   ; qtot 169.397656
 5084         hc    170    bbb     H9   5084 0.09515400   1.008000   ; qtot 169.492810
 5085         hc    170    bbb    H10   5085 0.09515400   1.008000   ; qtot 169.587964
 5086         c3    170    bbb     C6   5086 -0.11337700  12.010000   ; qtot 169.474587
 5087         hc    170    bbb    H11   5087 0.09515400   1.008000   ; qtot 169.569741
 5088         hc    170    bbb    H12   5088 0.09515400   1.008000   ; qtot 169.664895
 5089         c3    170    bbb     C7   5089 0.21842400  12.010000   ; qtot 169.883319
 5090         h1    170    bbb    H13   5090 0.04500300   1.008000   ; qtot 169.928322
 5091         h1    170    bbb    H14   5091 0.04500300   1.008000   ; qtot 169.973325
 5092         c3    170    bbb     C8   5092 -0.06455200  12.010000   ; qtot 169.908773
 5093         h1    170    bbb    H15   5093 0.13554100   1.008000   ; qtot 170.044314
 5094         h1    170    bbb    H16   5094 0.13554100   1.008000   ; qtot 170.179855
 5095         c3    170    bbb     C9   5095 -0.06455200  12.010000   ; qtot 170.115303
 5096         h1    170    bbb    H17   5096 0.13554100   1.008000   ; qtot 170.250844
 5097         h1    170    bbb    H18   5097 0.13554100   1.008000   ; qtot 170.386385
 5098         os    170    bbb     O1   5098 -0.62587700  16.000000   ; qtot 169.760507
 5099         hn    170    bbb    H19   5099 0.23982500   1.008000   ; qtot 170.000332
; residue  171 bbb rtp bbb q 1.0
 5100         n4    171    bbb     N1   5100 0.03726400  14.010000   ; qtot 170.037596
 5101         c3    171    bbb     C1   5101 -0.07020100  12.010000   ; qtot 169.967395
 5102         hx    171    bbb     H1   5102 0.12219000   1.008000   ; qtot 170.089585
 5103         hx    171    bbb     H2   5103 0.12219000   1.008000   ; qtot 170.211775
 5104         c3    171    bbb     C2   5104 -0.07020100  12.010000   ; qtot 170.141574
 5105         hx    171    bbb     H3   5105 0.12219000   1.008000   ; qtot 170.263764
 5106         hx    171    bbb     H4   5106 0.12219000   1.008000   ; qtot 170.385954
 5107         c3    171    bbb     C3   5107 -0.39007700  12.010000   ; qtot 169.995877
 5108         hx    171    bbb     H5   5108 0.14940300   1.008000   ; qtot 170.145280
 5109         hx    171    bbb     H6   5109 0.14940300   1.008000   ; qtot 170.294683
 5110         c3    171    bbb     C4   5110 0.18057300  12.010000   ; qtot 170.475256
 5111         hc    171    bbb     H7   5111 0.01788900   1.008000   ; qtot 170.493145
 5112         hc    171    bbb     H8   5112 0.01788900   1.008000   ; qtot 170.511034
 5113         c3    171    bbb     C5   5113 -0.11337700  12.010000   ; qtot 170.397657
 5114         hc    171    bbb     H9   5114 0.09515400   1.008000   ; qtot 170.492811
 5115         hc    171    bbb    H10   5115 0.09515400   1.008000   ; qtot 170.587965
 5116         c3    171    bbb     C6   5116 -0.11337700  12.010000   ; qtot 170.474588
 5117         hc    171    bbb    H11   5117 0.09515400   1.008000   ; qtot 170.569742
 5118         hc    171    bbb    H12   5118 0.09515400   1.008000   ; qtot 170.664896
 5119         c3    171    bbb     C7   5119 0.21842400  12.010000   ; qtot 170.883320
 5120         h1    171    bbb    H13   5120 0.04500300   1.008000   ; qtot 170.928323
 5121         h1    171    bbb    H14   5121 0.04500300   1.008000   ; qtot 170.973326
 5122         c3    171    bbb     C8   5122 -0.06455200  12.010000   ; qtot 170.908774
 5123         h1    171    bbb    H15   5123 0.13554100   1.008000   ; qtot 171.044315
 5124         h1    171    bbb    H16   5124 0.13554100   1.008000   ; qtot 171.179856
 5125         c3    171    bbb     C9   5125 -0.06455200  12.010000   ; qtot 171.115304
 5126         h1    171    bbb    H17   5126 0.13554100   1.008000   ; qtot 171.250845
 5127         h1    171    bbb    H18   5127 0.13554100   1.008000   ; qtot 171.386386
 5128         os    171    bbb     O1   5128 -0.62587700  16.000000   ; qtot 170.760509
 5129         hn    171    bbb    H19   5129 0.23982500   1.008000   ; qtot 171.000334
; residue  172 bbb rtp bbb q 1.0
 5130         n4    172    bbb     N1   5130 0.03726400  14.010000   ; qtot 171.037598
 5131         c3    172    bbb     C1   5131 -0.07020100  12.010000   ; qtot 170.967397
 5132         hx    172    bbb     H1   5132 0.12219000   1.008000   ; qtot 171.089587
 5133         hx    172    bbb     H2   5133 0.12219000   1.008000   ; qtot 171.211777
 5134         c3    172    bbb     C2   5134 -0.07020100  12.010000   ; qtot 171.141576
 5135         hx    172    bbb     H3   5135 0.12219000   1.008000   ; qtot 171.263766
 5136         hx    172    bbb     H4   5136 0.12219000   1.008000   ; qtot 171.385956
 5137         c3    172    bbb     C3   5137 -0.39007700  12.010000   ; qtot 170.995879
 5138         hx    172    bbb     H5   5138 0.14940300   1.008000   ; qtot 171.145282
 5139         hx    172    bbb     H6   5139 0.14940300   1.008000   ; qtot 171.294685
 5140         c3    172    bbb     C4   5140 0.18057300  12.010000   ; qtot 171.475258
 5141         hc    172    bbb     H7   5141 0.01788900   1.008000   ; qtot 171.493147
 5142         hc    172    bbb     H8   5142 0.01788900   1.008000   ; qtot 171.511036
 5143         c3    172    bbb     C5   5143 -0.11337700  12.010000   ; qtot 171.397659
 5144         hc    172    bbb     H9   5144 0.09515400   1.008000   ; qtot 171.492813
 5145         hc    172    bbb    H10   5145 0.09515400   1.008000   ; qtot 171.587967
 5146         c3    172    bbb     C6   5146 -0.11337700  12.010000   ; qtot 171.474590
 5147         hc    172    bbb    H11   5147 0.09515400   1.008000   ; qtot 171.569744
 5148         hc    172    bbb    H12   5148 0.09515400   1.008000   ; qtot 171.664898
 5149         c3    172    bbb     C7   5149 0.21842400  12.010000   ; qtot 171.883322
 5150         h1    172    bbb    H13   5150 0.04500300   1.008000   ; qtot 171.928325
 5151         h1    172    bbb    H14   5151 0.04500300   1.008000   ; qtot 171.973328
 5152         c3    172    bbb     C8   5152 -0.06455200  12.010000   ; qtot 171.908776
 5153         h1    172    bbb    H15   5153 0.13554100   1.008000   ; qtot 172.044317
 5154         h1    172    bbb    H16   5154 0.13554100   1.008000   ; qtot 172.179858
 5155         c3    172    bbb     C9   5155 -0.06455200  12.010000   ; qtot 172.115306
 5156         h1    172    bbb    H17   5156 0.13554100   1.008000   ; qtot 172.250847
 5157         h1    172    bbb    H18   5157 0.13554100   1.008000   ; qtot 172.386388
 5158         os    172    bbb     O1   5158 -0.62587700  16.000000   ; qtot 171.760511
 5159         hn    172    bbb    H19   5159 0.23982500   1.008000   ; qtot 172.000336
; residue  173 bbb rtp bbb q 1.0
 5160         n4    173    bbb     N1   5160 0.03726400  14.010000   ; qtot 172.037600
 5161         c3    173    bbb     C1   5161 -0.07020100  12.010000   ; qtot 171.967399
 5162         hx    173    bbb     H1   5162 0.12219000   1.008000   ; qtot 172.089589
 5163         hx    173    bbb     H2   5163 0.12219000   1.008000   ; qtot 172.211779
 5164         c3    173    bbb     C2   5164 -0.07020100  12.010000   ; qtot 172.141578
 5165         hx    173    bbb     H3   5165 0.12219000   1.008000   ; qtot 172.263768
 5166         hx    173    bbb     H4   5166 0.12219000   1.008000   ; qtot 172.385958
 5167         c3    173    bbb     C3   5167 -0.39007700  12.010000   ; qtot 171.995881
 5168         hx    173    bbb     H5   5168 0.14940300   1.008000   ; qtot 172.145284
 5169         hx    173    bbb     H6   5169 0.14940300   1.008000   ; qtot 172.294687
 5170         c3    173    bbb     C4   5170 0.18057300  12.010000   ; qtot 172.475260
 5171         hc    173    bbb     H7   5171 0.01788900   1.008000   ; qtot 172.493149
 5172         hc    173    bbb     H8   5172 0.01788900   1.008000   ; qtot 172.511038
 5173         c3    173    bbb     C5   5173 -0.11337700  12.010000   ; qtot 172.397661
 5174         hc    173    bbb     H9   5174 0.09515400   1.008000   ; qtot 172.492815
 5175         hc    173    bbb    H10   5175 0.09515400   1.008000   ; qtot 172.587969
 5176         c3    173    bbb     C6   5176 -0.11337700  12.010000   ; qtot 172.474592
 5177         hc    173    bbb    H11   5177 0.09515400   1.008000   ; qtot 172.569746
 5178         hc    173    bbb    H12   5178 0.09515400   1.008000   ; qtot 172.664900
 5179         c3    173    bbb     C7   5179 0.21842400  12.010000   ; qtot 172.883324
 5180         h1    173    bbb    H13   5180 0.04500300   1.008000   ; qtot 172.928327
 5181         h1    173    bbb    H14   5181 0.04500300   1.008000   ; qtot 172.973330
 5182         c3    173    bbb     C8   5182 -0.06455200  12.010000   ; qtot 172.908778
 5183         h1    173    bbb    H15   5183 0.13554100   1.008000   ; qtot 173.044319
 5184         h1    173    bbb    H16   5184 0.13554100   1.008000   ; qtot 173.179860
 5185         c3    173    bbb     C9   5185 -0.06455200  12.010000   ; qtot 173.115308
 5186         h1    173    bbb    H17   5186 0.13554100   1.008000   ; qtot 173.250849
 5187         h1    173    bbb    H18   5187 0.13554100   1.008000   ; qtot 173.386390
 5188         os    173    bbb     O1   5188 -0.62587700  16.000000   ; qtot 172.760513
 5189         hn    173    bbb    H19   5189 0.23982500   1.008000   ; qtot 173.000338
; residue  174 bbb rtp bbb q 1.0
 5190         n4    174    bbb     N1   5190 0.03726400  14.010000   ; qtot 173.037602
 5191         c3    174    bbb     C1   5191 -0.07020100  12.010000   ; qtot 172.967401
 5192         hx    174    bbb     H1   5192 0.12219000   1.008000   ; qtot 173.089591
 5193         hx    174    bbb     H2   5193 0.12219000   1.008000   ; qtot 173.211781
 5194         c3    174    bbb     C2   5194 -0.07020100  12.010000   ; qtot 173.141580
 5195         hx    174    bbb     H3   5195 0.12219000   1.008000   ; qtot 173.263770
 5196         hx    174    bbb     H4   5196 0.12219000   1.008000   ; qtot 173.385960
 5197         c3    174    bbb     C3   5197 -0.39007700  12.010000   ; qtot 172.995883
 5198         hx    174    bbb     H5   5198 0.14940300   1.008000   ; qtot 173.145286
 5199         hx    174    bbb     H6   5199 0.14940300   1.008000   ; qtot 173.294689
 5200         c3    174    bbb     C4   5200 0.18057300  12.010000   ; qtot 173.475262
 5201         hc    174    bbb     H7   5201 0.01788900   1.008000   ; qtot 173.493151
 5202         hc    174    bbb     H8   5202 0.01788900   1.008000   ; qtot 173.511040
 5203         c3    174    bbb     C5   5203 -0.11337700  12.010000   ; qtot 173.397663
 5204         hc    174    bbb     H9   5204 0.09515400   1.008000   ; qtot 173.492817
 5205         hc    174    bbb    H10   5205 0.09515400   1.008000   ; qtot 173.587971
 5206         c3    174    bbb     C6   5206 -0.11337700  12.010000   ; qtot 173.474594
 5207         hc    174    bbb    H11   5207 0.09515400   1.008000   ; qtot 173.569748
 5208         hc    174    bbb    H12   5208 0.09515400   1.008000   ; qtot 173.664902
 5209         c3    174    bbb     C7   5209 0.21842400  12.010000   ; qtot 173.883326
 5210         h1    174    bbb    H13   5210 0.04500300   1.008000   ; qtot 173.928329
 5211         h1    174    bbb    H14   5211 0.04500300   1.008000   ; qtot 173.973332
 5212         c3    174    bbb     C8   5212 -0.06455200  12.010000   ; qtot 173.908780
 5213         h1    174    bbb    H15   5213 0.13554100   1.008000   ; qtot 174.044321
 5214         h1    174    bbb    H16   5214 0.13554100   1.008000   ; qtot 174.179862
 5215         c3    174    bbb     C9   5215 -0.06455200  12.010000   ; qtot 174.115310
 5216         h1    174    bbb    H17   5216 0.13554100   1.008000   ; qtot 174.250851
 5217         h1    174    bbb    H18   5217 0.13554100   1.008000   ; qtot 174.386392
 5218         os    174    bbb     O1   5218 -0.62587700  16.000000   ; qtot 173.760515
 5219         hn    174    bbb    H19   5219 0.23982500   1.008000   ; qtot 174.000340
; residue  175 bbb rtp bbb q 1.0
 5220         n4    175    bbb     N1   5220 0.03726400  14.010000   ; qtot 174.037604
 5221         c3    175    bbb     C1   5221 -0.07020100  12.010000   ; qtot 173.967403
 5222         hx    175    bbb     H1   5222 0.12219000   1.008000   ; qtot 174.089593
 5223         hx    175    bbb     H2   5223 0.12219000   1.008000   ; qtot 174.211783
 5224         c3    175    bbb     C2   5224 -0.07020100  12.010000   ; qtot 174.141582
 5225         hx    175    bbb     H3   5225 0.12219000   1.008000   ; qtot 174.263772
 5226         hx    175    bbb     H4   5226 0.12219000   1.008000   ; qtot 174.385962
 5227         c3    175    bbb     C3   5227 -0.39007700  12.010000   ; qtot 173.995885
 5228         hx    175    bbb     H5   5228 0.14940300   1.008000   ; qtot 174.145288
 5229         hx    175    bbb     H6   5229 0.14940300   1.008000   ; qtot 174.294691
 5230         c3    175    bbb     C4   5230 0.18057300  12.010000   ; qtot 174.475264
 5231         hc    175    bbb     H7   5231 0.01788900   1.008000   ; qtot 174.493153
 5232         hc    175    bbb     H8   5232 0.01788900   1.008000   ; qtot 174.511042
 5233         c3    175    bbb     C5   5233 -0.11337700  12.010000   ; qtot 174.397665
 5234         hc    175    bbb     H9   5234 0.09515400   1.008000   ; qtot 174.492819
 5235         hc    175    bbb    H10   5235 0.09515400   1.008000   ; qtot 174.587973
 5236         c3    175    bbb     C6   5236 -0.11337700  12.010000   ; qtot 174.474596
 5237         hc    175    bbb    H11   5237 0.09515400   1.008000   ; qtot 174.569750
 5238         hc    175    bbb    H12   5238 0.09515400   1.008000   ; qtot 174.664904
 5239         c3    175    bbb     C7   5239 0.21842400  12.010000   ; qtot 174.883328
 5240         h1    175    bbb    H13   5240 0.04500300   1.008000   ; qtot 174.928331
 5241         h1    175    bbb    H14   5241 0.04500300   1.008000   ; qtot 174.973334
 5242         c3    175    bbb     C8   5242 -0.06455200  12.010000   ; qtot 174.908782
 5243         h1    175    bbb    H15   5243 0.13554100   1.008000   ; qtot 175.044323
 5244         h1    175    bbb    H16   5244 0.13554100   1.008000   ; qtot 175.179864
 5245         c3    175    bbb     C9   5245 -0.06455200  12.010000   ; qtot 175.115312
 5246         h1    175    bbb    H17   5246 0.13554100   1.008000   ; qtot 175.250853
 5247         h1    175    bbb    H18   5247 0.13554100   1.008000   ; qtot 175.386394
 5248         os    175    bbb     O1   5248 -0.62587700  16.000000   ; qtot 174.760517
 5249         hn    175    bbb    H19   5249 0.23982500   1.008000   ; qtot 175.000342
; residue  176 bbb rtp bbb q 1.0
 5250         n4    176    bbb     N1   5250 0.03726400  14.010000   ; qtot 175.037606
 5251         c3    176    bbb     C1   5251 -0.07020100  12.010000   ; qtot 174.967405
 5252         hx    176    bbb     H1   5252 0.12219000   1.008000   ; qtot 175.089595
 5253         hx    176    bbb     H2   5253 0.12219000   1.008000   ; qtot 175.211785
 5254         c3    176    bbb     C2   5254 -0.07020100  12.010000   ; qtot 175.141584
 5255         hx    176    bbb     H3   5255 0.12219000   1.008000   ; qtot 175.263774
 5256         hx    176    bbb     H4   5256 0.12219000   1.008000   ; qtot 175.385964
 5257         c3    176    bbb     C3   5257 -0.39007700  12.010000   ; qtot 174.995887
 5258         hx    176    bbb     H5   5258 0.14940300   1.008000   ; qtot 175.145290
 5259         hx    176    bbb     H6   5259 0.14940300   1.008000   ; qtot 175.294693
 5260         c3    176    bbb     C4   5260 0.18057300  12.010000   ; qtot 175.475266
 5261         hc    176    bbb     H7   5261 0.01788900   1.008000   ; qtot 175.493155
 5262         hc    176    bbb     H8   5262 0.01788900   1.008000   ; qtot 175.511044
 5263         c3    176    bbb     C5   5263 -0.11337700  12.010000   ; qtot 175.397667
 5264         hc    176    bbb     H9   5264 0.09515400   1.008000   ; qtot 175.492821
 5265         hc    176    bbb    H10   5265 0.09515400   1.008000   ; qtot 175.587975
 5266         c3    176    bbb     C6   5266 -0.11337700  12.010000   ; qtot 175.474598
 5267         hc    176    bbb    H11   5267 0.09515400   1.008000   ; qtot 175.569752
 5268         hc    176    bbb    H12   5268 0.09515400   1.008000   ; qtot 175.664906
 5269         c3    176    bbb     C7   5269 0.21842400  12.010000   ; qtot 175.883330
 5270         h1    176    bbb    H13   5270 0.04500300   1.008000   ; qtot 175.928333
 5271         h1    176    bbb    H14   5271 0.04500300   1.008000   ; qtot 175.973336
 5272         c3    176    bbb     C8   5272 -0.06455200  12.010000   ; qtot 175.908784
 5273         h1    176    bbb    H15   5273 0.13554100   1.008000   ; qtot 176.044325
 5274         h1    176    bbb    H16   5274 0.13554100   1.008000   ; qtot 176.179866
 5275         c3    176    bbb     C9   5275 -0.06455200  12.010000   ; qtot 176.115314
 5276         h1    176    bbb    H17   5276 0.13554100   1.008000   ; qtot 176.250855
 5277         h1    176    bbb    H18   5277 0.13554100   1.008000   ; qtot 176.386396
 5278         os    176    bbb     O1   5278 -0.62587700  16.000000   ; qtot 175.760519
 5279         hn    176    bbb    H19   5279 0.23982500   1.008000   ; qtot 176.000344
; residue  177 bbb rtp bbb q 1.0
 5280         n4    177    bbb     N1   5280 0.03726400  14.010000   ; qtot 176.037608
 5281         c3    177    bbb     C1   5281 -0.07020100  12.010000   ; qtot 175.967407
 5282         hx    177    bbb     H1   5282 0.12219000   1.008000   ; qtot 176.089597
 5283         hx    177    bbb     H2   5283 0.12219000   1.008000   ; qtot 176.211787
 5284         c3    177    bbb     C2   5284 -0.07020100  12.010000   ; qtot 176.141586
 5285         hx    177    bbb     H3   5285 0.12219000   1.008000   ; qtot 176.263776
 5286         hx    177    bbb     H4   5286 0.12219000   1.008000   ; qtot 176.385966
 5287         c3    177    bbb     C3   5287 -0.39007700  12.010000   ; qtot 175.995889
 5288         hx    177    bbb     H5   5288 0.14940300   1.008000   ; qtot 176.145292
 5289         hx    177    bbb     H6   5289 0.14940300   1.008000   ; qtot 176.294695
 5290         c3    177    bbb     C4   5290 0.18057300  12.010000   ; qtot 176.475268
 5291         hc    177    bbb     H7   5291 0.01788900   1.008000   ; qtot 176.493157
 5292         hc    177    bbb     H8   5292 0.01788900   1.008000   ; qtot 176.511046
 5293         c3    177    bbb     C5   5293 -0.11337700  12.010000   ; qtot 176.397669
 5294         hc    177    bbb     H9   5294 0.09515400   1.008000   ; qtot 176.492823
 5295         hc    177    bbb    H10   5295 0.09515400   1.008000   ; qtot 176.587977
 5296         c3    177    bbb     C6   5296 -0.11337700  12.010000   ; qtot 176.474600
 5297         hc    177    bbb    H11   5297 0.09515400   1.008000   ; qtot 176.569754
 5298         hc    177    bbb    H12   5298 0.09515400   1.008000   ; qtot 176.664908
 5299         c3    177    bbb     C7   5299 0.21842400  12.010000   ; qtot 176.883332
 5300         h1    177    bbb    H13   5300 0.04500300   1.008000   ; qtot 176.928335
 5301         h1    177    bbb    H14   5301 0.04500300   1.008000   ; qtot 176.973338
 5302         c3    177    bbb     C8   5302 -0.06455200  12.010000   ; qtot 176.908786
 5303         h1    177    bbb    H15   5303 0.13554100   1.008000   ; qtot 177.044327
 5304         h1    177    bbb    H16   5304 0.13554100   1.008000   ; qtot 177.179868
 5305         c3    177    bbb     C9   5305 -0.06455200  12.010000   ; qtot 177.115316
 5306         h1    177    bbb    H17   5306 0.13554100   1.008000   ; qtot 177.250857
 5307         h1    177    bbb    H18   5307 0.13554100   1.008000   ; qtot 177.386398
 5308         os    177    bbb     O1   5308 -0.62587700  16.000000   ; qtot 176.760521
 5309         hn    177    bbb    H19   5309 0.23982500   1.008000   ; qtot 177.000346
; residue  178 bbb rtp bbb q 1.0
 5310         n4    178    bbb     N1   5310 0.03726400  14.010000   ; qtot 177.037610
 5311         c3    178    bbb     C1   5311 -0.07020100  12.010000   ; qtot 176.967409
 5312         hx    178    bbb     H1   5312 0.12219000   1.008000   ; qtot 177.089599
 5313         hx    178    bbb     H2   5313 0.12219000   1.008000   ; qtot 177.211789
 5314         c3    178    bbb     C2   5314 -0.07020100  12.010000   ; qtot 177.141588
 5315         hx    178    bbb     H3   5315 0.12219000   1.008000   ; qtot 177.263778
 5316         hx    178    bbb     H4   5316 0.12219000   1.008000   ; qtot 177.385968
 5317         c3    178    bbb     C3   5317 -0.39007700  12.010000   ; qtot 176.995891
 5318         hx    178    bbb     H5   5318 0.14940300   1.008000   ; qtot 177.145294
 5319         hx    178    bbb     H6   5319 0.14940300   1.008000   ; qtot 177.294697
 5320         c3    178    bbb     C4   5320 0.18057300  12.010000   ; qtot 177.475270
 5321         hc    178    bbb     H7   5321 0.01788900   1.008000   ; qtot 177.493159
 5322         hc    178    bbb     H8   5322 0.01788900   1.008000   ; qtot 177.511048
 5323         c3    178    bbb     C5   5323 -0.11337700  12.010000   ; qtot 177.397671
 5324         hc    178    bbb     H9   5324 0.09515400   1.008000   ; qtot 177.492825
 5325         hc    178    bbb    H10   5325 0.09515400   1.008000   ; qtot 177.587979
 5326         c3    178    bbb     C6   5326 -0.11337700  12.010000   ; qtot 177.474602
 5327         hc    178    bbb    H11   5327 0.09515400   1.008000   ; qtot 177.569756
 5328         hc    178    bbb    H12   5328 0.09515400   1.008000   ; qtot 177.664910
 5329         c3    178    bbb     C7   5329 0.21842400  12.010000   ; qtot 177.883334
 5330         h1    178    bbb    H13   5330 0.04500300   1.008000   ; qtot 177.928337
 5331         h1    178    bbb    H14   5331 0.04500300   1.008000   ; qtot 177.973340
 5332         c3    178    bbb     C8   5332 -0.06455200  12.010000   ; qtot 177.908788
 5333         h1    178    bbb    H15   5333 0.13554100   1.008000   ; qtot 178.044329
 5334         h1    178    bbb    H16   5334 0.13554100   1.008000   ; qtot 178.179870
 5335         c3    178    bbb     C9   5335 -0.06455200  12.010000   ; qtot 178.115318
 5336         h1    178    bbb    H17   5336 0.13554100   1.008000   ; qtot 178.250859
 5337         h1    178    bbb    H18   5337 0.13554100   1.008000   ; qtot 178.386400
 5338         os    178    bbb     O1   5338 -0.62587700  16.000000   ; qtot 177.760523
 5339         hn    178    bbb    H19   5339 0.23982500   1.008000   ; qtot 178.000348
; residue  179 bbb rtp bbb q 1.0
 5340         n4    179    bbb     N1   5340 0.03726400  14.010000   ; qtot 178.037612
 5341         c3    179    bbb     C1   5341 -0.07020100  12.010000   ; qtot 177.967411
 5342         hx    179    bbb     H1   5342 0.12219000   1.008000   ; qtot 178.089601
 5343         hx    179    bbb     H2   5343 0.12219000   1.008000   ; qtot 178.211791
 5344         c3    179    bbb     C2   5344 -0.07020100  12.010000   ; qtot 178.141590
 5345         hx    179    bbb     H3   5345 0.12219000   1.008000   ; qtot 178.263780
 5346         hx    179    bbb     H4   5346 0.12219000   1.008000   ; qtot 178.385970
 5347         c3    179    bbb     C3   5347 -0.39007700  12.010000   ; qtot 177.995893
 5348         hx    179    bbb     H5   5348 0.14940300   1.008000   ; qtot 178.145296
 5349         hx    179    bbb     H6   5349 0.14940300   1.008000   ; qtot 178.294699
 5350         c3    179    bbb     C4   5350 0.18057300  12.010000   ; qtot 178.475272
 5351         hc    179    bbb     H7   5351 0.01788900   1.008000   ; qtot 178.493161
 5352         hc    179    bbb     H8   5352 0.01788900   1.008000   ; qtot 178.511050
 5353         c3    179    bbb     C5   5353 -0.11337700  12.010000   ; qtot 178.397673
 5354         hc    179    bbb     H9   5354 0.09515400   1.008000   ; qtot 178.492827
 5355         hc    179    bbb    H10   5355 0.09515400   1.008000   ; qtot 178.587981
 5356         c3    179    bbb     C6   5356 -0.11337700  12.010000   ; qtot 178.474604
 5357         hc    179    bbb    H11   5357 0.09515400   1.008000   ; qtot 178.569758
 5358         hc    179    bbb    H12   5358 0.09515400   1.008000   ; qtot 178.664912
 5359         c3    179    bbb     C7   5359 0.21842400  12.010000   ; qtot 178.883336
 5360         h1    179    bbb    H13   5360 0.04500300   1.008000   ; qtot 178.928339
 5361         h1    179    bbb    H14   5361 0.04500300   1.008000   ; qtot 178.973342
 5362         c3    179    bbb     C8   5362 -0.06455200  12.010000   ; qtot 178.908790
 5363         h1    179    bbb    H15   5363 0.13554100   1.008000   ; qtot 179.044331
 5364         h1    179    bbb    H16   5364 0.13554100   1.008000   ; qtot 179.179872
 5365         c3    179    bbb     C9   5365 -0.06455200  12.010000   ; qtot 179.115320
 5366         h1    179    bbb    H17   5366 0.13554100   1.008000   ; qtot 179.250861
 5367         h1    179    bbb    H18   5367 0.13554100   1.008000   ; qtot 179.386402
 5368         os    179    bbb     O1   5368 -0.62587700  16.000000   ; qtot 178.760525
 5369         hn    179    bbb    H19   5369 0.23982500   1.008000   ; qtot 179.000350
; residue  180 bbb rtp bbb q 1.0
 5370         n4    180    bbb     N1   5370 0.03726400  14.010000   ; qtot 179.037614
 5371         c3    180    bbb     C1   5371 -0.07020100  12.010000   ; qtot 178.967413
 5372         hx    180    bbb     H1   5372 0.12219000   1.008000   ; qtot 179.089603
 5373         hx    180    bbb     H2   5373 0.12219000   1.008000   ; qtot 179.211793
 5374         c3    180    bbb     C2   5374 -0.07020100  12.010000   ; qtot 179.141592
 5375         hx    180    bbb     H3   5375 0.12219000   1.008000   ; qtot 179.263782
 5376         hx    180    bbb     H4   5376 0.12219000   1.008000   ; qtot 179.385972
 5377         c3    180    bbb     C3   5377 -0.39007700  12.010000   ; qtot 178.995895
 5378         hx    180    bbb     H5   5378 0.14940300   1.008000   ; qtot 179.145298
 5379         hx    180    bbb     H6   5379 0.14940300   1.008000   ; qtot 179.294701
 5380         c3    180    bbb     C4   5380 0.18057300  12.010000   ; qtot 179.475274
 5381         hc    180    bbb     H7   5381 0.01788900   1.008000   ; qtot 179.493163
 5382         hc    180    bbb     H8   5382 0.01788900   1.008000   ; qtot 179.511052
 5383         c3    180    bbb     C5   5383 -0.11337700  12.010000   ; qtot 179.397675
 5384         hc    180    bbb     H9   5384 0.09515400   1.008000   ; qtot 179.492829
 5385         hc    180    bbb    H10   5385 0.09515400   1.008000   ; qtot 179.587983
 5386         c3    180    bbb     C6   5386 -0.11337700  12.010000   ; qtot 179.474606
 5387         hc    180    bbb    H11   5387 0.09515400   1.008000   ; qtot 179.569760
 5388         hc    180    bbb    H12   5388 0.09515400   1.008000   ; qtot 179.664914
 5389         c3    180    bbb     C7   5389 0.21842400  12.010000   ; qtot 179.883338
 5390         h1    180    bbb    H13   5390 0.04500300   1.008000   ; qtot 179.928341
 5391         h1    180    bbb    H14   5391 0.04500300   1.008000   ; qtot 179.973344
 5392         c3    180    bbb     C8   5392 -0.06455200  12.010000   ; qtot 179.908792
 5393         h1    180    bbb    H15   5393 0.13554100   1.008000   ; qtot 180.044333
 5394         h1    180    bbb    H16   5394 0.13554100   1.008000   ; qtot 180.179874
 5395         c3    180    bbb     C9   5395 -0.06455200  12.010000   ; qtot 180.115322
 5396         h1    180    bbb    H17   5396 0.13554100   1.008000   ; qtot 180.250863
 5397         h1    180    bbb    H18   5397 0.13554100   1.008000   ; qtot 180.386404
 5398         os    180    bbb     O1   5398 -0.62587700  16.000000   ; qtot 179.760527
 5399         hn    180    bbb    H19   5399 0.23982500   1.008000   ; qtot 180.000352
; residue  181 bbb rtp bbb q 1.0
 5400         n4    181    bbb     N1   5400 0.03726400  14.010000   ; qtot 180.037616
 5401         c3    181    bbb     C1   5401 -0.07020100  12.010000   ; qtot 179.967415
 5402         hx    181    bbb     H1   5402 0.12219000   1.008000   ; qtot 180.089605
 5403         hx    181    bbb     H2   5403 0.12219000   1.008000   ; qtot 180.211795
 5404         c3    181    bbb     C2   5404 -0.07020100  12.010000   ; qtot 180.141594
 5405         hx    181    bbb     H3   5405 0.12219000   1.008000   ; qtot 180.263784
 5406         hx    181    bbb     H4   5406 0.12219000   1.008000   ; qtot 180.385974
 5407         c3    181    bbb     C3   5407 -0.39007700  12.010000   ; qtot 179.995897
 5408         hx    181    bbb     H5   5408 0.14940300   1.008000   ; qtot 180.145300
 5409         hx    181    bbb     H6   5409 0.14940300   1.008000   ; qtot 180.294703
 5410         c3    181    bbb     C4   5410 0.18057300  12.010000   ; qtot 180.475276
 5411         hc    181    bbb     H7   5411 0.01788900   1.008000   ; qtot 180.493165
 5412         hc    181    bbb     H8   5412 0.01788900   1.008000   ; qtot 180.511054
 5413         c3    181    bbb     C5   5413 -0.11337700  12.010000   ; qtot 180.397677
 5414         hc    181    bbb     H9   5414 0.09515400   1.008000   ; qtot 180.492831
 5415         hc    181    bbb    H10   5415 0.09515400   1.008000   ; qtot 180.587985
 5416         c3    181    bbb     C6   5416 -0.11337700  12.010000   ; qtot 180.474608
 5417         hc    181    bbb    H11   5417 0.09515400   1.008000   ; qtot 180.569762
 5418         hc    181    bbb    H12   5418 0.09515400   1.008000   ; qtot 180.664916
 5419         c3    181    bbb     C7   5419 0.21842400  12.010000   ; qtot 180.883340
 5420         h1    181    bbb    H13   5420 0.04500300   1.008000   ; qtot 180.928343
 5421         h1    181    bbb    H14   5421 0.04500300   1.008000   ; qtot 180.973346
 5422         c3    181    bbb     C8   5422 -0.06455200  12.010000   ; qtot 180.908794
 5423         h1    181    bbb    H15   5423 0.13554100   1.008000   ; qtot 181.044335
 5424         h1    181    bbb    H16   5424 0.13554100   1.008000   ; qtot 181.179876
 5425         c3    181    bbb     C9   5425 -0.06455200  12.010000   ; qtot 181.115324
 5426         h1    181    bbb    H17   5426 0.13554100   1.008000   ; qtot 181.250865
 5427         h1    181    bbb    H18   5427 0.13554100   1.008000   ; qtot 181.386406
 5428         os    181    bbb     O1   5428 -0.62587700  16.000000   ; qtot 180.760529
 5429         hn    181    bbb    H19   5429 0.23982500   1.008000   ; qtot 181.000354
; residue  182 bbb rtp bbb q 1.0
 5430         n4    182    bbb     N1   5430 0.03726400  14.010000   ; qtot 181.037618
 5431         c3    182    bbb     C1   5431 -0.07020100  12.010000   ; qtot 180.967417
 5432         hx    182    bbb     H1   5432 0.12219000   1.008000   ; qtot 181.089607
 5433         hx    182    bbb     H2   5433 0.12219000   1.008000   ; qtot 181.211797
 5434         c3    182    bbb     C2   5434 -0.07020100  12.010000   ; qtot 181.141596
 5435         hx    182    bbb     H3   5435 0.12219000   1.008000   ; qtot 181.263786
 5436         hx    182    bbb     H4   5436 0.12219000   1.008000   ; qtot 181.385976
 5437         c3    182    bbb     C3   5437 -0.39007700  12.010000   ; qtot 180.995899
 5438         hx    182    bbb     H5   5438 0.14940300   1.008000   ; qtot 181.145302
 5439         hx    182    bbb     H6   5439 0.14940300   1.008000   ; qtot 181.294705
 5440         c3    182    bbb     C4   5440 0.18057300  12.010000   ; qtot 181.475278
 5441         hc    182    bbb     H7   5441 0.01788900   1.008000   ; qtot 181.493167
 5442         hc    182    bbb     H8   5442 0.01788900   1.008000   ; qtot 181.511056
 5443         c3    182    bbb     C5   5443 -0.11337700  12.010000   ; qtot 181.397679
 5444         hc    182    bbb     H9   5444 0.09515400   1.008000   ; qtot 181.492833
 5445         hc    182    bbb    H10   5445 0.09515400   1.008000   ; qtot 181.587987
 5446         c3    182    bbb     C6   5446 -0.11337700  12.010000   ; qtot 181.474610
 5447         hc    182    bbb    H11   5447 0.09515400   1.008000   ; qtot 181.569764
 5448         hc    182    bbb    H12   5448 0.09515400   1.008000   ; qtot 181.664918
 5449         c3    182    bbb     C7   5449 0.21842400  12.010000   ; qtot 181.883342
 5450         h1    182    bbb    H13   5450 0.04500300   1.008000   ; qtot 181.928345
 5451         h1    182    bbb    H14   5451 0.04500300   1.008000   ; qtot 181.973348
 5452         c3    182    bbb     C8   5452 -0.06455200  12.010000   ; qtot 181.908796
 5453         h1    182    bbb    H15   5453 0.13554100   1.008000   ; qtot 182.044337
 5454         h1    182    bbb    H16   5454 0.13554100   1.008000   ; qtot 182.179878
 5455         c3    182    bbb     C9   5455 -0.06455200  12.010000   ; qtot 182.115326
 5456         h1    182    bbb    H17   5456 0.13554100   1.008000   ; qtot 182.250867
 5457         h1    182    bbb    H18   5457 0.13554100   1.008000   ; qtot 182.386408
 5458         os    182    bbb     O1   5458 -0.62587700  16.000000   ; qtot 181.760531
 5459         hn    182    bbb    H19   5459 0.23982500   1.008000   ; qtot 182.000356
; residue  183 bbb rtp bbb q 1.0
 5460         n4    183    bbb     N1   5460 0.03726400  14.010000   ; qtot 182.037620
 5461         c3    183    bbb     C1   5461 -0.07020100  12.010000   ; qtot 181.967419
 5462         hx    183    bbb     H1   5462 0.12219000   1.008000   ; qtot 182.089609
 5463         hx    183    bbb     H2   5463 0.12219000   1.008000   ; qtot 182.211799
 5464         c3    183    bbb     C2   5464 -0.07020100  12.010000   ; qtot 182.141598
 5465         hx    183    bbb     H3   5465 0.12219000   1.008000   ; qtot 182.263788
 5466         hx    183    bbb     H4   5466 0.12219000   1.008000   ; qtot 182.385978
 5467         c3    183    bbb     C3   5467 -0.39007700  12.010000   ; qtot 181.995901
 5468         hx    183    bbb     H5   5468 0.14940300   1.008000   ; qtot 182.145304
 5469         hx    183    bbb     H6   5469 0.14940300   1.008000   ; qtot 182.294707
 5470         c3    183    bbb     C4   5470 0.18057300  12.010000   ; qtot 182.475280
 5471         hc    183    bbb     H7   5471 0.01788900   1.008000   ; qtot 182.493169
 5472         hc    183    bbb     H8   5472 0.01788900   1.008000   ; qtot 182.511058
 5473         c3    183    bbb     C5   5473 -0.11337700  12.010000   ; qtot 182.397681
 5474         hc    183    bbb     H9   5474 0.09515400   1.008000   ; qtot 182.492835
 5475         hc    183    bbb    H10   5475 0.09515400   1.008000   ; qtot 182.587989
 5476         c3    183    bbb     C6   5476 -0.11337700  12.010000   ; qtot 182.474612
 5477         hc    183    bbb    H11   5477 0.09515400   1.008000   ; qtot 182.569766
 5478         hc    183    bbb    H12   5478 0.09515400   1.008000   ; qtot 182.664920
 5479         c3    183    bbb     C7   5479 0.21842400  12.010000   ; qtot 182.883344
 5480         h1    183    bbb    H13   5480 0.04500300   1.008000   ; qtot 182.928347
 5481         h1    183    bbb    H14   5481 0.04500300   1.008000   ; qtot 182.973350
 5482         c3    183    bbb     C8   5482 -0.06455200  12.010000   ; qtot 182.908798
 5483         h1    183    bbb    H15   5483 0.13554100   1.008000   ; qtot 183.044339
 5484         h1    183    bbb    H16   5484 0.13554100   1.008000   ; qtot 183.179880
 5485         c3    183    bbb     C9   5485 -0.06455200  12.010000   ; qtot 183.115328
 5486         h1    183    bbb    H17   5486 0.13554100   1.008000   ; qtot 183.250869
 5487         h1    183    bbb    H18   5487 0.13554100   1.008000   ; qtot 183.386410
 5488         os    183    bbb     O1   5488 -0.62587700  16.000000   ; qtot 182.760533
 5489         hn    183    bbb    H19   5489 0.23982500   1.008000   ; qtot 183.000358
; residue  184 bbb rtp bbb q 1.0
 5490         n4    184    bbb     N1   5490 0.03726400  14.010000   ; qtot 183.037622
 5491         c3    184    bbb     C1   5491 -0.07020100  12.010000   ; qtot 182.967421
 5492         hx    184    bbb     H1   5492 0.12219000   1.008000   ; qtot 183.089611
 5493         hx    184    bbb     H2   5493 0.12219000   1.008000   ; qtot 183.211801
 5494         c3    184    bbb     C2   5494 -0.07020100  12.010000   ; qtot 183.141600
 5495         hx    184    bbb     H3   5495 0.12219000   1.008000   ; qtot 183.263790
 5496         hx    184    bbb     H4   5496 0.12219000   1.008000   ; qtot 183.385980
 5497         c3    184    bbb     C3   5497 -0.39007700  12.010000   ; qtot 182.995903
 5498         hx    184    bbb     H5   5498 0.14940300   1.008000   ; qtot 183.145306
 5499         hx    184    bbb     H6   5499 0.14940300   1.008000   ; qtot 183.294709
 5500         c3    184    bbb     C4   5500 0.18057300  12.010000   ; qtot 183.475282
 5501         hc    184    bbb     H7   5501 0.01788900   1.008000   ; qtot 183.493171
 5502         hc    184    bbb     H8   5502 0.01788900   1.008000   ; qtot 183.511060
 5503         c3    184    bbb     C5   5503 -0.11337700  12.010000   ; qtot 183.397683
 5504         hc    184    bbb     H9   5504 0.09515400   1.008000   ; qtot 183.492837
 5505         hc    184    bbb    H10   5505 0.09515400   1.008000   ; qtot 183.587991
 5506         c3    184    bbb     C6   5506 -0.11337700  12.010000   ; qtot 183.474614
 5507         hc    184    bbb    H11   5507 0.09515400   1.008000   ; qtot 183.569768
 5508         hc    184    bbb    H12   5508 0.09515400   1.008000   ; qtot 183.664922
 5509         c3    184    bbb     C7   5509 0.21842400  12.010000   ; qtot 183.883346
 5510         h1    184    bbb    H13   5510 0.04500300   1.008000   ; qtot 183.928349
 5511         h1    184    bbb    H14   5511 0.04500300   1.008000   ; qtot 183.973352
 5512         c3    184    bbb     C8   5512 -0.06455200  12.010000   ; qtot 183.908800
 5513         h1    184    bbb    H15   5513 0.13554100   1.008000   ; qtot 184.044341
 5514         h1    184    bbb    H16   5514 0.13554100   1.008000   ; qtot 184.179882
 5515         c3    184    bbb     C9   5515 -0.06455200  12.010000   ; qtot 184.115330
 5516         h1    184    bbb    H17   5516 0.13554100   1.008000   ; qtot 184.250871
 5517         h1    184    bbb    H18   5517 0.13554100   1.008000   ; qtot 184.386412
 5518         os    184    bbb     O1   5518 -0.62587700  16.000000   ; qtot 183.760535
 5519         hn    184    bbb    H19   5519 0.23982500   1.008000   ; qtot 184.000360
; residue  185 bbb rtp bbb q 1.0
 5520         n4    185    bbb     N1   5520 0.03726400  14.010000   ; qtot 184.037624
 5521         c3    185    bbb     C1   5521 -0.07020100  12.010000   ; qtot 183.967423
 5522         hx    185    bbb     H1   5522 0.12219000   1.008000   ; qtot 184.089613
 5523         hx    185    bbb     H2   5523 0.12219000   1.008000   ; qtot 184.211803
 5524         c3    185    bbb     C2   5524 -0.07020100  12.010000   ; qtot 184.141602
 5525         hx    185    bbb     H3   5525 0.12219000   1.008000   ; qtot 184.263792
 5526         hx    185    bbb     H4   5526 0.12219000   1.008000   ; qtot 184.385982
 5527         c3    185    bbb     C3   5527 -0.39007700  12.010000   ; qtot 183.995905
 5528         hx    185    bbb     H5   5528 0.14940300   1.008000   ; qtot 184.145308
 5529         hx    185    bbb     H6   5529 0.14940300   1.008000   ; qtot 184.294711
 5530         c3    185    bbb     C4   5530 0.18057300  12.010000   ; qtot 184.475284
 5531         hc    185    bbb     H7   5531 0.01788900   1.008000   ; qtot 184.493173
 5532         hc    185    bbb     H8   5532 0.01788900   1.008000   ; qtot 184.511062
 5533         c3    185    bbb     C5   5533 -0.11337700  12.010000   ; qtot 184.397685
 5534         hc    185    bbb     H9   5534 0.09515400   1.008000   ; qtot 184.492839
 5535         hc    185    bbb    H10   5535 0.09515400   1.008000   ; qtot 184.587993
 5536         c3    185    bbb     C6   5536 -0.11337700  12.010000   ; qtot 184.474616
 5537         hc    185    bbb    H11   5537 0.09515400   1.008000   ; qtot 184.569770
 5538         hc    185    bbb    H12   5538 0.09515400   1.008000   ; qtot 184.664924
 5539         c3    185    bbb     C7   5539 0.21842400  12.010000   ; qtot 184.883348
 5540         h1    185    bbb    H13   5540 0.04500300   1.008000   ; qtot 184.928351
 5541         h1    185    bbb    H14   5541 0.04500300   1.008000   ; qtot 184.973354
 5542         c3    185    bbb     C8   5542 -0.06455200  12.010000   ; qtot 184.908802
 5543         h1    185    bbb    H15   5543 0.13554100   1.008000   ; qtot 185.044343
 5544         h1    185    bbb    H16   5544 0.13554100   1.008000   ; qtot 185.179884
 5545         c3    185    bbb     C9   5545 -0.06455200  12.010000   ; qtot 185.115332
 5546         h1    185    bbb    H17   5546 0.13554100   1.008000   ; qtot 185.250873
 5547         h1    185    bbb    H18   5547 0.13554100   1.008000   ; qtot 185.386414
 5548         os    185    bbb     O1   5548 -0.62587700  16.000000   ; qtot 184.760537
 5549         hn    185    bbb    H19   5549 0.23982500   1.008000   ; qtot 185.000362
; residue  186 bbb rtp bbb q 1.0
 5550         n4    186    bbb     N1   5550 0.03726400  14.010000   ; qtot 185.037626
 5551         c3    186    bbb     C1   5551 -0.07020100  12.010000   ; qtot 184.967425
 5552         hx    186    bbb     H1   5552 0.12219000   1.008000   ; qtot 185.089615
 5553         hx    186    bbb     H2   5553 0.12219000   1.008000   ; qtot 185.211805
 5554         c3    186    bbb     C2   5554 -0.07020100  12.010000   ; qtot 185.141604
 5555         hx    186    bbb     H3   5555 0.12219000   1.008000   ; qtot 185.263794
 5556         hx    186    bbb     H4   5556 0.12219000   1.008000   ; qtot 185.385984
 5557         c3    186    bbb     C3   5557 -0.39007700  12.010000   ; qtot 184.995907
 5558         hx    186    bbb     H5   5558 0.14940300   1.008000   ; qtot 185.145310
 5559         hx    186    bbb     H6   5559 0.14940300   1.008000   ; qtot 185.294713
 5560         c3    186    bbb     C4   5560 0.18057300  12.010000   ; qtot 185.475286
 5561         hc    186    bbb     H7   5561 0.01788900   1.008000   ; qtot 185.493175
 5562         hc    186    bbb     H8   5562 0.01788900   1.008000   ; qtot 185.511064
 5563         c3    186    bbb     C5   5563 -0.11337700  12.010000   ; qtot 185.397687
 5564         hc    186    bbb     H9   5564 0.09515400   1.008000   ; qtot 185.492841
 5565         hc    186    bbb    H10   5565 0.09515400   1.008000   ; qtot 185.587995
 5566         c3    186    bbb     C6   5566 -0.11337700  12.010000   ; qtot 185.474618
 5567         hc    186    bbb    H11   5567 0.09515400   1.008000   ; qtot 185.569772
 5568         hc    186    bbb    H12   5568 0.09515400   1.008000   ; qtot 185.664926
 5569         c3    186    bbb     C7   5569 0.21842400  12.010000   ; qtot 185.883350
 5570         h1    186    bbb    H13   5570 0.04500300   1.008000   ; qtot 185.928353
 5571         h1    186    bbb    H14   5571 0.04500300   1.008000   ; qtot 185.973356
 5572         c3    186    bbb     C8   5572 -0.06455200  12.010000   ; qtot 185.908804
 5573         h1    186    bbb    H15   5573 0.13554100   1.008000   ; qtot 186.044345
 5574         h1    186    bbb    H16   5574 0.13554100   1.008000   ; qtot 186.179886
 5575         c3    186    bbb     C9   5575 -0.06455200  12.010000   ; qtot 186.115334
 5576         h1    186    bbb    H17   5576 0.13554100   1.008000   ; qtot 186.250875
 5577         h1    186    bbb    H18   5577 0.13554100   1.008000   ; qtot 186.386416
 5578         os    186    bbb     O1   5578 -0.62587700  16.000000   ; qtot 185.760539
 5579         hn    186    bbb    H19   5579 0.23982500   1.008000   ; qtot 186.000364
; residue  187 bbb rtp bbb q 1.0
 5580         n4    187    bbb     N1   5580 0.03726400  14.010000   ; qtot 186.037628
 5581         c3    187    bbb     C1   5581 -0.07020100  12.010000   ; qtot 185.967427
 5582         hx    187    bbb     H1   5582 0.12219000   1.008000   ; qtot 186.089617
 5583         hx    187    bbb     H2   5583 0.12219000   1.008000   ; qtot 186.211807
 5584         c3    187    bbb     C2   5584 -0.07020100  12.010000   ; qtot 186.141606
 5585         hx    187    bbb     H3   5585 0.12219000   1.008000   ; qtot 186.263796
 5586         hx    187    bbb     H4   5586 0.12219000   1.008000   ; qtot 186.385986
 5587         c3    187    bbb     C3   5587 -0.39007700  12.010000   ; qtot 185.995909
 5588         hx    187    bbb     H5   5588 0.14940300   1.008000   ; qtot 186.145312
 5589         hx    187    bbb     H6   5589 0.14940300   1.008000   ; qtot 186.294715
 5590         c3    187    bbb     C4   5590 0.18057300  12.010000   ; qtot 186.475288
 5591         hc    187    bbb     H7   5591 0.01788900   1.008000   ; qtot 186.493177
 5592         hc    187    bbb     H8   5592 0.01788900   1.008000   ; qtot 186.511066
 5593         c3    187    bbb     C5   5593 -0.11337700  12.010000   ; qtot 186.397689
 5594         hc    187    bbb     H9   5594 0.09515400   1.008000   ; qtot 186.492843
 5595         hc    187    bbb    H10   5595 0.09515400   1.008000   ; qtot 186.587997
 5596         c3    187    bbb     C6   5596 -0.11337700  12.010000   ; qtot 186.474620
 5597         hc    187    bbb    H11   5597 0.09515400   1.008000   ; qtot 186.569774
 5598         hc    187    bbb    H12   5598 0.09515400   1.008000   ; qtot 186.664928
 5599         c3    187    bbb     C7   5599 0.21842400  12.010000   ; qtot 186.883352
 5600         h1    187    bbb    H13   5600 0.04500300   1.008000   ; qtot 186.928355
 5601         h1    187    bbb    H14   5601 0.04500300   1.008000   ; qtot 186.973358
 5602         c3    187    bbb     C8   5602 -0.06455200  12.010000   ; qtot 186.908806
 5603         h1    187    bbb    H15   5603 0.13554100   1.008000   ; qtot 187.044347
 5604         h1    187    bbb    H16   5604 0.13554100   1.008000   ; qtot 187.179888
 5605         c3    187    bbb     C9   5605 -0.06455200  12.010000   ; qtot 187.115336
 5606         h1    187    bbb    H17   5606 0.13554100   1.008000   ; qtot 187.250877
 5607         h1    187    bbb    H18   5607 0.13554100   1.008000   ; qtot 187.386418
 5608         os    187    bbb     O1   5608 -0.62587700  16.000000   ; qtot 186.760541
 5609         hn    187    bbb    H19   5609 0.23982500   1.008000   ; qtot 187.000366
; residue  188 bbb rtp bbb q 1.0
 5610         n4    188    bbb     N1   5610 0.03726400  14.010000   ; qtot 187.037630
 5611         c3    188    bbb     C1   5611 -0.07020100  12.010000   ; qtot 186.967429
 5612         hx    188    bbb     H1   5612 0.12219000   1.008000   ; qtot 187.089619
 5613         hx    188    bbb     H2   5613 0.12219000   1.008000   ; qtot 187.211809
 5614         c3    188    bbb     C2   5614 -0.07020100  12.010000   ; qtot 187.141608
 5615         hx    188    bbb     H3   5615 0.12219000   1.008000   ; qtot 187.263798
 5616         hx    188    bbb     H4   5616 0.12219000   1.008000   ; qtot 187.385988
 5617         c3    188    bbb     C3   5617 -0.39007700  12.010000   ; qtot 186.995911
 5618         hx    188    bbb     H5   5618 0.14940300   1.008000   ; qtot 187.145314
 5619         hx    188    bbb     H6   5619 0.14940300   1.008000   ; qtot 187.294717
 5620         c3    188    bbb     C4   5620 0.18057300  12.010000   ; qtot 187.475290
 5621         hc    188    bbb     H7   5621 0.01788900   1.008000   ; qtot 187.493179
 5622         hc    188    bbb     H8   5622 0.01788900   1.008000   ; qtot 187.511068
 5623         c3    188    bbb     C5   5623 -0.11337700  12.010000   ; qtot 187.397691
 5624         hc    188    bbb     H9   5624 0.09515400   1.008000   ; qtot 187.492845
 5625         hc    188    bbb    H10   5625 0.09515400   1.008000   ; qtot 187.587999
 5626         c3    188    bbb     C6   5626 -0.11337700  12.010000   ; qtot 187.474622
 5627         hc    188    bbb    H11   5627 0.09515400   1.008000   ; qtot 187.569776
 5628         hc    188    bbb    H12   5628 0.09515400   1.008000   ; qtot 187.664930
 5629         c3    188    bbb     C7   5629 0.21842400  12.010000   ; qtot 187.883354
 5630         h1    188    bbb    H13   5630 0.04500300   1.008000   ; qtot 187.928357
 5631         h1    188    bbb    H14   5631 0.04500300   1.008000   ; qtot 187.973360
 5632         c3    188    bbb     C8   5632 -0.06455200  12.010000   ; qtot 187.908808
 5633         h1    188    bbb    H15   5633 0.13554100   1.008000   ; qtot 188.044349
 5634         h1    188    bbb    H16   5634 0.13554100   1.008000   ; qtot 188.179890
 5635         c3    188    bbb     C9   5635 -0.06455200  12.010000   ; qtot 188.115338
 5636         h1    188    bbb    H17   5636 0.13554100   1.008000   ; qtot 188.250879
 5637         h1    188    bbb    H18   5637 0.13554100   1.008000   ; qtot 188.386420
 5638         os    188    bbb     O1   5638 -0.62587700  16.000000   ; qtot 187.760543
 5639         hn    188    bbb    H19   5639 0.23982500   1.008000   ; qtot 188.000368
; residue  189 bbb rtp bbb q 1.0
 5640         n4    189    bbb     N1   5640 0.03726400  14.010000   ; qtot 188.037632
 5641         c3    189    bbb     C1   5641 -0.07020100  12.010000   ; qtot 187.967431
 5642         hx    189    bbb     H1   5642 0.12219000   1.008000   ; qtot 188.089621
 5643         hx    189    bbb     H2   5643 0.12219000   1.008000   ; qtot 188.211811
 5644         c3    189    bbb     C2   5644 -0.07020100  12.010000   ; qtot 188.141610
 5645         hx    189    bbb     H3   5645 0.12219000   1.008000   ; qtot 188.263800
 5646         hx    189    bbb     H4   5646 0.12219000   1.008000   ; qtot 188.385990
 5647         c3    189    bbb     C3   5647 -0.39007700  12.010000   ; qtot 187.995913
 5648         hx    189    bbb     H5   5648 0.14940300   1.008000   ; qtot 188.145316
 5649         hx    189    bbb     H6   5649 0.14940300   1.008000   ; qtot 188.294719
 5650         c3    189    bbb     C4   5650 0.18057300  12.010000   ; qtot 188.475292
 5651         hc    189    bbb     H7   5651 0.01788900   1.008000   ; qtot 188.493181
 5652         hc    189    bbb     H8   5652 0.01788900   1.008000   ; qtot 188.511070
 5653         c3    189    bbb     C5   5653 -0.11337700  12.010000   ; qtot 188.397693
 5654         hc    189    bbb     H9   5654 0.09515400   1.008000   ; qtot 188.492847
 5655         hc    189    bbb    H10   5655 0.09515400   1.008000   ; qtot 188.588001
 5656         c3    189    bbb     C6   5656 -0.11337700  12.010000   ; qtot 188.474624
 5657         hc    189    bbb    H11   5657 0.09515400   1.008000   ; qtot 188.569778
 5658         hc    189    bbb    H12   5658 0.09515400   1.008000   ; qtot 188.664932
 5659         c3    189    bbb     C7   5659 0.21842400  12.010000   ; qtot 188.883356
 5660         h1    189    bbb    H13   5660 0.04500300   1.008000   ; qtot 188.928359
 5661         h1    189    bbb    H14   5661 0.04500300   1.008000   ; qtot 188.973362
 5662         c3    189    bbb     C8   5662 -0.06455200  12.010000   ; qtot 188.908810
 5663         h1    189    bbb    H15   5663 0.13554100   1.008000   ; qtot 189.044351
 5664         h1    189    bbb    H16   5664 0.13554100   1.008000   ; qtot 189.179892
 5665         c3    189    bbb     C9   5665 -0.06455200  12.010000   ; qtot 189.115340
 5666         h1    189    bbb    H17   5666 0.13554100   1.008000   ; qtot 189.250881
 5667         h1    189    bbb    H18   5667 0.13554100   1.008000   ; qtot 189.386422
 5668         os    189    bbb     O1   5668 -0.62587700  16.000000   ; qtot 188.760545
 5669         hn    189    bbb    H19   5669 0.23982500   1.008000   ; qtot 189.000370
; residue  190 bbb rtp bbb q 1.0
 5670         n4    190    bbb     N1   5670 0.03726400  14.010000   ; qtot 189.037634
 5671         c3    190    bbb     C1   5671 -0.07020100  12.010000   ; qtot 188.967433
 5672         hx    190    bbb     H1   5672 0.12219000   1.008000   ; qtot 189.089623
 5673         hx    190    bbb     H2   5673 0.12219000   1.008000   ; qtot 189.211813
 5674         c3    190    bbb     C2   5674 -0.07020100  12.010000   ; qtot 189.141612
 5675         hx    190    bbb     H3   5675 0.12219000   1.008000   ; qtot 189.263802
 5676         hx    190    bbb     H4   5676 0.12219000   1.008000   ; qtot 189.385992
 5677         c3    190    bbb     C3   5677 -0.39007700  12.010000   ; qtot 188.995915
 5678         hx    190    bbb     H5   5678 0.14940300   1.008000   ; qtot 189.145318
 5679         hx    190    bbb     H6   5679 0.14940300   1.008000   ; qtot 189.294721
 5680         c3    190    bbb     C4   5680 0.18057300  12.010000   ; qtot 189.475294
 5681         hc    190    bbb     H7   5681 0.01788900   1.008000   ; qtot 189.493183
 5682         hc    190    bbb     H8   5682 0.01788900   1.008000   ; qtot 189.511072
 5683         c3    190    bbb     C5   5683 -0.11337700  12.010000   ; qtot 189.397695
 5684         hc    190    bbb     H9   5684 0.09515400   1.008000   ; qtot 189.492849
 5685         hc    190    bbb    H10   5685 0.09515400   1.008000   ; qtot 189.588003
 5686         c3    190    bbb     C6   5686 -0.11337700  12.010000   ; qtot 189.474626
 5687         hc    190    bbb    H11   5687 0.09515400   1.008000   ; qtot 189.569780
 5688         hc    190    bbb    H12   5688 0.09515400   1.008000   ; qtot 189.664934
 5689         c3    190    bbb     C7   5689 0.21842400  12.010000   ; qtot 189.883358
 5690         h1    190    bbb    H13   5690 0.04500300   1.008000   ; qtot 189.928361
 5691         h1    190    bbb    H14   5691 0.04500300   1.008000   ; qtot 189.973364
 5692         c3    190    bbb     C8   5692 -0.06455200  12.010000   ; qtot 189.908812
 5693         h1    190    bbb    H15   5693 0.13554100   1.008000   ; qtot 190.044353
 5694         h1    190    bbb    H16   5694 0.13554100   1.008000   ; qtot 190.179894
 5695         c3    190    bbb     C9   5695 -0.06455200  12.010000   ; qtot 190.115342
 5696         h1    190    bbb    H17   5696 0.13554100   1.008000   ; qtot 190.250883
 5697         h1    190    bbb    H18   5697 0.13554100   1.008000   ; qtot 190.386424
 5698         os    190    bbb     O1   5698 -0.62587700  16.000000   ; qtot 189.760547
 5699         hn    190    bbb    H19   5699 0.23982500   1.008000   ; qtot 190.000372
; residue  191 ccc rtp ccc q 1.0
 5700         c3    191    ccc     C1   5700 0.17060900  12.010000   ; qtot 190.170981
 5701         hx    191    ccc     H1   5701 0.04213200   1.008000   ; qtot 190.213113
 5702         hx    191    ccc     H2   5702 0.04213200   1.008000   ; qtot 190.255245
 5703         c3    191    ccc     C2   5703 -0.04496700  12.010000   ; qtot 190.210278
 5704         hc    191    ccc     H3   5704 0.02647500   1.008000   ; qtot 190.236753
 5705         hc    191    ccc     H4   5705 0.02647500   1.008000   ; qtot 190.263228
 5706         c3    191    ccc     C3   5706 0.04732600  12.010000   ; qtot 190.310554
 5707         h1    191    ccc     H5   5707 0.07030200   1.008000   ; qtot 190.380856
 5708         h1    191    ccc     H6   5708 0.07030200   1.008000   ; qtot 190.451158
 5709         n4    191    ccc     N1   5709 -0.21077700  14.010000   ; qtot 190.240381
 5710         hn    191    ccc     H7   5710 0.28399900   1.008000   ; qtot 190.524380
 5711         hn    191    ccc     H8   5711 0.28399900   1.008000   ; qtot 190.808379
 5712         os    191    ccc     O1   5712 -0.09200600  16.000000   ; qtot 190.716373
 5713         hn    191    ccc    H17   5713 0.28399900   1.008000   ; qtot 191.000372
; residue  192 ccc rtp ccc q 1.0
 5714         c3    192    ccc     C1   5714 0.17060900  12.010000   ; qtot 191.170981
 5715         hx    192    ccc     H1   5715 0.04213200   1.008000   ; qtot 191.213113
 5716         hx    192    ccc     H2   5716 0.04213200   1.008000   ; qtot 191.255245
 5717         c3    192    ccc     C2   5717 -0.04496700  12.010000   ; qtot 191.210278
 5718         hc    192    ccc     H3   5718 0.02647500   1.008000   ; qtot 191.236753
 5719         hc    192    ccc     H4   5719 0.02647500   1.008000   ; qtot 191.263228
 5720         c3    192    ccc     C3   5720 0.04732600  12.010000   ; qtot 191.310554
 5721         h1    192    ccc     H5   5721 0.07030200   1.008000   ; qtot 191.380856
 5722         h1    192    ccc     H6   5722 0.07030200   1.008000   ; qtot 191.451158
 5723         n4    192    ccc     N1   5723 -0.21077700  14.010000   ; qtot 191.240381
 5724         hn    192    ccc     H7   5724 0.28399900   1.008000   ; qtot 191.524380
 5725         hn    192    ccc     H8   5725 0.28399900   1.008000   ; qtot 191.808379
 5726         os    192    ccc     O1   5726 -0.09200600  16.000000   ; qtot 191.716373
 5727         hn    192    ccc    H17   5727 0.28399900   1.008000   ; qtot 192.000372
; residue  193 ccc rtp ccc q 1.0
 5728         c3    193    ccc     C1   5728 0.17060900  12.010000   ; qtot 192.170981
 5729         hx    193    ccc     H1   5729 0.04213200   1.008000   ; qtot 192.213113
 5730         hx    193    ccc     H2   5730 0.04213200   1.008000   ; qtot 192.255245
 5731         c3    193    ccc     C2   5731 -0.04496700  12.010000   ; qtot 192.210278
 5732         hc    193    ccc     H3   5732 0.02647500   1.008000   ; qtot 192.236753
 5733         hc    193    ccc     H4   5733 0.02647500   1.008000   ; qtot 192.263228
 5734         c3    193    ccc     C3   5734 0.04732600  12.010000   ; qtot 192.310554
 5735         h1    193    ccc     H5   5735 0.07030200   1.008000   ; qtot 192.380856
 5736         h1    193    ccc     H6   5736 0.07030200   1.008000   ; qtot 192.451158
 5737         n4    193    ccc     N1   5737 -0.21077700  14.010000   ; qtot 192.240381
 5738         hn    193    ccc     H7   5738 0.28399900   1.008000   ; qtot 192.524380
 5739         hn    193    ccc     H8   5739 0.28399900   1.008000   ; qtot 192.808379
 5740         os    193    ccc     O1   5740 -0.09200600  16.000000   ; qtot 192.716373
 5741         hn    193    ccc    H17   5741 0.28399900   1.008000   ; qtot 193.000372
; residue  194 ccc rtp ccc q 1.0
 5742         c3    194    ccc     C1   5742 0.17060900  12.010000   ; qtot 193.170981
 5743         hx    194    ccc     H1   5743 0.04213200   1.008000   ; qtot 193.213113
 5744         hx    194    ccc     H2   5744 0.04213200   1.008000   ; qtot 193.255245
 5745         c3    194    ccc     C2   5745 -0.04496700  12.010000   ; qtot 193.210278
 5746         hc    194    ccc     H3   5746 0.02647500   1.008000   ; qtot 193.236753
 5747         hc    194    ccc     H4   5747 0.02647500   1.008000   ; qtot 193.263228
 5748         c3    194    ccc     C3   5748 0.04732600  12.010000   ; qtot 193.310554
 5749         h1    194    ccc     H5   5749 0.07030200   1.008000   ; qtot 193.380856
 5750         h1    194    ccc     H6   5750 0.07030200   1.008000   ; qtot 193.451158
 5751         n4    194    ccc     N1   5751 -0.21077700  14.010000   ; qtot 193.240381
 5752         hn    194    ccc     H7   5752 0.28399900   1.008000   ; qtot 193.524380
 5753         hn    194    ccc     H8   5753 0.28399900   1.008000   ; qtot 193.808379
 5754         os    194    ccc     O1   5754 -0.09200600  16.000000   ; qtot 193.716373
 5755         hn    194    ccc    H17   5755 0.28399900   1.008000   ; qtot 194.000372
; residue  195 ccc rtp ccc q 1.0
 5756         c3    195    ccc     C1   5756 0.17060900  12.010000   ; qtot 194.170981
 5757         hx    195    ccc     H1   5757 0.04213200   1.008000   ; qtot 194.213113
 5758         hx    195    ccc     H2   5758 0.04213200   1.008000   ; qtot 194.255245
 5759         c3    195    ccc     C2   5759 -0.04496700  12.010000   ; qtot 194.210278
 5760         hc    195    ccc     H3   5760 0.02647500   1.008000   ; qtot 194.236753
 5761         hc    195    ccc     H4   5761 0.02647500   1.008000   ; qtot 194.263228
 5762         c3    195    ccc     C3   5762 0.04732600  12.010000   ; qtot 194.310554
 5763         h1    195    ccc     H5   5763 0.07030200   1.008000   ; qtot 194.380856
 5764         h1    195    ccc     H6   5764 0.07030200   1.008000   ; qtot 194.451158
 5765         n4    195    ccc     N1   5765 -0.21077700  14.010000   ; qtot 194.240381
 5766         hn    195    ccc     H7   5766 0.28399900   1.008000   ; qtot 194.524380
 5767         hn    195    ccc     H8   5767 0.28399900   1.008000   ; qtot 194.808379
 5768         os    195    ccc     O1   5768 -0.09200600  16.000000   ; qtot 194.716373
 5769         hn    195    ccc    H17   5769 0.28399900   1.008000   ; qtot 195.000372
; residue  196 ccc rtp ccc q 1.0
 5770         c3    196    ccc     C1   5770 0.17060900  12.010000   ; qtot 195.170981
 5771         hx    196    ccc     H1   5771 0.04213200   1.008000   ; qtot 195.213113
 5772         hx    196    ccc     H2   5772 0.04213200   1.008000   ; qtot 195.255245
 5773         c3    196    ccc     C2   5773 -0.04496700  12.010000   ; qtot 195.210278
 5774         hc    196    ccc     H3   5774 0.02647500   1.008000   ; qtot 195.236753
 5775         hc    196    ccc     H4   5775 0.02647500   1.008000   ; qtot 195.263228
 5776         c3    196    ccc     C3   5776 0.04732600  12.010000   ; qtot 195.310554
 5777         h1    196    ccc     H5   5777 0.07030200   1.008000   ; qtot 195.380856
 5778         h1    196    ccc     H6   5778 0.07030200   1.008000   ; qtot 195.451158
 5779         n4    196    ccc     N1   5779 -0.21077700  14.010000   ; qtot 195.240381
 5780         hn    196    ccc     H7   5780 0.28399900   1.008000   ; qtot 195.524380
 5781         hn    196    ccc     H8   5781 0.28399900   1.008000   ; qtot 195.808379
 5782         os    196    ccc     O1   5782 -0.09200600  16.000000   ; qtot 195.716373
 5783         hn    196    ccc    H17   5783 0.28399900   1.008000   ; qtot 196.000372
; residue  197 ccc rtp ccc q 1.0
 5784         c3    197    ccc     C1   5784 0.17060900  12.010000   ; qtot 196.170981
 5785         hx    197    ccc     H1   5785 0.04213200   1.008000   ; qtot 196.213113
 5786         hx    197    ccc     H2   5786 0.04213200   1.008000   ; qtot 196.255245
 5787         c3    197    ccc     C2   5787 -0.04496700  12.010000   ; qtot 196.210278
 5788         hc    197    ccc     H3   5788 0.02647500   1.008000   ; qtot 196.236753
 5789         hc    197    ccc     H4   5789 0.02647500   1.008000   ; qtot 196.263228
 5790         c3    197    ccc     C3   5790 0.04732600  12.010000   ; qtot 196.310554
 5791         h1    197    ccc     H5   5791 0.07030200   1.008000   ; qtot 196.380856
 5792         h1    197    ccc     H6   5792 0.07030200   1.008000   ; qtot 196.451158
 5793         n4    197    ccc     N1   5793 -0.21077700  14.010000   ; qtot 196.240381
 5794         hn    197    ccc     H7   5794 0.28399900   1.008000   ; qtot 196.524380
 5795         hn    197    ccc     H8   5795 0.28399900   1.008000   ; qtot 196.808379
 5796         os    197    ccc     O1   5796 -0.09200600  16.000000   ; qtot 196.716373
 5797         hn    197    ccc    H17   5797 0.28399900   1.008000   ; qtot 197.000372
; residue  198 ccc rtp ccc q 1.0
 5798         c3    198    ccc     C1   5798 0.17060900  12.010000   ; qtot 197.170981
 5799         hx    198    ccc     H1   5799 0.04213200   1.008000   ; qtot 197.213113
 5800         hx    198    ccc     H2   5800 0.04213200   1.008000   ; qtot 197.255245
 5801         c3    198    ccc     C2   5801 -0.04496700  12.010000   ; qtot 197.210278
 5802         hc    198    ccc     H3   5802 0.02647500   1.008000   ; qtot 197.236753
 5803         hc    198    ccc     H4   5803 0.02647500   1.008000   ; qtot 197.263228
 5804         c3    198    ccc     C3   5804 0.04732600  12.010000   ; qtot 197.310554
 5805         h1    198    ccc     H5   5805 0.07030200   1.008000   ; qtot 197.380856
 5806         h1    198    ccc     H6   5806 0.07030200   1.008000   ; qtot 197.451158
 5807         n4    198    ccc     N1   5807 -0.21077700  14.010000   ; qtot 197.240381
 5808         hn    198    ccc     H7   5808 0.28399900   1.008000   ; qtot 197.524380
 5809         hn    198    ccc     H8   5809 0.28399900   1.008000   ; qtot 197.808379
 5810         os    198    ccc     O1   5810 -0.09200600  16.000000   ; qtot 197.716373
 5811         hn    198    ccc    H17   5811 0.28399900   1.008000   ; qtot 198.000372
; residue  199 ccc rtp ccc q 1.0
 5812         c3    199    ccc     C1   5812 0.17060900  12.010000   ; qtot 198.170981
 5813         hx    199    ccc     H1   5813 0.04213200   1.008000   ; qtot 198.213113
 5814         hx    199    ccc     H2   5814 0.04213200   1.008000   ; qtot 198.255245
 5815         c3    199    ccc     C2   5815 -0.04496700  12.010000   ; qtot 198.210278
 5816         hc    199    ccc     H3   5816 0.02647500   1.008000   ; qtot 198.236753
 5817         hc    199    ccc     H4   5817 0.02647500   1.008000   ; qtot 198.263228
 5818         c3    199    ccc     C3   5818 0.04732600  12.010000   ; qtot 198.310554
 5819         h1    199    ccc     H5   5819 0.07030200   1.008000   ; qtot 198.380856
 5820         h1    199    ccc     H6   5820 0.07030200   1.008000   ; qtot 198.451158
 5821         n4    199    ccc     N1   5821 -0.21077700  14.010000   ; qtot 198.240381
 5822         hn    199    ccc     H7   5822 0.28399900   1.008000   ; qtot 198.524380
 5823         hn    199    ccc     H8   5823 0.28399900   1.008000   ; qtot 198.808379
 5824         os    199    ccc     O1   5824 -0.09200600  16.000000   ; qtot 198.716373
 5825         hn    199    ccc    H17   5825 0.28399900   1.008000   ; qtot 199.000372
; residue  200 ccc rtp ccc q 1.0
 5826         c3    200    ccc     C1   5826 0.17060900  12.010000   ; qtot 199.170981
 5827         hx    200    ccc     H1   5827 0.04213200   1.008000   ; qtot 199.213113
 5828         hx    200    ccc     H2   5828 0.04213200   1.008000   ; qtot 199.255245
 5829         c3    200    ccc     C2   5829 -0.04496700  12.010000   ; qtot 199.210278
 5830         hc    200    ccc     H3   5830 0.02647500   1.008000   ; qtot 199.236753
 5831         hc    200    ccc     H4   5831 0.02647500   1.008000   ; qtot 199.263228
 5832         c3    200    ccc     C3   5832 0.04732600  12.010000   ; qtot 199.310554
 5833         h1    200    ccc     H5   5833 0.07030200   1.008000   ; qtot 199.380856
 5834         h1    200    ccc     H6   5834 0.07030200   1.008000   ; qtot 199.451158
 5835         n4    200    ccc     N1   5835 -0.21077700  14.010000   ; qtot 199.240381
 5836         hn    200    ccc     H7   5836 0.28399900   1.008000   ; qtot 199.524380
 5837         hn    200    ccc     H8   5837 0.28399900   1.008000   ; qtot 199.808379
 5838         os    200    ccc     O1   5838 -0.09200600  16.000000   ; qtot 199.716373
 5839         hn    200    ccc    H17   5839 0.28399900   1.008000   ; qtot 200.000372
; residue  201 ccc rtp ccc q 1.0
 5840         c3    201    ccc     C1   5840 0.17060900  12.010000   ; qtot 200.170981
 5841         hx    201    ccc     H1   5841 0.04213200   1.008000   ; qtot 200.213113
 5842         hx    201    ccc     H2   5842 0.04213200   1.008000   ; qtot 200.255245
 5843         c3    201    ccc     C2   5843 -0.04496700  12.010000   ; qtot 200.210278
 5844         hc    201    ccc     H3   5844 0.02647500   1.008000   ; qtot 200.236753
 5845         hc    201    ccc     H4   5845 0.02647500   1.008000   ; qtot 200.263228
 5846         c3    201    ccc     C3   5846 0.04732600  12.010000   ; qtot 200.310554
 5847         h1    201    ccc     H5   5847 0.07030200   1.008000   ; qtot 200.380856
 5848         h1    201    ccc     H6   5848 0.07030200   1.008000   ; qtot 200.451158
 5849         n4    201    ccc     N1   5849 -0.21077700  14.010000   ; qtot 200.240381
 5850         hn    201    ccc     H7   5850 0.28399900   1.008000   ; qtot 200.524380
 5851         hn    201    ccc     H8   5851 0.28399900   1.008000   ; qtot 200.808379
 5852         os    201    ccc     O1   5852 -0.09200600  16.000000   ; qtot 200.716373
 5853         hn    201    ccc    H17   5853 0.28399900   1.008000   ; qtot 201.000372
; residue  202 ccc rtp ccc q 1.0
 5854         c3    202    ccc     C1   5854 0.17060900  12.010000   ; qtot 201.170981
 5855         hx    202    ccc     H1   5855 0.04213200   1.008000   ; qtot 201.213113
 5856         hx    202    ccc     H2   5856 0.04213200   1.008000   ; qtot 201.255245
 5857         c3    202    ccc     C2   5857 -0.04496700  12.010000   ; qtot 201.210278
 5858         hc    202    ccc     H3   5858 0.02647500   1.008000   ; qtot 201.236753
 5859         hc    202    ccc     H4   5859 0.02647500   1.008000   ; qtot 201.263228
 5860         c3    202    ccc     C3   5860 0.04732600  12.010000   ; qtot 201.310554
 5861         h1    202    ccc     H5   5861 0.07030200   1.008000   ; qtot 201.380856
 5862         h1    202    ccc     H6   5862 0.07030200   1.008000   ; qtot 201.451158
 5863         n4    202    ccc     N1   5863 -0.21077700  14.010000   ; qtot 201.240381
 5864         hn    202    ccc     H7   5864 0.28399900   1.008000   ; qtot 201.524380
 5865         hn    202    ccc     H8   5865 0.28399900   1.008000   ; qtot 201.808379
 5866         os    202    ccc     O1   5866 -0.09200600  16.000000   ; qtot 201.716373
 5867         hn    202    ccc    H17   5867 0.28399900   1.008000   ; qtot 202.000372
; residue  203 ccc rtp ccc q 1.0
 5868         c3    203    ccc     C1   5868 0.17060900  12.010000   ; qtot 202.170981
 5869         hx    203    ccc     H1   5869 0.04213200   1.008000   ; qtot 202.213113
 5870         hx    203    ccc     H2   5870 0.04213200   1.008000   ; qtot 202.255245
 5871         c3    203    ccc     C2   5871 -0.04496700  12.010000   ; qtot 202.210278
 5872         hc    203    ccc     H3   5872 0.02647500   1.008000   ; qtot 202.236753
 5873         hc    203    ccc     H4   5873 0.02647500   1.008000   ; qtot 202.263228
 5874         c3    203    ccc     C3   5874 0.04732600  12.010000   ; qtot 202.310554
 5875         h1    203    ccc     H5   5875 0.07030200   1.008000   ; qtot 202.380856
 5876         h1    203    ccc     H6   5876 0.07030200   1.008000   ; qtot 202.451158
 5877         n4    203    ccc     N1   5877 -0.21077700  14.010000   ; qtot 202.240381
 5878         hn    203    ccc     H7   5878 0.28399900   1.008000   ; qtot 202.524380
 5879         hn    203    ccc     H8   5879 0.28399900   1.008000   ; qtot 202.808379
 5880         os    203    ccc     O1   5880 -0.09200600  16.000000   ; qtot 202.716373
 5881         hn    203    ccc    H17   5881 0.28399900   1.008000   ; qtot 203.000372
; residue  204 ccc rtp ccc q 1.0
 5882         c3    204    ccc     C1   5882 0.17060900  12.010000   ; qtot 203.170981
 5883         hx    204    ccc     H1   5883 0.04213200   1.008000   ; qtot 203.213113
 5884         hx    204    ccc     H2   5884 0.04213200   1.008000   ; qtot 203.255245
 5885         c3    204    ccc     C2   5885 -0.04496700  12.010000   ; qtot 203.210278
 5886         hc    204    ccc     H3   5886 0.02647500   1.008000   ; qtot 203.236753
 5887         hc    204    ccc     H4   5887 0.02647500   1.008000   ; qtot 203.263228
 5888         c3    204    ccc     C3   5888 0.04732600  12.010000   ; qtot 203.310554
 5889         h1    204    ccc     H5   5889 0.07030200   1.008000   ; qtot 203.380856
 5890         h1    204    ccc     H6   5890 0.07030200   1.008000   ; qtot 203.451158
 5891         n4    204    ccc     N1   5891 -0.21077700  14.010000   ; qtot 203.240381
 5892         hn    204    ccc     H7   5892 0.28399900   1.008000   ; qtot 203.524380
 5893         hn    204    ccc     H8   5893 0.28399900   1.008000   ; qtot 203.808379
 5894         os    204    ccc     O1   5894 -0.09200600  16.000000   ; qtot 203.716373
 5895         hn    204    ccc    H17   5895 0.28399900   1.008000   ; qtot 204.000372
; residue  205 ccc rtp ccc q 1.0
 5896         c3    205    ccc     C1   5896 0.17060900  12.010000   ; qtot 204.170981
 5897         hx    205    ccc     H1   5897 0.04213200   1.008000   ; qtot 204.213113
 5898         hx    205    ccc     H2   5898 0.04213200   1.008000   ; qtot 204.255245
 5899         c3    205    ccc     C2   5899 -0.04496700  12.010000   ; qtot 204.210278
 5900         hc    205    ccc     H3   5900 0.02647500   1.008000   ; qtot 204.236753
 5901         hc    205    ccc     H4   5901 0.02647500   1.008000   ; qtot 204.263228
 5902         c3    205    ccc     C3   5902 0.04732600  12.010000   ; qtot 204.310554
 5903         h1    205    ccc     H5   5903 0.07030200   1.008000   ; qtot 204.380856
 5904         h1    205    ccc     H6   5904 0.07030200   1.008000   ; qtot 204.451158
 5905         n4    205    ccc     N1   5905 -0.21077700  14.010000   ; qtot 204.240381
 5906         hn    205    ccc     H7   5906 0.28399900   1.008000   ; qtot 204.524380
 5907         hn    205    ccc     H8   5907 0.28399900   1.008000   ; qtot 204.808379
 5908         os    205    ccc     O1   5908 -0.09200600  16.000000   ; qtot 204.716373
 5909         hn    205    ccc    H17   5909 0.28399900   1.008000   ; qtot 205.000372
; residue  206 ccc rtp ccc q 1.0
 5910         c3    206    ccc     C1   5910 0.17060900  12.010000   ; qtot 205.170981
 5911         hx    206    ccc     H1   5911 0.04213200   1.008000   ; qtot 205.213113
 5912         hx    206    ccc     H2   5912 0.04213200   1.008000   ; qtot 205.255245
 5913         c3    206    ccc     C2   5913 -0.04496700  12.010000   ; qtot 205.210278
 5914         hc    206    ccc     H3   5914 0.02647500   1.008000   ; qtot 205.236753
 5915         hc    206    ccc     H4   5915 0.02647500   1.008000   ; qtot 205.263228
 5916         c3    206    ccc     C3   5916 0.04732600  12.010000   ; qtot 205.310554
 5917         h1    206    ccc     H5   5917 0.07030200   1.008000   ; qtot 205.380856
 5918         h1    206    ccc     H6   5918 0.07030200   1.008000   ; qtot 205.451158
 5919         n4    206    ccc     N1   5919 -0.21077700  14.010000   ; qtot 205.240381
 5920         hn    206    ccc     H7   5920 0.28399900   1.008000   ; qtot 205.524380
 5921         hn    206    ccc     H8   5921 0.28399900   1.008000   ; qtot 205.808379
 5922         os    206    ccc     O1   5922 -0.09200600  16.000000   ; qtot 205.716373
 5923         hn    206    ccc    H17   5923 0.28399900   1.008000   ; qtot 206.000372
; residue  207 ccc rtp ccc q 1.0
 5924         c3    207    ccc     C1   5924 0.17060900  12.010000   ; qtot 206.170981
 5925         hx    207    ccc     H1   5925 0.04213200   1.008000   ; qtot 206.213113
 5926         hx    207    ccc     H2   5926 0.04213200   1.008000   ; qtot 206.255245
 5927         c3    207    ccc     C2   5927 -0.04496700  12.010000   ; qtot 206.210278
 5928         hc    207    ccc     H3   5928 0.02647500   1.008000   ; qtot 206.236753
 5929         hc    207    ccc     H4   5929 0.02647500   1.008000   ; qtot 206.263228
 5930         c3    207    ccc     C3   5930 0.04732600  12.010000   ; qtot 206.310554
 5931         h1    207    ccc     H5   5931 0.07030200   1.008000   ; qtot 206.380856
 5932         h1    207    ccc     H6   5932 0.07030200   1.008000   ; qtot 206.451158
 5933         n4    207    ccc     N1   5933 -0.21077700  14.010000   ; qtot 206.240381
 5934         hn    207    ccc     H7   5934 0.28399900   1.008000   ; qtot 206.524380
 5935         hn    207    ccc     H8   5935 0.28399900   1.008000   ; qtot 206.808379
 5936         os    207    ccc     O1   5936 -0.09200600  16.000000   ; qtot 206.716373
 5937         hn    207    ccc    H17   5937 0.28399900   1.008000   ; qtot 207.000372
; residue  208 ccc rtp ccc q 1.0
 5938         c3    208    ccc     C1   5938 0.17060900  12.010000   ; qtot 207.170981
 5939         hx    208    ccc     H1   5939 0.04213200   1.008000   ; qtot 207.213113
 5940         hx    208    ccc     H2   5940 0.04213200   1.008000   ; qtot 207.255245
 5941         c3    208    ccc     C2   5941 -0.04496700  12.010000   ; qtot 207.210278
 5942         hc    208    ccc     H3   5942 0.02647500   1.008000   ; qtot 207.236753
 5943         hc    208    ccc     H4   5943 0.02647500   1.008000   ; qtot 207.263228
 5944         c3    208    ccc     C3   5944 0.04732600  12.010000   ; qtot 207.310554
 5945         h1    208    ccc     H5   5945 0.07030200   1.008000   ; qtot 207.380856
 5946         h1    208    ccc     H6   5946 0.07030200   1.008000   ; qtot 207.451158
 5947         n4    208    ccc     N1   5947 -0.21077700  14.010000   ; qtot 207.240381
 5948         hn    208    ccc     H7   5948 0.28399900   1.008000   ; qtot 207.524380
 5949         hn    208    ccc     H8   5949 0.28399900   1.008000   ; qtot 207.808379
 5950         os    208    ccc     O1   5950 -0.09200600  16.000000   ; qtot 207.716373
 5951         hn    208    ccc    H17   5951 0.28399900   1.008000   ; qtot 208.000372
; residue  209 ccc rtp ccc q 1.0
 5952         c3    209    ccc     C1   5952 0.17060900  12.010000   ; qtot 208.170981
 5953         hx    209    ccc     H1   5953 0.04213200   1.008000   ; qtot 208.213113
 5954         hx    209    ccc     H2   5954 0.04213200   1.008000   ; qtot 208.255245
 5955         c3    209    ccc     C2   5955 -0.04496700  12.010000   ; qtot 208.210278
 5956         hc    209    ccc     H3   5956 0.02647500   1.008000   ; qtot 208.236753
 5957         hc    209    ccc     H4   5957 0.02647500   1.008000   ; qtot 208.263228
 5958         c3    209    ccc     C3   5958 0.04732600  12.010000   ; qtot 208.310554
 5959         h1    209    ccc     H5   5959 0.07030200   1.008000   ; qtot 208.380856
 5960         h1    209    ccc     H6   5960 0.07030200   1.008000   ; qtot 208.451158
 5961         n4    209    ccc     N1   5961 -0.21077700  14.010000   ; qtot 208.240381
 5962         hn    209    ccc     H7   5962 0.28399900   1.008000   ; qtot 208.524380
 5963         hn    209    ccc     H8   5963 0.28399900   1.008000   ; qtot 208.808379
 5964         os    209    ccc     O1   5964 -0.09200600  16.000000   ; qtot 208.716373
 5965         hn    209    ccc    H17   5965 0.28399900   1.008000   ; qtot 209.000372
; residue  210 ccc rtp ccc q 1.0
 5966         c3    210    ccc     C1   5966 0.17060900  12.010000   ; qtot 209.170981
 5967         hx    210    ccc     H1   5967 0.04213200   1.008000   ; qtot 209.213113
 5968         hx    210    ccc     H2   5968 0.04213200   1.008000   ; qtot 209.255245
 5969         c3    210    ccc     C2   5969 -0.04496700  12.010000   ; qtot 209.210278
 5970         hc    210    ccc     H3   5970 0.02647500   1.008000   ; qtot 209.236753
 5971         hc    210    ccc     H4   5971 0.02647500   1.008000   ; qtot 209.263228
 5972         c3    210    ccc     C3   5972 0.04732600  12.010000   ; qtot 209.310554
 5973         h1    210    ccc     H5   5973 0.07030200   1.008000   ; qtot 209.380856
 5974         h1    210    ccc     H6   5974 0.07030200   1.008000   ; qtot 209.451158
 5975         n4    210    ccc     N1   5975 -0.21077700  14.010000   ; qtot 209.240381
 5976         hn    210    ccc     H7   5976 0.28399900   1.008000   ; qtot 209.524380
 5977         hn    210    ccc     H8   5977 0.28399900   1.008000   ; qtot 209.808379
 5978         os    210    ccc     O1   5978 -0.09200600  16.000000   ; qtot 209.716373
 5979         hn    210    ccc    H17   5979 0.28399900   1.008000   ; qtot 210.000372
; residue  211 ccc rtp ccc q 1.0
 5980         c3    211    ccc     C1   5980 0.17060900  12.010000   ; qtot 210.170981
 5981         hx    211    ccc     H1   5981 0.04213200   1.008000   ; qtot 210.213113
 5982         hx    211    ccc     H2   5982 0.04213200   1.008000   ; qtot 210.255245
 5983         c3    211    ccc     C2   5983 -0.04496700  12.010000   ; qtot 210.210278
 5984         hc    211    ccc     H3   5984 0.02647500   1.008000   ; qtot 210.236753
 5985         hc    211    ccc     H4   5985 0.02647500   1.008000   ; qtot 210.263228
 5986         c3    211    ccc     C3   5986 0.04732600  12.010000   ; qtot 210.310554
 5987         h1    211    ccc     H5   5987 0.07030200   1.008000   ; qtot 210.380856
 5988         h1    211    ccc     H6   5988 0.07030200   1.008000   ; qtot 210.451158
 5989         n4    211    ccc     N1   5989 -0.21077700  14.010000   ; qtot 210.240381
 5990         hn    211    ccc     H7   5990 0.28399900   1.008000   ; qtot 210.524380
 5991         hn    211    ccc     H8   5991 0.28399900   1.008000   ; qtot 210.808379
 5992         os    211    ccc     O1   5992 -0.09200600  16.000000   ; qtot 210.716373
 5993         hn    211    ccc    H17   5993 0.28399900   1.008000   ; qtot 211.000372
; residue  212 ccc rtp ccc q 1.0
 5994         c3    212    ccc     C1   5994 0.17060900  12.010000   ; qtot 211.170981
 5995         hx    212    ccc     H1   5995 0.04213200   1.008000   ; qtot 211.213113
 5996         hx    212    ccc     H2   5996 0.04213200   1.008000   ; qtot 211.255245
 5997         c3    212    ccc     C2   5997 -0.04496700  12.010000   ; qtot 211.210278
 5998         hc    212    ccc     H3   5998 0.02647500   1.008000   ; qtot 211.236753
 5999         hc    212    ccc     H4   5999 0.02647500   1.008000   ; qtot 211.263228
 6000         c3    212    ccc     C3   6000 0.04732600  12.010000   ; qtot 211.310554
 6001         h1    212    ccc     H5   6001 0.07030200   1.008000   ; qtot 211.380856
 6002         h1    212    ccc     H6   6002 0.07030200   1.008000   ; qtot 211.451158
 6003         n4    212    ccc     N1   6003 -0.21077700  14.010000   ; qtot 211.240381
 6004         hn    212    ccc     H7   6004 0.28399900   1.008000   ; qtot 211.524380
 6005         hn    212    ccc     H8   6005 0.28399900   1.008000   ; qtot 211.808379
 6006         os    212    ccc     O1   6006 -0.09200600  16.000000   ; qtot 211.716373
 6007         hn    212    ccc    H17   6007 0.28399900   1.008000   ; qtot 212.000372
; residue  213 ccc rtp ccc q 1.0
 6008         c3    213    ccc     C1   6008 0.17060900  12.010000   ; qtot 212.170981
 6009         hx    213    ccc     H1   6009 0.04213200   1.008000   ; qtot 212.213113
 6010         hx    213    ccc     H2   6010 0.04213200   1.008000   ; qtot 212.255245
 6011         c3    213    ccc     C2   6011 -0.04496700  12.010000   ; qtot 212.210278
 6012         hc    213    ccc     H3   6012 0.02647500   1.008000   ; qtot 212.236753
 6013         hc    213    ccc     H4   6013 0.02647500   1.008000   ; qtot 212.263228
 6014         c3    213    ccc     C3   6014 0.04732600  12.010000   ; qtot 212.310554
 6015         h1    213    ccc     H5   6015 0.07030200   1.008000   ; qtot 212.380856
 6016         h1    213    ccc     H6   6016 0.07030200   1.008000   ; qtot 212.451158
 6017         n4    213    ccc     N1   6017 -0.21077700  14.010000   ; qtot 212.240381
 6018         hn    213    ccc     H7   6018 0.28399900   1.008000   ; qtot 212.524380
 6019         hn    213    ccc     H8   6019 0.28399900   1.008000   ; qtot 212.808379
 6020         os    213    ccc     O1   6020 -0.09200600  16.000000   ; qtot 212.716373
 6021         hn    213    ccc    H17   6021 0.28399900   1.008000   ; qtot 213.000372
; residue  214 ccc rtp ccc q 1.0
 6022         c3    214    ccc     C1   6022 0.17060900  12.010000   ; qtot 213.170981
 6023         hx    214    ccc     H1   6023 0.04213200   1.008000   ; qtot 213.213113
 6024         hx    214    ccc     H2   6024 0.04213200   1.008000   ; qtot 213.255245
 6025         c3    214    ccc     C2   6025 -0.04496700  12.010000   ; qtot 213.210278
 6026         hc    214    ccc     H3   6026 0.02647500   1.008000   ; qtot 213.236753
 6027         hc    214    ccc     H4   6027 0.02647500   1.008000   ; qtot 213.263228
 6028         c3    214    ccc     C3   6028 0.04732600  12.010000   ; qtot 213.310554
 6029         h1    214    ccc     H5   6029 0.07030200   1.008000   ; qtot 213.380856
 6030         h1    214    ccc     H6   6030 0.07030200   1.008000   ; qtot 213.451158
 6031         n4    214    ccc     N1   6031 -0.21077700  14.010000   ; qtot 213.240381
 6032         hn    214    ccc     H7   6032 0.28399900   1.008000   ; qtot 213.524380
 6033         hn    214    ccc     H8   6033 0.28399900   1.008000   ; qtot 213.808379
 6034         os    214    ccc     O1   6034 -0.09200600  16.000000   ; qtot 213.716373
 6035         hn    214    ccc    H17   6035 0.28399900   1.008000   ; qtot 214.000372
; residue  215 ccc rtp ccc q 1.0
 6036         c3    215    ccc     C1   6036 0.17060900  12.010000   ; qtot 214.170981
 6037         hx    215    ccc     H1   6037 0.04213200   1.008000   ; qtot 214.213113
 6038         hx    215    ccc     H2   6038 0.04213200   1.008000   ; qtot 214.255245
 6039         c3    215    ccc     C2   6039 -0.04496700  12.010000   ; qtot 214.210278
 6040         hc    215    ccc     H3   6040 0.02647500   1.008000   ; qtot 214.236753
 6041         hc    215    ccc     H4   6041 0.02647500   1.008000   ; qtot 214.263228
 6042         c3    215    ccc     C3   6042 0.04732600  12.010000   ; qtot 214.310554
 6043         h1    215    ccc     H5   6043 0.07030200   1.008000   ; qtot 214.380856
 6044         h1    215    ccc     H6   6044 0.07030200   1.008000   ; qtot 214.451158
 6045         n4    215    ccc     N1   6045 -0.21077700  14.010000   ; qtot 214.240381
 6046         hn    215    ccc     H7   6046 0.28399900   1.008000   ; qtot 214.524380
 6047         hn    215    ccc     H8   6047 0.28399900   1.008000   ; qtot 214.808379
 6048         os    215    ccc     O1   6048 -0.09200600  16.000000   ; qtot 214.716373
 6049         hn    215    ccc    H17   6049 0.28399900   1.008000   ; qtot 215.000372
; residue  216 ccc rtp ccc q 1.0
 6050         c3    216    ccc     C1   6050 0.17060900  12.010000   ; qtot 215.170981
 6051         hx    216    ccc     H1   6051 0.04213200   1.008000   ; qtot 215.213113
 6052         hx    216    ccc     H2   6052 0.04213200   1.008000   ; qtot 215.255245
 6053         c3    216    ccc     C2   6053 -0.04496700  12.010000   ; qtot 215.210278
 6054         hc    216    ccc     H3   6054 0.02647500   1.008000   ; qtot 215.236753
 6055         hc    216    ccc     H4   6055 0.02647500   1.008000   ; qtot 215.263228
 6056         c3    216    ccc     C3   6056 0.04732600  12.010000   ; qtot 215.310554
 6057         h1    216    ccc     H5   6057 0.07030200   1.008000   ; qtot 215.380856
 6058         h1    216    ccc     H6   6058 0.07030200   1.008000   ; qtot 215.451158
 6059         n4    216    ccc     N1   6059 -0.21077700  14.010000   ; qtot 215.240381
 6060         hn    216    ccc     H7   6060 0.28399900   1.008000   ; qtot 215.524380
 6061         hn    216    ccc     H8   6061 0.28399900   1.008000   ; qtot 215.808379
 6062         os    216    ccc     O1   6062 -0.09200600  16.000000   ; qtot 215.716373
 6063         hn    216    ccc    H17   6063 0.28399900   1.008000   ; qtot 216.000372
; residue  217 ccc rtp ccc q 1.0
 6064         c3    217    ccc     C1   6064 0.17060900  12.010000   ; qtot 216.170981
 6065         hx    217    ccc     H1   6065 0.04213200   1.008000   ; qtot 216.213113
 6066         hx    217    ccc     H2   6066 0.04213200   1.008000   ; qtot 216.255245
 6067         c3    217    ccc     C2   6067 -0.04496700  12.010000   ; qtot 216.210278
 6068         hc    217    ccc     H3   6068 0.02647500   1.008000   ; qtot 216.236753
 6069         hc    217    ccc     H4   6069 0.02647500   1.008000   ; qtot 216.263228
 6070         c3    217    ccc     C3   6070 0.04732600  12.010000   ; qtot 216.310554
 6071         h1    217    ccc     H5   6071 0.07030200   1.008000   ; qtot 216.380856
 6072         h1    217    ccc     H6   6072 0.07030200   1.008000   ; qtot 216.451158
 6073         n4    217    ccc     N1   6073 -0.21077700  14.010000   ; qtot 216.240381
 6074         hn    217    ccc     H7   6074 0.28399900   1.008000   ; qtot 216.524380
 6075         hn    217    ccc     H8   6075 0.28399900   1.008000   ; qtot 216.808379
 6076         os    217    ccc     O1   6076 -0.09200600  16.000000   ; qtot 216.716373
 6077         hn    217    ccc    H17   6077 0.28399900   1.008000   ; qtot 217.000372
; residue  218 ccc rtp ccc q 1.0
 6078         c3    218    ccc     C1   6078 0.17060900  12.010000   ; qtot 217.170981
 6079         hx    218    ccc     H1   6079 0.04213200   1.008000   ; qtot 217.213113
 6080         hx    218    ccc     H2   6080 0.04213200   1.008000   ; qtot 217.255245
 6081         c3    218    ccc     C2   6081 -0.04496700  12.010000   ; qtot 217.210278
 6082         hc    218    ccc     H3   6082 0.02647500   1.008000   ; qtot 217.236753
 6083         hc    218    ccc     H4   6083 0.02647500   1.008000   ; qtot 217.263228
 6084         c3    218    ccc     C3   6084 0.04732600  12.010000   ; qtot 217.310554
 6085         h1    218    ccc     H5   6085 0.07030200   1.008000   ; qtot 217.380856
 6086         h1    218    ccc     H6   6086 0.07030200   1.008000   ; qtot 217.451158
 6087         n4    218    ccc     N1   6087 -0.21077700  14.010000   ; qtot 217.240381
 6088         hn    218    ccc     H7   6088 0.28399900   1.008000   ; qtot 217.524380
 6089         hn    218    ccc     H8   6089 0.28399900   1.008000   ; qtot 217.808379
 6090         os    218    ccc     O1   6090 -0.09200600  16.000000   ; qtot 217.716373
 6091         hn    218    ccc    H17   6091 0.28399900   1.008000   ; qtot 218.000372
; residue  219 ccc rtp ccc q 1.0
 6092         c3    219    ccc     C1   6092 0.17060900  12.010000   ; qtot 218.170981
 6093         hx    219    ccc     H1   6093 0.04213200   1.008000   ; qtot 218.213113
 6094         hx    219    ccc     H2   6094 0.04213200   1.008000   ; qtot 218.255245
 6095         c3    219    ccc     C2   6095 -0.04496700  12.010000   ; qtot 218.210278
 6096         hc    219    ccc     H3   6096 0.02647500   1.008000   ; qtot 218.236753
 6097         hc    219    ccc     H4   6097 0.02647500   1.008000   ; qtot 218.263228
 6098         c3    219    ccc     C3   6098 0.04732600  12.010000   ; qtot 218.310554
 6099         h1    219    ccc     H5   6099 0.07030200   1.008000   ; qtot 218.380856
 6100         h1    219    ccc     H6   6100 0.07030200   1.008000   ; qtot 218.451158
 6101         n4    219    ccc     N1   6101 -0.21077700  14.010000   ; qtot 218.240381
 6102         hn    219    ccc     H7   6102 0.28399900   1.008000   ; qtot 218.524380
 6103         hn    219    ccc     H8   6103 0.28399900   1.008000   ; qtot 218.808379
 6104         os    219    ccc     O1   6104 -0.09200600  16.000000   ; qtot 218.716373
 6105         hn    219    ccc    H17   6105 0.28399900   1.008000   ; qtot 219.000372
; residue  220 ccc rtp ccc q 1.0
 6106         c3    220    ccc     C1   6106 0.17060900  12.010000   ; qtot 219.170981
 6107         hx    220    ccc     H1   6107 0.04213200   1.008000   ; qtot 219.213113
 6108         hx    220    ccc     H2   6108 0.04213200   1.008000   ; qtot 219.255245
 6109         c3    220    ccc     C2   6109 -0.04496700  12.010000   ; qtot 219.210278
 6110         hc    220    ccc     H3   6110 0.02647500   1.008000   ; qtot 219.236753
 6111         hc    220    ccc     H4   6111 0.02647500   1.008000   ; qtot 219.263228
 6112         c3    220    ccc     C3   6112 0.04732600  12.010000   ; qtot 219.310554
 6113         h1    220    ccc     H5   6113 0.07030200   1.008000   ; qtot 219.380856
 6114         h1    220    ccc     H6   6114 0.07030200   1.008000   ; qtot 219.451158
 6115         n4    220    ccc     N1   6115 -0.21077700  14.010000   ; qtot 219.240381
 6116         hn    220    ccc     H7   6116 0.28399900   1.008000   ; qtot 219.524380
 6117         hn    220    ccc     H8   6117 0.28399900   1.008000   ; qtot 219.808379
 6118         os    220    ccc     O1   6118 -0.09200600  16.000000   ; qtot 219.716373
 6119         hn    220    ccc    H17   6119 0.28399900   1.008000   ; qtot 220.000372
; residue  221 ccc rtp ccc q 1.0
 6120         c3    221    ccc     C1   6120 0.17060900  12.010000   ; qtot 220.170981
 6121         hx    221    ccc     H1   6121 0.04213200   1.008000   ; qtot 220.213113
 6122         hx    221    ccc     H2   6122 0.04213200   1.008000   ; qtot 220.255245
 6123         c3    221    ccc     C2   6123 -0.04496700  12.010000   ; qtot 220.210278
 6124         hc    221    ccc     H3   6124 0.02647500   1.008000   ; qtot 220.236753
 6125         hc    221    ccc     H4   6125 0.02647500   1.008000   ; qtot 220.263228
 6126         c3    221    ccc     C3   6126 0.04732600  12.010000   ; qtot 220.310554
 6127         h1    221    ccc     H5   6127 0.07030200   1.008000   ; qtot 220.380856
 6128         h1    221    ccc     H6   6128 0.07030200   1.008000   ; qtot 220.451158
 6129         n4    221    ccc     N1   6129 -0.21077700  14.010000   ; qtot 220.240381
 6130         hn    221    ccc     H7   6130 0.28399900   1.008000   ; qtot 220.524380
 6131         hn    221    ccc     H8   6131 0.28399900   1.008000   ; qtot 220.808379
 6132         os    221    ccc     O1   6132 -0.09200600  16.000000   ; qtot 220.716373
 6133         hn    221    ccc    H17   6133 0.28399900   1.008000   ; qtot 221.000372
; residue  222 ccc rtp ccc q 1.0
 6134         c3    222    ccc     C1   6134 0.17060900  12.010000   ; qtot 221.170981
 6135         hx    222    ccc     H1   6135 0.04213200   1.008000   ; qtot 221.213113
 6136         hx    222    ccc     H2   6136 0.04213200   1.008000   ; qtot 221.255245
 6137         c3    222    ccc     C2   6137 -0.04496700  12.010000   ; qtot 221.210278
 6138         hc    222    ccc     H3   6138 0.02647500   1.008000   ; qtot 221.236753
 6139         hc    222    ccc     H4   6139 0.02647500   1.008000   ; qtot 221.263228
 6140         c3    222    ccc     C3   6140 0.04732600  12.010000   ; qtot 221.310554
 6141         h1    222    ccc     H5   6141 0.07030200   1.008000   ; qtot 221.380856
 6142         h1    222    ccc     H6   6142 0.07030200   1.008000   ; qtot 221.451158
 6143         n4    222    ccc     N1   6143 -0.21077700  14.010000   ; qtot 221.240381
 6144         hn    222    ccc     H7   6144 0.28399900   1.008000   ; qtot 221.524380
 6145         hn    222    ccc     H8   6145 0.28399900   1.008000   ; qtot 221.808379
 6146         os    222    ccc     O1   6146 -0.09200600  16.000000   ; qtot 221.716373
 6147         hn    222    ccc    H17   6147 0.28399900   1.008000   ; qtot 222.000372
; residue  223 ccc rtp ccc q 1.0
 6148         c3    223    ccc     C1   6148 0.17060900  12.010000   ; qtot 222.170981
 6149         hx    223    ccc     H1   6149 0.04213200   1.008000   ; qtot 222.213113
 6150         hx    223    ccc     H2   6150 0.04213200   1.008000   ; qtot 222.255245
 6151         c3    223    ccc     C2   6151 -0.04496700  12.010000   ; qtot 222.210278
 6152         hc    223    ccc     H3   6152 0.02647500   1.008000   ; qtot 222.236753
 6153         hc    223    ccc     H4   6153 0.02647500   1.008000   ; qtot 222.263228
 6154         c3    223    ccc     C3   6154 0.04732600  12.010000   ; qtot 222.310554
 6155         h1    223    ccc     H5   6155 0.07030200   1.008000   ; qtot 222.380856
 6156         h1    223    ccc     H6   6156 0.07030200   1.008000   ; qtot 222.451158
 6157         n4    223    ccc     N1   6157 -0.21077700  14.010000   ; qtot 222.240381
 6158         hn    223    ccc     H7   6158 0.28399900   1.008000   ; qtot 222.524380
 6159         hn    223    ccc     H8   6159 0.28399900   1.008000   ; qtot 222.808379
 6160         os    223    ccc     O1   6160 -0.09200600  16.000000   ; qtot 222.716373
 6161         hn    223    ccc    H17   6161 0.28399900   1.008000   ; qtot 223.000372
; residue  224 ccc rtp ccc q 1.0
 6162         c3    224    ccc     C1   6162 0.17060900  12.010000   ; qtot 223.170981
 6163         hx    224    ccc     H1   6163 0.04213200   1.008000   ; qtot 223.213113
 6164         hx    224    ccc     H2   6164 0.04213200   1.008000   ; qtot 223.255245
 6165         c3    224    ccc     C2   6165 -0.04496700  12.010000   ; qtot 223.210278
 6166         hc    224    ccc     H3   6166 0.02647500   1.008000   ; qtot 223.236753
 6167         hc    224    ccc     H4   6167 0.02647500   1.008000   ; qtot 223.263228
 6168         c3    224    ccc     C3   6168 0.04732600  12.010000   ; qtot 223.310554
 6169         h1    224    ccc     H5   6169 0.07030200   1.008000   ; qtot 223.380856
 6170         h1    224    ccc     H6   6170 0.07030200   1.008000   ; qtot 223.451158
 6171         n4    224    ccc     N1   6171 -0.21077700  14.010000   ; qtot 223.240381
 6172         hn    224    ccc     H7   6172 0.28399900   1.008000   ; qtot 223.524380
 6173         hn    224    ccc     H8   6173 0.28399900   1.008000   ; qtot 223.808379
 6174         os    224    ccc     O1   6174 -0.09200600  16.000000   ; qtot 223.716373
 6175         hn    224    ccc    H17   6175 0.28399900   1.008000   ; qtot 224.000372
; residue  225 ccc rtp ccc q 1.0
 6176         c3    225    ccc     C1   6176 0.17060900  12.010000   ; qtot 224.170981
 6177         hx    225    ccc     H1   6177 0.04213200   1.008000   ; qtot 224.213113
 6178         hx    225    ccc     H2   6178 0.04213200   1.008000   ; qtot 224.255245
 6179         c3    225    ccc     C2   6179 -0.04496700  12.010000   ; qtot 224.210278
 6180         hc    225    ccc     H3   6180 0.02647500   1.008000   ; qtot 224.236753
 6181         hc    225    ccc     H4   6181 0.02647500   1.008000   ; qtot 224.263228
 6182         c3    225    ccc     C3   6182 0.04732600  12.010000   ; qtot 224.310554
 6183         h1    225    ccc     H5   6183 0.07030200   1.008000   ; qtot 224.380856
 6184         h1    225    ccc     H6   6184 0.07030200   1.008000   ; qtot 224.451158
 6185         n4    225    ccc     N1   6185 -0.21077700  14.010000   ; qtot 224.240381
 6186         hn    225    ccc     H7   6186 0.28399900   1.008000   ; qtot 224.524380
 6187         hn    225    ccc     H8   6187 0.28399900   1.008000   ; qtot 224.808379
 6188         os    225    ccc     O1   6188 -0.09200600  16.000000   ; qtot 224.716373
 6189         hn    225    ccc    H17   6189 0.28399900   1.008000   ; qtot 225.000372
; residue  226 ccc rtp ccc q 1.0
 6190         c3    226    ccc     C1   6190 0.17060900  12.010000   ; qtot 225.170981
 6191         hx    226    ccc     H1   6191 0.04213200   1.008000   ; qtot 225.213113
 6192         hx    226    ccc     H2   6192 0.04213200   1.008000   ; qtot 225.255245
 6193         c3    226    ccc     C2   6193 -0.04496700  12.010000   ; qtot 225.210278
 6194         hc    226    ccc     H3   6194 0.02647500   1.008000   ; qtot 225.236753
 6195         hc    226    ccc     H4   6195 0.02647500   1.008000   ; qtot 225.263228
 6196         c3    226    ccc     C3   6196 0.04732600  12.010000   ; qtot 225.310554
 6197         h1    226    ccc     H5   6197 0.07030200   1.008000   ; qtot 225.380856
 6198         h1    226    ccc     H6   6198 0.07030200   1.008000   ; qtot 225.451158
 6199         n4    226    ccc     N1   6199 -0.21077700  14.010000   ; qtot 225.240381
 6200         hn    226    ccc     H7   6200 0.28399900   1.008000   ; qtot 225.524380
 6201         hn    226    ccc     H8   6201 0.28399900   1.008000   ; qtot 225.808379
 6202         os    226    ccc     O1   6202 -0.09200600  16.000000   ; qtot 225.716373
 6203         hn    226    ccc    H17   6203 0.28399900   1.008000   ; qtot 226.000372
; residue  227 ccc rtp ccc q 1.0
 6204         c3    227    ccc     C1   6204 0.17060900  12.010000   ; qtot 226.170981
 6205         hx    227    ccc     H1   6205 0.04213200   1.008000   ; qtot 226.213113
 6206         hx    227    ccc     H2   6206 0.04213200   1.008000   ; qtot 226.255245
 6207         c3    227    ccc     C2   6207 -0.04496700  12.010000   ; qtot 226.210278
 6208         hc    227    ccc     H3   6208 0.02647500   1.008000   ; qtot 226.236753
 6209         hc    227    ccc     H4   6209 0.02647500   1.008000   ; qtot 226.263228
 6210         c3    227    ccc     C3   6210 0.04732600  12.010000   ; qtot 226.310554
 6211         h1    227    ccc     H5   6211 0.07030200   1.008000   ; qtot 226.380856
 6212         h1    227    ccc     H6   6212 0.07030200   1.008000   ; qtot 226.451158
 6213         n4    227    ccc     N1   6213 -0.21077700  14.010000   ; qtot 226.240381
 6214         hn    227    ccc     H7   6214 0.28399900   1.008000   ; qtot 226.524380
 6215         hn    227    ccc     H8   6215 0.28399900   1.008000   ; qtot 226.808379
 6216         os    227    ccc     O1   6216 -0.09200600  16.000000   ; qtot 226.716373
 6217         hn    227    ccc    H17   6217 0.28399900   1.008000   ; qtot 227.000372
; residue  228 ccc rtp ccc q 1.0
 6218         c3    228    ccc     C1   6218 0.17060900  12.010000   ; qtot 227.170981
 6219         hx    228    ccc     H1   6219 0.04213200   1.008000   ; qtot 227.213113
 6220         hx    228    ccc     H2   6220 0.04213200   1.008000   ; qtot 227.255245
 6221         c3    228    ccc     C2   6221 -0.04496700  12.010000   ; qtot 227.210278
 6222         hc    228    ccc     H3   6222 0.02647500   1.008000   ; qtot 227.236753
 6223         hc    228    ccc     H4   6223 0.02647500   1.008000   ; qtot 227.263228
 6224         c3    228    ccc     C3   6224 0.04732600  12.010000   ; qtot 227.310554
 6225         h1    228    ccc     H5   6225 0.07030200   1.008000   ; qtot 227.380856
 6226         h1    228    ccc     H6   6226 0.07030200   1.008000   ; qtot 227.451158
 6227         n4    228    ccc     N1   6227 -0.21077700  14.010000   ; qtot 227.240381
 6228         hn    228    ccc     H7   6228 0.28399900   1.008000   ; qtot 227.524380
 6229         hn    228    ccc     H8   6229 0.28399900   1.008000   ; qtot 227.808379
 6230         os    228    ccc     O1   6230 -0.09200600  16.000000   ; qtot 227.716373
 6231         hn    228    ccc    H17   6231 0.28399900   1.008000   ; qtot 228.000372
; residue  229 ccc rtp ccc q 1.0
 6232         c3    229    ccc     C1   6232 0.17060900  12.010000   ; qtot 228.170981
 6233         hx    229    ccc     H1   6233 0.04213200   1.008000   ; qtot 228.213113
 6234         hx    229    ccc     H2   6234 0.04213200   1.008000   ; qtot 228.255245
 6235         c3    229    ccc     C2   6235 -0.04496700  12.010000   ; qtot 228.210278
 6236         hc    229    ccc     H3   6236 0.02647500   1.008000   ; qtot 228.236753
 6237         hc    229    ccc     H4   6237 0.02647500   1.008000   ; qtot 228.263228
 6238         c3    229    ccc     C3   6238 0.04732600  12.010000   ; qtot 228.310554
 6239         h1    229    ccc     H5   6239 0.07030200   1.008000   ; qtot 228.380856
 6240         h1    229    ccc     H6   6240 0.07030200   1.008000   ; qtot 228.451158
 6241         n4    229    ccc     N1   6241 -0.21077700  14.010000   ; qtot 228.240381
 6242         hn    229    ccc     H7   6242 0.28399900   1.008000   ; qtot 228.524380
 6243         hn    229    ccc     H8   6243 0.28399900   1.008000   ; qtot 228.808379
 6244         os    229    ccc     O1   6244 -0.09200600  16.000000   ; qtot 228.716373
 6245         hn    229    ccc    H17   6245 0.28399900   1.008000   ; qtot 229.000372
; residue  230 ccc rtp ccc q 1.0
 6246         c3    230    ccc     C1   6246 0.17060900  12.010000   ; qtot 229.170981
 6247         hx    230    ccc     H1   6247 0.04213200   1.008000   ; qtot 229.213113
 6248         hx    230    ccc     H2   6248 0.04213200   1.008000   ; qtot 229.255245
 6249         c3    230    ccc     C2   6249 -0.04496700  12.010000   ; qtot 229.210278
 6250         hc    230    ccc     H3   6250 0.02647500   1.008000   ; qtot 229.236753
 6251         hc    230    ccc     H4   6251 0.02647500   1.008000   ; qtot 229.263228
 6252         c3    230    ccc     C3   6252 0.04732600  12.010000   ; qtot 229.310554
 6253         h1    230    ccc     H5   6253 0.07030200   1.008000   ; qtot 229.380856
 6254         h1    230    ccc     H6   6254 0.07030200   1.008000   ; qtot 229.451158
 6255         n4    230    ccc     N1   6255 -0.21077700  14.010000   ; qtot 229.240381
 6256         hn    230    ccc     H7   6256 0.28399900   1.008000   ; qtot 229.524380
 6257         hn    230    ccc     H8   6257 0.28399900   1.008000   ; qtot 229.808379
 6258         os    230    ccc     O1   6258 -0.09200600  16.000000   ; qtot 229.716373
 6259         hn    230    ccc    H17   6259 0.28399900   1.008000   ; qtot 230.000372
; residue  231 ccc rtp ccc q 1.0
 6260         c3    231    ccc     C1   6260 0.17060900  12.010000   ; qtot 230.170981
 6261         hx    231    ccc     H1   6261 0.04213200   1.008000   ; qtot 230.213113
 6262         hx    231    ccc     H2   6262 0.04213200   1.008000   ; qtot 230.255245
 6263         c3    231    ccc     C2   6263 -0.04496700  12.010000   ; qtot 230.210278
 6264         hc    231    ccc     H3   6264 0.02647500   1.008000   ; qtot 230.236753
 6265         hc    231    ccc     H4   6265 0.02647500   1.008000   ; qtot 230.263228
 6266         c3    231    ccc     C3   6266 0.04732600  12.010000   ; qtot 230.310554
 6267         h1    231    ccc     H5   6267 0.07030200   1.008000   ; qtot 230.380856
 6268         h1    231    ccc     H6   6268 0.07030200   1.008000   ; qtot 230.451158
 6269         n4    231    ccc     N1   6269 -0.21077700  14.010000   ; qtot 230.240381
 6270         hn    231    ccc     H7   6270 0.28399900   1.008000   ; qtot 230.524380
 6271         hn    231    ccc     H8   6271 0.28399900   1.008000   ; qtot 230.808379
 6272         os    231    ccc     O1   6272 -0.09200600  16.000000   ; qtot 230.716373
 6273         hn    231    ccc    H17   6273 0.28399900   1.008000   ; qtot 231.000372
; residue  232 ccc rtp ccc q 1.0
 6274         c3    232    ccc     C1   6274 0.17060900  12.010000   ; qtot 231.170981
 6275         hx    232    ccc     H1   6275 0.04213200   1.008000   ; qtot 231.213113
 6276         hx    232    ccc     H2   6276 0.04213200   1.008000   ; qtot 231.255245
 6277         c3    232    ccc     C2   6277 -0.04496700  12.010000   ; qtot 231.210278
 6278         hc    232    ccc     H3   6278 0.02647500   1.008000   ; qtot 231.236753
 6279         hc    232    ccc     H4   6279 0.02647500   1.008000   ; qtot 231.263228
 6280         c3    232    ccc     C3   6280 0.04732600  12.010000   ; qtot 231.310554
 6281         h1    232    ccc     H5   6281 0.07030200   1.008000   ; qtot 231.380856
 6282         h1    232    ccc     H6   6282 0.07030200   1.008000   ; qtot 231.451158
 6283         n4    232    ccc     N1   6283 -0.21077700  14.010000   ; qtot 231.240381
 6284         hn    232    ccc     H7   6284 0.28399900   1.008000   ; qtot 231.524380
 6285         hn    232    ccc     H8   6285 0.28399900   1.008000   ; qtot 231.808379
 6286         os    232    ccc     O1   6286 -0.09200600  16.000000   ; qtot 231.716373
 6287         hn    232    ccc    H17   6287 0.28399900   1.008000   ; qtot 232.000372
; residue  233 ccc rtp ccc q 1.0
 6288         c3    233    ccc     C1   6288 0.17060900  12.010000   ; qtot 232.170981
 6289         hx    233    ccc     H1   6289 0.04213200   1.008000   ; qtot 232.213113
 6290         hx    233    ccc     H2   6290 0.04213200   1.008000   ; qtot 232.255245
 6291         c3    233    ccc     C2   6291 -0.04496700  12.010000   ; qtot 232.210278
 6292         hc    233    ccc     H3   6292 0.02647500   1.008000   ; qtot 232.236753
 6293         hc    233    ccc     H4   6293 0.02647500   1.008000   ; qtot 232.263228
 6294         c3    233    ccc     C3   6294 0.04732600  12.010000   ; qtot 232.310554
 6295         h1    233    ccc     H5   6295 0.07030200   1.008000   ; qtot 232.380856
 6296         h1    233    ccc     H6   6296 0.07030200   1.008000   ; qtot 232.451158
 6297         n4    233    ccc     N1   6297 -0.21077700  14.010000   ; qtot 232.240381
 6298         hn    233    ccc     H7   6298 0.28399900   1.008000   ; qtot 232.524380
 6299         hn    233    ccc     H8   6299 0.28399900   1.008000   ; qtot 232.808379
 6300         os    233    ccc     O1   6300 -0.09200600  16.000000   ; qtot 232.716373
 6301         hn    233    ccc    H17   6301 0.28399900   1.008000   ; qtot 233.000372
; residue  234 ccc rtp ccc q 1.0
 6302         c3    234    ccc     C1   6302 0.17060900  12.010000   ; qtot 233.170981
 6303         hx    234    ccc     H1   6303 0.04213200   1.008000   ; qtot 233.213113
 6304         hx    234    ccc     H2   6304 0.04213200   1.008000   ; qtot 233.255245
 6305         c3    234    ccc     C2   6305 -0.04496700  12.010000   ; qtot 233.210278
 6306         hc    234    ccc     H3   6306 0.02647500   1.008000   ; qtot 233.236753
 6307         hc    234    ccc     H4   6307 0.02647500   1.008000   ; qtot 233.263228
 6308         c3    234    ccc     C3   6308 0.04732600  12.010000   ; qtot 233.310554
 6309         h1    234    ccc     H5   6309 0.07030200   1.008000   ; qtot 233.380856
 6310         h1    234    ccc     H6   6310 0.07030200   1.008000   ; qtot 233.451158
 6311         n4    234    ccc     N1   6311 -0.21077700  14.010000   ; qtot 233.240381
 6312         hn    234    ccc     H7   6312 0.28399900   1.008000   ; qtot 233.524380
 6313         hn    234    ccc     H8   6313 0.28399900   1.008000   ; qtot 233.808379
 6314         os    234    ccc     O1   6314 -0.09200600  16.000000   ; qtot 233.716373
 6315         hn    234    ccc    H17   6315 0.28399900   1.008000   ; qtot 234.000372
; residue  235 ccc rtp ccc q 1.0
 6316         c3    235    ccc     C1   6316 0.17060900  12.010000   ; qtot 234.170981
 6317         hx    235    ccc     H1   6317 0.04213200   1.008000   ; qtot 234.213113
 6318         hx    235    ccc     H2   6318 0.04213200   1.008000   ; qtot 234.255245
 6319         c3    235    ccc     C2   6319 -0.04496700  12.010000   ; qtot 234.210278
 6320         hc    235    ccc     H3   6320 0.02647500   1.008000   ; qtot 234.236753
 6321         hc    235    ccc     H4   6321 0.02647500   1.008000   ; qtot 234.263228
 6322         c3    235    ccc     C3   6322 0.04732600  12.010000   ; qtot 234.310554
 6323         h1    235    ccc     H5   6323 0.07030200   1.008000   ; qtot 234.380856
 6324         h1    235    ccc     H6   6324 0.07030200   1.008000   ; qtot 234.451158
 6325         n4    235    ccc     N1   6325 -0.21077700  14.010000   ; qtot 234.240381
 6326         hn    235    ccc     H7   6326 0.28399900   1.008000   ; qtot 234.524380
 6327         hn    235    ccc     H8   6327 0.28399900   1.008000   ; qtot 234.808379
 6328         os    235    ccc     O1   6328 -0.09200600  16.000000   ; qtot 234.716373
 6329         hn    235    ccc    H17   6329 0.28399900   1.008000   ; qtot 235.000372
; residue  236 ccc rtp ccc q 1.0
 6330         c3    236    ccc     C1   6330 0.17060900  12.010000   ; qtot 235.170981
 6331         hx    236    ccc     H1   6331 0.04213200   1.008000   ; qtot 235.213113
 6332         hx    236    ccc     H2   6332 0.04213200   1.008000   ; qtot 235.255245
 6333         c3    236    ccc     C2   6333 -0.04496700  12.010000   ; qtot 235.210278
 6334         hc    236    ccc     H3   6334 0.02647500   1.008000   ; qtot 235.236753
 6335         hc    236    ccc     H4   6335 0.02647500   1.008000   ; qtot 235.263228
 6336         c3    236    ccc     C3   6336 0.04732600  12.010000   ; qtot 235.310554
 6337         h1    236    ccc     H5   6337 0.07030200   1.008000   ; qtot 235.380856
 6338         h1    236    ccc     H6   6338 0.07030200   1.008000   ; qtot 235.451158
 6339         n4    236    ccc     N1   6339 -0.21077700  14.010000   ; qtot 235.240381
 6340         hn    236    ccc     H7   6340 0.28399900   1.008000   ; qtot 235.524380
 6341         hn    236    ccc     H8   6341 0.28399900   1.008000   ; qtot 235.808379
 6342         os    236    ccc     O1   6342 -0.09200600  16.000000   ; qtot 235.716373
 6343         hn    236    ccc    H17   6343 0.28399900   1.008000   ; qtot 236.000372
; residue  237 ccc rtp ccc q 1.0
 6344         c3    237    ccc     C1   6344 0.17060900  12.010000   ; qtot 236.170981
 6345         hx    237    ccc     H1   6345 0.04213200   1.008000   ; qtot 236.213113
 6346         hx    237    ccc     H2   6346 0.04213200   1.008000   ; qtot 236.255245
 6347         c3    237    ccc     C2   6347 -0.04496700  12.010000   ; qtot 236.210278
 6348         hc    237    ccc     H3   6348 0.02647500   1.008000   ; qtot 236.236753
 6349         hc    237    ccc     H4   6349 0.02647500   1.008000   ; qtot 236.263228
 6350         c3    237    ccc     C3   6350 0.04732600  12.010000   ; qtot 236.310554
 6351         h1    237    ccc     H5   6351 0.07030200   1.008000   ; qtot 236.380856
 6352         h1    237    ccc     H6   6352 0.07030200   1.008000   ; qtot 236.451158
 6353         n4    237    ccc     N1   6353 -0.21077700  14.010000   ; qtot 236.240381
 6354         hn    237    ccc     H7   6354 0.28399900   1.008000   ; qtot 236.524380
 6355         hn    237    ccc     H8   6355 0.28399900   1.008000   ; qtot 236.808379
 6356         os    237    ccc     O1   6356 -0.09200600  16.000000   ; qtot 236.716373
 6357         hn    237    ccc    H17   6357 0.28399900   1.008000   ; qtot 237.000372
; residue  238 ccc rtp ccc q 1.0
 6358         c3    238    ccc     C1   6358 0.17060900  12.010000   ; qtot 237.170981
 6359         hx    238    ccc     H1   6359 0.04213200   1.008000   ; qtot 237.213113
 6360         hx    238    ccc     H2   6360 0.04213200   1.008000   ; qtot 237.255245
 6361         c3    238    ccc     C2   6361 -0.04496700  12.010000   ; qtot 237.210278
 6362         hc    238    ccc     H3   6362 0.02647500   1.008000   ; qtot 237.236753
 6363         hc    238    ccc     H4   6363 0.02647500   1.008000   ; qtot 237.263228
 6364         c3    238    ccc     C3   6364 0.04732600  12.010000   ; qtot 237.310554
 6365         h1    238    ccc     H5   6365 0.07030200   1.008000   ; qtot 237.380856
 6366         h1    238    ccc     H6   6366 0.07030200   1.008000   ; qtot 237.451158
 6367         n4    238    ccc     N1   6367 -0.21077700  14.010000   ; qtot 237.240381
 6368         hn    238    ccc     H7   6368 0.28399900   1.008000   ; qtot 237.524380
 6369         hn    238    ccc     H8   6369 0.28399900   1.008000   ; qtot 237.808379
 6370         os    238    ccc     O1   6370 -0.09200600  16.000000   ; qtot 237.716373
 6371         hn    238    ccc    H17   6371 0.28399900   1.008000   ; qtot 238.000372
; residue  239 ccc rtp ccc q 1.0
 6372         c3    239    ccc     C1   6372 0.17060900  12.010000   ; qtot 238.170981
 6373         hx    239    ccc     H1   6373 0.04213200   1.008000   ; qtot 238.213113
 6374         hx    239    ccc     H2   6374 0.04213200   1.008000   ; qtot 238.255245
 6375         c3    239    ccc     C2   6375 -0.04496700  12.010000   ; qtot 238.210278
 6376         hc    239    ccc     H3   6376 0.02647500   1.008000   ; qtot 238.236753
 6377         hc    239    ccc     H4   6377 0.02647500   1.008000   ; qtot 238.263228
 6378         c3    239    ccc     C3   6378 0.04732600  12.010000   ; qtot 238.310554
 6379         h1    239    ccc     H5   6379 0.07030200   1.008000   ; qtot 238.380856
 6380         h1    239    ccc     H6   6380 0.07030200   1.008000   ; qtot 238.451158
 6381         n4    239    ccc     N1   6381 -0.21077700  14.010000   ; qtot 238.240381
 6382         hn    239    ccc     H7   6382 0.28399900   1.008000   ; qtot 238.524380
 6383         hn    239    ccc     H8   6383 0.28399900   1.008000   ; qtot 238.808379
 6384         os    239    ccc     O1   6384 -0.09200600  16.000000   ; qtot 238.716373
 6385         hn    239    ccc    H17   6385 0.28399900   1.008000   ; qtot 239.000372
; residue  240 ccc rtp ccc q 1.0
 6386         c3    240    ccc     C1   6386 0.17060900  12.010000   ; qtot 239.170981
 6387         hx    240    ccc     H1   6387 0.04213200   1.008000   ; qtot 239.213113
 6388         hx    240    ccc     H2   6388 0.04213200   1.008000   ; qtot 239.255245
 6389         c3    240    ccc     C2   6389 -0.04496700  12.010000   ; qtot 239.210278
 6390         hc    240    ccc     H3   6390 0.02647500   1.008000   ; qtot 239.236753
 6391         hc    240    ccc     H4   6391 0.02647500   1.008000   ; qtot 239.263228
 6392         c3    240    ccc     C3   6392 0.04732600  12.010000   ; qtot 239.310554
 6393         h1    240    ccc     H5   6393 0.07030200   1.008000   ; qtot 239.380856
 6394         h1    240    ccc     H6   6394 0.07030200   1.008000   ; qtot 239.451158
 6395         n4    240    ccc     N1   6395 -0.21077700  14.010000   ; qtot 239.240381
 6396         hn    240    ccc     H7   6396 0.28399900   1.008000   ; qtot 239.524380
 6397         hn    240    ccc     H8   6397 0.28399900   1.008000   ; qtot 239.808379
 6398         os    240    ccc     O1   6398 -0.09200600  16.000000   ; qtot 239.716373
 6399         hn    240    ccc    H17   6399 0.28399900   1.008000   ; qtot 240.000372
; residue  241 ccc rtp ccc q 1.0
 6400         c3    241    ccc     C1   6400 0.17060900  12.010000   ; qtot 240.170981
 6401         hx    241    ccc     H1   6401 0.04213200   1.008000   ; qtot 240.213113
 6402         hx    241    ccc     H2   6402 0.04213200   1.008000   ; qtot 240.255245
 6403         c3    241    ccc     C2   6403 -0.04496700  12.010000   ; qtot 240.210278
 6404         hc    241    ccc     H3   6404 0.02647500   1.008000   ; qtot 240.236753
 6405         hc    241    ccc     H4   6405 0.02647500   1.008000   ; qtot 240.263228
 6406         c3    241    ccc     C3   6406 0.04732600  12.010000   ; qtot 240.310554
 6407         h1    241    ccc     H5   6407 0.07030200   1.008000   ; qtot 240.380856
 6408         h1    241    ccc     H6   6408 0.07030200   1.008000   ; qtot 240.451158
 6409         n4    241    ccc     N1   6409 -0.21077700  14.010000   ; qtot 240.240381
 6410         hn    241    ccc     H7   6410 0.28399900   1.008000   ; qtot 240.524380
 6411         hn    241    ccc     H8   6411 0.28399900   1.008000   ; qtot 240.808379
 6412         os    241    ccc     O1   6412 -0.09200600  16.000000   ; qtot 240.716373
 6413         hn    241    ccc    H17   6413 0.28399900   1.008000   ; qtot 241.000372
; residue  242 ccc rtp ccc q 1.0
 6414         c3    242    ccc     C1   6414 0.17060900  12.010000   ; qtot 241.170981
 6415         hx    242    ccc     H1   6415 0.04213200   1.008000   ; qtot 241.213113
 6416         hx    242    ccc     H2   6416 0.04213200   1.008000   ; qtot 241.255245
 6417         c3    242    ccc     C2   6417 -0.04496700  12.010000   ; qtot 241.210278
 6418         hc    242    ccc     H3   6418 0.02647500   1.008000   ; qtot 241.236753
 6419         hc    242    ccc     H4   6419 0.02647500   1.008000   ; qtot 241.263228
 6420         c3    242    ccc     C3   6420 0.04732600  12.010000   ; qtot 241.310554
 6421         h1    242    ccc     H5   6421 0.07030200   1.008000   ; qtot 241.380856
 6422         h1    242    ccc     H6   6422 0.07030200   1.008000   ; qtot 241.451158
 6423         n4    242    ccc     N1   6423 -0.21077700  14.010000   ; qtot 241.240381
 6424         hn    242    ccc     H7   6424 0.28399900   1.008000   ; qtot 241.524380
 6425         hn    242    ccc     H8   6425 0.28399900   1.008000   ; qtot 241.808379
 6426         os    242    ccc     O1   6426 -0.09200600  16.000000   ; qtot 241.716373
 6427         hn    242    ccc    H17   6427 0.28399900   1.008000   ; qtot 242.000372
; residue  243 ccc rtp ccc q 1.0
 6428         c3    243    ccc     C1   6428 0.17060900  12.010000   ; qtot 242.170981
 6429         hx    243    ccc     H1   6429 0.04213200   1.008000   ; qtot 242.213113
 6430         hx    243    ccc     H2   6430 0.04213200   1.008000   ; qtot 242.255245
 6431         c3    243    ccc     C2   6431 -0.04496700  12.010000   ; qtot 242.210278
 6432         hc    243    ccc     H3   6432 0.02647500   1.008000   ; qtot 242.236753
 6433         hc    243    ccc     H4   6433 0.02647500   1.008000   ; qtot 242.263228
 6434         c3    243    ccc     C3   6434 0.04732600  12.010000   ; qtot 242.310554
 6435         h1    243    ccc     H5   6435 0.07030200   1.008000   ; qtot 242.380856
 6436         h1    243    ccc     H6   6436 0.07030200   1.008000   ; qtot 242.451158
 6437         n4    243    ccc     N1   6437 -0.21077700  14.010000   ; qtot 242.240381
 6438         hn    243    ccc     H7   6438 0.28399900   1.008000   ; qtot 242.524380
 6439         hn    243    ccc     H8   6439 0.28399900   1.008000   ; qtot 242.808379
 6440         os    243    ccc     O1   6440 -0.09200600  16.000000   ; qtot 242.716373
 6441         hn    243    ccc    H17   6441 0.28399900   1.008000   ; qtot 243.000372
; residue  244 ccc rtp ccc q 1.0
 6442         c3    244    ccc     C1   6442 0.17060900  12.010000   ; qtot 243.170981
 6443         hx    244    ccc     H1   6443 0.04213200   1.008000   ; qtot 243.213113
 6444         hx    244    ccc     H2   6444 0.04213200   1.008000   ; qtot 243.255245
 6445         c3    244    ccc     C2   6445 -0.04496700  12.010000   ; qtot 243.210278
 6446         hc    244    ccc     H3   6446 0.02647500   1.008000   ; qtot 243.236753
 6447         hc    244    ccc     H4   6447 0.02647500   1.008000   ; qtot 243.263228
 6448         c3    244    ccc     C3   6448 0.04732600  12.010000   ; qtot 243.310554
 6449         h1    244    ccc     H5   6449 0.07030200   1.008000   ; qtot 243.380856
 6450         h1    244    ccc     H6   6450 0.07030200   1.008000   ; qtot 243.451158
 6451         n4    244    ccc     N1   6451 -0.21077700  14.010000   ; qtot 243.240381
 6452         hn    244    ccc     H7   6452 0.28399900   1.008000   ; qtot 243.524380
 6453         hn    244    ccc     H8   6453 0.28399900   1.008000   ; qtot 243.808379
 6454         os    244    ccc     O1   6454 -0.09200600  16.000000   ; qtot 243.716373
 6455         hn    244    ccc    H17   6455 0.28399900   1.008000   ; qtot 244.000372
; residue  245 ccc rtp ccc q 1.0
 6456         c3    245    ccc     C1   6456 0.17060900  12.010000   ; qtot 244.170981
 6457         hx    245    ccc     H1   6457 0.04213200   1.008000   ; qtot 244.213113
 6458         hx    245    ccc     H2   6458 0.04213200   1.008000   ; qtot 244.255245
 6459         c3    245    ccc     C2   6459 -0.04496700  12.010000   ; qtot 244.210278
 6460         hc    245    ccc     H3   6460 0.02647500   1.008000   ; qtot 244.236753
 6461         hc    245    ccc     H4   6461 0.02647500   1.008000   ; qtot 244.263228
 6462         c3    245    ccc     C3   6462 0.04732600  12.010000   ; qtot 244.310554
 6463         h1    245    ccc     H5   6463 0.07030200   1.008000   ; qtot 244.380856
 6464         h1    245    ccc     H6   6464 0.07030200   1.008000   ; qtot 244.451158
 6465         n4    245    ccc     N1   6465 -0.21077700  14.010000   ; qtot 244.240381
 6466         hn    245    ccc     H7   6466 0.28399900   1.008000   ; qtot 244.524380
 6467         hn    245    ccc     H8   6467 0.28399900   1.008000   ; qtot 244.808379
 6468         os    245    ccc     O1   6468 -0.09200600  16.000000   ; qtot 244.716373
 6469         hn    245    ccc    H17   6469 0.28399900   1.008000   ; qtot 245.000372
; residue  246 ccc rtp ccc q 1.0
 6470         c3    246    ccc     C1   6470 0.17060900  12.010000   ; qtot 245.170981
 6471         hx    246    ccc     H1   6471 0.04213200   1.008000   ; qtot 245.213113
 6472         hx    246    ccc     H2   6472 0.04213200   1.008000   ; qtot 245.255245
 6473         c3    246    ccc     C2   6473 -0.04496700  12.010000   ; qtot 245.210278
 6474         hc    246    ccc     H3   6474 0.02647500   1.008000   ; qtot 245.236753
 6475         hc    246    ccc     H4   6475 0.02647500   1.008000   ; qtot 245.263228
 6476         c3    246    ccc     C3   6476 0.04732600  12.010000   ; qtot 245.310554
 6477         h1    246    ccc     H5   6477 0.07030200   1.008000   ; qtot 245.380856
 6478         h1    246    ccc     H6   6478 0.07030200   1.008000   ; qtot 245.451158
 6479         n4    246    ccc     N1   6479 -0.21077700  14.010000   ; qtot 245.240381
 6480         hn    246    ccc     H7   6480 0.28399900   1.008000   ; qtot 245.524380
 6481         hn    246    ccc     H8   6481 0.28399900   1.008000   ; qtot 245.808379
 6482         os    246    ccc     O1   6482 -0.09200600  16.000000   ; qtot 245.716373
 6483         hn    246    ccc    H17   6483 0.28399900   1.008000   ; qtot 246.000372
; residue  247 ccc rtp ccc q 1.0
 6484         c3    247    ccc     C1   6484 0.17060900  12.010000   ; qtot 246.170981
 6485         hx    247    ccc     H1   6485 0.04213200   1.008000   ; qtot 246.213113
 6486         hx    247    ccc     H2   6486 0.04213200   1.008000   ; qtot 246.255245
 6487         c3    247    ccc     C2   6487 -0.04496700  12.010000   ; qtot 246.210278
 6488         hc    247    ccc     H3   6488 0.02647500   1.008000   ; qtot 246.236753
 6489         hc    247    ccc     H4   6489 0.02647500   1.008000   ; qtot 246.263228
 6490         c3    247    ccc     C3   6490 0.04732600  12.010000   ; qtot 246.310554
 6491         h1    247    ccc     H5   6491 0.07030200   1.008000   ; qtot 246.380856
 6492         h1    247    ccc     H6   6492 0.07030200   1.008000   ; qtot 246.451158
 6493         n4    247    ccc     N1   6493 -0.21077700  14.010000   ; qtot 246.240381
 6494         hn    247    ccc     H7   6494 0.28399900   1.008000   ; qtot 246.524380
 6495         hn    247    ccc     H8   6495 0.28399900   1.008000   ; qtot 246.808379
 6496         os    247    ccc     O1   6496 -0.09200600  16.000000   ; qtot 246.716373
 6497         hn    247    ccc    H17   6497 0.28399900   1.008000   ; qtot 247.000372
; residue  248 ccc rtp ccc q 1.0
 6498         c3    248    ccc     C1   6498 0.17060900  12.010000   ; qtot 247.170981
 6499         hx    248    ccc     H1   6499 0.04213200   1.008000   ; qtot 247.213113
 6500         hx    248    ccc     H2   6500 0.04213200   1.008000   ; qtot 247.255245
 6501         c3    248    ccc     C2   6501 -0.04496700  12.010000   ; qtot 247.210278
 6502         hc    248    ccc     H3   6502 0.02647500   1.008000   ; qtot 247.236753
 6503         hc    248    ccc     H4   6503 0.02647500   1.008000   ; qtot 247.263228
 6504         c3    248    ccc     C3   6504 0.04732600  12.010000   ; qtot 247.310554
 6505         h1    248    ccc     H5   6505 0.07030200   1.008000   ; qtot 247.380856
 6506         h1    248    ccc     H6   6506 0.07030200   1.008000   ; qtot 247.451158
 6507         n4    248    ccc     N1   6507 -0.21077700  14.010000   ; qtot 247.240381
 6508         hn    248    ccc     H7   6508 0.28399900   1.008000   ; qtot 247.524380
 6509         hn    248    ccc     H8   6509 0.28399900   1.008000   ; qtot 247.808379
 6510         os    248    ccc     O1   6510 -0.09200600  16.000000   ; qtot 247.716373
 6511         hn    248    ccc    H17   6511 0.28399900   1.008000   ; qtot 248.000372
; residue  249 ccc rtp ccc q 1.0
 6512         c3    249    ccc     C1   6512 0.17060900  12.010000   ; qtot 248.170981
 6513         hx    249    ccc     H1   6513 0.04213200   1.008000   ; qtot 248.213113
 6514         hx    249    ccc     H2   6514 0.04213200   1.008000   ; qtot 248.255245
 6515         c3    249    ccc     C2   6515 -0.04496700  12.010000   ; qtot 248.210278
 6516         hc    249    ccc     H3   6516 0.02647500   1.008000   ; qtot 248.236753
 6517         hc    249    ccc     H4   6517 0.02647500   1.008000   ; qtot 248.263228
 6518         c3    249    ccc     C3   6518 0.04732600  12.010000   ; qtot 248.310554
 6519         h1    249    ccc     H5   6519 0.07030200   1.008000   ; qtot 248.380856
 6520         h1    249    ccc     H6   6520 0.07030200   1.008000   ; qtot 248.451158
 6521         n4    249    ccc     N1   6521 -0.21077700  14.010000   ; qtot 248.240381
 6522         hn    249    ccc     H7   6522 0.28399900   1.008000   ; qtot 248.524380
 6523         hn    249    ccc     H8   6523 0.28399900   1.008000   ; qtot 248.808379
 6524         os    249    ccc     O1   6524 -0.09200600  16.000000   ; qtot 248.716373
 6525         hn    249    ccc    H17   6525 0.28399900   1.008000   ; qtot 249.000372
; residue  250 ccc rtp ccc q 1.0
 6526         c3    250    ccc     C1   6526 0.17060900  12.010000   ; qtot 249.170981
 6527         hx    250    ccc     H1   6527 0.04213200   1.008000   ; qtot 249.213113
 6528         hx    250    ccc     H2   6528 0.04213200   1.008000   ; qtot 249.255245
 6529         c3    250    ccc     C2   6529 -0.04496700  12.010000   ; qtot 249.210278
 6530         hc    250    ccc     H3   6530 0.02647500   1.008000   ; qtot 249.236753
 6531         hc    250    ccc     H4   6531 0.02647500   1.008000   ; qtot 249.263228
 6532         c3    250    ccc     C3   6532 0.04732600  12.010000   ; qtot 249.310554
 6533         h1    250    ccc     H5   6533 0.07030200   1.008000   ; qtot 249.380856
 6534         h1    250    ccc     H6   6534 0.07030200   1.008000   ; qtot 249.451158
 6535         n4    250    ccc     N1   6535 -0.21077700  14.010000   ; qtot 249.240381
 6536         hn    250    ccc     H7   6536 0.28399900   1.008000   ; qtot 249.524380
 6537         hn    250    ccc     H8   6537 0.28399900   1.008000   ; qtot 249.808379
 6538         os    250    ccc     O1   6538 -0.09200600  16.000000   ; qtot 249.716373
 6539         hn    250    ccc    H17   6539 0.28399900   1.008000   ; qtot 250.000372
; residue  251 ccc rtp ccc q 1.0
 6540         c3    251    ccc     C1   6540 0.17060900  12.010000   ; qtot 250.170981
 6541         hx    251    ccc     H1   6541 0.04213200   1.008000   ; qtot 250.213113
 6542         hx    251    ccc     H2   6542 0.04213200   1.008000   ; qtot 250.255245
 6543         c3    251    ccc     C2   6543 -0.04496700  12.010000   ; qtot 250.210278
 6544         hc    251    ccc     H3   6544 0.02647500   1.008000   ; qtot 250.236753
 6545         hc    251    ccc     H4   6545 0.02647500   1.008000   ; qtot 250.263228
 6546         c3    251    ccc     C3   6546 0.04732600  12.010000   ; qtot 250.310554
 6547         h1    251    ccc     H5   6547 0.07030200   1.008000   ; qtot 250.380856
 6548         h1    251    ccc     H6   6548 0.07030200   1.008000   ; qtot 250.451158
 6549         n4    251    ccc     N1   6549 -0.21077700  14.010000   ; qtot 250.240381
 6550         hn    251    ccc     H7   6550 0.28399900   1.008000   ; qtot 250.524380
 6551         hn    251    ccc     H8   6551 0.28399900   1.008000   ; qtot 250.808379
 6552         os    251    ccc     O1   6552 -0.09200600  16.000000   ; qtot 250.716373
 6553         hn    251    ccc    H17   6553 0.28399900   1.008000   ; qtot 251.000372
; residue  252 ccc rtp ccc q 1.0
 6554         c3    252    ccc     C1   6554 0.17060900  12.010000   ; qtot 251.170981
 6555         hx    252    ccc     H1   6555 0.04213200   1.008000   ; qtot 251.213113
 6556         hx    252    ccc     H2   6556 0.04213200   1.008000   ; qtot 251.255245
 6557         c3    252    ccc     C2   6557 -0.04496700  12.010000   ; qtot 251.210278
 6558         hc    252    ccc     H3   6558 0.02647500   1.008000   ; qtot 251.236753
 6559         hc    252    ccc     H4   6559 0.02647500   1.008000   ; qtot 251.263228
 6560         c3    252    ccc     C3   6560 0.04732600  12.010000   ; qtot 251.310554
 6561         h1    252    ccc     H5   6561 0.07030200   1.008000   ; qtot 251.380856
 6562         h1    252    ccc     H6   6562 0.07030200   1.008000   ; qtot 251.451158
 6563         n4    252    ccc     N1   6563 -0.21077700  14.010000   ; qtot 251.240381
 6564         hn    252    ccc     H7   6564 0.28399900   1.008000   ; qtot 251.524380
 6565         hn    252    ccc     H8   6565 0.28399900   1.008000   ; qtot 251.808379
 6566         os    252    ccc     O1   6566 -0.09200600  16.000000   ; qtot 251.716373
 6567         hn    252    ccc    H17   6567 0.28399900   1.008000   ; qtot 252.000372
; residue  253 ccc rtp ccc q 1.0
 6568         c3    253    ccc     C1   6568 0.17060900  12.010000   ; qtot 252.170981
 6569         hx    253    ccc     H1   6569 0.04213200   1.008000   ; qtot 252.213113
 6570         hx    253    ccc     H2   6570 0.04213200   1.008000   ; qtot 252.255245
 6571         c3    253    ccc     C2   6571 -0.04496700  12.010000   ; qtot 252.210278
 6572         hc    253    ccc     H3   6572 0.02647500   1.008000   ; qtot 252.236753
 6573         hc    253    ccc     H4   6573 0.02647500   1.008000   ; qtot 252.263228
 6574         c3    253    ccc     C3   6574 0.04732600  12.010000   ; qtot 252.310554
 6575         h1    253    ccc     H5   6575 0.07030200   1.008000   ; qtot 252.380856
 6576         h1    253    ccc     H6   6576 0.07030200   1.008000   ; qtot 252.451158
 6577         n4    253    ccc     N1   6577 -0.21077700  14.010000   ; qtot 252.240381
 6578         hn    253    ccc     H7   6578 0.28399900   1.008000   ; qtot 252.524380
 6579         hn    253    ccc     H8   6579 0.28399900   1.008000   ; qtot 252.808379
 6580         os    253    ccc     O1   6580 -0.09200600  16.000000   ; qtot 252.716373
 6581         hn    253    ccc    H17   6581 0.28399900   1.008000   ; qtot 253.000372
; residue  254 ccc rtp ccc q 1.0
 6582         c3    254    ccc     C1   6582 0.17060900  12.010000   ; qtot 253.170981
 6583         hx    254    ccc     H1   6583 0.04213200   1.008000   ; qtot 253.213113
 6584         hx    254    ccc     H2   6584 0.04213200   1.008000   ; qtot 253.255245
 6585         c3    254    ccc     C2   6585 -0.04496700  12.010000   ; qtot 253.210278
 6586         hc    254    ccc     H3   6586 0.02647500   1.008000   ; qtot 253.236753
 6587         hc    254    ccc     H4   6587 0.02647500   1.008000   ; qtot 253.263228
 6588         c3    254    ccc     C3   6588 0.04732600  12.010000   ; qtot 253.310554
 6589         h1    254    ccc     H5   6589 0.07030200   1.008000   ; qtot 253.380856
 6590         h1    254    ccc     H6   6590 0.07030200   1.008000   ; qtot 253.451158
 6591         n4    254    ccc     N1   6591 -0.21077700  14.010000   ; qtot 253.240381
 6592         hn    254    ccc     H7   6592 0.28399900   1.008000   ; qtot 253.524380
 6593         hn    254    ccc     H8   6593 0.28399900   1.008000   ; qtot 253.808379
 6594         os    254    ccc     O1   6594 -0.09200600  16.000000   ; qtot 253.716373
 6595         hn    254    ccc    H17   6595 0.28399900   1.008000   ; qtot 254.000372
; residue  255 ccc rtp ccc q 1.0
 6596         c3    255    ccc     C1   6596 0.17060900  12.010000   ; qtot 254.170981
 6597         hx    255    ccc     H1   6597 0.04213200   1.008000   ; qtot 254.213113
 6598         hx    255    ccc     H2   6598 0.04213200   1.008000   ; qtot 254.255245
 6599         c3    255    ccc     C2   6599 -0.04496700  12.010000   ; qtot 254.210278
 6600         hc    255    ccc     H3   6600 0.02647500   1.008000   ; qtot 254.236753
 6601         hc    255    ccc     H4   6601 0.02647500   1.008000   ; qtot 254.263228
 6602         c3    255    ccc     C3   6602 0.04732600  12.010000   ; qtot 254.310554
 6603         h1    255    ccc     H5   6603 0.07030200   1.008000   ; qtot 254.380856
 6604         h1    255    ccc     H6   6604 0.07030200   1.008000   ; qtot 254.451158
 6605         n4    255    ccc     N1   6605 -0.21077700  14.010000   ; qtot 254.240381
 6606         hn    255    ccc     H7   6606 0.28399900   1.008000   ; qtot 254.524380
 6607         hn    255    ccc     H8   6607 0.28399900   1.008000   ; qtot 254.808379
 6608         os    255    ccc     O1   6608 -0.09200600  16.000000   ; qtot 254.716373
 6609         hn    255    ccc    H17   6609 0.28399900   1.008000   ; qtot 255.000372
; residue  256 ccc rtp ccc q 1.0
 6610         c3    256    ccc     C1   6610 0.17060900  12.010000   ; qtot 255.170981
 6611         hx    256    ccc     H1   6611 0.04213200   1.008000   ; qtot 255.213113
 6612         hx    256    ccc     H2   6612 0.04213200   1.008000   ; qtot 255.255245
 6613         c3    256    ccc     C2   6613 -0.04496700  12.010000   ; qtot 255.210278
 6614         hc    256    ccc     H3   6614 0.02647500   1.008000   ; qtot 255.236753
 6615         hc    256    ccc     H4   6615 0.02647500   1.008000   ; qtot 255.263228
 6616         c3    256    ccc     C3   6616 0.04732600  12.010000   ; qtot 255.310554
 6617         h1    256    ccc     H5   6617 0.07030200   1.008000   ; qtot 255.380856
 6618         h1    256    ccc     H6   6618 0.07030200   1.008000   ; qtot 255.451158
 6619         n4    256    ccc     N1   6619 -0.21077700  14.010000   ; qtot 255.240381
 6620         hn    256    ccc     H7   6620 0.28399900   1.008000   ; qtot 255.524380
 6621         hn    256    ccc     H8   6621 0.28399900   1.008000   ; qtot 255.808379
 6622         os    256    ccc     O1   6622 -0.09200600  16.000000   ; qtot 255.716373
 6623         hn    256    ccc    H17   6623 0.28399900   1.008000   ; qtot 256.000372
; residue  257 ccc rtp ccc q 1.0
 6624         c3    257    ccc     C1   6624 0.17060900  12.010000   ; qtot 256.170981
 6625         hx    257    ccc     H1   6625 0.04213200   1.008000   ; qtot 256.213113
 6626         hx    257    ccc     H2   6626 0.04213200   1.008000   ; qtot 256.255245
 6627         c3    257    ccc     C2   6627 -0.04496700  12.010000   ; qtot 256.210278
 6628         hc    257    ccc     H3   6628 0.02647500   1.008000   ; qtot 256.236753
 6629         hc    257    ccc     H4   6629 0.02647500   1.008000   ; qtot 256.263228
 6630         c3    257    ccc     C3   6630 0.04732600  12.010000   ; qtot 256.310554
 6631         h1    257    ccc     H5   6631 0.07030200   1.008000   ; qtot 256.380856
 6632         h1    257    ccc     H6   6632 0.07030200   1.008000   ; qtot 256.451158
 6633         n4    257    ccc     N1   6633 -0.21077700  14.010000   ; qtot 256.240381
 6634         hn    257    ccc     H7   6634 0.28399900   1.008000   ; qtot 256.524380
 6635         hn    257    ccc     H8   6635 0.28399900   1.008000   ; qtot 256.808379
 6636         os    257    ccc     O1   6636 -0.09200600  16.000000   ; qtot 256.716373
 6637         hn    257    ccc    H17   6637 0.28399900   1.008000   ; qtot 257.000372
; residue  258 ccc rtp ccc q 1.0
 6638         c3    258    ccc     C1   6638 0.17060900  12.010000   ; qtot 257.170981
 6639         hx    258    ccc     H1   6639 0.04213200   1.008000   ; qtot 257.213113
 6640         hx    258    ccc     H2   6640 0.04213200   1.008000   ; qtot 257.255245
 6641         c3    258    ccc     C2   6641 -0.04496700  12.010000   ; qtot 257.210278
 6642         hc    258    ccc     H3   6642 0.02647500   1.008000   ; qtot 257.236753
 6643         hc    258    ccc     H4   6643 0.02647500   1.008000   ; qtot 257.263228
 6644         c3    258    ccc     C3   6644 0.04732600  12.010000   ; qtot 257.310554
 6645         h1    258    ccc     H5   6645 0.07030200   1.008000   ; qtot 257.380856
 6646         h1    258    ccc     H6   6646 0.07030200   1.008000   ; qtot 257.451158
 6647         n4    258    ccc     N1   6647 -0.21077700  14.010000   ; qtot 257.240381
 6648         hn    258    ccc     H7   6648 0.28399900   1.008000   ; qtot 257.524380
 6649         hn    258    ccc     H8   6649 0.28399900   1.008000   ; qtot 257.808379
 6650         os    258    ccc     O1   6650 -0.09200600  16.000000   ; qtot 257.716373
 6651         hn    258    ccc    H17   6651 0.28399900   1.008000   ; qtot 258.000372
; residue  259 ccc rtp ccc q 1.0
 6652         c3    259    ccc     C1   6652 0.17060900  12.010000   ; qtot 258.170981
 6653         hx    259    ccc     H1   6653 0.04213200   1.008000   ; qtot 258.213113
 6654         hx    259    ccc     H2   6654 0.04213200   1.008000   ; qtot 258.255245
 6655         c3    259    ccc     C2   6655 -0.04496700  12.010000   ; qtot 258.210278
 6656         hc    259    ccc     H3   6656 0.02647500   1.008000   ; qtot 258.236753
 6657         hc    259    ccc     H4   6657 0.02647500   1.008000   ; qtot 258.263228
 6658         c3    259    ccc     C3   6658 0.04732600  12.010000   ; qtot 258.310554
 6659         h1    259    ccc     H5   6659 0.07030200   1.008000   ; qtot 258.380856
 6660         h1    259    ccc     H6   6660 0.07030200   1.008000   ; qtot 258.451158
 6661         n4    259    ccc     N1   6661 -0.21077700  14.010000   ; qtot 258.240381
 6662         hn    259    ccc     H7   6662 0.28399900   1.008000   ; qtot 258.524380
 6663         hn    259    ccc     H8   6663 0.28399900   1.008000   ; qtot 258.808379
 6664         os    259    ccc     O1   6664 -0.09200600  16.000000   ; qtot 258.716373
 6665         hn    259    ccc    H17   6665 0.28399900   1.008000   ; qtot 259.000372
; residue  260 ccc rtp ccc q 1.0
 6666         c3    260    ccc     C1   6666 0.17060900  12.010000   ; qtot 259.170981
 6667         hx    260    ccc     H1   6667 0.04213200   1.008000   ; qtot 259.213113
 6668         hx    260    ccc     H2   6668 0.04213200   1.008000   ; qtot 259.255245
 6669         c3    260    ccc     C2   6669 -0.04496700  12.010000   ; qtot 259.210278
 6670         hc    260    ccc     H3   6670 0.02647500   1.008000   ; qtot 259.236753
 6671         hc    260    ccc     H4   6671 0.02647500   1.008000   ; qtot 259.263228
 6672         c3    260    ccc     C3   6672 0.04732600  12.010000   ; qtot 259.310554
 6673         h1    260    ccc     H5   6673 0.07030200   1.008000   ; qtot 259.380856
 6674         h1    260    ccc     H6   6674 0.07030200   1.008000   ; qtot 259.451158
 6675         n4    260    ccc     N1   6675 -0.21077700  14.010000   ; qtot 259.240381
 6676         hn    260    ccc     H7   6676 0.28399900   1.008000   ; qtot 259.524380
 6677         hn    260    ccc     H8   6677 0.28399900   1.008000   ; qtot 259.808379
 6678         os    260    ccc     O1   6678 -0.09200600  16.000000   ; qtot 259.716373
 6679         hn    260    ccc    H17   6679 0.28399900   1.008000   ; qtot 260.000372
; residue  261 ccc rtp ccc q 1.0
 6680         c3    261    ccc     C1   6680 0.17060900  12.010000   ; qtot 260.170981
 6681         hx    261    ccc     H1   6681 0.04213200   1.008000   ; qtot 260.213113
 6682         hx    261    ccc     H2   6682 0.04213200   1.008000   ; qtot 260.255245
 6683         c3    261    ccc     C2   6683 -0.04496700  12.010000   ; qtot 260.210278
 6684         hc    261    ccc     H3   6684 0.02647500   1.008000   ; qtot 260.236753
 6685         hc    261    ccc     H4   6685 0.02647500   1.008000   ; qtot 260.263228
 6686         c3    261    ccc     C3   6686 0.04732600  12.010000   ; qtot 260.310554
 6687         h1    261    ccc     H5   6687 0.07030200   1.008000   ; qtot 260.380856
 6688         h1    261    ccc     H6   6688 0.07030200   1.008000   ; qtot 260.451158
 6689         n4    261    ccc     N1   6689 -0.21077700  14.010000   ; qtot 260.240381
 6690         hn    261    ccc     H7   6690 0.28399900   1.008000   ; qtot 260.524380
 6691         hn    261    ccc     H8   6691 0.28399900   1.008000   ; qtot 260.808379
 6692         os    261    ccc     O1   6692 -0.09200600  16.000000   ; qtot 260.716373
 6693         hn    261    ccc    H17   6693 0.28399900   1.008000   ; qtot 261.000372
; residue  262 ccc rtp ccc q 1.0
 6694         c3    262    ccc     C1   6694 0.17060900  12.010000   ; qtot 261.170981
 6695         hx    262    ccc     H1   6695 0.04213200   1.008000   ; qtot 261.213113
 6696         hx    262    ccc     H2   6696 0.04213200   1.008000   ; qtot 261.255245
 6697         c3    262    ccc     C2   6697 -0.04496700  12.010000   ; qtot 261.210278
 6698         hc    262    ccc     H3   6698 0.02647500   1.008000   ; qtot 261.236753
 6699         hc    262    ccc     H4   6699 0.02647500   1.008000   ; qtot 261.263228
 6700         c3    262    ccc     C3   6700 0.04732600  12.010000   ; qtot 261.310554
 6701         h1    262    ccc     H5   6701 0.07030200   1.008000   ; qtot 261.380856
 6702         h1    262    ccc     H6   6702 0.07030200   1.008000   ; qtot 261.451158
 6703         n4    262    ccc     N1   6703 -0.21077700  14.010000   ; qtot 261.240381
 6704         hn    262    ccc     H7   6704 0.28399900   1.008000   ; qtot 261.524380
 6705         hn    262    ccc     H8   6705 0.28399900   1.008000   ; qtot 261.808379
 6706         os    262    ccc     O1   6706 -0.09200600  16.000000   ; qtot 261.716373
 6707         hn    262    ccc    H17   6707 0.28399900   1.008000   ; qtot 262.000372
; residue  263 ccc rtp ccc q 1.0
 6708         c3    263    ccc     C1   6708 0.17060900  12.010000   ; qtot 262.170981
 6709         hx    263    ccc     H1   6709 0.04213200   1.008000   ; qtot 262.213113
 6710         hx    263    ccc     H2   6710 0.04213200   1.008000   ; qtot 262.255245
 6711         c3    263    ccc     C2   6711 -0.04496700  12.010000   ; qtot 262.210278
 6712         hc    263    ccc     H3   6712 0.02647500   1.008000   ; qtot 262.236753
 6713         hc    263    ccc     H4   6713 0.02647500   1.008000   ; qtot 262.263228
 6714         c3    263    ccc     C3   6714 0.04732600  12.010000   ; qtot 262.310554
 6715         h1    263    ccc     H5   6715 0.07030200   1.008000   ; qtot 262.380856
 6716         h1    263    ccc     H6   6716 0.07030200   1.008000   ; qtot 262.451158
 6717         n4    263    ccc     N1   6717 -0.21077700  14.010000   ; qtot 262.240381
 6718         hn    263    ccc     H7   6718 0.28399900   1.008000   ; qtot 262.524380
 6719         hn    263    ccc     H8   6719 0.28399900   1.008000   ; qtot 262.808379
 6720         os    263    ccc     O1   6720 -0.09200600  16.000000   ; qtot 262.716373
 6721         hn    263    ccc    H17   6721 0.28399900   1.008000   ; qtot 263.000372
; residue  264 ccc rtp ccc q 1.0
 6722         c3    264    ccc     C1   6722 0.17060900  12.010000   ; qtot 263.170981
 6723         hx    264    ccc     H1   6723 0.04213200   1.008000   ; qtot 263.213113
 6724         hx    264    ccc     H2   6724 0.04213200   1.008000   ; qtot 263.255245
 6725         c3    264    ccc     C2   6725 -0.04496700  12.010000   ; qtot 263.210278
 6726         hc    264    ccc     H3   6726 0.02647500   1.008000   ; qtot 263.236753
 6727         hc    264    ccc     H4   6727 0.02647500   1.008000   ; qtot 263.263228
 6728         c3    264    ccc     C3   6728 0.04732600  12.010000   ; qtot 263.310554
 6729         h1    264    ccc     H5   6729 0.07030200   1.008000   ; qtot 263.380856
 6730         h1    264    ccc     H6   6730 0.07030200   1.008000   ; qtot 263.451158
 6731         n4    264    ccc     N1   6731 -0.21077700  14.010000   ; qtot 263.240381
 6732         hn    264    ccc     H7   6732 0.28399900   1.008000   ; qtot 263.524380
 6733         hn    264    ccc     H8   6733 0.28399900   1.008000   ; qtot 263.808379
 6734         os    264    ccc     O1   6734 -0.09200600  16.000000   ; qtot 263.716373
 6735         hn    264    ccc    H17   6735 0.28399900   1.008000   ; qtot 264.000372
; residue  265 ccc rtp ccc q 1.0
 6736         c3    265    ccc     C1   6736 0.17060900  12.010000   ; qtot 264.170981
 6737         hx    265    ccc     H1   6737 0.04213200   1.008000   ; qtot 264.213113
 6738         hx    265    ccc     H2   6738 0.04213200   1.008000   ; qtot 264.255245
 6739         c3    265    ccc     C2   6739 -0.04496700  12.010000   ; qtot 264.210278
 6740         hc    265    ccc     H3   6740 0.02647500   1.008000   ; qtot 264.236753
 6741         hc    265    ccc     H4   6741 0.02647500   1.008000   ; qtot 264.263228
 6742         c3    265    ccc     C3   6742 0.04732600  12.010000   ; qtot 264.310554
 6743         h1    265    ccc     H5   6743 0.07030200   1.008000   ; qtot 264.380856
 6744         h1    265    ccc     H6   6744 0.07030200   1.008000   ; qtot 264.451158
 6745         n4    265    ccc     N1   6745 -0.21077700  14.010000   ; qtot 264.240381
 6746         hn    265    ccc     H7   6746 0.28399900   1.008000   ; qtot 264.524380
 6747         hn    265    ccc     H8   6747 0.28399900   1.008000   ; qtot 264.808379
 6748         os    265    ccc     O1   6748 -0.09200600  16.000000   ; qtot 264.716373
 6749         hn    265    ccc    H17   6749 0.28399900   1.008000   ; qtot 265.000372
; residue  266 ccc rtp ccc q 1.0
 6750         c3    266    ccc     C1   6750 0.17060900  12.010000   ; qtot 265.170981
 6751         hx    266    ccc     H1   6751 0.04213200   1.008000   ; qtot 265.213113
 6752         hx    266    ccc     H2   6752 0.04213200   1.008000   ; qtot 265.255245
 6753         c3    266    ccc     C2   6753 -0.04496700  12.010000   ; qtot 265.210278
 6754         hc    266    ccc     H3   6754 0.02647500   1.008000   ; qtot 265.236753
 6755         hc    266    ccc     H4   6755 0.02647500   1.008000   ; qtot 265.263228
 6756         c3    266    ccc     C3   6756 0.04732600  12.010000   ; qtot 265.310554
 6757         h1    266    ccc     H5   6757 0.07030200   1.008000   ; qtot 265.380856
 6758         h1    266    ccc     H6   6758 0.07030200   1.008000   ; qtot 265.451158
 6759         n4    266    ccc     N1   6759 -0.21077700  14.010000   ; qtot 265.240381
 6760         hn    266    ccc     H7   6760 0.28399900   1.008000   ; qtot 265.524380
 6761         hn    266    ccc     H8   6761 0.28399900   1.008000   ; qtot 265.808379
 6762         os    266    ccc     O1   6762 -0.09200600  16.000000   ; qtot 265.716373
 6763         hn    266    ccc    H17   6763 0.28399900   1.008000   ; qtot 266.000372
; residue  267 ccc rtp ccc q 1.0
 6764         c3    267    ccc     C1   6764 0.17060900  12.010000   ; qtot 266.170981
 6765         hx    267    ccc     H1   6765 0.04213200   1.008000   ; qtot 266.213113
 6766         hx    267    ccc     H2   6766 0.04213200   1.008000   ; qtot 266.255245
 6767         c3    267    ccc     C2   6767 -0.04496700  12.010000   ; qtot 266.210278
 6768         hc    267    ccc     H3   6768 0.02647500   1.008000   ; qtot 266.236753
 6769         hc    267    ccc     H4   6769 0.02647500   1.008000   ; qtot 266.263228
 6770         c3    267    ccc     C3   6770 0.04732600  12.010000   ; qtot 266.310554
 6771         h1    267    ccc     H5   6771 0.07030200   1.008000   ; qtot 266.380856
 6772         h1    267    ccc     H6   6772 0.07030200   1.008000   ; qtot 266.451158
 6773         n4    267    ccc     N1   6773 -0.21077700  14.010000   ; qtot 266.240381
 6774         hn    267    ccc     H7   6774 0.28399900   1.008000   ; qtot 266.524380
 6775         hn    267    ccc     H8   6775 0.28399900   1.008000   ; qtot 266.808379
 6776         os    267    ccc     O1   6776 -0.09200600  16.000000   ; qtot 266.716373
 6777         hn    267    ccc    H17   6777 0.28399900   1.008000   ; qtot 267.000372
; residue  268 ccc rtp ccc q 1.0
 6778         c3    268    ccc     C1   6778 0.17060900  12.010000   ; qtot 267.170981
 6779         hx    268    ccc     H1   6779 0.04213200   1.008000   ; qtot 267.213113
 6780         hx    268    ccc     H2   6780 0.04213200   1.008000   ; qtot 267.255245
 6781         c3    268    ccc     C2   6781 -0.04496700  12.010000   ; qtot 267.210278
 6782         hc    268    ccc     H3   6782 0.02647500   1.008000   ; qtot 267.236753
 6783         hc    268    ccc     H4   6783 0.02647500   1.008000   ; qtot 267.263228
 6784         c3    268    ccc     C3   6784 0.04732600  12.010000   ; qtot 267.310554
 6785         h1    268    ccc     H5   6785 0.07030200   1.008000   ; qtot 267.380856
 6786         h1    268    ccc     H6   6786 0.07030200   1.008000   ; qtot 267.451158
 6787         n4    268    ccc     N1   6787 -0.21077700  14.010000   ; qtot 267.240381
 6788         hn    268    ccc     H7   6788 0.28399900   1.008000   ; qtot 267.524380
 6789         hn    268    ccc     H8   6789 0.28399900   1.008000   ; qtot 267.808379
 6790         os    268    ccc     O1   6790 -0.09200600  16.000000   ; qtot 267.716373
 6791         hn    268    ccc    H17   6791 0.28399900   1.008000   ; qtot 268.000372
; residue  269 ccc rtp ccc q 1.0
 6792         c3    269    ccc     C1   6792 0.17060900  12.010000   ; qtot 268.170981
 6793         hx    269    ccc     H1   6793 0.04213200   1.008000   ; qtot 268.213113
 6794         hx    269    ccc     H2   6794 0.04213200   1.008000   ; qtot 268.255245
 6795         c3    269    ccc     C2   6795 -0.04496700  12.010000   ; qtot 268.210278
 6796         hc    269    ccc     H3   6796 0.02647500   1.008000   ; qtot 268.236753
 6797         hc    269    ccc     H4   6797 0.02647500   1.008000   ; qtot 268.263228
 6798         c3    269    ccc     C3   6798 0.04732600  12.010000   ; qtot 268.310554
 6799         h1    269    ccc     H5   6799 0.07030200   1.008000   ; qtot 268.380856
 6800         h1    269    ccc     H6   6800 0.07030200   1.008000   ; qtot 268.451158
 6801         n4    269    ccc     N1   6801 -0.21077700  14.010000   ; qtot 268.240381
 6802         hn    269    ccc     H7   6802 0.28399900   1.008000   ; qtot 268.524380
 6803         hn    269    ccc     H8   6803 0.28399900   1.008000   ; qtot 268.808379
 6804         os    269    ccc     O1   6804 -0.09200600  16.000000   ; qtot 268.716373
 6805         hn    269    ccc    H17   6805 0.28399900   1.008000   ; qtot 269.000372
; residue  270 ccc rtp ccc q 1.0
 6806         c3    270    ccc     C1   6806 0.17060900  12.010000   ; qtot 269.170981
 6807         hx    270    ccc     H1   6807 0.04213200   1.008000   ; qtot 269.213113
 6808         hx    270    ccc     H2   6808 0.04213200   1.008000   ; qtot 269.255245
 6809         c3    270    ccc     C2   6809 -0.04496700  12.010000   ; qtot 269.210278
 6810         hc    270    ccc     H3   6810 0.02647500   1.008000   ; qtot 269.236753
 6811         hc    270    ccc     H4   6811 0.02647500   1.008000   ; qtot 269.263228
 6812         c3    270    ccc     C3   6812 0.04732600  12.010000   ; qtot 269.310554
 6813         h1    270    ccc     H5   6813 0.07030200   1.008000   ; qtot 269.380856
 6814         h1    270    ccc     H6   6814 0.07030200   1.008000   ; qtot 269.451158
 6815         n4    270    ccc     N1   6815 -0.21077700  14.010000   ; qtot 269.240381
 6816         hn    270    ccc     H7   6816 0.28399900   1.008000   ; qtot 269.524380
 6817         hn    270    ccc     H8   6817 0.28399900   1.008000   ; qtot 269.808379
 6818         os    270    ccc     O1   6818 -0.09200600  16.000000   ; qtot 269.716373
 6819         hn    270    ccc    H17   6819 0.28399900   1.008000   ; qtot 270.000372
; residue  271 ccc rtp ccc q 1.0
 6820         c3    271    ccc     C1   6820 0.17060900  12.010000   ; qtot 270.170981
 6821         hx    271    ccc     H1   6821 0.04213200   1.008000   ; qtot 270.213113
 6822         hx    271    ccc     H2   6822 0.04213200   1.008000   ; qtot 270.255245
 6823         c3    271    ccc     C2   6823 -0.04496700  12.010000   ; qtot 270.210278
 6824         hc    271    ccc     H3   6824 0.02647500   1.008000   ; qtot 270.236753
 6825         hc    271    ccc     H4   6825 0.02647500   1.008000   ; qtot 270.263228
 6826         c3    271    ccc     C3   6826 0.04732600  12.010000   ; qtot 270.310554
 6827         h1    271    ccc     H5   6827 0.07030200   1.008000   ; qtot 270.380856
 6828         h1    271    ccc     H6   6828 0.07030200   1.008000   ; qtot 270.451158
 6829         n4    271    ccc     N1   6829 -0.21077700  14.010000   ; qtot 270.240381
 6830         hn    271    ccc     H7   6830 0.28399900   1.008000   ; qtot 270.524380
 6831         hn    271    ccc     H8   6831 0.28399900   1.008000   ; qtot 270.808379
 6832         os    271    ccc     O1   6832 -0.09200600  16.000000   ; qtot 270.716373
 6833         hn    271    ccc    H17   6833 0.28399900   1.008000   ; qtot 271.000372
; residue  272 ccc rtp ccc q 1.0
 6834         c3    272    ccc     C1   6834 0.17060900  12.010000   ; qtot 271.170981
 6835         hx    272    ccc     H1   6835 0.04213200   1.008000   ; qtot 271.213113
 6836         hx    272    ccc     H2   6836 0.04213200   1.008000   ; qtot 271.255245
 6837         c3    272    ccc     C2   6837 -0.04496700  12.010000   ; qtot 271.210278
 6838         hc    272    ccc     H3   6838 0.02647500   1.008000   ; qtot 271.236753
 6839         hc    272    ccc     H4   6839 0.02647500   1.008000   ; qtot 271.263228
 6840         c3    272    ccc     C3   6840 0.04732600  12.010000   ; qtot 271.310554
 6841         h1    272    ccc     H5   6841 0.07030200   1.008000   ; qtot 271.380856
 6842         h1    272    ccc     H6   6842 0.07030200   1.008000   ; qtot 271.451158
 6843         n4    272    ccc     N1   6843 -0.21077700  14.010000   ; qtot 271.240381
 6844         hn    272    ccc     H7   6844 0.28399900   1.008000   ; qtot 271.524380
 6845         hn    272    ccc     H8   6845 0.28399900   1.008000   ; qtot 271.808379
 6846         os    272    ccc     O1   6846 -0.09200600  16.000000   ; qtot 271.716373
 6847         hn    272    ccc    H17   6847 0.28399900   1.008000   ; qtot 272.000372
; residue  273 ccc rtp ccc q 1.0
 6848         c3    273    ccc     C1   6848 0.17060900  12.010000   ; qtot 272.170981
 6849         hx    273    ccc     H1   6849 0.04213200   1.008000   ; qtot 272.213113
 6850         hx    273    ccc     H2   6850 0.04213200   1.008000   ; qtot 272.255245
 6851         c3    273    ccc     C2   6851 -0.04496700  12.010000   ; qtot 272.210278
 6852         hc    273    ccc     H3   6852 0.02647500   1.008000   ; qtot 272.236753
 6853         hc    273    ccc     H4   6853 0.02647500   1.008000   ; qtot 272.263228
 6854         c3    273    ccc     C3   6854 0.04732600  12.010000   ; qtot 272.310554
 6855         h1    273    ccc     H5   6855 0.07030200   1.008000   ; qtot 272.380856
 6856         h1    273    ccc     H6   6856 0.07030200   1.008000   ; qtot 272.451158
 6857         n4    273    ccc     N1   6857 -0.21077700  14.010000   ; qtot 272.240381
 6858         hn    273    ccc     H7   6858 0.28399900   1.008000   ; qtot 272.524380
 6859         hn    273    ccc     H8   6859 0.28399900   1.008000   ; qtot 272.808379
 6860         os    273    ccc     O1   6860 -0.09200600  16.000000   ; qtot 272.716373
 6861         hn    273    ccc    H17   6861 0.28399900   1.008000   ; qtot 273.000372
; residue  274 ccc rtp ccc q 1.0
 6862         c3    274    ccc     C1   6862 0.17060900  12.010000   ; qtot 273.170981
 6863         hx    274    ccc     H1   6863 0.04213200   1.008000   ; qtot 273.213113
 6864         hx    274    ccc     H2   6864 0.04213200   1.008000   ; qtot 273.255245
 6865         c3    274    ccc     C2   6865 -0.04496700  12.010000   ; qtot 273.210278
 6866         hc    274    ccc     H3   6866 0.02647500   1.008000   ; qtot 273.236753
 6867         hc    274    ccc     H4   6867 0.02647500   1.008000   ; qtot 273.263228
 6868         c3    274    ccc     C3   6868 0.04732600  12.010000   ; qtot 273.310554
 6869         h1    274    ccc     H5   6869 0.07030200   1.008000   ; qtot 273.380856
 6870         h1    274    ccc     H6   6870 0.07030200   1.008000   ; qtot 273.451158
 6871         n4    274    ccc     N1   6871 -0.21077700  14.010000   ; qtot 273.240381
 6872         hn    274    ccc     H7   6872 0.28399900   1.008000   ; qtot 273.524380
 6873         hn    274    ccc     H8   6873 0.28399900   1.008000   ; qtot 273.808379
 6874         os    274    ccc     O1   6874 -0.09200600  16.000000   ; qtot 273.716373
 6875         hn    274    ccc    H17   6875 0.28399900   1.008000   ; qtot 274.000372
; residue  275 ccc rtp ccc q 1.0
 6876         c3    275    ccc     C1   6876 0.17060900  12.010000   ; qtot 274.170981
 6877         hx    275    ccc     H1   6877 0.04213200   1.008000   ; qtot 274.213113
 6878         hx    275    ccc     H2   6878 0.04213200   1.008000   ; qtot 274.255245
 6879         c3    275    ccc     C2   6879 -0.04496700  12.010000   ; qtot 274.210278
 6880         hc    275    ccc     H3   6880 0.02647500   1.008000   ; qtot 274.236753
 6881         hc    275    ccc     H4   6881 0.02647500   1.008000   ; qtot 274.263228
 6882         c3    275    ccc     C3   6882 0.04732600  12.010000   ; qtot 274.310554
 6883         h1    275    ccc     H5   6883 0.07030200   1.008000   ; qtot 274.380856
 6884         h1    275    ccc     H6   6884 0.07030200   1.008000   ; qtot 274.451158
 6885         n4    275    ccc     N1   6885 -0.21077700  14.010000   ; qtot 274.240381
 6886         hn    275    ccc     H7   6886 0.28399900   1.008000   ; qtot 274.524380
 6887         hn    275    ccc     H8   6887 0.28399900   1.008000   ; qtot 274.808379
 6888         os    275    ccc     O1   6888 -0.09200600  16.000000   ; qtot 274.716373
 6889         hn    275    ccc    H17   6889 0.28399900   1.008000   ; qtot 275.000372
; residue  276 ccc rtp ccc q 1.0
 6890         c3    276    ccc     C1   6890 0.17060900  12.010000   ; qtot 275.170981
 6891         hx    276    ccc     H1   6891 0.04213200   1.008000   ; qtot 275.213113
 6892         hx    276    ccc     H2   6892 0.04213200   1.008000   ; qtot 275.255245
 6893         c3    276    ccc     C2   6893 -0.04496700  12.010000   ; qtot 275.210278
 6894         hc    276    ccc     H3   6894 0.02647500   1.008000   ; qtot 275.236753
 6895         hc    276    ccc     H4   6895 0.02647500   1.008000   ; qtot 275.263228
 6896         c3    276    ccc     C3   6896 0.04732600  12.010000   ; qtot 275.310554
 6897         h1    276    ccc     H5   6897 0.07030200   1.008000   ; qtot 275.380856
 6898         h1    276    ccc     H6   6898 0.07030200   1.008000   ; qtot 275.451158
 6899         n4    276    ccc     N1   6899 -0.21077700  14.010000   ; qtot 275.240381
 6900         hn    276    ccc     H7   6900 0.28399900   1.008000   ; qtot 275.524380
 6901         hn    276    ccc     H8   6901 0.28399900   1.008000   ; qtot 275.808379
 6902         os    276    ccc     O1   6902 -0.09200600  16.000000   ; qtot 275.716373
 6903         hn    276    ccc    H17   6903 0.28399900   1.008000   ; qtot 276.000372
; residue  277 ccc rtp ccc q 1.0
 6904         c3    277    ccc     C1   6904 0.17060900  12.010000   ; qtot 276.170981
 6905         hx    277    ccc     H1   6905 0.04213200   1.008000   ; qtot 276.213113
 6906         hx    277    ccc     H2   6906 0.04213200   1.008000   ; qtot 276.255245
 6907         c3    277    ccc     C2   6907 -0.04496700  12.010000   ; qtot 276.210278
 6908         hc    277    ccc     H3   6908 0.02647500   1.008000   ; qtot 276.236753
 6909         hc    277    ccc     H4   6909 0.02647500   1.008000   ; qtot 276.263228
 6910         c3    277    ccc     C3   6910 0.04732600  12.010000   ; qtot 276.310554
 6911         h1    277    ccc     H5   6911 0.07030200   1.008000   ; qtot 276.380856
 6912         h1    277    ccc     H6   6912 0.07030200   1.008000   ; qtot 276.451158
 6913         n4    277    ccc     N1   6913 -0.21077700  14.010000   ; qtot 276.240381
 6914         hn    277    ccc     H7   6914 0.28399900   1.008000   ; qtot 276.524380
 6915         hn    277    ccc     H8   6915 0.28399900   1.008000   ; qtot 276.808379
 6916         os    277    ccc     O1   6916 -0.09200600  16.000000   ; qtot 276.716373
 6917         hn    277    ccc    H17   6917 0.28399900   1.008000   ; qtot 277.000372
; residue  278 ccc rtp ccc q 1.0
 6918         c3    278    ccc     C1   6918 0.17060900  12.010000   ; qtot 277.170981
 6919         hx    278    ccc     H1   6919 0.04213200   1.008000   ; qtot 277.213113
 6920         hx    278    ccc     H2   6920 0.04213200   1.008000   ; qtot 277.255245
 6921         c3    278    ccc     C2   6921 -0.04496700  12.010000   ; qtot 277.210278
 6922         hc    278    ccc     H3   6922 0.02647500   1.008000   ; qtot 277.236753
 6923         hc    278    ccc     H4   6923 0.02647500   1.008000   ; qtot 277.263228
 6924         c3    278    ccc     C3   6924 0.04732600  12.010000   ; qtot 277.310554
 6925         h1    278    ccc     H5   6925 0.07030200   1.008000   ; qtot 277.380856
 6926         h1    278    ccc     H6   6926 0.07030200   1.008000   ; qtot 277.451158
 6927         n4    278    ccc     N1   6927 -0.21077700  14.010000   ; qtot 277.240381
 6928         hn    278    ccc     H7   6928 0.28399900   1.008000   ; qtot 277.524380
 6929         hn    278    ccc     H8   6929 0.28399900   1.008000   ; qtot 277.808379
 6930         os    278    ccc     O1   6930 -0.09200600  16.000000   ; qtot 277.716373
 6931         hn    278    ccc    H17   6931 0.28399900   1.008000   ; qtot 278.000372
; residue  279 ccc rtp ccc q 1.0
 6932         c3    279    ccc     C1   6932 0.17060900  12.010000   ; qtot 278.170981
 6933         hx    279    ccc     H1   6933 0.04213200   1.008000   ; qtot 278.213113
 6934         hx    279    ccc     H2   6934 0.04213200   1.008000   ; qtot 278.255245
 6935         c3    279    ccc     C2   6935 -0.04496700  12.010000   ; qtot 278.210278
 6936         hc    279    ccc     H3   6936 0.02647500   1.008000   ; qtot 278.236753
 6937         hc    279    ccc     H4   6937 0.02647500   1.008000   ; qtot 278.263228
 6938         c3    279    ccc     C3   6938 0.04732600  12.010000   ; qtot 278.310554
 6939         h1    279    ccc     H5   6939 0.07030200   1.008000   ; qtot 278.380856
 6940         h1    279    ccc     H6   6940 0.07030200   1.008000   ; qtot 278.451158
 6941         n4    279    ccc     N1   6941 -0.21077700  14.010000   ; qtot 278.240381
 6942         hn    279    ccc     H7   6942 0.28399900   1.008000   ; qtot 278.524380
 6943         hn    279    ccc     H8   6943 0.28399900   1.008000   ; qtot 278.808379
 6944         os    279    ccc     O1   6944 -0.09200600  16.000000   ; qtot 278.716373
 6945         hn    279    ccc    H17   6945 0.28399900   1.008000   ; qtot 279.000372
; residue  280 ccc rtp ccc q 1.0
 6946         c3    280    ccc     C1   6946 0.17060900  12.010000   ; qtot 279.170981
 6947         hx    280    ccc     H1   6947 0.04213200   1.008000   ; qtot 279.213113
 6948         hx    280    ccc     H2   6948 0.04213200   1.008000   ; qtot 279.255245
 6949         c3    280    ccc     C2   6949 -0.04496700  12.010000   ; qtot 279.210278
 6950         hc    280    ccc     H3   6950 0.02647500   1.008000   ; qtot 279.236753
 6951         hc    280    ccc     H4   6951 0.02647500   1.008000   ; qtot 279.263228
 6952         c3    280    ccc     C3   6952 0.04732600  12.010000   ; qtot 279.310554
 6953         h1    280    ccc     H5   6953 0.07030200   1.008000   ; qtot 279.380856
 6954         h1    280    ccc     H6   6954 0.07030200   1.008000   ; qtot 279.451158
 6955         n4    280    ccc     N1   6955 -0.21077700  14.010000   ; qtot 279.240381
 6956         hn    280    ccc     H7   6956 0.28399900   1.008000   ; qtot 279.524380
 6957         hn    280    ccc     H8   6957 0.28399900   1.008000   ; qtot 279.808379
 6958         os    280    ccc     O1   6958 -0.09200600  16.000000   ; qtot 279.716373
 6959         hn    280    ccc    H17   6959 0.28399900   1.008000   ; qtot 280.000372
; residue  281 ccc rtp ccc q 1.0
 6960         c3    281    ccc     C1   6960 0.17060900  12.010000   ; qtot 280.170981
 6961         hx    281    ccc     H1   6961 0.04213200   1.008000   ; qtot 280.213113
 6962         hx    281    ccc     H2   6962 0.04213200   1.008000   ; qtot 280.255245
 6963         c3    281    ccc     C2   6963 -0.04496700  12.010000   ; qtot 280.210278
 6964         hc    281    ccc     H3   6964 0.02647500   1.008000   ; qtot 280.236753
 6965         hc    281    ccc     H4   6965 0.02647500   1.008000   ; qtot 280.263228
 6966         c3    281    ccc     C3   6966 0.04732600  12.010000   ; qtot 280.310554
 6967         h1    281    ccc     H5   6967 0.07030200   1.008000   ; qtot 280.380856
 6968         h1    281    ccc     H6   6968 0.07030200   1.008000   ; qtot 280.451158
 6969         n4    281    ccc     N1   6969 -0.21077700  14.010000   ; qtot 280.240381
 6970         hn    281    ccc     H7   6970 0.28399900   1.008000   ; qtot 280.524380
 6971         hn    281    ccc     H8   6971 0.28399900   1.008000   ; qtot 280.808379
 6972         os    281    ccc     O1   6972 -0.09200600  16.000000   ; qtot 280.716373
 6973         hn    281    ccc    H17   6973 0.28399900   1.008000   ; qtot 281.000372
; residue  282 ccc rtp ccc q 1.0
 6974         c3    282    ccc     C1   6974 0.17060900  12.010000   ; qtot 281.170981
 6975         hx    282    ccc     H1   6975 0.04213200   1.008000   ; qtot 281.213113
 6976         hx    282    ccc     H2   6976 0.04213200   1.008000   ; qtot 281.255245
 6977         c3    282    ccc     C2   6977 -0.04496700  12.010000   ; qtot 281.210278
 6978         hc    282    ccc     H3   6978 0.02647500   1.008000   ; qtot 281.236753
 6979         hc    282    ccc     H4   6979 0.02647500   1.008000   ; qtot 281.263228
 6980         c3    282    ccc     C3   6980 0.04732600  12.010000   ; qtot 281.310554
 6981         h1    282    ccc     H5   6981 0.07030200   1.008000   ; qtot 281.380856
 6982         h1    282    ccc     H6   6982 0.07030200   1.008000   ; qtot 281.451158
 6983         n4    282    ccc     N1   6983 -0.21077700  14.010000   ; qtot 281.240381
 6984         hn    282    ccc     H7   6984 0.28399900   1.008000   ; qtot 281.524380
 6985         hn    282    ccc     H8   6985 0.28399900   1.008000   ; qtot 281.808379
 6986         os    282    ccc     O1   6986 -0.09200600  16.000000   ; qtot 281.716373
 6987         hn    282    ccc    H17   6987 0.28399900   1.008000   ; qtot 282.000372
; residue  283 ccc rtp ccc q 1.0
 6988         c3    283    ccc     C1   6988 0.17060900  12.010000   ; qtot 282.170981
 6989         hx    283    ccc     H1   6989 0.04213200   1.008000   ; qtot 282.213113
 6990         hx    283    ccc     H2   6990 0.04213200   1.008000   ; qtot 282.255245
 6991         c3    283    ccc     C2   6991 -0.04496700  12.010000   ; qtot 282.210278
 6992         hc    283    ccc     H3   6992 0.02647500   1.008000   ; qtot 282.236753
 6993         hc    283    ccc     H4   6993 0.02647500   1.008000   ; qtot 282.263228
 6994         c3    283    ccc     C3   6994 0.04732600  12.010000   ; qtot 282.310554
 6995         h1    283    ccc     H5   6995 0.07030200   1.008000   ; qtot 282.380856
 6996         h1    283    ccc     H6   6996 0.07030200   1.008000   ; qtot 282.451158
 6997         n4    283    ccc     N1   6997 -0.21077700  14.010000   ; qtot 282.240381
 6998         hn    283    ccc     H7   6998 0.28399900   1.008000   ; qtot 282.524380
 6999         hn    283    ccc     H8   6999 0.28399900   1.008000   ; qtot 282.808379
 7000         os    283    ccc     O1   7000 -0.09200600  16.000000   ; qtot 282.716373
 7001         hn    283    ccc    H17   7001 0.28399900   1.008000   ; qtot 283.000372
; residue  284 ccc rtp ccc q 1.0
 7002         c3    284    ccc     C1   7002 0.17060900  12.010000   ; qtot 283.170981
 7003         hx    284    ccc     H1   7003 0.04213200   1.008000   ; qtot 283.213113
 7004         hx    284    ccc     H2   7004 0.04213200   1.008000   ; qtot 283.255245
 7005         c3    284    ccc     C2   7005 -0.04496700  12.010000   ; qtot 283.210278
 7006         hc    284    ccc     H3   7006 0.02647500   1.008000   ; qtot 283.236753
 7007         hc    284    ccc     H4   7007 0.02647500   1.008000   ; qtot 283.263228
 7008         c3    284    ccc     C3   7008 0.04732600  12.010000   ; qtot 283.310554
 7009         h1    284    ccc     H5   7009 0.07030200   1.008000   ; qtot 283.380856
 7010         h1    284    ccc     H6   7010 0.07030200   1.008000   ; qtot 283.451158
 7011         n4    284    ccc     N1   7011 -0.21077700  14.010000   ; qtot 283.240381
 7012         hn    284    ccc     H7   7012 0.28399900   1.008000   ; qtot 283.524380
 7013         hn    284    ccc     H8   7013 0.28399900   1.008000   ; qtot 283.808379
 7014         os    284    ccc     O1   7014 -0.09200600  16.000000   ; qtot 283.716373
 7015         hn    284    ccc    H17   7015 0.28399900   1.008000   ; qtot 284.000372
; residue  285 ccc rtp ccc q 1.0
 7016         c3    285    ccc     C1   7016 0.17060900  12.010000   ; qtot 284.170981
 7017         hx    285    ccc     H1   7017 0.04213200   1.008000   ; qtot 284.213113
 7018         hx    285    ccc     H2   7018 0.04213200   1.008000   ; qtot 284.255245
 7019         c3    285    ccc     C2   7019 -0.04496700  12.010000   ; qtot 284.210278
 7020         hc    285    ccc     H3   7020 0.02647500   1.008000   ; qtot 284.236753
 7021         hc    285    ccc     H4   7021 0.02647500   1.008000   ; qtot 284.263228
 7022         c3    285    ccc     C3   7022 0.04732600  12.010000   ; qtot 284.310554
 7023         h1    285    ccc     H5   7023 0.07030200   1.008000   ; qtot 284.380856
 7024         h1    285    ccc     H6   7024 0.07030200   1.008000   ; qtot 284.451158
 7025         n4    285    ccc     N1   7025 -0.21077700  14.010000   ; qtot 284.240381
 7026         hn    285    ccc     H7   7026 0.28399900   1.008000   ; qtot 284.524380
 7027         hn    285    ccc     H8   7027 0.28399900   1.008000   ; qtot 284.808379
 7028         os    285    ccc     O1   7028 -0.09200600  16.000000   ; qtot 284.716373
 7029         hn    285    ccc    H17   7029 0.28399900   1.008000   ; qtot 285.000372
; residue  286 ccc rtp ccc q 1.0
 7030         c3    286    ccc     C1   7030 0.17060900  12.010000   ; qtot 285.170981
 7031         hx    286    ccc     H1   7031 0.04213200   1.008000   ; qtot 285.213113
 7032         hx    286    ccc     H2   7032 0.04213200   1.008000   ; qtot 285.255245
 7033         c3    286    ccc     C2   7033 -0.04496700  12.010000   ; qtot 285.210278
 7034         hc    286    ccc     H3   7034 0.02647500   1.008000   ; qtot 285.236753
 7035         hc    286    ccc     H4   7035 0.02647500   1.008000   ; qtot 285.263228
 7036         c3    286    ccc     C3   7036 0.04732600  12.010000   ; qtot 285.310554
 7037         h1    286    ccc     H5   7037 0.07030200   1.008000   ; qtot 285.380856
 7038         h1    286    ccc     H6   7038 0.07030200   1.008000   ; qtot 285.451158
 7039         n4    286    ccc     N1   7039 -0.21077700  14.010000   ; qtot 285.240381
 7040         hn    286    ccc     H7   7040 0.28399900   1.008000   ; qtot 285.524380
 7041         hn    286    ccc     H8   7041 0.28399900   1.008000   ; qtot 285.808379
 7042         os    286    ccc     O1   7042 -0.09200600  16.000000   ; qtot 285.716373
 7043         hn    286    ccc    H17   7043 0.28399900   1.008000   ; qtot 286.000372
; residue  287 ccc rtp ccc q 1.0
 7044         c3    287    ccc     C1   7044 0.17060900  12.010000   ; qtot 286.170981
 7045         hx    287    ccc     H1   7045 0.04213200   1.008000   ; qtot 286.213113
 7046         hx    287    ccc     H2   7046 0.04213200   1.008000   ; qtot 286.255245
 7047         c3    287    ccc     C2   7047 -0.04496700  12.010000   ; qtot 286.210278
 7048         hc    287    ccc     H3   7048 0.02647500   1.008000   ; qtot 286.236753
 7049         hc    287    ccc     H4   7049 0.02647500   1.008000   ; qtot 286.263228
 7050         c3    287    ccc     C3   7050 0.04732600  12.010000   ; qtot 286.310554
 7051         h1    287    ccc     H5   7051 0.07030200   1.008000   ; qtot 286.380856
 7052         h1    287    ccc     H6   7052 0.07030200   1.008000   ; qtot 286.451158
 7053         n4    287    ccc     N1   7053 -0.21077700  14.010000   ; qtot 286.240381
 7054         hn    287    ccc     H7   7054 0.28399900   1.008000   ; qtot 286.524380
 7055         hn    287    ccc     H8   7055 0.28399900   1.008000   ; qtot 286.808379
 7056         os    287    ccc     O1   7056 -0.09200600  16.000000   ; qtot 286.716373
 7057         hn    287    ccc    H17   7057 0.28399900   1.008000   ; qtot 287.000372
; residue  288 ccc rtp ccc q 1.0
 7058         c3    288    ccc     C1   7058 0.17060900  12.010000   ; qtot 287.170981
 7059         hx    288    ccc     H1   7059 0.04213200   1.008000   ; qtot 287.213113
 7060         hx    288    ccc     H2   7060 0.04213200   1.008000   ; qtot 287.255245
 7061         c3    288    ccc     C2   7061 -0.04496700  12.010000   ; qtot 287.210278
 7062         hc    288    ccc     H3   7062 0.02647500   1.008000   ; qtot 287.236753
 7063         hc    288    ccc     H4   7063 0.02647500   1.008000   ; qtot 287.263228
 7064         c3    288    ccc     C3   7064 0.04732600  12.010000   ; qtot 287.310554
 7065         h1    288    ccc     H5   7065 0.07030200   1.008000   ; qtot 287.380856
 7066         h1    288    ccc     H6   7066 0.07030200   1.008000   ; qtot 287.451158
 7067         n4    288    ccc     N1   7067 -0.21077700  14.010000   ; qtot 287.240381
 7068         hn    288    ccc     H7   7068 0.28399900   1.008000   ; qtot 287.524380
 7069         hn    288    ccc     H8   7069 0.28399900   1.008000   ; qtot 287.808379
 7070         os    288    ccc     O1   7070 -0.09200600  16.000000   ; qtot 287.716373
 7071         hn    288    ccc    H17   7071 0.28399900   1.008000   ; qtot 288.000372
; residue  289 ccc rtp ccc q 1.0
 7072         c3    289    ccc     C1   7072 0.17060900  12.010000   ; qtot 288.170981
 7073         hx    289    ccc     H1   7073 0.04213200   1.008000   ; qtot 288.213113
 7074         hx    289    ccc     H2   7074 0.04213200   1.008000   ; qtot 288.255245
 7075         c3    289    ccc     C2   7075 -0.04496700  12.010000   ; qtot 288.210278
 7076         hc    289    ccc     H3   7076 0.02647500   1.008000   ; qtot 288.236753
 7077         hc    289    ccc     H4   7077 0.02647500   1.008000   ; qtot 288.263228
 7078         c3    289    ccc     C3   7078 0.04732600  12.010000   ; qtot 288.310554
 7079         h1    289    ccc     H5   7079 0.07030200   1.008000   ; qtot 288.380856
 7080         h1    289    ccc     H6   7080 0.07030200   1.008000   ; qtot 288.451158
 7081         n4    289    ccc     N1   7081 -0.21077700  14.010000   ; qtot 288.240381
 7082         hn    289    ccc     H7   7082 0.28399900   1.008000   ; qtot 288.524380
 7083         hn    289    ccc     H8   7083 0.28399900   1.008000   ; qtot 288.808379
 7084         os    289    ccc     O1   7084 -0.09200600  16.000000   ; qtot 288.716373
 7085         hn    289    ccc    H17   7085 0.28399900   1.008000   ; qtot 289.000372
; residue  290 ccc rtp ccc q 1.0
 7086         c3    290    ccc     C1   7086 0.17060900  12.010000   ; qtot 289.170981
 7087         hx    290    ccc     H1   7087 0.04213200   1.008000   ; qtot 289.213113
 7088         hx    290    ccc     H2   7088 0.04213200   1.008000   ; qtot 289.255245
 7089         c3    290    ccc     C2   7089 -0.04496700  12.010000   ; qtot 289.210278
 7090         hc    290    ccc     H3   7090 0.02647500   1.008000   ; qtot 289.236753
 7091         hc    290    ccc     H4   7091 0.02647500   1.008000   ; qtot 289.263228
 7092         c3    290    ccc     C3   7092 0.04732600  12.010000   ; qtot 289.310554
 7093         h1    290    ccc     H5   7093 0.07030200   1.008000   ; qtot 289.380856
 7094         h1    290    ccc     H6   7094 0.07030200   1.008000   ; qtot 289.451158
 7095         n4    290    ccc     N1   7095 -0.21077700  14.010000   ; qtot 289.240381
 7096         hn    290    ccc     H7   7096 0.28399900   1.008000   ; qtot 289.524380
 7097         hn    290    ccc     H8   7097 0.28399900   1.008000   ; qtot 289.808379
 7098         os    290    ccc     O1   7098 -0.09200600  16.000000   ; qtot 289.716373
 7099         hn    290    ccc    H17   7099 0.28399900   1.008000   ; qtot 290.000372
; residue  291 ccc rtp ccc q 1.0
 7100         c3    291    ccc     C1   7100 0.17060900  12.010000   ; qtot 290.170981
 7101         hx    291    ccc     H1   7101 0.04213200   1.008000   ; qtot 290.213113
 7102         hx    291    ccc     H2   7102 0.04213200   1.008000   ; qtot 290.255245
 7103         c3    291    ccc     C2   7103 -0.04496700  12.010000   ; qtot 290.210278
 7104         hc    291    ccc     H3   7104 0.02647500   1.008000   ; qtot 290.236753
 7105         hc    291    ccc     H4   7105 0.02647500   1.008000   ; qtot 290.263228
 7106         c3    291    ccc     C3   7106 0.04732600  12.010000   ; qtot 290.310554
 7107         h1    291    ccc     H5   7107 0.07030200   1.008000   ; qtot 290.380856
 7108         h1    291    ccc     H6   7108 0.07030200   1.008000   ; qtot 290.451158
 7109         n4    291    ccc     N1   7109 -0.21077700  14.010000   ; qtot 290.240381
 7110         hn    291    ccc     H7   7110 0.28399900   1.008000   ; qtot 290.524380
 7111         hn    291    ccc     H8   7111 0.28399900   1.008000   ; qtot 290.808379
 7112         os    291    ccc     O1   7112 -0.09200600  16.000000   ; qtot 290.716373
 7113         hn    291    ccc    H17   7113 0.28399900   1.008000   ; qtot 291.000372
; residue  292 ccc rtp ccc q 1.0
 7114         c3    292    ccc     C1   7114 0.17060900  12.010000   ; qtot 291.170981
 7115         hx    292    ccc     H1   7115 0.04213200   1.008000   ; qtot 291.213113
 7116         hx    292    ccc     H2   7116 0.04213200   1.008000   ; qtot 291.255245
 7117         c3    292    ccc     C2   7117 -0.04496700  12.010000   ; qtot 291.210278
 7118         hc    292    ccc     H3   7118 0.02647500   1.008000   ; qtot 291.236753
 7119         hc    292    ccc     H4   7119 0.02647500   1.008000   ; qtot 291.263228
 7120         c3    292    ccc     C3   7120 0.04732600  12.010000   ; qtot 291.310554
 7121         h1    292    ccc     H5   7121 0.07030200   1.008000   ; qtot 291.380856
 7122         h1    292    ccc     H6   7122 0.07030200   1.008000   ; qtot 291.451158
 7123         n4    292    ccc     N1   7123 -0.21077700  14.010000   ; qtot 291.240381
 7124         hn    292    ccc     H7   7124 0.28399900   1.008000   ; qtot 291.524380
 7125         hn    292    ccc     H8   7125 0.28399900   1.008000   ; qtot 291.808379
 7126         os    292    ccc     O1   7126 -0.09200600  16.000000   ; qtot 291.716373
 7127         hn    292    ccc    H17   7127 0.28399900   1.008000   ; qtot 292.000372
; residue  293 ccc rtp ccc q 1.0
 7128         c3    293    ccc     C1   7128 0.17060900  12.010000   ; qtot 292.170981
 7129         hx    293    ccc     H1   7129 0.04213200   1.008000   ; qtot 292.213113
 7130         hx    293    ccc     H2   7130 0.04213200   1.008000   ; qtot 292.255245
 7131         c3    293    ccc     C2   7131 -0.04496700  12.010000   ; qtot 292.210278
 7132         hc    293    ccc     H3   7132 0.02647500   1.008000   ; qtot 292.236753
 7133         hc    293    ccc     H4   7133 0.02647500   1.008000   ; qtot 292.263228
 7134         c3    293    ccc     C3   7134 0.04732600  12.010000   ; qtot 292.310554
 7135         h1    293    ccc     H5   7135 0.07030200   1.008000   ; qtot 292.380856
 7136         h1    293    ccc     H6   7136 0.07030200   1.008000   ; qtot 292.451158
 7137         n4    293    ccc     N1   7137 -0.21077700  14.010000   ; qtot 292.240381
 7138         hn    293    ccc     H7   7138 0.28399900   1.008000   ; qtot 292.524380
 7139         hn    293    ccc     H8   7139 0.28399900   1.008000   ; qtot 292.808379
 7140         os    293    ccc     O1   7140 -0.09200600  16.000000   ; qtot 292.716373
 7141         hn    293    ccc    H17   7141 0.28399900   1.008000   ; qtot 293.000372
; residue  294 ccc rtp ccc q 1.0
 7142         c3    294    ccc     C1   7142 0.17060900  12.010000   ; qtot 293.170981
 7143         hx    294    ccc     H1   7143 0.04213200   1.008000   ; qtot 293.213113
 7144         hx    294    ccc     H2   7144 0.04213200   1.008000   ; qtot 293.255245
 7145         c3    294    ccc     C2   7145 -0.04496700  12.010000   ; qtot 293.210278
 7146         hc    294    ccc     H3   7146 0.02647500   1.008000   ; qtot 293.236753
 7147         hc    294    ccc     H4   7147 0.02647500   1.008000   ; qtot 293.263228
 7148         c3    294    ccc     C3   7148 0.04732600  12.010000   ; qtot 293.310554
 7149         h1    294    ccc     H5   7149 0.07030200   1.008000   ; qtot 293.380856
 7150         h1    294    ccc     H6   7150 0.07030200   1.008000   ; qtot 293.451158
 7151         n4    294    ccc     N1   7151 -0.21077700  14.010000   ; qtot 293.240381
 7152         hn    294    ccc     H7   7152 0.28399900   1.008000   ; qtot 293.524380
 7153         hn    294    ccc     H8   7153 0.28399900   1.008000   ; qtot 293.808379
 7154         os    294    ccc     O1   7154 -0.09200600  16.000000   ; qtot 293.716373
 7155         hn    294    ccc    H17   7155 0.28399900   1.008000   ; qtot 294.000372
; residue  295 ccc rtp ccc q 1.0
 7156         c3    295    ccc     C1   7156 0.17060900  12.010000   ; qtot 294.170981
 7157         hx    295    ccc     H1   7157 0.04213200   1.008000   ; qtot 294.213113
 7158         hx    295    ccc     H2   7158 0.04213200   1.008000   ; qtot 294.255245
 7159         c3    295    ccc     C2   7159 -0.04496700  12.010000   ; qtot 294.210278
 7160         hc    295    ccc     H3   7160 0.02647500   1.008000   ; qtot 294.236753
 7161         hc    295    ccc     H4   7161 0.02647500   1.008000   ; qtot 294.263228
 7162         c3    295    ccc     C3   7162 0.04732600  12.010000   ; qtot 294.310554
 7163         h1    295    ccc     H5   7163 0.07030200   1.008000   ; qtot 294.380856
 7164         h1    295    ccc     H6   7164 0.07030200   1.008000   ; qtot 294.451158
 7165         n4    295    ccc     N1   7165 -0.21077700  14.010000   ; qtot 294.240381
 7166         hn    295    ccc     H7   7166 0.28399900   1.008000   ; qtot 294.524380
 7167         hn    295    ccc     H8   7167 0.28399900   1.008000   ; qtot 294.808379
 7168         os    295    ccc     O1   7168 -0.09200600  16.000000   ; qtot 294.716373
 7169         hn    295    ccc    H17   7169 0.28399900   1.008000   ; qtot 295.000372
; residue  296 ccc rtp ccc q 1.0
 7170         c3    296    ccc     C1   7170 0.17060900  12.010000   ; qtot 295.170981
 7171         hx    296    ccc     H1   7171 0.04213200   1.008000   ; qtot 295.213113
 7172         hx    296    ccc     H2   7172 0.04213200   1.008000   ; qtot 295.255245
 7173         c3    296    ccc     C2   7173 -0.04496700  12.010000   ; qtot 295.210278
 7174         hc    296    ccc     H3   7174 0.02647500   1.008000   ; qtot 295.236753
 7175         hc    296    ccc     H4   7175 0.02647500   1.008000   ; qtot 295.263228
 7176         c3    296    ccc     C3   7176 0.04732600  12.010000   ; qtot 295.310554
 7177         h1    296    ccc     H5   7177 0.07030200   1.008000   ; qtot 295.380856
 7178         h1    296    ccc     H6   7178 0.07030200   1.008000   ; qtot 295.451158
 7179         n4    296    ccc     N1   7179 -0.21077700  14.010000   ; qtot 295.240381
 7180         hn    296    ccc     H7   7180 0.28399900   1.008000   ; qtot 295.524380
 7181         hn    296    ccc     H8   7181 0.28399900   1.008000   ; qtot 295.808379
 7182         os    296    ccc     O1   7182 -0.09200600  16.000000   ; qtot 295.716373
 7183         hn    296    ccc    H17   7183 0.28399900   1.008000   ; qtot 296.000372
; residue  297 ccc rtp ccc q 1.0
 7184         c3    297    ccc     C1   7184 0.17060900  12.010000   ; qtot 296.170981
 7185         hx    297    ccc     H1   7185 0.04213200   1.008000   ; qtot 296.213113
 7186         hx    297    ccc     H2   7186 0.04213200   1.008000   ; qtot 296.255245
 7187         c3    297    ccc     C2   7187 -0.04496700  12.010000   ; qtot 296.210278
 7188         hc    297    ccc     H3   7188 0.02647500   1.008000   ; qtot 296.236753
 7189         hc    297    ccc     H4   7189 0.02647500   1.008000   ; qtot 296.263228
 7190         c3    297    ccc     C3   7190 0.04732600  12.010000   ; qtot 296.310554
 7191         h1    297    ccc     H5   7191 0.07030200   1.008000   ; qtot 296.380856
 7192         h1    297    ccc     H6   7192 0.07030200   1.008000   ; qtot 296.451158
 7193         n4    297    ccc     N1   7193 -0.21077700  14.010000   ; qtot 296.240381
 7194         hn    297    ccc     H7   7194 0.28399900   1.008000   ; qtot 296.524380
 7195         hn    297    ccc     H8   7195 0.28399900   1.008000   ; qtot 296.808379
 7196         os    297    ccc     O1   7196 -0.09200600  16.000000   ; qtot 296.716373
 7197         hn    297    ccc    H17   7197 0.28399900   1.008000   ; qtot 297.000372
; residue  298 ccc rtp ccc q 1.0
 7198         c3    298    ccc     C1   7198 0.17060900  12.010000   ; qtot 297.170981
 7199         hx    298    ccc     H1   7199 0.04213200   1.008000   ; qtot 297.213113
 7200         hx    298    ccc     H2   7200 0.04213200   1.008000   ; qtot 297.255245
 7201         c3    298    ccc     C2   7201 -0.04496700  12.010000   ; qtot 297.210278
 7202         hc    298    ccc     H3   7202 0.02647500   1.008000   ; qtot 297.236753
 7203         hc    298    ccc     H4   7203 0.02647500   1.008000   ; qtot 297.263228
 7204         c3    298    ccc     C3   7204 0.04732600  12.010000   ; qtot 297.310554
 7205         h1    298    ccc     H5   7205 0.07030200   1.008000   ; qtot 297.380856
 7206         h1    298    ccc     H6   7206 0.07030200   1.008000   ; qtot 297.451158
 7207         n4    298    ccc     N1   7207 -0.21077700  14.010000   ; qtot 297.240381
 7208         hn    298    ccc     H7   7208 0.28399900   1.008000   ; qtot 297.524380
 7209         hn    298    ccc     H8   7209 0.28399900   1.008000   ; qtot 297.808379
 7210         os    298    ccc     O1   7210 -0.09200600  16.000000   ; qtot 297.716373
 7211         hn    298    ccc    H17   7211 0.28399900   1.008000   ; qtot 298.000372
; residue  299 ccc rtp ccc q 1.0
 7212         c3    299    ccc     C1   7212 0.17060900  12.010000   ; qtot 298.170981
 7213         hx    299    ccc     H1   7213 0.04213200   1.008000   ; qtot 298.213113
 7214         hx    299    ccc     H2   7214 0.04213200   1.008000   ; qtot 298.255245
 7215         c3    299    ccc     C2   7215 -0.04496700  12.010000   ; qtot 298.210278
 7216         hc    299    ccc     H3   7216 0.02647500   1.008000   ; qtot 298.236753
 7217         hc    299    ccc     H4   7217 0.02647500   1.008000   ; qtot 298.263228
 7218         c3    299    ccc     C3   7218 0.04732600  12.010000   ; qtot 298.310554
 7219         h1    299    ccc     H5   7219 0.07030200   1.008000   ; qtot 298.380856
 7220         h1    299    ccc     H6   7220 0.07030200   1.008000   ; qtot 298.451158
 7221         n4    299    ccc     N1   7221 -0.21077700  14.010000   ; qtot 298.240381
 7222         hn    299    ccc     H7   7222 0.28399900   1.008000   ; qtot 298.524380
 7223         hn    299    ccc     H8   7223 0.28399900   1.008000   ; qtot 298.808379
 7224         os    299    ccc     O1   7224 -0.09200600  16.000000   ; qtot 298.716373
 7225         hn    299    ccc    H17   7225 0.28399900   1.008000   ; qtot 299.000372
; residue  300 ccc rtp ccc q 1.0
 7226         c3    300    ccc     C1   7226 0.17060900  12.010000   ; qtot 299.170981
 7227         hx    300    ccc     H1   7227 0.04213200   1.008000   ; qtot 299.213113
 7228         hx    300    ccc     H2   7228 0.04213200   1.008000   ; qtot 299.255245
 7229         c3    300    ccc     C2   7229 -0.04496700  12.010000   ; qtot 299.210278
 7230         hc    300    ccc     H3   7230 0.02647500   1.008000   ; qtot 299.236753
 7231         hc    300    ccc     H4   7231 0.02647500   1.008000   ; qtot 299.263228
 7232         c3    300    ccc     C3   7232 0.04732600  12.010000   ; qtot 299.310554
 7233         h1    300    ccc     H5   7233 0.07030200   1.008000   ; qtot 299.380856
 7234         h1    300    ccc     H6   7234 0.07030200   1.008000   ; qtot 299.451158
 7235         n4    300    ccc     N1   7235 -0.21077700  14.010000   ; qtot 299.240381
 7236         hn    300    ccc     H7   7236 0.28399900   1.008000   ; qtot 299.524380
 7237         hn    300    ccc     H8   7237 0.28399900   1.008000   ; qtot 299.808379
 7238         os    300    ccc     O1   7238 -0.09200600  16.000000   ; qtot 299.716373
 7239         hn    300    ccc    H17   7239 0.28399900   1.008000   ; qtot 300.000372
; residue  301 ccc rtp ccc q 1.0
 7240         c3    301    ccc     C1   7240 0.17060900  12.010000   ; qtot 300.170981
 7241         hx    301    ccc     H1   7241 0.04213200   1.008000   ; qtot 300.213113
 7242         hx    301    ccc     H2   7242 0.04213200   1.008000   ; qtot 300.255245
 7243         c3    301    ccc     C2   7243 -0.04496700  12.010000   ; qtot 300.210278
 7244         hc    301    ccc     H3   7244 0.02647500   1.008000   ; qtot 300.236753
 7245         hc    301    ccc     H4   7245 0.02647500   1.008000   ; qtot 300.263228
 7246         c3    301    ccc     C3   7246 0.04732600  12.010000   ; qtot 300.310554
 7247         h1    301    ccc     H5   7247 0.07030200   1.008000   ; qtot 300.380856
 7248         h1    301    ccc     H6   7248 0.07030200   1.008000   ; qtot 300.451158
 7249         n4    301    ccc     N1   7249 -0.21077700  14.010000   ; qtot 300.240381
 7250         hn    301    ccc     H7   7250 0.28399900   1.008000   ; qtot 300.524380
 7251         hn    301    ccc     H8   7251 0.28399900   1.008000   ; qtot 300.808379
 7252         os    301    ccc     O1   7252 -0.09200600  16.000000   ; qtot 300.716373
 7253         hn    301    ccc    H17   7253 0.28399900   1.008000   ; qtot 301.000372
; residue  302 ccc rtp ccc q 1.0
 7254         c3    302    ccc     C1   7254 0.17060900  12.010000   ; qtot 301.170981
 7255         hx    302    ccc     H1   7255 0.04213200   1.008000   ; qtot 301.213113
 7256         hx    302    ccc     H2   7256 0.04213200   1.008000   ; qtot 301.255245
 7257         c3    302    ccc     C2   7257 -0.04496700  12.010000   ; qtot 301.210278
 7258         hc    302    ccc     H3   7258 0.02647500   1.008000   ; qtot 301.236753
 7259         hc    302    ccc     H4   7259 0.02647500   1.008000   ; qtot 301.263228
 7260         c3    302    ccc     C3   7260 0.04732600  12.010000   ; qtot 301.310554
 7261         h1    302    ccc     H5   7261 0.07030200   1.008000   ; qtot 301.380856
 7262         h1    302    ccc     H6   7262 0.07030200   1.008000   ; qtot 301.451158
 7263         n4    302    ccc     N1   7263 -0.21077700  14.010000   ; qtot 301.240381
 7264         hn    302    ccc     H7   7264 0.28399900   1.008000   ; qtot 301.524380
 7265         hn    302    ccc     H8   7265 0.28399900   1.008000   ; qtot 301.808379
 7266         os    302    ccc     O1   7266 -0.09200600  16.000000   ; qtot 301.716373
 7267         hn    302    ccc    H17   7267 0.28399900   1.008000   ; qtot 302.000372
; residue  303 ccc rtp ccc q 1.0
 7268         c3    303    ccc     C1   7268 0.17060900  12.010000   ; qtot 302.170981
 7269         hx    303    ccc     H1   7269 0.04213200   1.008000   ; qtot 302.213113
 7270         hx    303    ccc     H2   7270 0.04213200   1.008000   ; qtot 302.255245
 7271         c3    303    ccc     C2   7271 -0.04496700  12.010000   ; qtot 302.210278
 7272         hc    303    ccc     H3   7272 0.02647500   1.008000   ; qtot 302.236753
 7273         hc    303    ccc     H4   7273 0.02647500   1.008000   ; qtot 302.263228
 7274         c3    303    ccc     C3   7274 0.04732600  12.010000   ; qtot 302.310554
 7275         h1    303    ccc     H5   7275 0.07030200   1.008000   ; qtot 302.380856
 7276         h1    303    ccc     H6   7276 0.07030200   1.008000   ; qtot 302.451158
 7277         n4    303    ccc     N1   7277 -0.21077700  14.010000   ; qtot 302.240381
 7278         hn    303    ccc     H7   7278 0.28399900   1.008000   ; qtot 302.524380
 7279         hn    303    ccc     H8   7279 0.28399900   1.008000   ; qtot 302.808379
 7280         os    303    ccc     O1   7280 -0.09200600  16.000000   ; qtot 302.716373
 7281         hn    303    ccc    H17   7281 0.28399900   1.008000   ; qtot 303.000372
; residue  304 ccc rtp ccc q 1.0
 7282         c3    304    ccc     C1   7282 0.17060900  12.010000   ; qtot 303.170981
 7283         hx    304    ccc     H1   7283 0.04213200   1.008000   ; qtot 303.213113
 7284         hx    304    ccc     H2   7284 0.04213200   1.008000   ; qtot 303.255245
 7285         c3    304    ccc     C2   7285 -0.04496700  12.010000   ; qtot 303.210278
 7286         hc    304    ccc     H3   7286 0.02647500   1.008000   ; qtot 303.236753
 7287         hc    304    ccc     H4   7287 0.02647500   1.008000   ; qtot 303.263228
 7288         c3    304    ccc     C3   7288 0.04732600  12.010000   ; qtot 303.310554
 7289         h1    304    ccc     H5   7289 0.07030200   1.008000   ; qtot 303.380856
 7290         h1    304    ccc     H6   7290 0.07030200   1.008000   ; qtot 303.451158
 7291         n4    304    ccc     N1   7291 -0.21077700  14.010000   ; qtot 303.240381
 7292         hn    304    ccc     H7   7292 0.28399900   1.008000   ; qtot 303.524380
 7293         hn    304    ccc     H8   7293 0.28399900   1.008000   ; qtot 303.808379
 7294         os    304    ccc     O1   7294 -0.09200600  16.000000   ; qtot 303.716373
 7295         hn    304    ccc    H17   7295 0.28399900   1.008000   ; qtot 304.000372
; residue  305 ccc rtp ccc q 1.0
 7296         c3    305    ccc     C1   7296 0.17060900  12.010000   ; qtot 304.170981
 7297         hx    305    ccc     H1   7297 0.04213200   1.008000   ; qtot 304.213113
 7298         hx    305    ccc     H2   7298 0.04213200   1.008000   ; qtot 304.255245
 7299         c3    305    ccc     C2   7299 -0.04496700  12.010000   ; qtot 304.210278
 7300         hc    305    ccc     H3   7300 0.02647500   1.008000   ; qtot 304.236753
 7301         hc    305    ccc     H4   7301 0.02647500   1.008000   ; qtot 304.263228
 7302         c3    305    ccc     C3   7302 0.04732600  12.010000   ; qtot 304.310554
 7303         h1    305    ccc     H5   7303 0.07030200   1.008000   ; qtot 304.380856
 7304         h1    305    ccc     H6   7304 0.07030200   1.008000   ; qtot 304.451158
 7305         n4    305    ccc     N1   7305 -0.21077700  14.010000   ; qtot 304.240381
 7306         hn    305    ccc     H7   7306 0.28399900   1.008000   ; qtot 304.524380
 7307         hn    305    ccc     H8   7307 0.28399900   1.008000   ; qtot 304.808379
 7308         os    305    ccc     O1   7308 -0.09200600  16.000000   ; qtot 304.716373
 7309         hn    305    ccc    H17   7309 0.28399900   1.008000   ; qtot 305.000372
; residue  306 ccc rtp ccc q 1.0
 7310         c3    306    ccc     C1   7310 0.17060900  12.010000   ; qtot 305.170981
 7311         hx    306    ccc     H1   7311 0.04213200   1.008000   ; qtot 305.213113
 7312         hx    306    ccc     H2   7312 0.04213200   1.008000   ; qtot 305.255245
 7313         c3    306    ccc     C2   7313 -0.04496700  12.010000   ; qtot 305.210278
 7314         hc    306    ccc     H3   7314 0.02647500   1.008000   ; qtot 305.236753
 7315         hc    306    ccc     H4   7315 0.02647500   1.008000   ; qtot 305.263228
 7316         c3    306    ccc     C3   7316 0.04732600  12.010000   ; qtot 305.310554
 7317         h1    306    ccc     H5   7317 0.07030200   1.008000   ; qtot 305.380856
 7318         h1    306    ccc     H6   7318 0.07030200   1.008000   ; qtot 305.451158
 7319         n4    306    ccc     N1   7319 -0.21077700  14.010000   ; qtot 305.240381
 7320         hn    306    ccc     H7   7320 0.28399900   1.008000   ; qtot 305.524380
 7321         hn    306    ccc     H8   7321 0.28399900   1.008000   ; qtot 305.808379
 7322         os    306    ccc     O1   7322 -0.09200600  16.000000   ; qtot 305.716373
 7323         hn    306    ccc    H17   7323 0.28399900   1.008000   ; qtot 306.000372
; residue  307 ccc rtp ccc q 1.0
 7324         c3    307    ccc     C1   7324 0.17060900  12.010000   ; qtot 306.170981
 7325         hx    307    ccc     H1   7325 0.04213200   1.008000   ; qtot 306.213113
 7326         hx    307    ccc     H2   7326 0.04213200   1.008000   ; qtot 306.255245
 7327         c3    307    ccc     C2   7327 -0.04496700  12.010000   ; qtot 306.210278
 7328         hc    307    ccc     H3   7328 0.02647500   1.008000   ; qtot 306.236753
 7329         hc    307    ccc     H4   7329 0.02647500   1.008000   ; qtot 306.263228
 7330         c3    307    ccc     C3   7330 0.04732600  12.010000   ; qtot 306.310554
 7331         h1    307    ccc     H5   7331 0.07030200   1.008000   ; qtot 306.380856
 7332         h1    307    ccc     H6   7332 0.07030200   1.008000   ; qtot 306.451158
 7333         n4    307    ccc     N1   7333 -0.21077700  14.010000   ; qtot 306.240381
 7334         hn    307    ccc     H7   7334 0.28399900   1.008000   ; qtot 306.524380
 7335         hn    307    ccc     H8   7335 0.28399900   1.008000   ; qtot 306.808379
 7336         os    307    ccc     O1   7336 -0.09200600  16.000000   ; qtot 306.716373
 7337         hn    307    ccc    H17   7337 0.28399900   1.008000   ; qtot 307.000372
; residue  308 ccc rtp ccc q 1.0
 7338         c3    308    ccc     C1   7338 0.17060900  12.010000   ; qtot 307.170981
 7339         hx    308    ccc     H1   7339 0.04213200   1.008000   ; qtot 307.213113
 7340         hx    308    ccc     H2   7340 0.04213200   1.008000   ; qtot 307.255245
 7341         c3    308    ccc     C2   7341 -0.04496700  12.010000   ; qtot 307.210278
 7342         hc    308    ccc     H3   7342 0.02647500   1.008000   ; qtot 307.236753
 7343         hc    308    ccc     H4   7343 0.02647500   1.008000   ; qtot 307.263228
 7344         c3    308    ccc     C3   7344 0.04732600  12.010000   ; qtot 307.310554
 7345         h1    308    ccc     H5   7345 0.07030200   1.008000   ; qtot 307.380856
 7346         h1    308    ccc     H6   7346 0.07030200   1.008000   ; qtot 307.451158
 7347         n4    308    ccc     N1   7347 -0.21077700  14.010000   ; qtot 307.240381
 7348         hn    308    ccc     H7   7348 0.28399900   1.008000   ; qtot 307.524380
 7349         hn    308    ccc     H8   7349 0.28399900   1.008000   ; qtot 307.808379
 7350         os    308    ccc     O1   7350 -0.09200600  16.000000   ; qtot 307.716373
 7351         hn    308    ccc    H17   7351 0.28399900   1.008000   ; qtot 308.000372
; residue  309 ccc rtp ccc q 1.0
 7352         c3    309    ccc     C1   7352 0.17060900  12.010000   ; qtot 308.170981
 7353         hx    309    ccc     H1   7353 0.04213200   1.008000   ; qtot 308.213113
 7354         hx    309    ccc     H2   7354 0.04213200   1.008000   ; qtot 308.255245
 7355         c3    309    ccc     C2   7355 -0.04496700  12.010000   ; qtot 308.210278
 7356         hc    309    ccc     H3   7356 0.02647500   1.008000   ; qtot 308.236753
 7357         hc    309    ccc     H4   7357 0.02647500   1.008000   ; qtot 308.263228
 7358         c3    309    ccc     C3   7358 0.04732600  12.010000   ; qtot 308.310554
 7359         h1    309    ccc     H5   7359 0.07030200   1.008000   ; qtot 308.380856
 7360         h1    309    ccc     H6   7360 0.07030200   1.008000   ; qtot 308.451158
 7361         n4    309    ccc     N1   7361 -0.21077700  14.010000   ; qtot 308.240381
 7362         hn    309    ccc     H7   7362 0.28399900   1.008000   ; qtot 308.524380
 7363         hn    309    ccc     H8   7363 0.28399900   1.008000   ; qtot 308.808379
 7364         os    309    ccc     O1   7364 -0.09200600  16.000000   ; qtot 308.716373
 7365         hn    309    ccc    H17   7365 0.28399900   1.008000   ; qtot 309.000372
; residue  310 ccc rtp ccc q 1.0
 7366         c3    310    ccc     C1   7366 0.17060900  12.010000   ; qtot 309.170981
 7367         hx    310    ccc     H1   7367 0.04213200   1.008000   ; qtot 309.213113
 7368         hx    310    ccc     H2   7368 0.04213200   1.008000   ; qtot 309.255245
 7369         c3    310    ccc     C2   7369 -0.04496700  12.010000   ; qtot 309.210278
 7370         hc    310    ccc     H3   7370 0.02647500   1.008000   ; qtot 309.236753
 7371         hc    310    ccc     H4   7371 0.02647500   1.008000   ; qtot 309.263228
 7372         c3    310    ccc     C3   7372 0.04732600  12.010000   ; qtot 309.310554
 7373         h1    310    ccc     H5   7373 0.07030200   1.008000   ; qtot 309.380856
 7374         h1    310    ccc     H6   7374 0.07030200   1.008000   ; qtot 309.451158
 7375         n4    310    ccc     N1   7375 -0.21077700  14.010000   ; qtot 309.240381
 7376         hn    310    ccc     H7   7376 0.28399900   1.008000   ; qtot 309.524380
 7377         hn    310    ccc     H8   7377 0.28399900   1.008000   ; qtot 309.808379
 7378         os    310    ccc     O1   7378 -0.09200600  16.000000   ; qtot 309.716373
 7379         hn    310    ccc    H17   7379 0.28399900   1.008000   ; qtot 310.000372
; residue  311 ccc rtp ccc q 1.0
 7380         c3    311    ccc     C1   7380 0.17060900  12.010000   ; qtot 310.170981
 7381         hx    311    ccc     H1   7381 0.04213200   1.008000   ; qtot 310.213113
 7382         hx    311    ccc     H2   7382 0.04213200   1.008000   ; qtot 310.255245
 7383         c3    311    ccc     C2   7383 -0.04496700  12.010000   ; qtot 310.210278
 7384         hc    311    ccc     H3   7384 0.02647500   1.008000   ; qtot 310.236753
 7385         hc    311    ccc     H4   7385 0.02647500   1.008000   ; qtot 310.263228
 7386         c3    311    ccc     C3   7386 0.04732600  12.010000   ; qtot 310.310554
 7387         h1    311    ccc     H5   7387 0.07030200   1.008000   ; qtot 310.380856
 7388         h1    311    ccc     H6   7388 0.07030200   1.008000   ; qtot 310.451158
 7389         n4    311    ccc     N1   7389 -0.21077700  14.010000   ; qtot 310.240381
 7390         hn    311    ccc     H7   7390 0.28399900   1.008000   ; qtot 310.524380
 7391         hn    311    ccc     H8   7391 0.28399900   1.008000   ; qtot 310.808379
 7392         os    311    ccc     O1   7392 -0.09200600  16.000000   ; qtot 310.716373
 7393         hn    311    ccc    H17   7393 0.28399900   1.008000   ; qtot 311.000372
; residue  312 ccc rtp ccc q 1.0
 7394         c3    312    ccc     C1   7394 0.17060900  12.010000   ; qtot 311.170981
 7395         hx    312    ccc     H1   7395 0.04213200   1.008000   ; qtot 311.213113
 7396         hx    312    ccc     H2   7396 0.04213200   1.008000   ; qtot 311.255245
 7397         c3    312    ccc     C2   7397 -0.04496700  12.010000   ; qtot 311.210278
 7398         hc    312    ccc     H3   7398 0.02647500   1.008000   ; qtot 311.236753
 7399         hc    312    ccc     H4   7399 0.02647500   1.008000   ; qtot 311.263228
 7400         c3    312    ccc     C3   7400 0.04732600  12.010000   ; qtot 311.310554
 7401         h1    312    ccc     H5   7401 0.07030200   1.008000   ; qtot 311.380856
 7402         h1    312    ccc     H6   7402 0.07030200   1.008000   ; qtot 311.451158
 7403         n4    312    ccc     N1   7403 -0.21077700  14.010000   ; qtot 311.240381
 7404         hn    312    ccc     H7   7404 0.28399900   1.008000   ; qtot 311.524380
 7405         hn    312    ccc     H8   7405 0.28399900   1.008000   ; qtot 311.808379
 7406         os    312    ccc     O1   7406 -0.09200600  16.000000   ; qtot 311.716373
 7407         hn    312    ccc    H17   7407 0.28399900   1.008000   ; qtot 312.000372
; residue  313 ccc rtp ccc q 1.0
 7408         c3    313    ccc     C1   7408 0.17060900  12.010000   ; qtot 312.170981
 7409         hx    313    ccc     H1   7409 0.04213200   1.008000   ; qtot 312.213113
 7410         hx    313    ccc     H2   7410 0.04213200   1.008000   ; qtot 312.255245
 7411         c3    313    ccc     C2   7411 -0.04496700  12.010000   ; qtot 312.210278
 7412         hc    313    ccc     H3   7412 0.02647500   1.008000   ; qtot 312.236753
 7413         hc    313    ccc     H4   7413 0.02647500   1.008000   ; qtot 312.263228
 7414         c3    313    ccc     C3   7414 0.04732600  12.010000   ; qtot 312.310554
 7415         h1    313    ccc     H5   7415 0.07030200   1.008000   ; qtot 312.380856
 7416         h1    313    ccc     H6   7416 0.07030200   1.008000   ; qtot 312.451158
 7417         n4    313    ccc     N1   7417 -0.21077700  14.010000   ; qtot 312.240381
 7418         hn    313    ccc     H7   7418 0.28399900   1.008000   ; qtot 312.524380
 7419         hn    313    ccc     H8   7419 0.28399900   1.008000   ; qtot 312.808379
 7420         os    313    ccc     O1   7420 -0.09200600  16.000000   ; qtot 312.716373
 7421         hn    313    ccc    H17   7421 0.28399900   1.008000   ; qtot 313.000372
; residue  314 ccc rtp ccc q 1.0
 7422         c3    314    ccc     C1   7422 0.17060900  12.010000   ; qtot 313.170981
 7423         hx    314    ccc     H1   7423 0.04213200   1.008000   ; qtot 313.213113
 7424         hx    314    ccc     H2   7424 0.04213200   1.008000   ; qtot 313.255245
 7425         c3    314    ccc     C2   7425 -0.04496700  12.010000   ; qtot 313.210278
 7426         hc    314    ccc     H3   7426 0.02647500   1.008000   ; qtot 313.236753
 7427         hc    314    ccc     H4   7427 0.02647500   1.008000   ; qtot 313.263228
 7428         c3    314    ccc     C3   7428 0.04732600  12.010000   ; qtot 313.310554
 7429         h1    314    ccc     H5   7429 0.07030200   1.008000   ; qtot 313.380856
 7430         h1    314    ccc     H6   7430 0.07030200   1.008000   ; qtot 313.451158
 7431         n4    314    ccc     N1   7431 -0.21077700  14.010000   ; qtot 313.240381
 7432         hn    314    ccc     H7   7432 0.28399900   1.008000   ; qtot 313.524380
 7433         hn    314    ccc     H8   7433 0.28399900   1.008000   ; qtot 313.808379
 7434         os    314    ccc     O1   7434 -0.09200600  16.000000   ; qtot 313.716373
 7435         hn    314    ccc    H17   7435 0.28399900   1.008000   ; qtot 314.000372
; residue  315 ccc rtp ccc q 1.0
 7436         c3    315    ccc     C1   7436 0.17060900  12.010000   ; qtot 314.170981
 7437         hx    315    ccc     H1   7437 0.04213200   1.008000   ; qtot 314.213113
 7438         hx    315    ccc     H2   7438 0.04213200   1.008000   ; qtot 314.255245
 7439         c3    315    ccc     C2   7439 -0.04496700  12.010000   ; qtot 314.210278
 7440         hc    315    ccc     H3   7440 0.02647500   1.008000   ; qtot 314.236753
 7441         hc    315    ccc     H4   7441 0.02647500   1.008000   ; qtot 314.263228
 7442         c3    315    ccc     C3   7442 0.04732600  12.010000   ; qtot 314.310554
 7443         h1    315    ccc     H5   7443 0.07030200   1.008000   ; qtot 314.380856
 7444         h1    315    ccc     H6   7444 0.07030200   1.008000   ; qtot 314.451158
 7445         n4    315    ccc     N1   7445 -0.21077700  14.010000   ; qtot 314.240381
 7446         hn    315    ccc     H7   7446 0.28399900   1.008000   ; qtot 314.524380
 7447         hn    315    ccc     H8   7447 0.28399900   1.008000   ; qtot 314.808379
 7448         os    315    ccc     O1   7448 -0.09200600  16.000000   ; qtot 314.716373
 7449         hn    315    ccc    H17   7449 0.28399900   1.008000   ; qtot 315.000372
; residue  316 ccc rtp ccc q 1.0
 7450         c3    316    ccc     C1   7450 0.17060900  12.010000   ; qtot 315.170981
 7451         hx    316    ccc     H1   7451 0.04213200   1.008000   ; qtot 315.213113
 7452         hx    316    ccc     H2   7452 0.04213200   1.008000   ; qtot 315.255245
 7453         c3    316    ccc     C2   7453 -0.04496700  12.010000   ; qtot 315.210278
 7454         hc    316    ccc     H3   7454 0.02647500   1.008000   ; qtot 315.236753
 7455         hc    316    ccc     H4   7455 0.02647500   1.008000   ; qtot 315.263228
 7456         c3    316    ccc     C3   7456 0.04732600  12.010000   ; qtot 315.310554
 7457         h1    316    ccc     H5   7457 0.07030200   1.008000   ; qtot 315.380856
 7458         h1    316    ccc     H6   7458 0.07030200   1.008000   ; qtot 315.451158
 7459         n4    316    ccc     N1   7459 -0.21077700  14.010000   ; qtot 315.240381
 7460         hn    316    ccc     H7   7460 0.28399900   1.008000   ; qtot 315.524380
 7461         hn    316    ccc     H8   7461 0.28399900   1.008000   ; qtot 315.808379
 7462         os    316    ccc     O1   7462 -0.09200600  16.000000   ; qtot 315.716373
 7463         hn    316    ccc    H17   7463 0.28399900   1.008000   ; qtot 316.000372
; residue  317 ccc rtp ccc q 1.0
 7464         c3    317    ccc     C1   7464 0.17060900  12.010000   ; qtot 316.170981
 7465         hx    317    ccc     H1   7465 0.04213200   1.008000   ; qtot 316.213113
 7466         hx    317    ccc     H2   7466 0.04213200   1.008000   ; qtot 316.255245
 7467         c3    317    ccc     C2   7467 -0.04496700  12.010000   ; qtot 316.210278
 7468         hc    317    ccc     H3   7468 0.02647500   1.008000   ; qtot 316.236753
 7469         hc    317    ccc     H4   7469 0.02647500   1.008000   ; qtot 316.263228
 7470         c3    317    ccc     C3   7470 0.04732600  12.010000   ; qtot 316.310554
 7471         h1    317    ccc     H5   7471 0.07030200   1.008000   ; qtot 316.380856
 7472         h1    317    ccc     H6   7472 0.07030200   1.008000   ; qtot 316.451158
 7473         n4    317    ccc     N1   7473 -0.21077700  14.010000   ; qtot 316.240381
 7474         hn    317    ccc     H7   7474 0.28399900   1.008000   ; qtot 316.524380
 7475         hn    317    ccc     H8   7475 0.28399900   1.008000   ; qtot 316.808379
 7476         os    317    ccc     O1   7476 -0.09200600  16.000000   ; qtot 316.716373
 7477         hn    317    ccc    H17   7477 0.28399900   1.008000   ; qtot 317.000372
; residue  318 ccc rtp ccc q 1.0
 7478         c3    318    ccc     C1   7478 0.17060900  12.010000   ; qtot 317.170981
 7479         hx    318    ccc     H1   7479 0.04213200   1.008000   ; qtot 317.213113
 7480         hx    318    ccc     H2   7480 0.04213200   1.008000   ; qtot 317.255245
 7481         c3    318    ccc     C2   7481 -0.04496700  12.010000   ; qtot 317.210278
 7482         hc    318    ccc     H3   7482 0.02647500   1.008000   ; qtot 317.236753
 7483         hc    318    ccc     H4   7483 0.02647500   1.008000   ; qtot 317.263228
 7484         c3    318    ccc     C3   7484 0.04732600  12.010000   ; qtot 317.310554
 7485         h1    318    ccc     H5   7485 0.07030200   1.008000   ; qtot 317.380856
 7486         h1    318    ccc     H6   7486 0.07030200   1.008000   ; qtot 317.451158
 7487         n4    318    ccc     N1   7487 -0.21077700  14.010000   ; qtot 317.240381
 7488         hn    318    ccc     H7   7488 0.28399900   1.008000   ; qtot 317.524380
 7489         hn    318    ccc     H8   7489 0.28399900   1.008000   ; qtot 317.808379
 7490         os    318    ccc     O1   7490 -0.09200600  16.000000   ; qtot 317.716373
 7491         hn    318    ccc    H17   7491 0.28399900   1.008000   ; qtot 318.000372
; residue  319 ccc rtp ccc q 1.0
 7492         c3    319    ccc     C1   7492 0.17060900  12.010000   ; qtot 318.170981
 7493         hx    319    ccc     H1   7493 0.04213200   1.008000   ; qtot 318.213113
 7494         hx    319    ccc     H2   7494 0.04213200   1.008000   ; qtot 318.255245
 7495         c3    319    ccc     C2   7495 -0.04496700  12.010000   ; qtot 318.210278
 7496         hc    319    ccc     H3   7496 0.02647500   1.008000   ; qtot 318.236753
 7497         hc    319    ccc     H4   7497 0.02647500   1.008000   ; qtot 318.263228
 7498         c3    319    ccc     C3   7498 0.04732600  12.010000   ; qtot 318.310554
 7499         h1    319    ccc     H5   7499 0.07030200   1.008000   ; qtot 318.380856
 7500         h1    319    ccc     H6   7500 0.07030200   1.008000   ; qtot 318.451158
 7501         n4    319    ccc     N1   7501 -0.21077700  14.010000   ; qtot 318.240381
 7502         hn    319    ccc     H7   7502 0.28399900   1.008000   ; qtot 318.524380
 7503         hn    319    ccc     H8   7503 0.28399900   1.008000   ; qtot 318.808379
 7504         os    319    ccc     O1   7504 -0.09200600  16.000000   ; qtot 318.716373
 7505         hn    319    ccc    H17   7505 0.28399900   1.008000   ; qtot 319.000372
; residue  320 ccc rtp ccc q 1.0
 7506         c3    320    ccc     C1   7506 0.17060900  12.010000   ; qtot 319.170981
 7507         hx    320    ccc     H1   7507 0.04213200   1.008000   ; qtot 319.213113
 7508         hx    320    ccc     H2   7508 0.04213200   1.008000   ; qtot 319.255245
 7509         c3    320    ccc     C2   7509 -0.04496700  12.010000   ; qtot 319.210278
 7510         hc    320    ccc     H3   7510 0.02647500   1.008000   ; qtot 319.236753
 7511         hc    320    ccc     H4   7511 0.02647500   1.008000   ; qtot 319.263228
 7512         c3    320    ccc     C3   7512 0.04732600  12.010000   ; qtot 319.310554
 7513         h1    320    ccc     H5   7513 0.07030200   1.008000   ; qtot 319.380856
 7514         h1    320    ccc     H6   7514 0.07030200   1.008000   ; qtot 319.451158
 7515         n4    320    ccc     N1   7515 -0.21077700  14.010000   ; qtot 319.240381
 7516         hn    320    ccc     H7   7516 0.28399900   1.008000   ; qtot 319.524380
 7517         hn    320    ccc     H8   7517 0.28399900   1.008000   ; qtot 319.808379
 7518         os    320    ccc     O1   7518 -0.09200600  16.000000   ; qtot 319.716373
 7519         hn    320    ccc    H17   7519 0.28399900   1.008000   ; qtot 320.000372
; residue  321 ccc rtp ccc q 1.0
 7520         c3    321    ccc     C1   7520 0.17060900  12.010000   ; qtot 320.170981
 7521         hx    321    ccc     H1   7521 0.04213200   1.008000   ; qtot 320.213113
 7522         hx    321    ccc     H2   7522 0.04213200   1.008000   ; qtot 320.255245
 7523         c3    321    ccc     C2   7523 -0.04496700  12.010000   ; qtot 320.210278
 7524         hc    321    ccc     H3   7524 0.02647500   1.008000   ; qtot 320.236753
 7525         hc    321    ccc     H4   7525 0.02647500   1.008000   ; qtot 320.263228
 7526         c3    321    ccc     C3   7526 0.04732600  12.010000   ; qtot 320.310554
 7527         h1    321    ccc     H5   7527 0.07030200   1.008000   ; qtot 320.380856
 7528         h1    321    ccc     H6   7528 0.07030200   1.008000   ; qtot 320.451158
 7529         n4    321    ccc     N1   7529 -0.21077700  14.010000   ; qtot 320.240381
 7530         hn    321    ccc     H7   7530 0.28399900   1.008000   ; qtot 320.524380
 7531         hn    321    ccc     H8   7531 0.28399900   1.008000   ; qtot 320.808379
 7532         os    321    ccc     O1   7532 -0.09200600  16.000000   ; qtot 320.716373
 7533         hn    321    ccc    H17   7533 0.28399900   1.008000   ; qtot 321.000372
; residue  322 ccc rtp ccc q 1.0
 7534         c3    322    ccc     C1   7534 0.17060900  12.010000   ; qtot 321.170981
 7535         hx    322    ccc     H1   7535 0.04213200   1.008000   ; qtot 321.213113
 7536         hx    322    ccc     H2   7536 0.04213200   1.008000   ; qtot 321.255245
 7537         c3    322    ccc     C2   7537 -0.04496700  12.010000   ; qtot 321.210278
 7538         hc    322    ccc     H3   7538 0.02647500   1.008000   ; qtot 321.236753
 7539         hc    322    ccc     H4   7539 0.02647500   1.008000   ; qtot 321.263228
 7540         c3    322    ccc     C3   7540 0.04732600  12.010000   ; qtot 321.310554
 7541         h1    322    ccc     H5   7541 0.07030200   1.008000   ; qtot 321.380856
 7542         h1    322    ccc     H6   7542 0.07030200   1.008000   ; qtot 321.451158
 7543         n4    322    ccc     N1   7543 -0.21077700  14.010000   ; qtot 321.240381
 7544         hn    322    ccc     H7   7544 0.28399900   1.008000   ; qtot 321.524380
 7545         hn    322    ccc     H8   7545 0.28399900   1.008000   ; qtot 321.808379
 7546         os    322    ccc     O1   7546 -0.09200600  16.000000   ; qtot 321.716373
 7547         hn    322    ccc    H17   7547 0.28399900   1.008000   ; qtot 322.000372
; residue  323 ccc rtp ccc q 1.0
 7548         c3    323    ccc     C1   7548 0.17060900  12.010000   ; qtot 322.170981
 7549         hx    323    ccc     H1   7549 0.04213200   1.008000   ; qtot 322.213113
 7550         hx    323    ccc     H2   7550 0.04213200   1.008000   ; qtot 322.255245
 7551         c3    323    ccc     C2   7551 -0.04496700  12.010000   ; qtot 322.210278
 7552         hc    323    ccc     H3   7552 0.02647500   1.008000   ; qtot 322.236753
 7553         hc    323    ccc     H4   7553 0.02647500   1.008000   ; qtot 322.263228
 7554         c3    323    ccc     C3   7554 0.04732600  12.010000   ; qtot 322.310554
 7555         h1    323    ccc     H5   7555 0.07030200   1.008000   ; qtot 322.380856
 7556         h1    323    ccc     H6   7556 0.07030200   1.008000   ; qtot 322.451158
 7557         n4    323    ccc     N1   7557 -0.21077700  14.010000   ; qtot 322.240381
 7558         hn    323    ccc     H7   7558 0.28399900   1.008000   ; qtot 322.524380
 7559         hn    323    ccc     H8   7559 0.28399900   1.008000   ; qtot 322.808379
 7560         os    323    ccc     O1   7560 -0.09200600  16.000000   ; qtot 322.716373
 7561         hn    323    ccc    H17   7561 0.28399900   1.008000   ; qtot 323.000372
; residue  324 ccc rtp ccc q 1.0
 7562         c3    324    ccc     C1   7562 0.17060900  12.010000   ; qtot 323.170981
 7563         hx    324    ccc     H1   7563 0.04213200   1.008000   ; qtot 323.213113
 7564         hx    324    ccc     H2   7564 0.04213200   1.008000   ; qtot 323.255245
 7565         c3    324    ccc     C2   7565 -0.04496700  12.010000   ; qtot 323.210278
 7566         hc    324    ccc     H3   7566 0.02647500   1.008000   ; qtot 323.236753
 7567         hc    324    ccc     H4   7567 0.02647500   1.008000   ; qtot 323.263228
 7568         c3    324    ccc     C3   7568 0.04732600  12.010000   ; qtot 323.310554
 7569         h1    324    ccc     H5   7569 0.07030200   1.008000   ; qtot 323.380856
 7570         h1    324    ccc     H6   7570 0.07030200   1.008000   ; qtot 323.451158
 7571         n4    324    ccc     N1   7571 -0.21077700  14.010000   ; qtot 323.240381
 7572         hn    324    ccc     H7   7572 0.28399900   1.008000   ; qtot 323.524380
 7573         hn    324    ccc     H8   7573 0.28399900   1.008000   ; qtot 323.808379
 7574         os    324    ccc     O1   7574 -0.09200600  16.000000   ; qtot 323.716373
 7575         hn    324    ccc    H17   7575 0.28399900   1.008000   ; qtot 324.000372
; residue  325 ccc rtp ccc q 1.0
 7576         c3    325    ccc     C1   7576 0.17060900  12.010000   ; qtot 324.170981
 7577         hx    325    ccc     H1   7577 0.04213200   1.008000   ; qtot 324.213113
 7578         hx    325    ccc     H2   7578 0.04213200   1.008000   ; qtot 324.255245
 7579         c3    325    ccc     C2   7579 -0.04496700  12.010000   ; qtot 324.210278
 7580         hc    325    ccc     H3   7580 0.02647500   1.008000   ; qtot 324.236753
 7581         hc    325    ccc     H4   7581 0.02647500   1.008000   ; qtot 324.263228
 7582         c3    325    ccc     C3   7582 0.04732600  12.010000   ; qtot 324.310554
 7583         h1    325    ccc     H5   7583 0.07030200   1.008000   ; qtot 324.380856
 7584         h1    325    ccc     H6   7584 0.07030200   1.008000   ; qtot 324.451158
 7585         n4    325    ccc     N1   7585 -0.21077700  14.010000   ; qtot 324.240381
 7586         hn    325    ccc     H7   7586 0.28399900   1.008000   ; qtot 324.524380
 7587         hn    325    ccc     H8   7587 0.28399900   1.008000   ; qtot 324.808379
 7588         os    325    ccc     O1   7588 -0.09200600  16.000000   ; qtot 324.716373
 7589         hn    325    ccc    H17   7589 0.28399900   1.008000   ; qtot 325.000372
; residue  326 ccc rtp ccc q 1.0
 7590         c3    326    ccc     C1   7590 0.17060900  12.010000   ; qtot 325.170981
 7591         hx    326    ccc     H1   7591 0.04213200   1.008000   ; qtot 325.213113
 7592         hx    326    ccc     H2   7592 0.04213200   1.008000   ; qtot 325.255245
 7593         c3    326    ccc     C2   7593 -0.04496700  12.010000   ; qtot 325.210278
 7594         hc    326    ccc     H3   7594 0.02647500   1.008000   ; qtot 325.236753
 7595         hc    326    ccc     H4   7595 0.02647500   1.008000   ; qtot 325.263228
 7596         c3    326    ccc     C3   7596 0.04732600  12.010000   ; qtot 325.310554
 7597         h1    326    ccc     H5   7597 0.07030200   1.008000   ; qtot 325.380856
 7598         h1    326    ccc     H6   7598 0.07030200   1.008000   ; qtot 325.451158
 7599         n4    326    ccc     N1   7599 -0.21077700  14.010000   ; qtot 325.240381
 7600         hn    326    ccc     H7   7600 0.28399900   1.008000   ; qtot 325.524380
 7601         hn    326    ccc     H8   7601 0.28399900   1.008000   ; qtot 325.808379
 7602         os    326    ccc     O1   7602 -0.09200600  16.000000   ; qtot 325.716373
 7603         hn    326    ccc    H17   7603 0.28399900   1.008000   ; qtot 326.000372
; residue  327 ccc rtp ccc q 1.0
 7604         c3    327    ccc     C1   7604 0.17060900  12.010000   ; qtot 326.170981
 7605         hx    327    ccc     H1   7605 0.04213200   1.008000   ; qtot 326.213113
 7606         hx    327    ccc     H2   7606 0.04213200   1.008000   ; qtot 326.255245
 7607         c3    327    ccc     C2   7607 -0.04496700  12.010000   ; qtot 326.210278
 7608         hc    327    ccc     H3   7608 0.02647500   1.008000   ; qtot 326.236753
 7609         hc    327    ccc     H4   7609 0.02647500   1.008000   ; qtot 326.263228
 7610         c3    327    ccc     C3   7610 0.04732600  12.010000   ; qtot 326.310554
 7611         h1    327    ccc     H5   7611 0.07030200   1.008000   ; qtot 326.380856
 7612         h1    327    ccc     H6   7612 0.07030200   1.008000   ; qtot 326.451158
 7613         n4    327    ccc     N1   7613 -0.21077700  14.010000   ; qtot 326.240381
 7614         hn    327    ccc     H7   7614 0.28399900   1.008000   ; qtot 326.524380
 7615         hn    327    ccc     H8   7615 0.28399900   1.008000   ; qtot 326.808379
 7616         os    327    ccc     O1   7616 -0.09200600  16.000000   ; qtot 326.716373
 7617         hn    327    ccc    H17   7617 0.28399900   1.008000   ; qtot 327.000372
; residue  328 ccc rtp ccc q 1.0
 7618         c3    328    ccc     C1   7618 0.17060900  12.010000   ; qtot 327.170981
 7619         hx    328    ccc     H1   7619 0.04213200   1.008000   ; qtot 327.213113
 7620         hx    328    ccc     H2   7620 0.04213200   1.008000   ; qtot 327.255245
 7621         c3    328    ccc     C2   7621 -0.04496700  12.010000   ; qtot 327.210278
 7622         hc    328    ccc     H3   7622 0.02647500   1.008000   ; qtot 327.236753
 7623         hc    328    ccc     H4   7623 0.02647500   1.008000   ; qtot 327.263228
 7624         c3    328    ccc     C3   7624 0.04732600  12.010000   ; qtot 327.310554
 7625         h1    328    ccc     H5   7625 0.07030200   1.008000   ; qtot 327.380856
 7626         h1    328    ccc     H6   7626 0.07030200   1.008000   ; qtot 327.451158
 7627         n4    328    ccc     N1   7627 -0.21077700  14.010000   ; qtot 327.240381
 7628         hn    328    ccc     H7   7628 0.28399900   1.008000   ; qtot 327.524380
 7629         hn    328    ccc     H8   7629 0.28399900   1.008000   ; qtot 327.808379
 7630         os    328    ccc     O1   7630 -0.09200600  16.000000   ; qtot 327.716373
 7631         hn    328    ccc    H17   7631 0.28399900   1.008000   ; qtot 328.000372
; residue  329 ccc rtp ccc q 1.0
 7632         c3    329    ccc     C1   7632 0.17060900  12.010000   ; qtot 328.170981
 7633         hx    329    ccc     H1   7633 0.04213200   1.008000   ; qtot 328.213113
 7634         hx    329    ccc     H2   7634 0.04213200   1.008000   ; qtot 328.255245
 7635         c3    329    ccc     C2   7635 -0.04496700  12.010000   ; qtot 328.210278
 7636         hc    329    ccc     H3   7636 0.02647500   1.008000   ; qtot 328.236753
 7637         hc    329    ccc     H4   7637 0.02647500   1.008000   ; qtot 328.263228
 7638         c3    329    ccc     C3   7638 0.04732600  12.010000   ; qtot 328.310554
 7639         h1    329    ccc     H5   7639 0.07030200   1.008000   ; qtot 328.380856
 7640         h1    329    ccc     H6   7640 0.07030200   1.008000   ; qtot 328.451158
 7641         n4    329    ccc     N1   7641 -0.21077700  14.010000   ; qtot 328.240381
 7642         hn    329    ccc     H7   7642 0.28399900   1.008000   ; qtot 328.524380
 7643         hn    329    ccc     H8   7643 0.28399900   1.008000   ; qtot 328.808379
 7644         os    329    ccc     O1   7644 -0.09200600  16.000000   ; qtot 328.716373
 7645         hn    329    ccc    H17   7645 0.28399900   1.008000   ; qtot 329.000372
; residue  330 ccc rtp ccc q 1.0
 7646         c3    330    ccc     C1   7646 0.17060900  12.010000   ; qtot 329.170981
 7647         hx    330    ccc     H1   7647 0.04213200   1.008000   ; qtot 329.213113
 7648         hx    330    ccc     H2   7648 0.04213200   1.008000   ; qtot 329.255245
 7649         c3    330    ccc     C2   7649 -0.04496700  12.010000   ; qtot 329.210278
 7650         hc    330    ccc     H3   7650 0.02647500   1.008000   ; qtot 329.236753
 7651         hc    330    ccc     H4   7651 0.02647500   1.008000   ; qtot 329.263228
 7652         c3    330    ccc     C3   7652 0.04732600  12.010000   ; qtot 329.310554
 7653         h1    330    ccc     H5   7653 0.07030200   1.008000   ; qtot 329.380856
 7654         h1    330    ccc     H6   7654 0.07030200   1.008000   ; qtot 329.451158
 7655         n4    330    ccc     N1   7655 -0.21077700  14.010000   ; qtot 329.240381
 7656         hn    330    ccc     H7   7656 0.28399900   1.008000   ; qtot 329.524380
 7657         hn    330    ccc     H8   7657 0.28399900   1.008000   ; qtot 329.808379
 7658         os    330    ccc     O1   7658 -0.09200600  16.000000   ; qtot 329.716373
 7659         hn    330    ccc    H17   7659 0.28399900   1.008000   ; qtot 330.000372
; residue  331 ccc rtp ccc q 1.0
 7660         c3    331    ccc     C1   7660 0.17060900  12.010000   ; qtot 330.170981
 7661         hx    331    ccc     H1   7661 0.04213200   1.008000   ; qtot 330.213113
 7662         hx    331    ccc     H2   7662 0.04213200   1.008000   ; qtot 330.255245
 7663         c3    331    ccc     C2   7663 -0.04496700  12.010000   ; qtot 330.210278
 7664         hc    331    ccc     H3   7664 0.02647500   1.008000   ; qtot 330.236753
 7665         hc    331    ccc     H4   7665 0.02647500   1.008000   ; qtot 330.263228
 7666         c3    331    ccc     C3   7666 0.04732600  12.010000   ; qtot 330.310554
 7667         h1    331    ccc     H5   7667 0.07030200   1.008000   ; qtot 330.380856
 7668         h1    331    ccc     H6   7668 0.07030200   1.008000   ; qtot 330.451158
 7669         n4    331    ccc     N1   7669 -0.21077700  14.010000   ; qtot 330.240381
 7670         hn    331    ccc     H7   7670 0.28399900   1.008000   ; qtot 330.524380
 7671         hn    331    ccc     H8   7671 0.28399900   1.008000   ; qtot 330.808379
 7672         os    331    ccc     O1   7672 -0.09200600  16.000000   ; qtot 330.716373
 7673         hn    331    ccc    H17   7673 0.28399900   1.008000   ; qtot 331.000372
; residue  332 ccc rtp ccc q 1.0
 7674         c3    332    ccc     C1   7674 0.17060900  12.010000   ; qtot 331.170981
 7675         hx    332    ccc     H1   7675 0.04213200   1.008000   ; qtot 331.213113
 7676         hx    332    ccc     H2   7676 0.04213200   1.008000   ; qtot 331.255245
 7677         c3    332    ccc     C2   7677 -0.04496700  12.010000   ; qtot 331.210278
 7678         hc    332    ccc     H3   7678 0.02647500   1.008000   ; qtot 331.236753
 7679         hc    332    ccc     H4   7679 0.02647500   1.008000   ; qtot 331.263228
 7680         c3    332    ccc     C3   7680 0.04732600  12.010000   ; qtot 331.310554
 7681         h1    332    ccc     H5   7681 0.07030200   1.008000   ; qtot 331.380856
 7682         h1    332    ccc     H6   7682 0.07030200   1.008000   ; qtot 331.451158
 7683         n4    332    ccc     N1   7683 -0.21077700  14.010000   ; qtot 331.240381
 7684         hn    332    ccc     H7   7684 0.28399900   1.008000   ; qtot 331.524380
 7685         hn    332    ccc     H8   7685 0.28399900   1.008000   ; qtot 331.808379
 7686         os    332    ccc     O1   7686 -0.09200600  16.000000   ; qtot 331.716373
 7687         hn    332    ccc    H17   7687 0.28399900   1.008000   ; qtot 332.000372
; residue  333 ccc rtp ccc q 1.0
 7688         c3    333    ccc     C1   7688 0.17060900  12.010000   ; qtot 332.170981
 7689         hx    333    ccc     H1   7689 0.04213200   1.008000   ; qtot 332.213113
 7690         hx    333    ccc     H2   7690 0.04213200   1.008000   ; qtot 332.255245
 7691         c3    333    ccc     C2   7691 -0.04496700  12.010000   ; qtot 332.210278
 7692         hc    333    ccc     H3   7692 0.02647500   1.008000   ; qtot 332.236753
 7693         hc    333    ccc     H4   7693 0.02647500   1.008000   ; qtot 332.263228
 7694         c3    333    ccc     C3   7694 0.04732600  12.010000   ; qtot 332.310554
 7695         h1    333    ccc     H5   7695 0.07030200   1.008000   ; qtot 332.380856
 7696         h1    333    ccc     H6   7696 0.07030200   1.008000   ; qtot 332.451158
 7697         n4    333    ccc     N1   7697 -0.21077700  14.010000   ; qtot 332.240381
 7698         hn    333    ccc     H7   7698 0.28399900   1.008000   ; qtot 332.524380
 7699         hn    333    ccc     H8   7699 0.28399900   1.008000   ; qtot 332.808379
 7700         os    333    ccc     O1   7700 -0.09200600  16.000000   ; qtot 332.716373
 7701         hn    333    ccc    H17   7701 0.28399900   1.008000   ; qtot 333.000372
; residue  334 ccc rtp ccc q 1.0
 7702         c3    334    ccc     C1   7702 0.17060900  12.010000   ; qtot 333.170981
 7703         hx    334    ccc     H1   7703 0.04213200   1.008000   ; qtot 333.213113
 7704         hx    334    ccc     H2   7704 0.04213200   1.008000   ; qtot 333.255245
 7705         c3    334    ccc     C2   7705 -0.04496700  12.010000   ; qtot 333.210278
 7706         hc    334    ccc     H3   7706 0.02647500   1.008000   ; qtot 333.236753
 7707         hc    334    ccc     H4   7707 0.02647500   1.008000   ; qtot 333.263228
 7708         c3    334    ccc     C3   7708 0.04732600  12.010000   ; qtot 333.310554
 7709         h1    334    ccc     H5   7709 0.07030200   1.008000   ; qtot 333.380856
 7710         h1    334    ccc     H6   7710 0.07030200   1.008000   ; qtot 333.451158
 7711         n4    334    ccc     N1   7711 -0.21077700  14.010000   ; qtot 333.240381
 7712         hn    334    ccc     H7   7712 0.28399900   1.008000   ; qtot 333.524380
 7713         hn    334    ccc     H8   7713 0.28399900   1.008000   ; qtot 333.808379
 7714         os    334    ccc     O1   7714 -0.09200600  16.000000   ; qtot 333.716373
 7715         hn    334    ccc    H17   7715 0.28399900   1.008000   ; qtot 334.000372
; residue  335 ccc rtp ccc q 1.0
 7716         c3    335    ccc     C1   7716 0.17060900  12.010000   ; qtot 334.170981
 7717         hx    335    ccc     H1   7717 0.04213200   1.008000   ; qtot 334.213113
 7718         hx    335    ccc     H2   7718 0.04213200   1.008000   ; qtot 334.255245
 7719         c3    335    ccc     C2   7719 -0.04496700  12.010000   ; qtot 334.210278
 7720         hc    335    ccc     H3   7720 0.02647500   1.008000   ; qtot 334.236753
 7721         hc    335    ccc     H4   7721 0.02647500   1.008000   ; qtot 334.263228
 7722         c3    335    ccc     C3   7722 0.04732600  12.010000   ; qtot 334.310554
 7723         h1    335    ccc     H5   7723 0.07030200   1.008000   ; qtot 334.380856
 7724         h1    335    ccc     H6   7724 0.07030200   1.008000   ; qtot 334.451158
 7725         n4    335    ccc     N1   7725 -0.21077700  14.010000   ; qtot 334.240381
 7726         hn    335    ccc     H7   7726 0.28399900   1.008000   ; qtot 334.524380
 7727         hn    335    ccc     H8   7727 0.28399900   1.008000   ; qtot 334.808379
 7728         os    335    ccc     O1   7728 -0.09200600  16.000000   ; qtot 334.716373
 7729         hn    335    ccc    H17   7729 0.28399900   1.008000   ; qtot 335.000372
; residue  336 ccc rtp ccc q 1.0
 7730         c3    336    ccc     C1   7730 0.17060900  12.010000   ; qtot 335.170981
 7731         hx    336    ccc     H1   7731 0.04213200   1.008000   ; qtot 335.213113
 7732         hx    336    ccc     H2   7732 0.04213200   1.008000   ; qtot 335.255245
 7733         c3    336    ccc     C2   7733 -0.04496700  12.010000   ; qtot 335.210278
 7734         hc    336    ccc     H3   7734 0.02647500   1.008000   ; qtot 335.236753
 7735         hc    336    ccc     H4   7735 0.02647500   1.008000   ; qtot 335.263228
 7736         c3    336    ccc     C3   7736 0.04732600  12.010000   ; qtot 335.310554
 7737         h1    336    ccc     H5   7737 0.07030200   1.008000   ; qtot 335.380856
 7738         h1    336    ccc     H6   7738 0.07030200   1.008000   ; qtot 335.451158
 7739         n4    336    ccc     N1   7739 -0.21077700  14.010000   ; qtot 335.240381
 7740         hn    336    ccc     H7   7740 0.28399900   1.008000   ; qtot 335.524380
 7741         hn    336    ccc     H8   7741 0.28399900   1.008000   ; qtot 335.808379
 7742         os    336    ccc     O1   7742 -0.09200600  16.000000   ; qtot 335.716373
 7743         hn    336    ccc    H17   7743 0.28399900   1.008000   ; qtot 336.000372
; residue  337 ccc rtp ccc q 1.0
 7744         c3    337    ccc     C1   7744 0.17060900  12.010000   ; qtot 336.170981
 7745         hx    337    ccc     H1   7745 0.04213200   1.008000   ; qtot 336.213113
 7746         hx    337    ccc     H2   7746 0.04213200   1.008000   ; qtot 336.255245
 7747         c3    337    ccc     C2   7747 -0.04496700  12.010000   ; qtot 336.210278
 7748         hc    337    ccc     H3   7748 0.02647500   1.008000   ; qtot 336.236753
 7749         hc    337    ccc     H4   7749 0.02647500   1.008000   ; qtot 336.263228
 7750         c3    337    ccc     C3   7750 0.04732600  12.010000   ; qtot 336.310554
 7751         h1    337    ccc     H5   7751 0.07030200   1.008000   ; qtot 336.380856
 7752         h1    337    ccc     H6   7752 0.07030200   1.008000   ; qtot 336.451158
 7753         n4    337    ccc     N1   7753 -0.21077700  14.010000   ; qtot 336.240381
 7754         hn    337    ccc     H7   7754 0.28399900   1.008000   ; qtot 336.524380
 7755         hn    337    ccc     H8   7755 0.28399900   1.008000   ; qtot 336.808379
 7756         os    337    ccc     O1   7756 -0.09200600  16.000000   ; qtot 336.716373
 7757         hn    337    ccc    H17   7757 0.28399900   1.008000   ; qtot 337.000372
; residue  338 ccc rtp ccc q 1.0
 7758         c3    338    ccc     C1   7758 0.17060900  12.010000   ; qtot 337.170981
 7759         hx    338    ccc     H1   7759 0.04213200   1.008000   ; qtot 337.213113
 7760         hx    338    ccc     H2   7760 0.04213200   1.008000   ; qtot 337.255245
 7761         c3    338    ccc     C2   7761 -0.04496700  12.010000   ; qtot 337.210278
 7762         hc    338    ccc     H3   7762 0.02647500   1.008000   ; qtot 337.236753
 7763         hc    338    ccc     H4   7763 0.02647500   1.008000   ; qtot 337.263228
 7764         c3    338    ccc     C3   7764 0.04732600  12.010000   ; qtot 337.310554
 7765         h1    338    ccc     H5   7765 0.07030200   1.008000   ; qtot 337.380856
 7766         h1    338    ccc     H6   7766 0.07030200   1.008000   ; qtot 337.451158
 7767         n4    338    ccc     N1   7767 -0.21077700  14.010000   ; qtot 337.240381
 7768         hn    338    ccc     H7   7768 0.28399900   1.008000   ; qtot 337.524380
 7769         hn    338    ccc     H8   7769 0.28399900   1.008000   ; qtot 337.808379
 7770         os    338    ccc     O1   7770 -0.09200600  16.000000   ; qtot 337.716373
 7771         hn    338    ccc    H17   7771 0.28399900   1.008000   ; qtot 338.000372
; residue  339 ccc rtp ccc q 1.0
 7772         c3    339    ccc     C1   7772 0.17060900  12.010000   ; qtot 338.170981
 7773         hx    339    ccc     H1   7773 0.04213200   1.008000   ; qtot 338.213113
 7774         hx    339    ccc     H2   7774 0.04213200   1.008000   ; qtot 338.255245
 7775         c3    339    ccc     C2   7775 -0.04496700  12.010000   ; qtot 338.210278
 7776         hc    339    ccc     H3   7776 0.02647500   1.008000   ; qtot 338.236753
 7777         hc    339    ccc     H4   7777 0.02647500   1.008000   ; qtot 338.263228
 7778         c3    339    ccc     C3   7778 0.04732600  12.010000   ; qtot 338.310554
 7779         h1    339    ccc     H5   7779 0.07030200   1.008000   ; qtot 338.380856
 7780         h1    339    ccc     H6   7780 0.07030200   1.008000   ; qtot 338.451158
 7781         n4    339    ccc     N1   7781 -0.21077700  14.010000   ; qtot 338.240381
 7782         hn    339    ccc     H7   7782 0.28399900   1.008000   ; qtot 338.524380
 7783         hn    339    ccc     H8   7783 0.28399900   1.008000   ; qtot 338.808379
 7784         os    339    ccc     O1   7784 -0.09200600  16.000000   ; qtot 338.716373
 7785         hn    339    ccc    H17   7785 0.28399900   1.008000   ; qtot 339.000372
; residue  340 ccc rtp ccc q 1.0
 7786         c3    340    ccc     C1   7786 0.17060900  12.010000   ; qtot 339.170981
 7787         hx    340    ccc     H1   7787 0.04213200   1.008000   ; qtot 339.213113
 7788         hx    340    ccc     H2   7788 0.04213200   1.008000   ; qtot 339.255245
 7789         c3    340    ccc     C2   7789 -0.04496700  12.010000   ; qtot 339.210278
 7790         hc    340    ccc     H3   7790 0.02647500   1.008000   ; qtot 339.236753
 7791         hc    340    ccc     H4   7791 0.02647500   1.008000   ; qtot 339.263228
 7792         c3    340    ccc     C3   7792 0.04732600  12.010000   ; qtot 339.310554
 7793         h1    340    ccc     H5   7793 0.07030200   1.008000   ; qtot 339.380856
 7794         h1    340    ccc     H6   7794 0.07030200   1.008000   ; qtot 339.451158
 7795         n4    340    ccc     N1   7795 -0.21077700  14.010000   ; qtot 339.240381
 7796         hn    340    ccc     H7   7796 0.28399900   1.008000   ; qtot 339.524380
 7797         hn    340    ccc     H8   7797 0.28399900   1.008000   ; qtot 339.808379
 7798         os    340    ccc     O1   7798 -0.09200600  16.000000   ; qtot 339.716373
 7799         hn    340    ccc    H17   7799 0.28399900   1.008000   ; qtot 340.000372
; residue  341 ccc rtp ccc q 1.0
 7800         c3    341    ccc     C1   7800 0.17060900  12.010000   ; qtot 340.170981
 7801         hx    341    ccc     H1   7801 0.04213200   1.008000   ; qtot 340.213113
 7802         hx    341    ccc     H2   7802 0.04213200   1.008000   ; qtot 340.255245
 7803         c3    341    ccc     C2   7803 -0.04496700  12.010000   ; qtot 340.210278
 7804         hc    341    ccc     H3   7804 0.02647500   1.008000   ; qtot 340.236753
 7805         hc    341    ccc     H4   7805 0.02647500   1.008000   ; qtot 340.263228
 7806         c3    341    ccc     C3   7806 0.04732600  12.010000   ; qtot 340.310554
 7807         h1    341    ccc     H5   7807 0.07030200   1.008000   ; qtot 340.380856
 7808         h1    341    ccc     H6   7808 0.07030200   1.008000   ; qtot 340.451158
 7809         n4    341    ccc     N1   7809 -0.21077700  14.010000   ; qtot 340.240381
 7810         hn    341    ccc     H7   7810 0.28399900   1.008000   ; qtot 340.524380
 7811         hn    341    ccc     H8   7811 0.28399900   1.008000   ; qtot 340.808379
 7812         os    341    ccc     O1   7812 -0.09200600  16.000000   ; qtot 340.716373
 7813         hn    341    ccc    H17   7813 0.28399900   1.008000   ; qtot 341.000372
; residue  342 ccc rtp ccc q 1.0
 7814         c3    342    ccc     C1   7814 0.17060900  12.010000   ; qtot 341.170981
 7815         hx    342    ccc     H1   7815 0.04213200   1.008000   ; qtot 341.213113
 7816         hx    342    ccc     H2   7816 0.04213200   1.008000   ; qtot 341.255245
 7817         c3    342    ccc     C2   7817 -0.04496700  12.010000   ; qtot 341.210278
 7818         hc    342    ccc     H3   7818 0.02647500   1.008000   ; qtot 341.236753
 7819         hc    342    ccc     H4   7819 0.02647500   1.008000   ; qtot 341.263228
 7820         c3    342    ccc     C3   7820 0.04732600  12.010000   ; qtot 341.310554
 7821         h1    342    ccc     H5   7821 0.07030200   1.008000   ; qtot 341.380856
 7822         h1    342    ccc     H6   7822 0.07030200   1.008000   ; qtot 341.451158
 7823         n4    342    ccc     N1   7823 -0.21077700  14.010000   ; qtot 341.240381
 7824         hn    342    ccc     H7   7824 0.28399900   1.008000   ; qtot 341.524380
 7825         hn    342    ccc     H8   7825 0.28399900   1.008000   ; qtot 341.808379
 7826         os    342    ccc     O1   7826 -0.09200600  16.000000   ; qtot 341.716373
 7827         hn    342    ccc    H17   7827 0.28399900   1.008000   ; qtot 342.000372
; residue  343 ccc rtp ccc q 1.0
 7828         c3    343    ccc     C1   7828 0.17060900  12.010000   ; qtot 342.170981
 7829         hx    343    ccc     H1   7829 0.04213200   1.008000   ; qtot 342.213113
 7830         hx    343    ccc     H2   7830 0.04213200   1.008000   ; qtot 342.255245
 7831         c3    343    ccc     C2   7831 -0.04496700  12.010000   ; qtot 342.210278
 7832         hc    343    ccc     H3   7832 0.02647500   1.008000   ; qtot 342.236753
 7833         hc    343    ccc     H4   7833 0.02647500   1.008000   ; qtot 342.263228
 7834         c3    343    ccc     C3   7834 0.04732600  12.010000   ; qtot 342.310554
 7835         h1    343    ccc     H5   7835 0.07030200   1.008000   ; qtot 342.380856
 7836         h1    343    ccc     H6   7836 0.07030200   1.008000   ; qtot 342.451158
 7837         n4    343    ccc     N1   7837 -0.21077700  14.010000   ; qtot 342.240381
 7838         hn    343    ccc     H7   7838 0.28399900   1.008000   ; qtot 342.524380
 7839         hn    343    ccc     H8   7839 0.28399900   1.008000   ; qtot 342.808379
 7840         os    343    ccc     O1   7840 -0.09200600  16.000000   ; qtot 342.716373
 7841         hn    343    ccc    H17   7841 0.28399900   1.008000   ; qtot 343.000372
; residue  344 ccc rtp ccc q 1.0
 7842         c3    344    ccc     C1   7842 0.17060900  12.010000   ; qtot 343.170981
 7843         hx    344    ccc     H1   7843 0.04213200   1.008000   ; qtot 343.213113
 7844         hx    344    ccc     H2   7844 0.04213200   1.008000   ; qtot 343.255245
 7845         c3    344    ccc     C2   7845 -0.04496700  12.010000   ; qtot 343.210278
 7846         hc    344    ccc     H3   7846 0.02647500   1.008000   ; qtot 343.236753
 7847         hc    344    ccc     H4   7847 0.02647500   1.008000   ; qtot 343.263228
 7848         c3    344    ccc     C3   7848 0.04732600  12.010000   ; qtot 343.310554
 7849         h1    344    ccc     H5   7849 0.07030200   1.008000   ; qtot 343.380856
 7850         h1    344    ccc     H6   7850 0.07030200   1.008000   ; qtot 343.451158
 7851         n4    344    ccc     N1   7851 -0.21077700  14.010000   ; qtot 343.240381
 7852         hn    344    ccc     H7   7852 0.28399900   1.008000   ; qtot 343.524380
 7853         hn    344    ccc     H8   7853 0.28399900   1.008000   ; qtot 343.808379
 7854         os    344    ccc     O1   7854 -0.09200600  16.000000   ; qtot 343.716373
 7855         hn    344    ccc    H17   7855 0.28399900   1.008000   ; qtot 344.000372
; residue  345 ccc rtp ccc q 1.0
 7856         c3    345    ccc     C1   7856 0.17060900  12.010000   ; qtot 344.170981
 7857         hx    345    ccc     H1   7857 0.04213200   1.008000   ; qtot 344.213113
 7858         hx    345    ccc     H2   7858 0.04213200   1.008000   ; qtot 344.255245
 7859         c3    345    ccc     C2   7859 -0.04496700  12.010000   ; qtot 344.210278
 7860         hc    345    ccc     H3   7860 0.02647500   1.008000   ; qtot 344.236753
 7861         hc    345    ccc     H4   7861 0.02647500   1.008000   ; qtot 344.263228
 7862         c3    345    ccc     C3   7862 0.04732600  12.010000   ; qtot 344.310554
 7863         h1    345    ccc     H5   7863 0.07030200   1.008000   ; qtot 344.380856
 7864         h1    345    ccc     H6   7864 0.07030200   1.008000   ; qtot 344.451158
 7865         n4    345    ccc     N1   7865 -0.21077700  14.010000   ; qtot 344.240381
 7866         hn    345    ccc     H7   7866 0.28399900   1.008000   ; qtot 344.524380
 7867         hn    345    ccc     H8   7867 0.28399900   1.008000   ; qtot 344.808379
 7868         os    345    ccc     O1   7868 -0.09200600  16.000000   ; qtot 344.716373
 7869         hn    345    ccc    H17   7869 0.28399900   1.008000   ; qtot 345.000372
; residue  346 ccc rtp ccc q 1.0
 7870         c3    346    ccc     C1   7870 0.17060900  12.010000   ; qtot 345.170981
 7871         hx    346    ccc     H1   7871 0.04213200   1.008000   ; qtot 345.213113
 7872         hx    346    ccc     H2   7872 0.04213200   1.008000   ; qtot 345.255245
 7873         c3    346    ccc     C2   7873 -0.04496700  12.010000   ; qtot 345.210278
 7874         hc    346    ccc     H3   7874 0.02647500   1.008000   ; qtot 345.236753
 7875         hc    346    ccc     H4   7875 0.02647500   1.008000   ; qtot 345.263228
 7876         c3    346    ccc     C3   7876 0.04732600  12.010000   ; qtot 345.310554
 7877         h1    346    ccc     H5   7877 0.07030200   1.008000   ; qtot 345.380856
 7878         h1    346    ccc     H6   7878 0.07030200   1.008000   ; qtot 345.451158
 7879         n4    346    ccc     N1   7879 -0.21077700  14.010000   ; qtot 345.240381
 7880         hn    346    ccc     H7   7880 0.28399900   1.008000   ; qtot 345.524380
 7881         hn    346    ccc     H8   7881 0.28399900   1.008000   ; qtot 345.808379
 7882         os    346    ccc     O1   7882 -0.09200600  16.000000   ; qtot 345.716373
 7883         hn    346    ccc    H17   7883 0.28399900   1.008000   ; qtot 346.000372
; residue  347 ccc rtp ccc q 1.0
 7884         c3    347    ccc     C1   7884 0.17060900  12.010000   ; qtot 346.170981
 7885         hx    347    ccc     H1   7885 0.04213200   1.008000   ; qtot 346.213113
 7886         hx    347    ccc     H2   7886 0.04213200   1.008000   ; qtot 346.255245
 7887         c3    347    ccc     C2   7887 -0.04496700  12.010000   ; qtot 346.210278
 7888         hc    347    ccc     H3   7888 0.02647500   1.008000   ; qtot 346.236753
 7889         hc    347    ccc     H4   7889 0.02647500   1.008000   ; qtot 346.263228
 7890         c3    347    ccc     C3   7890 0.04732600  12.010000   ; qtot 346.310554
 7891         h1    347    ccc     H5   7891 0.07030200   1.008000   ; qtot 346.380856
 7892         h1    347    ccc     H6   7892 0.07030200   1.008000   ; qtot 346.451158
 7893         n4    347    ccc     N1   7893 -0.21077700  14.010000   ; qtot 346.240381
 7894         hn    347    ccc     H7   7894 0.28399900   1.008000   ; qtot 346.524380
 7895         hn    347    ccc     H8   7895 0.28399900   1.008000   ; qtot 346.808379
 7896         os    347    ccc     O1   7896 -0.09200600  16.000000   ; qtot 346.716373
 7897         hn    347    ccc    H17   7897 0.28399900   1.008000   ; qtot 347.000372
; residue  348 ccc rtp ccc q 1.0
 7898         c3    348    ccc     C1   7898 0.17060900  12.010000   ; qtot 347.170981
 7899         hx    348    ccc     H1   7899 0.04213200   1.008000   ; qtot 347.213113
 7900         hx    348    ccc     H2   7900 0.04213200   1.008000   ; qtot 347.255245
 7901         c3    348    ccc     C2   7901 -0.04496700  12.010000   ; qtot 347.210278
 7902         hc    348    ccc     H3   7902 0.02647500   1.008000   ; qtot 347.236753
 7903         hc    348    ccc     H4   7903 0.02647500   1.008000   ; qtot 347.263228
 7904         c3    348    ccc     C3   7904 0.04732600  12.010000   ; qtot 347.310554
 7905         h1    348    ccc     H5   7905 0.07030200   1.008000   ; qtot 347.380856
 7906         h1    348    ccc     H6   7906 0.07030200   1.008000   ; qtot 347.451158
 7907         n4    348    ccc     N1   7907 -0.21077700  14.010000   ; qtot 347.240381
 7908         hn    348    ccc     H7   7908 0.28399900   1.008000   ; qtot 347.524380
 7909         hn    348    ccc     H8   7909 0.28399900   1.008000   ; qtot 347.808379
 7910         os    348    ccc     O1   7910 -0.09200600  16.000000   ; qtot 347.716373
 7911         hn    348    ccc    H17   7911 0.28399900   1.008000   ; qtot 348.000372
; residue  349 ccc rtp ccc q 1.0
 7912         c3    349    ccc     C1   7912 0.17060900  12.010000   ; qtot 348.170981
 7913         hx    349    ccc     H1   7913 0.04213200   1.008000   ; qtot 348.213113
 7914         hx    349    ccc     H2   7914 0.04213200   1.008000   ; qtot 348.255245
 7915         c3    349    ccc     C2   7915 -0.04496700  12.010000   ; qtot 348.210278
 7916         hc    349    ccc     H3   7916 0.02647500   1.008000   ; qtot 348.236753
 7917         hc    349    ccc     H4   7917 0.02647500   1.008000   ; qtot 348.263228
 7918         c3    349    ccc     C3   7918 0.04732600  12.010000   ; qtot 348.310554
 7919         h1    349    ccc     H5   7919 0.07030200   1.008000   ; qtot 348.380856
 7920         h1    349    ccc     H6   7920 0.07030200   1.008000   ; qtot 348.451158
 7921         n4    349    ccc     N1   7921 -0.21077700  14.010000   ; qtot 348.240381
 7922         hn    349    ccc     H7   7922 0.28399900   1.008000   ; qtot 348.524380
 7923         hn    349    ccc     H8   7923 0.28399900   1.008000   ; qtot 348.808379
 7924         os    349    ccc     O1   7924 -0.09200600  16.000000   ; qtot 348.716373
 7925         hn    349    ccc    H17   7925 0.28399900   1.008000   ; qtot 349.000372
; residue  350 ccc rtp ccc q 1.0
 7926         c3    350    ccc     C1   7926 0.17060900  12.010000   ; qtot 349.170981
 7927         hx    350    ccc     H1   7927 0.04213200   1.008000   ; qtot 349.213113
 7928         hx    350    ccc     H2   7928 0.04213200   1.008000   ; qtot 349.255245
 7929         c3    350    ccc     C2   7929 -0.04496700  12.010000   ; qtot 349.210278
 7930         hc    350    ccc     H3   7930 0.02647500   1.008000   ; qtot 349.236753
 7931         hc    350    ccc     H4   7931 0.02647500   1.008000   ; qtot 349.263228
 7932         c3    350    ccc     C3   7932 0.04732600  12.010000   ; qtot 349.310554
 7933         h1    350    ccc     H5   7933 0.07030200   1.008000   ; qtot 349.380856
 7934         h1    350    ccc     H6   7934 0.07030200   1.008000   ; qtot 349.451158
 7935         n4    350    ccc     N1   7935 -0.21077700  14.010000   ; qtot 349.240381
 7936         hn    350    ccc     H7   7936 0.28399900   1.008000   ; qtot 349.524380
 7937         hn    350    ccc     H8   7937 0.28399900   1.008000   ; qtot 349.808379
 7938         os    350    ccc     O1   7938 -0.09200600  16.000000   ; qtot 349.716373
 7939         hn    350    ccc    H17   7939 0.28399900   1.008000   ; qtot 350.000372
; residue  351 ccc rtp ccc q 1.0
 7940         c3    351    ccc     C1   7940 0.17060900  12.010000   ; qtot 350.170981
 7941         hx    351    ccc     H1   7941 0.04213200   1.008000   ; qtot 350.213113
 7942         hx    351    ccc     H2   7942 0.04213200   1.008000   ; qtot 350.255245
 7943         c3    351    ccc     C2   7943 -0.04496700  12.010000   ; qtot 350.210278
 7944         hc    351    ccc     H3   7944 0.02647500   1.008000   ; qtot 350.236753
 7945         hc    351    ccc     H4   7945 0.02647500   1.008000   ; qtot 350.263228
 7946         c3    351    ccc     C3   7946 0.04732600  12.010000   ; qtot 350.310554
 7947         h1    351    ccc     H5   7947 0.07030200   1.008000   ; qtot 350.380856
 7948         h1    351    ccc     H6   7948 0.07030200   1.008000   ; qtot 350.451158
 7949         n4    351    ccc     N1   7949 -0.21077700  14.010000   ; qtot 350.240381
 7950         hn    351    ccc     H7   7950 0.28399900   1.008000   ; qtot 350.524380
 7951         hn    351    ccc     H8   7951 0.28399900   1.008000   ; qtot 350.808379
 7952         os    351    ccc     O1   7952 -0.09200600  16.000000   ; qtot 350.716373
 7953         hn    351    ccc    H17   7953 0.28399900   1.008000   ; qtot 351.000372
; residue  352 ccc rtp ccc q 1.0
 7954         c3    352    ccc     C1   7954 0.17060900  12.010000   ; qtot 351.170981
 7955         hx    352    ccc     H1   7955 0.04213200   1.008000   ; qtot 351.213113
 7956         hx    352    ccc     H2   7956 0.04213200   1.008000   ; qtot 351.255245
 7957         c3    352    ccc     C2   7957 -0.04496700  12.010000   ; qtot 351.210278
 7958         hc    352    ccc     H3   7958 0.02647500   1.008000   ; qtot 351.236753
 7959         hc    352    ccc     H4   7959 0.02647500   1.008000   ; qtot 351.263228
 7960         c3    352    ccc     C3   7960 0.04732600  12.010000   ; qtot 351.310554
 7961         h1    352    ccc     H5   7961 0.07030200   1.008000   ; qtot 351.380856
 7962         h1    352    ccc     H6   7962 0.07030200   1.008000   ; qtot 351.451158
 7963         n4    352    ccc     N1   7963 -0.21077700  14.010000   ; qtot 351.240381
 7964         hn    352    ccc     H7   7964 0.28399900   1.008000   ; qtot 351.524380
 7965         hn    352    ccc     H8   7965 0.28399900   1.008000   ; qtot 351.808379
 7966         os    352    ccc     O1   7966 -0.09200600  16.000000   ; qtot 351.716373
 7967         hn    352    ccc    H17   7967 0.28399900   1.008000   ; qtot 352.000372
; residue  353 ccc rtp ccc q 1.0
 7968         c3    353    ccc     C1   7968 0.17060900  12.010000   ; qtot 352.170981
 7969         hx    353    ccc     H1   7969 0.04213200   1.008000   ; qtot 352.213113
 7970         hx    353    ccc     H2   7970 0.04213200   1.008000   ; qtot 352.255245
 7971         c3    353    ccc     C2   7971 -0.04496700  12.010000   ; qtot 352.210278
 7972         hc    353    ccc     H3   7972 0.02647500   1.008000   ; qtot 352.236753
 7973         hc    353    ccc     H4   7973 0.02647500   1.008000   ; qtot 352.263228
 7974         c3    353    ccc     C3   7974 0.04732600  12.010000   ; qtot 352.310554
 7975         h1    353    ccc     H5   7975 0.07030200   1.008000   ; qtot 352.380856
 7976         h1    353    ccc     H6   7976 0.07030200   1.008000   ; qtot 352.451158
 7977         n4    353    ccc     N1   7977 -0.21077700  14.010000   ; qtot 352.240381
 7978         hn    353    ccc     H7   7978 0.28399900   1.008000   ; qtot 352.524380
 7979         hn    353    ccc     H8   7979 0.28399900   1.008000   ; qtot 352.808379
 7980         os    353    ccc     O1   7980 -0.09200600  16.000000   ; qtot 352.716373
 7981         hn    353    ccc    H17   7981 0.28399900   1.008000   ; qtot 353.000372
; residue  354 ccc rtp ccc q 1.0
 7982         c3    354    ccc     C1   7982 0.17060900  12.010000   ; qtot 353.170981
 7983         hx    354    ccc     H1   7983 0.04213200   1.008000   ; qtot 353.213113
 7984         hx    354    ccc     H2   7984 0.04213200   1.008000   ; qtot 353.255245
 7985         c3    354    ccc     C2   7985 -0.04496700  12.010000   ; qtot 353.210278
 7986         hc    354    ccc     H3   7986 0.02647500   1.008000   ; qtot 353.236753
 7987         hc    354    ccc     H4   7987 0.02647500   1.008000   ; qtot 353.263228
 7988         c3    354    ccc     C3   7988 0.04732600  12.010000   ; qtot 353.310554
 7989         h1    354    ccc     H5   7989 0.07030200   1.008000   ; qtot 353.380856
 7990         h1    354    ccc     H6   7990 0.07030200   1.008000   ; qtot 353.451158
 7991         n4    354    ccc     N1   7991 -0.21077700  14.010000   ; qtot 353.240381
 7992         hn    354    ccc     H7   7992 0.28399900   1.008000   ; qtot 353.524380
 7993         hn    354    ccc     H8   7993 0.28399900   1.008000   ; qtot 353.808379
 7994         os    354    ccc     O1   7994 -0.09200600  16.000000   ; qtot 353.716373
 7995         hn    354    ccc    H17   7995 0.28399900   1.008000   ; qtot 354.000372
; residue  355 ccc rtp ccc q 1.0
 7996         c3    355    ccc     C1   7996 0.17060900  12.010000   ; qtot 354.170981
 7997         hx    355    ccc     H1   7997 0.04213200   1.008000   ; qtot 354.213113
 7998         hx    355    ccc     H2   7998 0.04213200   1.008000   ; qtot 354.255245
 7999         c3    355    ccc     C2   7999 -0.04496700  12.010000   ; qtot 354.210278
 8000         hc    355    ccc     H3   8000 0.02647500   1.008000   ; qtot 354.236753
 8001         hc    355    ccc     H4   8001 0.02647500   1.008000   ; qtot 354.263228
 8002         c3    355    ccc     C3   8002 0.04732600  12.010000   ; qtot 354.310554
 8003         h1    355    ccc     H5   8003 0.07030200   1.008000   ; qtot 354.380856
 8004         h1    355    ccc     H6   8004 0.07030200   1.008000   ; qtot 354.451158
 8005         n4    355    ccc     N1   8005 -0.21077700  14.010000   ; qtot 354.240381
 8006         hn    355    ccc     H7   8006 0.28399900   1.008000   ; qtot 354.524380
 8007         hn    355    ccc     H8   8007 0.28399900   1.008000   ; qtot 354.808379
 8008         os    355    ccc     O1   8008 -0.09200600  16.000000   ; qtot 354.716373
 8009         hn    355    ccc    H17   8009 0.28399900   1.008000   ; qtot 355.000372
; residue  356 ccc rtp ccc q 1.0
 8010         c3    356    ccc     C1   8010 0.17060900  12.010000   ; qtot 355.170981
 8011         hx    356    ccc     H1   8011 0.04213200   1.008000   ; qtot 355.213113
 8012         hx    356    ccc     H2   8012 0.04213200   1.008000   ; qtot 355.255245
 8013         c3    356    ccc     C2   8013 -0.04496700  12.010000   ; qtot 355.210278
 8014         hc    356    ccc     H3   8014 0.02647500   1.008000   ; qtot 355.236753
 8015         hc    356    ccc     H4   8015 0.02647500   1.008000   ; qtot 355.263228
 8016         c3    356    ccc     C3   8016 0.04732600  12.010000   ; qtot 355.310554
 8017         h1    356    ccc     H5   8017 0.07030200   1.008000   ; qtot 355.380856
 8018         h1    356    ccc     H6   8018 0.07030200   1.008000   ; qtot 355.451158
 8019         n4    356    ccc     N1   8019 -0.21077700  14.010000   ; qtot 355.240381
 8020         hn    356    ccc     H7   8020 0.28399900   1.008000   ; qtot 355.524380
 8021         hn    356    ccc     H8   8021 0.28399900   1.008000   ; qtot 355.808379
 8022         os    356    ccc     O1   8022 -0.09200600  16.000000   ; qtot 355.716373
 8023         hn    356    ccc    H17   8023 0.28399900   1.008000   ; qtot 356.000372
; residue  357 ccc rtp ccc q 1.0
 8024         c3    357    ccc     C1   8024 0.17060900  12.010000   ; qtot 356.170981
 8025         hx    357    ccc     H1   8025 0.04213200   1.008000   ; qtot 356.213113
 8026         hx    357    ccc     H2   8026 0.04213200   1.008000   ; qtot 356.255245
 8027         c3    357    ccc     C2   8027 -0.04496700  12.010000   ; qtot 356.210278
 8028         hc    357    ccc     H3   8028 0.02647500   1.008000   ; qtot 356.236753
 8029         hc    357    ccc     H4   8029 0.02647500   1.008000   ; qtot 356.263228
 8030         c3    357    ccc     C3   8030 0.04732600  12.010000   ; qtot 356.310554
 8031         h1    357    ccc     H5   8031 0.07030200   1.008000   ; qtot 356.380856
 8032         h1    357    ccc     H6   8032 0.07030200   1.008000   ; qtot 356.451158
 8033         n4    357    ccc     N1   8033 -0.21077700  14.010000   ; qtot 356.240381
 8034         hn    357    ccc     H7   8034 0.28399900   1.008000   ; qtot 356.524380
 8035         hn    357    ccc     H8   8035 0.28399900   1.008000   ; qtot 356.808379
 8036         os    357    ccc     O1   8036 -0.09200600  16.000000   ; qtot 356.716373
 8037         hn    357    ccc    H17   8037 0.28399900   1.008000   ; qtot 357.000372
; residue  358 ccc rtp ccc q 1.0
 8038         c3    358    ccc     C1   8038 0.17060900  12.010000   ; qtot 357.170981
 8039         hx    358    ccc     H1   8039 0.04213200   1.008000   ; qtot 357.213113
 8040         hx    358    ccc     H2   8040 0.04213200   1.008000   ; qtot 357.255245
 8041         c3    358    ccc     C2   8041 -0.04496700  12.010000   ; qtot 357.210278
 8042         hc    358    ccc     H3   8042 0.02647500   1.008000   ; qtot 357.236753
 8043         hc    358    ccc     H4   8043 0.02647500   1.008000   ; qtot 357.263228
 8044         c3    358    ccc     C3   8044 0.04732600  12.010000   ; qtot 357.310554
 8045         h1    358    ccc     H5   8045 0.07030200   1.008000   ; qtot 357.380856
 8046         h1    358    ccc     H6   8046 0.07030200   1.008000   ; qtot 357.451158
 8047         n4    358    ccc     N1   8047 -0.21077700  14.010000   ; qtot 357.240381
 8048         hn    358    ccc     H7   8048 0.28399900   1.008000   ; qtot 357.524380
 8049         hn    358    ccc     H8   8049 0.28399900   1.008000   ; qtot 357.808379
 8050         os    358    ccc     O1   8050 -0.09200600  16.000000   ; qtot 357.716373
 8051         hn    358    ccc    H17   8051 0.28399900   1.008000   ; qtot 358.000372
; residue  359 ccc rtp ccc q 1.0
 8052         c3    359    ccc     C1   8052 0.17060900  12.010000   ; qtot 358.170981
 8053         hx    359    ccc     H1   8053 0.04213200   1.008000   ; qtot 358.213113
 8054         hx    359    ccc     H2   8054 0.04213200   1.008000   ; qtot 358.255245
 8055         c3    359    ccc     C2   8055 -0.04496700  12.010000   ; qtot 358.210278
 8056         hc    359    ccc     H3   8056 0.02647500   1.008000   ; qtot 358.236753
 8057         hc    359    ccc     H4   8057 0.02647500   1.008000   ; qtot 358.263228
 8058         c3    359    ccc     C3   8058 0.04732600  12.010000   ; qtot 358.310554
 8059         h1    359    ccc     H5   8059 0.07030200   1.008000   ; qtot 358.380856
 8060         h1    359    ccc     H6   8060 0.07030200   1.008000   ; qtot 358.451158
 8061         n4    359    ccc     N1   8061 -0.21077700  14.010000   ; qtot 358.240381
 8062         hn    359    ccc     H7   8062 0.28399900   1.008000   ; qtot 358.524380
 8063         hn    359    ccc     H8   8063 0.28399900   1.008000   ; qtot 358.808379
 8064         os    359    ccc     O1   8064 -0.09200600  16.000000   ; qtot 358.716373
 8065         hn    359    ccc    H17   8065 0.28399900   1.008000   ; qtot 359.000372
; residue  360 ccc rtp ccc q 1.0
 8066         c3    360    ccc     C1   8066 0.17060900  12.010000   ; qtot 359.170981
 8067         hx    360    ccc     H1   8067 0.04213200   1.008000   ; qtot 359.213113
 8068         hx    360    ccc     H2   8068 0.04213200   1.008000   ; qtot 359.255245
 8069         c3    360    ccc     C2   8069 -0.04496700  12.010000   ; qtot 359.210278
 8070         hc    360    ccc     H3   8070 0.02647500   1.008000   ; qtot 359.236753
 8071         hc    360    ccc     H4   8071 0.02647500   1.008000   ; qtot 359.263228
 8072         c3    360    ccc     C3   8072 0.04732600  12.010000   ; qtot 359.310554
 8073         h1    360    ccc     H5   8073 0.07030200   1.008000   ; qtot 359.380856
 8074         h1    360    ccc     H6   8074 0.07030200   1.008000   ; qtot 359.451158
 8075         n4    360    ccc     N1   8075 -0.21077700  14.010000   ; qtot 359.240381
 8076         hn    360    ccc     H7   8076 0.28399900   1.008000   ; qtot 359.524380
 8077         hn    360    ccc     H8   8077 0.28399900   1.008000   ; qtot 359.808379
 8078         os    360    ccc     O1   8078 -0.09200600  16.000000   ; qtot 359.716373
 8079         hn    360    ccc    H17   8079 0.28399900   1.008000   ; qtot 360.000372
; residue  361 ccc rtp ccc q 1.0
 8080         c3    361    ccc     C1   8080 0.17060900  12.010000   ; qtot 360.170981
 8081         hx    361    ccc     H1   8081 0.04213200   1.008000   ; qtot 360.213113
 8082         hx    361    ccc     H2   8082 0.04213200   1.008000   ; qtot 360.255245
 8083         c3    361    ccc     C2   8083 -0.04496700  12.010000   ; qtot 360.210278
 8084         hc    361    ccc     H3   8084 0.02647500   1.008000   ; qtot 360.236753
 8085         hc    361    ccc     H4   8085 0.02647500   1.008000   ; qtot 360.263228
 8086         c3    361    ccc     C3   8086 0.04732600  12.010000   ; qtot 360.310554
 8087         h1    361    ccc     H5   8087 0.07030200   1.008000   ; qtot 360.380856
 8088         h1    361    ccc     H6   8088 0.07030200   1.008000   ; qtot 360.451158
 8089         n4    361    ccc     N1   8089 -0.21077700  14.010000   ; qtot 360.240381
 8090         hn    361    ccc     H7   8090 0.28399900   1.008000   ; qtot 360.524380
 8091         hn    361    ccc     H8   8091 0.28399900   1.008000   ; qtot 360.808379
 8092         os    361    ccc     O1   8092 -0.09200600  16.000000   ; qtot 360.716373
 8093         hn    361    ccc    H17   8093 0.28399900   1.008000   ; qtot 361.000372
; residue  362 ccc rtp ccc q 1.0
 8094         c3    362    ccc     C1   8094 0.17060900  12.010000   ; qtot 361.170981
 8095         hx    362    ccc     H1   8095 0.04213200   1.008000   ; qtot 361.213113
 8096         hx    362    ccc     H2   8096 0.04213200   1.008000   ; qtot 361.255245
 8097         c3    362    ccc     C2   8097 -0.04496700  12.010000   ; qtot 361.210278
 8098         hc    362    ccc     H3   8098 0.02647500   1.008000   ; qtot 361.236753
 8099         hc    362    ccc     H4   8099 0.02647500   1.008000   ; qtot 361.263228
 8100         c3    362    ccc     C3   8100 0.04732600  12.010000   ; qtot 361.310554
 8101         h1    362    ccc     H5   8101 0.07030200   1.008000   ; qtot 361.380856
 8102         h1    362    ccc     H6   8102 0.07030200   1.008000   ; qtot 361.451158
 8103         n4    362    ccc     N1   8103 -0.21077700  14.010000   ; qtot 361.240381
 8104         hn    362    ccc     H7   8104 0.28399900   1.008000   ; qtot 361.524380
 8105         hn    362    ccc     H8   8105 0.28399900   1.008000   ; qtot 361.808379
 8106         os    362    ccc     O1   8106 -0.09200600  16.000000   ; qtot 361.716373
 8107         hn    362    ccc    H17   8107 0.28399900   1.008000   ; qtot 362.000372
; residue  363 ccc rtp ccc q 1.0
 8108         c3    363    ccc     C1   8108 0.17060900  12.010000   ; qtot 362.170981
 8109         hx    363    ccc     H1   8109 0.04213200   1.008000   ; qtot 362.213113
 8110         hx    363    ccc     H2   8110 0.04213200   1.008000   ; qtot 362.255245
 8111         c3    363    ccc     C2   8111 -0.04496700  12.010000   ; qtot 362.210278
 8112         hc    363    ccc     H3   8112 0.02647500   1.008000   ; qtot 362.236753
 8113         hc    363    ccc     H4   8113 0.02647500   1.008000   ; qtot 362.263228
 8114         c3    363    ccc     C3   8114 0.04732600  12.010000   ; qtot 362.310554
 8115         h1    363    ccc     H5   8115 0.07030200   1.008000   ; qtot 362.380856
 8116         h1    363    ccc     H6   8116 0.07030200   1.008000   ; qtot 362.451158
 8117         n4    363    ccc     N1   8117 -0.21077700  14.010000   ; qtot 362.240381
 8118         hn    363    ccc     H7   8118 0.28399900   1.008000   ; qtot 362.524380
 8119         hn    363    ccc     H8   8119 0.28399900   1.008000   ; qtot 362.808379
 8120         os    363    ccc     O1   8120 -0.09200600  16.000000   ; qtot 362.716373
 8121         hn    363    ccc    H17   8121 0.28399900   1.008000   ; qtot 363.000372
; residue  364 ccc rtp ccc q 1.0
 8122         c3    364    ccc     C1   8122 0.17060900  12.010000   ; qtot 363.170981
 8123         hx    364    ccc     H1   8123 0.04213200   1.008000   ; qtot 363.213113
 8124         hx    364    ccc     H2   8124 0.04213200   1.008000   ; qtot 363.255245
 8125         c3    364    ccc     C2   8125 -0.04496700  12.010000   ; qtot 363.210278
 8126         hc    364    ccc     H3   8126 0.02647500   1.008000   ; qtot 363.236753
 8127         hc    364    ccc     H4   8127 0.02647500   1.008000   ; qtot 363.263228
 8128         c3    364    ccc     C3   8128 0.04732600  12.010000   ; qtot 363.310554
 8129         h1    364    ccc     H5   8129 0.07030200   1.008000   ; qtot 363.380856
 8130         h1    364    ccc     H6   8130 0.07030200   1.008000   ; qtot 363.451158
 8131         n4    364    ccc     N1   8131 -0.21077700  14.010000   ; qtot 363.240381
 8132         hn    364    ccc     H7   8132 0.28399900   1.008000   ; qtot 363.524380
 8133         hn    364    ccc     H8   8133 0.28399900   1.008000   ; qtot 363.808379
 8134         os    364    ccc     O1   8134 -0.09200600  16.000000   ; qtot 363.716373
 8135         hn    364    ccc    H17   8135 0.28399900   1.008000   ; qtot 364.000372
; residue  365 ccc rtp ccc q 1.0
 8136         c3    365    ccc     C1   8136 0.17060900  12.010000   ; qtot 364.170981
 8137         hx    365    ccc     H1   8137 0.04213200   1.008000   ; qtot 364.213113
 8138         hx    365    ccc     H2   8138 0.04213200   1.008000   ; qtot 364.255245
 8139         c3    365    ccc     C2   8139 -0.04496700  12.010000   ; qtot 364.210278
 8140         hc    365    ccc     H3   8140 0.02647500   1.008000   ; qtot 364.236753
 8141         hc    365    ccc     H4   8141 0.02647500   1.008000   ; qtot 364.263228
 8142         c3    365    ccc     C3   8142 0.04732600  12.010000   ; qtot 364.310554
 8143         h1    365    ccc     H5   8143 0.07030200   1.008000   ; qtot 364.380856
 8144         h1    365    ccc     H6   8144 0.07030200   1.008000   ; qtot 364.451158
 8145         n4    365    ccc     N1   8145 -0.21077700  14.010000   ; qtot 364.240381
 8146         hn    365    ccc     H7   8146 0.28399900   1.008000   ; qtot 364.524380
 8147         hn    365    ccc     H8   8147 0.28399900   1.008000   ; qtot 364.808379
 8148         os    365    ccc     O1   8148 -0.09200600  16.000000   ; qtot 364.716373
 8149         hn    365    ccc    H17   8149 0.28399900   1.008000   ; qtot 365.000372
; residue  366 ccc rtp ccc q 1.0
 8150         c3    366    ccc     C1   8150 0.17060900  12.010000   ; qtot 365.170981
 8151         hx    366    ccc     H1   8151 0.04213200   1.008000   ; qtot 365.213113
 8152         hx    366    ccc     H2   8152 0.04213200   1.008000   ; qtot 365.255245
 8153         c3    366    ccc     C2   8153 -0.04496700  12.010000   ; qtot 365.210278
 8154         hc    366    ccc     H3   8154 0.02647500   1.008000   ; qtot 365.236753
 8155         hc    366    ccc     H4   8155 0.02647500   1.008000   ; qtot 365.263228
 8156         c3    366    ccc     C3   8156 0.04732600  12.010000   ; qtot 365.310554
 8157         h1    366    ccc     H5   8157 0.07030200   1.008000   ; qtot 365.380856
 8158         h1    366    ccc     H6   8158 0.07030200   1.008000   ; qtot 365.451158
 8159         n4    366    ccc     N1   8159 -0.21077700  14.010000   ; qtot 365.240381
 8160         hn    366    ccc     H7   8160 0.28399900   1.008000   ; qtot 365.524380
 8161         hn    366    ccc     H8   8161 0.28399900   1.008000   ; qtot 365.808379
 8162         os    366    ccc     O1   8162 -0.09200600  16.000000   ; qtot 365.716373
 8163         hn    366    ccc    H17   8163 0.28399900   1.008000   ; qtot 366.000372
; residue  367 ccc rtp ccc q 1.0
 8164         c3    367    ccc     C1   8164 0.17060900  12.010000   ; qtot 366.170981
 8165         hx    367    ccc     H1   8165 0.04213200   1.008000   ; qtot 366.213113
 8166         hx    367    ccc     H2   8166 0.04213200   1.008000   ; qtot 366.255245
 8167         c3    367    ccc     C2   8167 -0.04496700  12.010000   ; qtot 366.210278
 8168         hc    367    ccc     H3   8168 0.02647500   1.008000   ; qtot 366.236753
 8169         hc    367    ccc     H4   8169 0.02647500   1.008000   ; qtot 366.263228
 8170         c3    367    ccc     C3   8170 0.04732600  12.010000   ; qtot 366.310554
 8171         h1    367    ccc     H5   8171 0.07030200   1.008000   ; qtot 366.380856
 8172         h1    367    ccc     H6   8172 0.07030200   1.008000   ; qtot 366.451158
 8173         n4    367    ccc     N1   8173 -0.21077700  14.010000   ; qtot 366.240381
 8174         hn    367    ccc     H7   8174 0.28399900   1.008000   ; qtot 366.524380
 8175         hn    367    ccc     H8   8175 0.28399900   1.008000   ; qtot 366.808379
 8176         os    367    ccc     O1   8176 -0.09200600  16.000000   ; qtot 366.716373
 8177         hn    367    ccc    H17   8177 0.28399900   1.008000   ; qtot 367.000372
; residue  368 ccc rtp ccc q 1.0
 8178         c3    368    ccc     C1   8178 0.17060900  12.010000   ; qtot 367.170981
 8179         hx    368    ccc     H1   8179 0.04213200   1.008000   ; qtot 367.213113
 8180         hx    368    ccc     H2   8180 0.04213200   1.008000   ; qtot 367.255245
 8181         c3    368    ccc     C2   8181 -0.04496700  12.010000   ; qtot 367.210278
 8182         hc    368    ccc     H3   8182 0.02647500   1.008000   ; qtot 367.236753
 8183         hc    368    ccc     H4   8183 0.02647500   1.008000   ; qtot 367.263228
 8184         c3    368    ccc     C3   8184 0.04732600  12.010000   ; qtot 367.310554
 8185         h1    368    ccc     H5   8185 0.07030200   1.008000   ; qtot 367.380856
 8186         h1    368    ccc     H6   8186 0.07030200   1.008000   ; qtot 367.451158
 8187         n4    368    ccc     N1   8187 -0.21077700  14.010000   ; qtot 367.240381
 8188         hn    368    ccc     H7   8188 0.28399900   1.008000   ; qtot 367.524380
 8189         hn    368    ccc     H8   8189 0.28399900   1.008000   ; qtot 367.808379
 8190         os    368    ccc     O1   8190 -0.09200600  16.000000   ; qtot 367.716373
 8191         hn    368    ccc    H17   8191 0.28399900   1.008000   ; qtot 368.000372
; residue  369 ccc rtp ccc q 1.0
 8192         c3    369    ccc     C1   8192 0.17060900  12.010000   ; qtot 368.170981
 8193         hx    369    ccc     H1   8193 0.04213200   1.008000   ; qtot 368.213113
 8194         hx    369    ccc     H2   8194 0.04213200   1.008000   ; qtot 368.255245
 8195         c3    369    ccc     C2   8195 -0.04496700  12.010000   ; qtot 368.210278
 8196         hc    369    ccc     H3   8196 0.02647500   1.008000   ; qtot 368.236753
 8197         hc    369    ccc     H4   8197 0.02647500   1.008000   ; qtot 368.263228
 8198         c3    369    ccc     C3   8198 0.04732600  12.010000   ; qtot 368.310554
 8199         h1    369    ccc     H5   8199 0.07030200   1.008000   ; qtot 368.380856
 8200         h1    369    ccc     H6   8200 0.07030200   1.008000   ; qtot 368.451158
 8201         n4    369    ccc     N1   8201 -0.21077700  14.010000   ; qtot 368.240381
 8202         hn    369    ccc     H7   8202 0.28399900   1.008000   ; qtot 368.524380
 8203         hn    369    ccc     H8   8203 0.28399900   1.008000   ; qtot 368.808379
 8204         os    369    ccc     O1   8204 -0.09200600  16.000000   ; qtot 368.716373
 8205         hn    369    ccc    H17   8205 0.28399900   1.008000   ; qtot 369.000372
; residue  370 ccc rtp ccc q 1.0
 8206         c3    370    ccc     C1   8206 0.17060900  12.010000   ; qtot 369.170981
 8207         hx    370    ccc     H1   8207 0.04213200   1.008000   ; qtot 369.213113
 8208         hx    370    ccc     H2   8208 0.04213200   1.008000   ; qtot 369.255245
 8209         c3    370    ccc     C2   8209 -0.04496700  12.010000   ; qtot 369.210278
 8210         hc    370    ccc     H3   8210 0.02647500   1.008000   ; qtot 369.236753
 8211         hc    370    ccc     H4   8211 0.02647500   1.008000   ; qtot 369.263228
 8212         c3    370    ccc     C3   8212 0.04732600  12.010000   ; qtot 369.310554
 8213         h1    370    ccc     H5   8213 0.07030200   1.008000   ; qtot 369.380856
 8214         h1    370    ccc     H6   8214 0.07030200   1.008000   ; qtot 369.451158
 8215         n4    370    ccc     N1   8215 -0.21077700  14.010000   ; qtot 369.240381
 8216         hn    370    ccc     H7   8216 0.28399900   1.008000   ; qtot 369.524380
 8217         hn    370    ccc     H8   8217 0.28399900   1.008000   ; qtot 369.808379
 8218         os    370    ccc     O1   8218 -0.09200600  16.000000   ; qtot 369.716373
 8219         hn    370    ccc    H17   8219 0.28399900   1.008000   ; qtot 370.000372
; residue  371 ccc rtp ccc q 1.0
 8220         c3    371    ccc     C1   8220 0.17060900  12.010000   ; qtot 370.170981
 8221         hx    371    ccc     H1   8221 0.04213200   1.008000   ; qtot 370.213113
 8222         hx    371    ccc     H2   8222 0.04213200   1.008000   ; qtot 370.255245
 8223         c3    371    ccc     C2   8223 -0.04496700  12.010000   ; qtot 370.210278
 8224         hc    371    ccc     H3   8224 0.02647500   1.008000   ; qtot 370.236753
 8225         hc    371    ccc     H4   8225 0.02647500   1.008000   ; qtot 370.263228
 8226         c3    371    ccc     C3   8226 0.04732600  12.010000   ; qtot 370.310554
 8227         h1    371    ccc     H5   8227 0.07030200   1.008000   ; qtot 370.380856
 8228         h1    371    ccc     H6   8228 0.07030200   1.008000   ; qtot 370.451158
 8229         n4    371    ccc     N1   8229 -0.21077700  14.010000   ; qtot 370.240381
 8230         hn    371    ccc     H7   8230 0.28399900   1.008000   ; qtot 370.524380
 8231         hn    371    ccc     H8   8231 0.28399900   1.008000   ; qtot 370.808379
 8232         os    371    ccc     O1   8232 -0.09200600  16.000000   ; qtot 370.716373
 8233         hn    371    ccc    H17   8233 0.28399900   1.008000   ; qtot 371.000372
; residue  372 ccc rtp ccc q 1.0
 8234         c3    372    ccc     C1   8234 0.17060900  12.010000   ; qtot 371.170981
 8235         hx    372    ccc     H1   8235 0.04213200   1.008000   ; qtot 371.213113
 8236         hx    372    ccc     H2   8236 0.04213200   1.008000   ; qtot 371.255245
 8237         c3    372    ccc     C2   8237 -0.04496700  12.010000   ; qtot 371.210278
 8238         hc    372    ccc     H3   8238 0.02647500   1.008000   ; qtot 371.236753
 8239         hc    372    ccc     H4   8239 0.02647500   1.008000   ; qtot 371.263228
 8240         c3    372    ccc     C3   8240 0.04732600  12.010000   ; qtot 371.310554
 8241         h1    372    ccc     H5   8241 0.07030200   1.008000   ; qtot 371.380856
 8242         h1    372    ccc     H6   8242 0.07030200   1.008000   ; qtot 371.451158
 8243         n4    372    ccc     N1   8243 -0.21077700  14.010000   ; qtot 371.240381
 8244         hn    372    ccc     H7   8244 0.28399900   1.008000   ; qtot 371.524380
 8245         hn    372    ccc     H8   8245 0.28399900   1.008000   ; qtot 371.808379
 8246         os    372    ccc     O1   8246 -0.09200600  16.000000   ; qtot 371.716373
 8247         hn    372    ccc    H17   8247 0.28399900   1.008000   ; qtot 372.000372
; residue  373 ccc rtp ccc q 1.0
 8248         c3    373    ccc     C1   8248 0.17060900  12.010000   ; qtot 372.170981
 8249         hx    373    ccc     H1   8249 0.04213200   1.008000   ; qtot 372.213113
 8250         hx    373    ccc     H2   8250 0.04213200   1.008000   ; qtot 372.255245
 8251         c3    373    ccc     C2   8251 -0.04496700  12.010000   ; qtot 372.210278
 8252         hc    373    ccc     H3   8252 0.02647500   1.008000   ; qtot 372.236753
 8253         hc    373    ccc     H4   8253 0.02647500   1.008000   ; qtot 372.263228
 8254         c3    373    ccc     C3   8254 0.04732600  12.010000   ; qtot 372.310554
 8255         h1    373    ccc     H5   8255 0.07030200   1.008000   ; qtot 372.380856
 8256         h1    373    ccc     H6   8256 0.07030200   1.008000   ; qtot 372.451158
 8257         n4    373    ccc     N1   8257 -0.21077700  14.010000   ; qtot 372.240381
 8258         hn    373    ccc     H7   8258 0.28399900   1.008000   ; qtot 372.524380
 8259         hn    373    ccc     H8   8259 0.28399900   1.008000   ; qtot 372.808379
 8260         os    373    ccc     O1   8260 -0.09200600  16.000000   ; qtot 372.716373
 8261         hn    373    ccc    H17   8261 0.28399900   1.008000   ; qtot 373.000372
; residue  374 ccc rtp ccc q 1.0
 8262         c3    374    ccc     C1   8262 0.17060900  12.010000   ; qtot 373.170981
 8263         hx    374    ccc     H1   8263 0.04213200   1.008000   ; qtot 373.213113
 8264         hx    374    ccc     H2   8264 0.04213200   1.008000   ; qtot 373.255245
 8265         c3    374    ccc     C2   8265 -0.04496700  12.010000   ; qtot 373.210278
 8266         hc    374    ccc     H3   8266 0.02647500   1.008000   ; qtot 373.236753
 8267         hc    374    ccc     H4   8267 0.02647500   1.008000   ; qtot 373.263228
 8268         c3    374    ccc     C3   8268 0.04732600  12.010000   ; qtot 373.310554
 8269         h1    374    ccc     H5   8269 0.07030200   1.008000   ; qtot 373.380856
 8270         h1    374    ccc     H6   8270 0.07030200   1.008000   ; qtot 373.451158
 8271         n4    374    ccc     N1   8271 -0.21077700  14.010000   ; qtot 373.240381
 8272         hn    374    ccc     H7   8272 0.28399900   1.008000   ; qtot 373.524380
 8273         hn    374    ccc     H8   8273 0.28399900   1.008000   ; qtot 373.808379
 8274         os    374    ccc     O1   8274 -0.09200600  16.000000   ; qtot 373.716373
 8275         hn    374    ccc    H17   8275 0.28399900   1.008000   ; qtot 374.000372
; residue  375 ccc rtp ccc q 1.0
 8276         c3    375    ccc     C1   8276 0.17060900  12.010000   ; qtot 374.170981
 8277         hx    375    ccc     H1   8277 0.04213200   1.008000   ; qtot 374.213113
 8278         hx    375    ccc     H2   8278 0.04213200   1.008000   ; qtot 374.255245
 8279         c3    375    ccc     C2   8279 -0.04496700  12.010000   ; qtot 374.210278
 8280         hc    375    ccc     H3   8280 0.02647500   1.008000   ; qtot 374.236753
 8281         hc    375    ccc     H4   8281 0.02647500   1.008000   ; qtot 374.263228
 8282         c3    375    ccc     C3   8282 0.04732600  12.010000   ; qtot 374.310554
 8283         h1    375    ccc     H5   8283 0.07030200   1.008000   ; qtot 374.380856
 8284         h1    375    ccc     H6   8284 0.07030200   1.008000   ; qtot 374.451158
 8285         n4    375    ccc     N1   8285 -0.21077700  14.010000   ; qtot 374.240381
 8286         hn    375    ccc     H7   8286 0.28399900   1.008000   ; qtot 374.524380
 8287         hn    375    ccc     H8   8287 0.28399900   1.008000   ; qtot 374.808379
 8288         os    375    ccc     O1   8288 -0.09200600  16.000000   ; qtot 374.716373
 8289         hn    375    ccc    H17   8289 0.28399900   1.008000   ; qtot 375.000372
; residue  376 ccc rtp ccc q 1.0
 8290         c3    376    ccc     C1   8290 0.17060900  12.010000   ; qtot 375.170981
 8291         hx    376    ccc     H1   8291 0.04213200   1.008000   ; qtot 375.213113
 8292         hx    376    ccc     H2   8292 0.04213200   1.008000   ; qtot 375.255245
 8293         c3    376    ccc     C2   8293 -0.04496700  12.010000   ; qtot 375.210278
 8294         hc    376    ccc     H3   8294 0.02647500   1.008000   ; qtot 375.236753
 8295         hc    376    ccc     H4   8295 0.02647500   1.008000   ; qtot 375.263228
 8296         c3    376    ccc     C3   8296 0.04732600  12.010000   ; qtot 375.310554
 8297         h1    376    ccc     H5   8297 0.07030200   1.008000   ; qtot 375.380856
 8298         h1    376    ccc     H6   8298 0.07030200   1.008000   ; qtot 375.451158
 8299         n4    376    ccc     N1   8299 -0.21077700  14.010000   ; qtot 375.240381
 8300         hn    376    ccc     H7   8300 0.28399900   1.008000   ; qtot 375.524380
 8301         hn    376    ccc     H8   8301 0.28399900   1.008000   ; qtot 375.808379
 8302         os    376    ccc     O1   8302 -0.09200600  16.000000   ; qtot 375.716373
 8303         hn    376    ccc    H17   8303 0.28399900   1.008000   ; qtot 376.000372
; residue  377 ccc rtp ccc q 1.0
 8304         c3    377    ccc     C1   8304 0.17060900  12.010000   ; qtot 376.170981
 8305         hx    377    ccc     H1   8305 0.04213200   1.008000   ; qtot 376.213113
 8306         hx    377    ccc     H2   8306 0.04213200   1.008000   ; qtot 376.255245
 8307         c3    377    ccc     C2   8307 -0.04496700  12.010000   ; qtot 376.210278
 8308         hc    377    ccc     H3   8308 0.02647500   1.008000   ; qtot 376.236753
 8309         hc    377    ccc     H4   8309 0.02647500   1.008000   ; qtot 376.263228
 8310         c3    377    ccc     C3   8310 0.04732600  12.010000   ; qtot 376.310554
 8311         h1    377    ccc     H5   8311 0.07030200   1.008000   ; qtot 376.380856
 8312         h1    377    ccc     H6   8312 0.07030200   1.008000   ; qtot 376.451158
 8313         n4    377    ccc     N1   8313 -0.21077700  14.010000   ; qtot 376.240381
 8314         hn    377    ccc     H7   8314 0.28399900   1.008000   ; qtot 376.524380
 8315         hn    377    ccc     H8   8315 0.28399900   1.008000   ; qtot 376.808379
 8316         os    377    ccc     O1   8316 -0.09200600  16.000000   ; qtot 376.716373
 8317         hn    377    ccc    H17   8317 0.28399900   1.008000   ; qtot 377.000372
; residue  378 ccc rtp ccc q 1.0
 8318         c3    378    ccc     C1   8318 0.17060900  12.010000   ; qtot 377.170981
 8319         hx    378    ccc     H1   8319 0.04213200   1.008000   ; qtot 377.213113
 8320         hx    378    ccc     H2   8320 0.04213200   1.008000   ; qtot 377.255245
 8321         c3    378    ccc     C2   8321 -0.04496700  12.010000   ; qtot 377.210278
 8322         hc    378    ccc     H3   8322 0.02647500   1.008000   ; qtot 377.236753
 8323         hc    378    ccc     H4   8323 0.02647500   1.008000   ; qtot 377.263228
 8324         c3    378    ccc     C3   8324 0.04732600  12.010000   ; qtot 377.310554
 8325         h1    378    ccc     H5   8325 0.07030200   1.008000   ; qtot 377.380856
 8326         h1    378    ccc     H6   8326 0.07030200   1.008000   ; qtot 377.451158
 8327         n4    378    ccc     N1   8327 -0.21077700  14.010000   ; qtot 377.240381
 8328         hn    378    ccc     H7   8328 0.28399900   1.008000   ; qtot 377.524380
 8329         hn    378    ccc     H8   8329 0.28399900   1.008000   ; qtot 377.808379
 8330         os    378    ccc     O1   8330 -0.09200600  16.000000   ; qtot 377.716373
 8331         hn    378    ccc    H17   8331 0.28399900   1.008000   ; qtot 378.000372
; residue  379 ccc rtp ccc q 1.0
 8332         c3    379    ccc     C1   8332 0.17060900  12.010000   ; qtot 378.170981
 8333         hx    379    ccc     H1   8333 0.04213200   1.008000   ; qtot 378.213113
 8334         hx    379    ccc     H2   8334 0.04213200   1.008000   ; qtot 378.255245
 8335         c3    379    ccc     C2   8335 -0.04496700  12.010000   ; qtot 378.210278
 8336         hc    379    ccc     H3   8336 0.02647500   1.008000   ; qtot 378.236753
 8337         hc    379    ccc     H4   8337 0.02647500   1.008000   ; qtot 378.263228
 8338         c3    379    ccc     C3   8338 0.04732600  12.010000   ; qtot 378.310554
 8339         h1    379    ccc     H5   8339 0.07030200   1.008000   ; qtot 378.380856
 8340         h1    379    ccc     H6   8340 0.07030200   1.008000   ; qtot 378.451158
 8341         n4    379    ccc     N1   8341 -0.21077700  14.010000   ; qtot 378.240381
 8342         hn    379    ccc     H7   8342 0.28399900   1.008000   ; qtot 378.524380
 8343         hn    379    ccc     H8   8343 0.28399900   1.008000   ; qtot 378.808379
 8344         os    379    ccc     O1   8344 -0.09200600  16.000000   ; qtot 378.716373
 8345         hn    379    ccc    H17   8345 0.28399900   1.008000   ; qtot 379.000372
; residue  380 ccc rtp ccc q 1.0
 8346         c3    380    ccc     C1   8346 0.17060900  12.010000   ; qtot 379.170981
 8347         hx    380    ccc     H1   8347 0.04213200   1.008000   ; qtot 379.213113
 8348         hx    380    ccc     H2   8348 0.04213200   1.008000   ; qtot 379.255245
 8349         c3    380    ccc     C2   8349 -0.04496700  12.010000   ; qtot 379.210278
 8350         hc    380    ccc     H3   8350 0.02647500   1.008000   ; qtot 379.236753
 8351         hc    380    ccc     H4   8351 0.02647500   1.008000   ; qtot 379.263228
 8352         c3    380    ccc     C3   8352 0.04732600  12.010000   ; qtot 379.310554
 8353         h1    380    ccc     H5   8353 0.07030200   1.008000   ; qtot 379.380856
 8354         h1    380    ccc     H6   8354 0.07030200   1.008000   ; qtot 379.451158
 8355         n4    380    ccc     N1   8355 -0.21077700  14.010000   ; qtot 379.240381
 8356         hn    380    ccc     H7   8356 0.28399900   1.008000   ; qtot 379.524380
 8357         hn    380    ccc     H8   8357 0.28399900   1.008000   ; qtot 379.808379
 8358         os    380    ccc     O1   8358 -0.09200600  16.000000   ; qtot 379.716373
 8359         hn    380    ccc    H17   8359 0.28399900   1.008000   ; qtot 380.000372
; residue  381 ccc rtp ccc q 1.0
 8360         c3    381    ccc     C1   8360 0.17060900  12.010000   ; qtot 380.170981
 8361         hx    381    ccc     H1   8361 0.04213200   1.008000   ; qtot 380.213113
 8362         hx    381    ccc     H2   8362 0.04213200   1.008000   ; qtot 380.255245
 8363         c3    381    ccc     C2   8363 -0.04496700  12.010000   ; qtot 380.210278
 8364         hc    381    ccc     H3   8364 0.02647500   1.008000   ; qtot 380.236753
 8365         hc    381    ccc     H4   8365 0.02647500   1.008000   ; qtot 380.263228
 8366         c3    381    ccc     C3   8366 0.04732600  12.010000   ; qtot 380.310554
 8367         h1    381    ccc     H5   8367 0.07030200   1.008000   ; qtot 380.380856
 8368         h1    381    ccc     H6   8368 0.07030200   1.008000   ; qtot 380.451158
 8369         n4    381    ccc     N1   8369 -0.21077700  14.010000   ; qtot 380.240381
 8370         hn    381    ccc     H7   8370 0.28399900   1.008000   ; qtot 380.524380
 8371         hn    381    ccc     H8   8371 0.28399900   1.008000   ; qtot 380.808379
 8372         os    381    ccc     O1   8372 -0.09200600  16.000000   ; qtot 380.716373
 8373         hn    381    ccc    H17   8373 0.28399900   1.008000   ; qtot 381.000372
; residue  382 ccc rtp ccc q 1.0
 8374         c3    382    ccc     C1   8374 0.17060900  12.010000   ; qtot 381.170981
 8375         hx    382    ccc     H1   8375 0.04213200   1.008000   ; qtot 381.213113
 8376         hx    382    ccc     H2   8376 0.04213200   1.008000   ; qtot 381.255245
 8377         c3    382    ccc     C2   8377 -0.04496700  12.010000   ; qtot 381.210278
 8378         hc    382    ccc     H3   8378 0.02647500   1.008000   ; qtot 381.236753
 8379         hc    382    ccc     H4   8379 0.02647500   1.008000   ; qtot 381.263228
 8380         c3    382    ccc     C3   8380 0.04732600  12.010000   ; qtot 381.310554
 8381         h1    382    ccc     H5   8381 0.07030200   1.008000   ; qtot 381.380856
 8382         h1    382    ccc     H6   8382 0.07030200   1.008000   ; qtot 381.451158
 8383         n4    382    ccc     N1   8383 -0.21077700  14.010000   ; qtot 381.240381
 8384         hn    382    ccc     H7   8384 0.28399900   1.008000   ; qtot 381.524380
 8385         hn    382    ccc     H8   8385 0.28399900   1.008000   ; qtot 381.808379
 8386         os    382    ccc     O1   8386 -0.09200600  16.000000   ; qtot 381.716373
 8387         hn    382    ccc    H17   8387 0.28399900   1.008000   ; qtot 382.000372

[ bonds ]
;    ai     aj funct         c0         c1         c2         c3
      1      2     1   0.15110 237065.440000
      1      5     1   0.15110 237065.440000
      1      8     1   0.15110 237065.440000
      2     14     1   0.15375 251793.120000
      5     17     1   0.15375 251793.120000
      8     11     1   0.15375 251793.120000
     11     23     1   0.15375 251793.120000
     14     26     1   0.15375 251793.120000
     17     20     1   0.15375 251793.120000
     20     58     1   0.14316 258236.480000
     23     88     1   0.14316 258236.480000
     26    118     1   0.14316 258236.480000
     30     31     1   0.15110 237065.440000
     30     34     1   0.15110 237065.440000
     30     37     1   0.15110 237065.440000
     31     43     1   0.15375 251793.120000
     34     46     1   0.15375 251793.120000
     37     40     1   0.15375 251793.120000
     40     49     1   0.15375 251793.120000
     43     55     1   0.15375 251793.120000
     46     52     1   0.15375 251793.120000
     49     58     1   0.14316 258236.480000
     52    148     1   0.14316 258236.480000
     55    178     1   0.14316 258236.480000
     60     61     1   0.15110 237065.440000
     60     64     1   0.15110 237065.440000
     60     67     1   0.15110 237065.440000
     61     73     1   0.15375 251793.120000
     64     76     1   0.15375 251793.120000
     67     70     1   0.15375 251793.120000
     70     79     1   0.15375 251793.120000
     73     85     1   0.15375 251793.120000
     76     82     1   0.15375 251793.120000
     79     88     1   0.14316 258236.480000
     82    208     1   0.14316 258236.480000
     85    238     1   0.14316 258236.480000
     90     91     1   0.15110 237065.440000
     90     94     1   0.15110 237065.440000
     90     97     1   0.15110 237065.440000
     91    103     1   0.15375 251793.120000
     94    106     1   0.15375 251793.120000
     97    100     1   0.15375 251793.120000
    100    109     1   0.15375 251793.120000
    103    115     1   0.15375 251793.120000
    106    112     1   0.15375 251793.120000
    109    118     1   0.14316 258236.480000
    112    268     1   0.14316 258236.480000
    115    298     1   0.14316 258236.480000
    120    121     1   0.15110 237065.440000
    120    124     1   0.15110 237065.440000
    120    127     1   0.15110 237065.440000
    121    133     1   0.15375 251793.120000
    124    136     1   0.15375 251793.120000
    127    130     1   0.15375 251793.120000
    130    139     1   0.15375 251793.120000
    133    145     1   0.15375 251793.120000
    136    142     1   0.15375 251793.120000
    139    148     1   0.14316 258236.480000
    142    328     1   0.14316 258236.480000
    145    358     1   0.14316 258236.480000
    150    151     1   0.15110 237065.440000
    150    154     1   0.15110 237065.440000
    150    157     1   0.15110 237065.440000
    151    163     1   0.15375 251793.120000
    154    166     1   0.15375 251793.120000
    157    160     1   0.15375 251793.120000
    160    169     1   0.15375 251793.120000
    163    175     1   0.15375 251793.120000
    166    172     1   0.15375 251793.120000
    169    178     1   0.14316 258236.480000
    172    388     1   0.14316 258236.480000
    175    418     1   0.14316 258236.480000
    180    181     1   0.15110 237065.440000
    180    184     1   0.15110 237065.440000
    180    187     1   0.15110 237065.440000
    181    193     1   0.15375 251793.120000
    184    196     1   0.15375 251793.120000
    187    190     1   0.15375 251793.120000
    190    199     1   0.15375 251793.120000
    193    205     1   0.15375 251793.120000
    196    202     1   0.15375 251793.120000
    199    208     1   0.14316 258236.480000
    202    448     1   0.14316 258236.480000
    205    478     1   0.14316 258236.480000
    210    211     1   0.15110 237065.440000
    210    214     1   0.15110 237065.440000
    210    217     1   0.15110 237065.440000
    211    223     1   0.15375 251793.120000
    214    226     1   0.15375 251793.120000
    217    220     1   0.15375 251793.120000
    220    229     1   0.15375 251793.120000
    223    235     1   0.15375 251793.120000
    226    232     1   0.15375 251793.120000
    229    238     1   0.14316 258236.480000
    232    508     1   0.14316 258236.480000
    235    538     1   0.14316 258236.480000
    240    241     1   0.15110 237065.440000
    240    244     1   0.15110 237065.440000
    240    247     1   0.15110 237065.440000
    241    253     1   0.15375 251793.120000
    244    256     1   0.15375 251793.120000
    247    250     1   0.15375 251793.120000
    250    259     1   0.15375 251793.120000
    253    265     1   0.15375 251793.120000
    256    262     1   0.15375 251793.120000
    259    268     1   0.14316 258236.480000
    262    568     1   0.14316 258236.480000
    265    598     1   0.14316 258236.480000
    270    271     1   0.15110 237065.440000
    270    274     1   0.15110 237065.440000
    270    277     1   0.15110 237065.440000
    271    283     1   0.15375 251793.120000
    274    286     1   0.15375 251793.120000
    277    280     1   0.15375 251793.120000
    280    289     1   0.15375 251793.120000
    283    295     1   0.15375 251793.120000
    286    292     1   0.15375 251793.120000
    289    298     1   0.14316 258236.480000
    292    628     1   0.14316 258236.480000
    295    658     1   0.14316 258236.480000
    300    301     1   0.15110 237065.440000
    300    304     1   0.15110 237065.440000
    300    307     1   0.15110 237065.440000
    301    313     1   0.15375 251793.120000
    304    316     1   0.15375 251793.120000
    307    310     1   0.15375 251793.120000
    310    319     1   0.15375 251793.120000
    313    325     1   0.15375 251793.120000
    316    322     1   0.15375 251793.120000
    319    328     1   0.14316 258236.480000
    322    688     1   0.14316 258236.480000
    325    718     1   0.14316 258236.480000
    330    331     1   0.15110 237065.440000
    330    334     1   0.15110 237065.440000
    330    337     1   0.15110 237065.440000
    331    343     1   0.15375 251793.120000
    334    346     1   0.15375 251793.120000
    337    340     1   0.15375 251793.120000
    340    349     1   0.15375 251793.120000
    343    355     1   0.15375 251793.120000
    346    352     1   0.15375 251793.120000
    349    358     1   0.14316 258236.480000
    352    748     1   0.14316 258236.480000
    355    778     1   0.14316 258236.480000
    360    361     1   0.15110 237065.440000
    360    364     1   0.15110 237065.440000
    360    367     1   0.15110 237065.440000
    361    373     1   0.15375 251793.120000
    364    376     1   0.15375 251793.120000
    367    370     1   0.15375 251793.120000
    370    379     1   0.15375 251793.120000
    373    385     1   0.15375 251793.120000
    376    382     1   0.15375 251793.120000
    379    388     1   0.14316 258236.480000
    382    808     1   0.14316 258236.480000
    385    838     1   0.14316 258236.480000
    390    391     1   0.15110 237065.440000
    390    394     1   0.15110 237065.440000
    390    397     1   0.15110 237065.440000
    391    403     1   0.15375 251793.120000
    394    406     1   0.15375 251793.120000
    397    400     1   0.15375 251793.120000
    400    409     1   0.15375 251793.120000
    403    415     1   0.15375 251793.120000
    406    412     1   0.15375 251793.120000
    409    418     1   0.14316 258236.480000
    412    868     1   0.14316 258236.480000
    415    898     1   0.14316 258236.480000
    420    421     1   0.15110 237065.440000
    420    424     1   0.15110 237065.440000
    420    427     1   0.15110 237065.440000
    421    433     1   0.15375 251793.120000
    424    436     1   0.15375 251793.120000
    427    430     1   0.15375 251793.120000
    430    439     1   0.15375 251793.120000
    433    445     1   0.15375 251793.120000
    436    442     1   0.15375 251793.120000
    439    448     1   0.14316 258236.480000
    442    928     1   0.14316 258236.480000
    445    958     1   0.14316 258236.480000
    450    451     1   0.15110 237065.440000
    450    454     1   0.15110 237065.440000
    450    457     1   0.15110 237065.440000
    451    463     1   0.15375 251793.120000
    454    466     1   0.15375 251793.120000
    457    460     1   0.15375 251793.120000
    460    469     1   0.15375 251793.120000
    463    475     1   0.15375 251793.120000
    466    472     1   0.15375 251793.120000
    469    478     1   0.14316 258236.480000
    472    988     1   0.14316 258236.480000
    475   1018     1   0.14316 258236.480000
    480    481     1   0.15110 237065.440000
    480    484     1   0.15110 237065.440000
    480    487     1   0.15110 237065.440000
    481    493     1   0.15375 251793.120000
    484    496     1   0.15375 251793.120000
    487    490     1   0.15375 251793.120000
    490    499     1   0.15375 251793.120000
    493    505     1   0.15375 251793.120000
    496    502     1   0.15375 251793.120000
    499    508     1   0.14316 258236.480000
    502   1048     1   0.14316 258236.480000
    505   1078     1   0.14316 258236.480000
    510    511     1   0.15110 237065.440000
    510    514     1   0.15110 237065.440000
    510    517     1   0.15110 237065.440000
    511    523     1   0.15375 251793.120000
    514    526     1   0.15375 251793.120000
    517    520     1   0.15375 251793.120000
    520    529     1   0.15375 251793.120000
    523    535     1   0.15375 251793.120000
    526    532     1   0.15375 251793.120000
    529    538     1   0.14316 258236.480000
    532   1108     1   0.14316 258236.480000
    535   1138     1   0.14316 258236.480000
    540    541     1   0.15110 237065.440000
    540    544     1   0.15110 237065.440000
    540    547     1   0.15110 237065.440000
    541    553     1   0.15375 251793.120000
    544    556     1   0.15375 251793.120000
    547    550     1   0.15375 251793.120000
    550    559     1   0.15375 251793.120000
    553    565     1   0.15375 251793.120000
    556    562     1   0.15375 251793.120000
    559    568     1   0.14316 258236.480000
    562   1168     1   0.14316 258236.480000
    565   1198     1   0.14316 258236.480000
    570    571     1   0.15110 237065.440000
    570    574     1   0.15110 237065.440000
    570    577     1   0.15110 237065.440000
    571    583     1   0.15375 251793.120000
    574    586     1   0.15375 251793.120000
    577    580     1   0.15375 251793.120000
    580    589     1   0.15375 251793.120000
    583    595     1   0.15375 251793.120000
    586    592     1   0.15375 251793.120000
    589    598     1   0.14316 258236.480000
    592   1228     1   0.14316 258236.480000
    595   1258     1   0.14316 258236.480000
    600    601     1   0.15110 237065.440000
    600    604     1   0.15110 237065.440000
    600    607     1   0.15110 237065.440000
    601    613     1   0.15375 251793.120000
    604    616     1   0.15375 251793.120000
    607    610     1   0.15375 251793.120000
    610    619     1   0.15375 251793.120000
    613    625     1   0.15375 251793.120000
    616    622     1   0.15375 251793.120000
    619    628     1   0.14316 258236.480000
    622   1288     1   0.14316 258236.480000
    625   1318     1   0.14316 258236.480000
    630    631     1   0.15110 237065.440000
    630    634     1   0.15110 237065.440000
    630    637     1   0.15110 237065.440000
    631    643     1   0.15375 251793.120000
    634    646     1   0.15375 251793.120000
    637    640     1   0.15375 251793.120000
    640    649     1   0.15375 251793.120000
    643    655     1   0.15375 251793.120000
    646    652     1   0.15375 251793.120000
    649    658     1   0.14316 258236.480000
    652   1348     1   0.14316 258236.480000
    655   1378     1   0.14316 258236.480000
    660    661     1   0.15110 237065.440000
    660    664     1   0.15110 237065.440000
    660    667     1   0.15110 237065.440000
    661    673     1   0.15375 251793.120000
    664    676     1   0.15375 251793.120000
    667    670     1   0.15375 251793.120000
    670    679     1   0.15375 251793.120000
    673    685     1   0.15375 251793.120000
    676    682     1   0.15375 251793.120000
    679    688     1   0.14316 258236.480000
    682   1408     1   0.14316 258236.480000
    685   1438     1   0.14316 258236.480000
    690    691     1   0.15110 237065.440000
    690    694     1   0.15110 237065.440000
    690    697     1   0.15110 237065.440000
    691    703     1   0.15375 251793.120000
    694    706     1   0.15375 251793.120000
    697    700     1   0.15375 251793.120000
    700    709     1   0.15375 251793.120000
    703    715     1   0.15375 251793.120000
    706    712     1   0.15375 251793.120000
    709    718     1   0.14316 258236.480000
    712   1468     1   0.14316 258236.480000
    715   1498     1   0.14316 258236.480000
    720    721     1   0.15110 237065.440000
    720    724     1   0.15110 237065.440000
    720    727     1   0.15110 237065.440000
    721    733     1   0.15375 251793.120000
    724    736     1   0.15375 251793.120000
    727    730     1   0.15375 251793.120000
    730    739     1   0.15375 251793.120000
    733    745     1   0.15375 251793.120000
    736    742     1   0.15375 251793.120000
    739    748     1   0.14316 258236.480000
    742   1528     1   0.14316 258236.480000
    745   1558     1   0.14316 258236.480000
    750    751     1   0.15110 237065.440000
    750    754     1   0.15110 237065.440000
    750    757     1   0.15110 237065.440000
    751    763     1   0.15375 251793.120000
    754    766     1   0.15375 251793.120000
    757    760     1   0.15375 251793.120000
    760    769     1   0.15375 251793.120000
    763    775     1   0.15375 251793.120000
    766    772     1   0.15375 251793.120000
    769    778     1   0.14316 258236.480000
    772   1588     1   0.14316 258236.480000
    775   1618     1   0.14316 258236.480000
    780    781     1   0.15110 237065.440000
    780    784     1   0.15110 237065.440000
    780    787     1   0.15110 237065.440000
    781    793     1   0.15375 251793.120000
    784    796     1   0.15375 251793.120000
    787    790     1   0.15375 251793.120000
    790    799     1   0.15375 251793.120000
    793    805     1   0.15375 251793.120000
    796    802     1   0.15375 251793.120000
    799    808     1   0.14316 258236.480000
    802   1648     1   0.14316 258236.480000
    805   1678     1   0.14316 258236.480000
    810    811     1   0.15110 237065.440000
    810    814     1   0.15110 237065.440000
    810    817     1   0.15110 237065.440000
    811    823     1   0.15375 251793.120000
    814    826     1   0.15375 251793.120000
    817    820     1   0.15375 251793.120000
    820    829     1   0.15375 251793.120000
    823    835     1   0.15375 251793.120000
    826    832     1   0.15375 251793.120000
    829    838     1   0.14316 258236.480000
    832   1708     1   0.14316 258236.480000
    835   1738     1   0.14316 258236.480000
    840    841     1   0.15110 237065.440000
    840    844     1   0.15110 237065.440000
    840    847     1   0.15110 237065.440000
    841    853     1   0.15375 251793.120000
    844    856     1   0.15375 251793.120000
    847    850     1   0.15375 251793.120000
    850    859     1   0.15375 251793.120000
    853    865     1   0.15375 251793.120000
    856    862     1   0.15375 251793.120000
    859    868     1   0.14316 258236.480000
    862   1768     1   0.14316 258236.480000
    865   1798     1   0.14316 258236.480000
    870    871     1   0.15110 237065.440000
    870    874     1   0.15110 237065.440000
    870    877     1   0.15110 237065.440000
    871    883     1   0.15375 251793.120000
    874    886     1   0.15375 251793.120000
    877    880     1   0.15375 251793.120000
    880    889     1   0.15375 251793.120000
    883    895     1   0.15375 251793.120000
    886    892     1   0.15375 251793.120000
    889    898     1   0.14316 258236.480000
    892   1828     1   0.14316 258236.480000
    895   1858     1   0.14316 258236.480000
    900    901     1   0.15110 237065.440000
    900    904     1   0.15110 237065.440000
    900    907     1   0.15110 237065.440000
    901    913     1   0.15375 251793.120000
    904    916     1   0.15375 251793.120000
    907    910     1   0.15375 251793.120000
    910    919     1   0.15375 251793.120000
    913    925     1   0.15375 251793.120000
    916    922     1   0.15375 251793.120000
    919    928     1   0.14316 258236.480000
    922   1888     1   0.14316 258236.480000
    925   1918     1   0.14316 258236.480000
    930    931     1   0.15110 237065.440000
    930    934     1   0.15110 237065.440000
    930    937     1   0.15110 237065.440000
    931    943     1   0.15375 251793.120000
    934    946     1   0.15375 251793.120000
    937    940     1   0.15375 251793.120000
    940    949     1   0.15375 251793.120000
    943    955     1   0.15375 251793.120000
    946    952     1   0.15375 251793.120000
    949    958     1   0.14316 258236.480000
    952   1948     1   0.14316 258236.480000
    955   1978     1   0.14316 258236.480000
    960    961     1   0.15110 237065.440000
    960    964     1   0.15110 237065.440000
    960    967     1   0.15110 237065.440000
    961    973     1   0.15375 251793.120000
    964    976     1   0.15375 251793.120000
    967    970     1   0.15375 251793.120000
    970    979     1   0.15375 251793.120000
    973    985     1   0.15375 251793.120000
    976    982     1   0.15375 251793.120000
    979    988     1   0.14316 258236.480000
    982   2008     1   0.14316 258236.480000
    985   2038     1   0.14316 258236.480000
    990    991     1   0.15110 237065.440000
    990    994     1   0.15110 237065.440000
    990    997     1   0.15110 237065.440000
    991   1003     1   0.15375 251793.120000
    994   1006     1   0.15375 251793.120000
    997   1000     1   0.15375 251793.120000
   1000   1009     1   0.15375 251793.120000
   1003   1015     1   0.15375 251793.120000
   1006   1012     1   0.15375 251793.120000
   1009   1018     1   0.14316 258236.480000
   1012   2068     1   0.14316 258236.480000
   1015   2098     1   0.14316 258236.480000
   1020   1021     1   0.15110 237065.440000
   1020   1024     1   0.15110 237065.440000
   1020   1027     1   0.15110 237065.440000
   1021   1033     1   0.15375 251793.120000
   1024   1036     1   0.15375 251793.120000
   1027   1030     1   0.15375 251793.120000
   1030   1039     1   0.15375 251793.120000
   1033   1045     1   0.15375 251793.120000
   1036   1042     1   0.15375 251793.120000
   1039   1048     1   0.14316 258236.480000
   1042   2128     1   0.14316 258236.480000
   1045   2158     1   0.14316 258236.480000
   1050   1051     1   0.15110 237065.440000
   1050   1054     1   0.15110 237065.440000
   1050   1057     1   0.15110 237065.440000
   1051   1063     1   0.15375 251793.120000
   1054   1066     1   0.15375 251793.120000
   1057   1060     1   0.15375 251793.120000
   1060   1069     1   0.15375 251793.120000
   1063   1075     1   0.15375 251793.120000
   1066   1072     1   0.15375 251793.120000
   1069   1078     1   0.14316 258236.480000
   1072   2188     1   0.14316 258236.480000
   1075   2218     1   0.14316 258236.480000
   1080   1081     1   0.15110 237065.440000
   1080   1084     1   0.15110 237065.440000
   1080   1087     1   0.15110 237065.440000
   1081   1093     1   0.15375 251793.120000
   1084   1096     1   0.15375 251793.120000
   1087   1090     1   0.15375 251793.120000
   1090   1099     1   0.15375 251793.120000
   1093   1105     1   0.15375 251793.120000
   1096   1102     1   0.15375 251793.120000
   1099   1108     1   0.14316 258236.480000
   1102   2248     1   0.14316 258236.480000
   1105   2278     1   0.14316 258236.480000
   1110   1111     1   0.15110 237065.440000
   1110   1114     1   0.15110 237065.440000
   1110   1117     1   0.15110 237065.440000
   1111   1123     1   0.15375 251793.120000
   1114   1126     1   0.15375 251793.120000
   1117   1120     1   0.15375 251793.120000
   1120   1129     1   0.15375 251793.120000
   1123   1135     1   0.15375 251793.120000
   1126   1132     1   0.15375 251793.120000
   1129   1138     1   0.14316 258236.480000
   1132   2308     1   0.14316 258236.480000
   1135   2338     1   0.14316 258236.480000
   1140   1141     1   0.15110 237065.440000
   1140   1144     1   0.15110 237065.440000
   1140   1147     1   0.15110 237065.440000
   1141   1153     1   0.15375 251793.120000
   1144   1156     1   0.15375 251793.120000
   1147   1150     1   0.15375 251793.120000
   1150   1159     1   0.15375 251793.120000
   1153   1165     1   0.15375 251793.120000
   1156   1162     1   0.15375 251793.120000
   1159   1168     1   0.14316 258236.480000
   1162   2368     1   0.14316 258236.480000
   1165   2398     1   0.14316 258236.480000
   1170   1171     1   0.15110 237065.440000
   1170   1174     1   0.15110 237065.440000
   1170   1177     1   0.15110 237065.440000
   1171   1183     1   0.15375 251793.120000
   1174   1186     1   0.15375 251793.120000
   1177   1180     1   0.15375 251793.120000
   1180   1189     1   0.15375 251793.120000
   1183   1195     1   0.15375 251793.120000
   1186   1192     1   0.15375 251793.120000
   1189   1198     1   0.14316 258236.480000
   1192   2428     1   0.14316 258236.480000
   1195   2458     1   0.14316 258236.480000
   1200   1201     1   0.15110 237065.440000
   1200   1204     1   0.15110 237065.440000
   1200   1207     1   0.15110 237065.440000
   1201   1213     1   0.15375 251793.120000
   1204   1216     1   0.15375 251793.120000
   1207   1210     1   0.15375 251793.120000
   1210   1219     1   0.15375 251793.120000
   1213   1225     1   0.15375 251793.120000
   1216   1222     1   0.15375 251793.120000
   1219   1228     1   0.14316 258236.480000
   1222   2488     1   0.14316 258236.480000
   1225   2518     1   0.14316 258236.480000
   1230   1231     1   0.15110 237065.440000
   1230   1234     1   0.15110 237065.440000
   1230   1237     1   0.15110 237065.440000
   1231   1243     1   0.15375 251793.120000
   1234   1246     1   0.15375 251793.120000
   1237   1240     1   0.15375 251793.120000
   1240   1249     1   0.15375 251793.120000
   1243   1255     1   0.15375 251793.120000
   1246   1252     1   0.15375 251793.120000
   1249   1258     1   0.14316 258236.480000
   1252   2548     1   0.14316 258236.480000
   1255   2578     1   0.14316 258236.480000
   1260   1261     1   0.15110 237065.440000
   1260   1264     1   0.15110 237065.440000
   1260   1267     1   0.15110 237065.440000
   1261   1273     1   0.15375 251793.120000
   1264   1276     1   0.15375 251793.120000
   1267   1270     1   0.15375 251793.120000
   1270   1279     1   0.15375 251793.120000
   1273   1285     1   0.15375 251793.120000
   1276   1282     1   0.15375 251793.120000
   1279   1288     1   0.14316 258236.480000
   1282   2608     1   0.14316 258236.480000
   1285   2638     1   0.14316 258236.480000
   1290   1291     1   0.15110 237065.440000
   1290   1294     1   0.15110 237065.440000
   1290   1297     1   0.15110 237065.440000
   1291   1303     1   0.15375 251793.120000
   1294   1306     1   0.15375 251793.120000
   1297   1300     1   0.15375 251793.120000
   1300   1309     1   0.15375 251793.120000
   1303   1315     1   0.15375 251793.120000
   1306   1312     1   0.15375 251793.120000
   1309   1318     1   0.14316 258236.480000
   1312   2668     1   0.14316 258236.480000
   1315   2698     1   0.14316 258236.480000
   1320   1321     1   0.15110 237065.440000
   1320   1324     1   0.15110 237065.440000
   1320   1327     1   0.15110 237065.440000
   1321   1333     1   0.15375 251793.120000
   1324   1336     1   0.15375 251793.120000
   1327   1330     1   0.15375 251793.120000
   1330   1339     1   0.15375 251793.120000
   1333   1345     1   0.15375 251793.120000
   1336   1342     1   0.15375 251793.120000
   1339   1348     1   0.14316 258236.480000
   1342   2728     1   0.14316 258236.480000
   1345   2758     1   0.14316 258236.480000
   1350   1351     1   0.15110 237065.440000
   1350   1354     1   0.15110 237065.440000
   1350   1357     1   0.15110 237065.440000
   1351   1363     1   0.15375 251793.120000
   1354   1366     1   0.15375 251793.120000
   1357   1360     1   0.15375 251793.120000
   1360   1369     1   0.15375 251793.120000
   1363   1375     1   0.15375 251793.120000
   1366   1372     1   0.15375 251793.120000
   1369   1378     1   0.14316 258236.480000
   1372   2788     1   0.14316 258236.480000
   1375   2818     1   0.14316 258236.480000
   1380   1381     1   0.15110 237065.440000
   1380   1384     1   0.15110 237065.440000
   1380   1387     1   0.15110 237065.440000
   1381   1393     1   0.15375 251793.120000
   1384   1396     1   0.15375 251793.120000
   1387   1390     1   0.15375 251793.120000
   1390   1399     1   0.15375 251793.120000
   1393   1405     1   0.15375 251793.120000
   1396   1402     1   0.15375 251793.120000
   1399   1408     1   0.14316 258236.480000
   1402   2848     1   0.14316 258236.480000
   1405   2878     1   0.14316 258236.480000
   1410   1411     1   0.15110 237065.440000
   1410   1414     1   0.15110 237065.440000
   1410   1417     1   0.15110 237065.440000
   1411   1423     1   0.15375 251793.120000
   1414   1426     1   0.15375 251793.120000
   1417   1420     1   0.15375 251793.120000
   1420   1429     1   0.15375 251793.120000
   1423   1435     1   0.15375 251793.120000
   1426   1432     1   0.15375 251793.120000
   1429   1438     1   0.14316 258236.480000
   1432   2908     1   0.14316 258236.480000
   1435   2938     1   0.14316 258236.480000
   1440   1441     1   0.15110 237065.440000
   1440   1444     1   0.15110 237065.440000
   1440   1447     1   0.15110 237065.440000
   1441   1453     1   0.15375 251793.120000
   1444   1456     1   0.15375 251793.120000
   1447   1450     1   0.15375 251793.120000
   1450   1459     1   0.15375 251793.120000
   1453   1465     1   0.15375 251793.120000
   1456   1462     1   0.15375 251793.120000
   1459   1468     1   0.14316 258236.480000
   1462   2968     1   0.14316 258236.480000
   1465   2998     1   0.14316 258236.480000
   1470   1471     1   0.15110 237065.440000
   1470   1474     1   0.15110 237065.440000
   1470   1477     1   0.15110 237065.440000
   1471   1483     1   0.15375 251793.120000
   1474   1486     1   0.15375 251793.120000
   1477   1480     1   0.15375 251793.120000
   1480   1489     1   0.15375 251793.120000
   1483   1495     1   0.15375 251793.120000
   1486   1492     1   0.15375 251793.120000
   1489   1498     1   0.14316 258236.480000
   1492   3028     1   0.14316 258236.480000
   1495   3058     1   0.14316 258236.480000
   1500   1501     1   0.15110 237065.440000
   1500   1504     1   0.15110 237065.440000
   1500   1507     1   0.15110 237065.440000
   1501   1513     1   0.15375 251793.120000
   1504   1516     1   0.15375 251793.120000
   1507   1510     1   0.15375 251793.120000
   1510   1519     1   0.15375 251793.120000
   1513   1525     1   0.15375 251793.120000
   1516   1522     1   0.15375 251793.120000
   1519   1528     1   0.14316 258236.480000
   1522   3088     1   0.14316 258236.480000
   1525   3118     1   0.14316 258236.480000
   1530   1531     1   0.15110 237065.440000
   1530   1534     1   0.15110 237065.440000
   1530   1537     1   0.15110 237065.440000
   1531   1543     1   0.15375 251793.120000
   1534   1546     1   0.15375 251793.120000
   1537   1540     1   0.15375 251793.120000
   1540   1549     1   0.15375 251793.120000
   1543   1555     1   0.15375 251793.120000
   1546   1552     1   0.15375 251793.120000
   1549   1558     1   0.14316 258236.480000
   1552   3148     1   0.14316 258236.480000
   1555   3178     1   0.14316 258236.480000
   1560   1561     1   0.15110 237065.440000
   1560   1564     1   0.15110 237065.440000
   1560   1567     1   0.15110 237065.440000
   1561   1573     1   0.15375 251793.120000
   1564   1576     1   0.15375 251793.120000
   1567   1570     1   0.15375 251793.120000
   1570   1579     1   0.15375 251793.120000
   1573   1585     1   0.15375 251793.120000
   1576   1582     1   0.15375 251793.120000
   1579   1588     1   0.14316 258236.480000
   1582   3208     1   0.14316 258236.480000
   1585   3238     1   0.14316 258236.480000
   1590   1591     1   0.15110 237065.440000
   1590   1594     1   0.15110 237065.440000
   1590   1597     1   0.15110 237065.440000
   1591   1603     1   0.15375 251793.120000
   1594   1606     1   0.15375 251793.120000
   1597   1600     1   0.15375 251793.120000
   1600   1609     1   0.15375 251793.120000
   1603   1615     1   0.15375 251793.120000
   1606   1612     1   0.15375 251793.120000
   1609   1618     1   0.14316 258236.480000
   1612   3268     1   0.14316 258236.480000
   1615   3298     1   0.14316 258236.480000
   1620   1621     1   0.15110 237065.440000
   1620   1624     1   0.15110 237065.440000
   1620   1627     1   0.15110 237065.440000
   1621   1633     1   0.15375 251793.120000
   1624   1636     1   0.15375 251793.120000
   1627   1630     1   0.15375 251793.120000
   1630   1639     1   0.15375 251793.120000
   1633   1645     1   0.15375 251793.120000
   1636   1642     1   0.15375 251793.120000
   1639   1648     1   0.14316 258236.480000
   1642   3328     1   0.14316 258236.480000
   1645   3358     1   0.14316 258236.480000
   1650   1651     1   0.15110 237065.440000
   1650   1654     1   0.15110 237065.440000
   1650   1657     1   0.15110 237065.440000
   1651   1663     1   0.15375 251793.120000
   1654   1666     1   0.15375 251793.120000
   1657   1660     1   0.15375 251793.120000
   1660   1669     1   0.15375 251793.120000
   1663   1675     1   0.15375 251793.120000
   1666   1672     1   0.15375 251793.120000
   1669   1678     1   0.14316 258236.480000
   1672   3388     1   0.14316 258236.480000
   1675   3418     1   0.14316 258236.480000
   1680   1681     1   0.15110 237065.440000
   1680   1684     1   0.15110 237065.440000
   1680   1687     1   0.15110 237065.440000
   1681   1693     1   0.15375 251793.120000
   1684   1696     1   0.15375 251793.120000
   1687   1690     1   0.15375 251793.120000
   1690   1699     1   0.15375 251793.120000
   1693   1705     1   0.15375 251793.120000
   1696   1702     1   0.15375 251793.120000
   1699   1708     1   0.14316 258236.480000
   1702   3448     1   0.14316 258236.480000
   1705   3478     1   0.14316 258236.480000
   1710   1711     1   0.15110 237065.440000
   1710   1714     1   0.15110 237065.440000
   1710   1717     1   0.15110 237065.440000
   1711   1723     1   0.15375 251793.120000
   1714   1726     1   0.15375 251793.120000
   1717   1720     1   0.15375 251793.120000
   1720   1729     1   0.15375 251793.120000
   1723   1735     1   0.15375 251793.120000
   1726   1732     1   0.15375 251793.120000
   1729   1738     1   0.14316 258236.480000
   1732   3508     1   0.14316 258236.480000
   1735   3538     1   0.14316 258236.480000
   1740   1741     1   0.15110 237065.440000
   1740   1744     1   0.15110 237065.440000
   1740   1747     1   0.15110 237065.440000
   1741   1753     1   0.15375 251793.120000
   1744   1756     1   0.15375 251793.120000
   1747   1750     1   0.15375 251793.120000
   1750   1759     1   0.15375 251793.120000
   1753   1765     1   0.15375 251793.120000
   1756   1762     1   0.15375 251793.120000
   1759   1768     1   0.14316 258236.480000
   1762   3568     1   0.14316 258236.480000
   1765   3598     1   0.14316 258236.480000
   1770   1771     1   0.15110 237065.440000
   1770   1774     1   0.15110 237065.440000
   1770   1777     1   0.15110 237065.440000
   1771   1783     1   0.15375 251793.120000
   1774   1786     1   0.15375 251793.120000
   1777   1780     1   0.15375 251793.120000
   1780   1789     1   0.15375 251793.120000
   1783   1795     1   0.15375 251793.120000
   1786   1792     1   0.15375 251793.120000
   1789   1798     1   0.14316 258236.480000
   1792   3628     1   0.14316 258236.480000
   1795   3658     1   0.14316 258236.480000
   1800   1801     1   0.15110 237065.440000
   1800   1804     1   0.15110 237065.440000
   1800   1807     1   0.15110 237065.440000
   1801   1813     1   0.15375 251793.120000
   1804   1816     1   0.15375 251793.120000
   1807   1810     1   0.15375 251793.120000
   1810   1819     1   0.15375 251793.120000
   1813   1825     1   0.15375 251793.120000
   1816   1822     1   0.15375 251793.120000
   1819   1828     1   0.14316 258236.480000
   1822   3688     1   0.14316 258236.480000
   1825   3718     1   0.14316 258236.480000
   1830   1831     1   0.15110 237065.440000
   1830   1834     1   0.15110 237065.440000
   1830   1837     1   0.15110 237065.440000
   1831   1843     1   0.15375 251793.120000
   1834   1846     1   0.15375 251793.120000
   1837   1840     1   0.15375 251793.120000
   1840   1849     1   0.15375 251793.120000
   1843   1855     1   0.15375 251793.120000
   1846   1852     1   0.15375 251793.120000
   1849   1858     1   0.14316 258236.480000
   1852   3748     1   0.14316 258236.480000
   1855   3778     1   0.14316 258236.480000
   1860   1861     1   0.15110 237065.440000
   1860   1864     1   0.15110 237065.440000
   1860   1867     1   0.15110 237065.440000
   1861   1873     1   0.15375 251793.120000
   1864   1876     1   0.15375 251793.120000
   1867   1870     1   0.15375 251793.120000
   1870   1879     1   0.15375 251793.120000
   1873   1885     1   0.15375 251793.120000
   1876   1882     1   0.15375 251793.120000
   1879   1888     1   0.14316 258236.480000
   1882   3808     1   0.14316 258236.480000
   1885   3838     1   0.14316 258236.480000
   1890   1891     1   0.15110 237065.440000
   1890   1894     1   0.15110 237065.440000
   1890   1897     1   0.15110 237065.440000
   1891   1903     1   0.15375 251793.120000
   1894   1906     1   0.15375 251793.120000
   1897   1900     1   0.15375 251793.120000
   1900   1909     1   0.15375 251793.120000
   1903   1915     1   0.15375 251793.120000
   1906   1912     1   0.15375 251793.120000
   1909   1918     1   0.14316 258236.480000
   1912   3868     1   0.14316 258236.480000
   1915   3898     1   0.14316 258236.480000
   1920   1921     1   0.15110 237065.440000
   1920   1924     1   0.15110 237065.440000
   1920   1927     1   0.15110 237065.440000
   1921   1933     1   0.15375 251793.120000
   1924   1936     1   0.15375 251793.120000
   1927   1930     1   0.15375 251793.120000
   1930   1939     1   0.15375 251793.120000
   1933   1945     1   0.15375 251793.120000
   1936   1942     1   0.15375 251793.120000
   1939   1948     1   0.14316 258236.480000
   1942   3928     1   0.14316 258236.480000
   1945   3958     1   0.14316 258236.480000
   1950   1951     1   0.15110 237065.440000
   1950   1954     1   0.15110 237065.440000
   1950   1957     1   0.15110 237065.440000
   1951   1963     1   0.15375 251793.120000
   1954   1966     1   0.15375 251793.120000
   1957   1960     1   0.15375 251793.120000
   1960   1969     1   0.15375 251793.120000
   1963   1975     1   0.15375 251793.120000
   1966   1972     1   0.15375 251793.120000
   1969   1978     1   0.14316 258236.480000
   1972   3988     1   0.14316 258236.480000
   1975   4018     1   0.14316 258236.480000
   1980   1981     1   0.15110 237065.440000
   1980   1984     1   0.15110 237065.440000
   1980   1987     1   0.15110 237065.440000
   1981   1993     1   0.15375 251793.120000
   1984   1996     1   0.15375 251793.120000
   1987   1990     1   0.15375 251793.120000
   1990   1999     1   0.15375 251793.120000
   1993   2005     1   0.15375 251793.120000
   1996   2002     1   0.15375 251793.120000
   1999   2008     1   0.14316 258236.480000
   2002   4048     1   0.14316 258236.480000
   2005   4078     1   0.14316 258236.480000
   2010   2011     1   0.15110 237065.440000
   2010   2014     1   0.15110 237065.440000
   2010   2017     1   0.15110 237065.440000
   2011   2023     1   0.15375 251793.120000
   2014   2026     1   0.15375 251793.120000
   2017   2020     1   0.15375 251793.120000
   2020   2029     1   0.15375 251793.120000
   2023   2035     1   0.15375 251793.120000
   2026   2032     1   0.15375 251793.120000
   2029   2038     1   0.14316 258236.480000
   2032   4108     1   0.14316 258236.480000
   2035   4138     1   0.14316 258236.480000
   2040   2041     1   0.15110 237065.440000
   2040   2044     1   0.15110 237065.440000
   2040   2047     1   0.15110 237065.440000
   2041   2053     1   0.15375 251793.120000
   2044   2056     1   0.15375 251793.120000
   2047   2050     1   0.15375 251793.120000
   2050   2059     1   0.15375 251793.120000
   2053   2065     1   0.15375 251793.120000
   2056   2062     1   0.15375 251793.120000
   2059   2068     1   0.14316 258236.480000
   2062   4168     1   0.14316 258236.480000
   2065   4198     1   0.14316 258236.480000
   2070   2071     1   0.15110 237065.440000
   2070   2074     1   0.15110 237065.440000
   2070   2077     1   0.15110 237065.440000
   2071   2083     1   0.15375 251793.120000
   2074   2086     1   0.15375 251793.120000
   2077   2080     1   0.15375 251793.120000
   2080   2089     1   0.15375 251793.120000
   2083   2095     1   0.15375 251793.120000
   2086   2092     1   0.15375 251793.120000
   2089   2098     1   0.14316 258236.480000
   2092   4228     1   0.14316 258236.480000
   2095   4258     1   0.14316 258236.480000
   2100   2101     1   0.15110 237065.440000
   2100   2104     1   0.15110 237065.440000
   2100   2107     1   0.15110 237065.440000
   2101   2113     1   0.15375 251793.120000
   2104   2116     1   0.15375 251793.120000
   2107   2110     1   0.15375 251793.120000
   2110   2119     1   0.15375 251793.120000
   2113   2125     1   0.15375 251793.120000
   2116   2122     1   0.15375 251793.120000
   2119   2128     1   0.14316 258236.480000
   2122   4288     1   0.14316 258236.480000
   2125   4318     1   0.14316 258236.480000
   2130   2131     1   0.15110 237065.440000
   2130   2134     1   0.15110 237065.440000
   2130   2137     1   0.15110 237065.440000
   2131   2143     1   0.15375 251793.120000
   2134   2146     1   0.15375 251793.120000
   2137   2140     1   0.15375 251793.120000
   2140   2149     1   0.15375 251793.120000
   2143   2155     1   0.15375 251793.120000
   2146   2152     1   0.15375 251793.120000
   2149   2158     1   0.14316 258236.480000
   2152   4348     1   0.14316 258236.480000
   2155   4378     1   0.14316 258236.480000
   2160   2161     1   0.15110 237065.440000
   2160   2164     1   0.15110 237065.440000
   2160   2167     1   0.15110 237065.440000
   2161   2173     1   0.15375 251793.120000
   2164   2176     1   0.15375 251793.120000
   2167   2170     1   0.15375 251793.120000
   2170   2179     1   0.15375 251793.120000
   2173   2185     1   0.15375 251793.120000
   2176   2182     1   0.15375 251793.120000
   2179   2188     1   0.14316 258236.480000
   2182   4408     1   0.14316 258236.480000
   2185   4438     1   0.14316 258236.480000
   2190   2191     1   0.15110 237065.440000
   2190   2194     1   0.15110 237065.440000
   2190   2197     1   0.15110 237065.440000
   2191   2203     1   0.15375 251793.120000
   2194   2206     1   0.15375 251793.120000
   2197   2200     1   0.15375 251793.120000
   2200   2209     1   0.15375 251793.120000
   2203   2215     1   0.15375 251793.120000
   2206   2212     1   0.15375 251793.120000
   2209   2218     1   0.14316 258236.480000
   2212   4468     1   0.14316 258236.480000
   2215   4498     1   0.14316 258236.480000
   2220   2221     1   0.15110 237065.440000
   2220   2224     1   0.15110 237065.440000
   2220   2227     1   0.15110 237065.440000
   2221   2233     1   0.15375 251793.120000
   2224   2236     1   0.15375 251793.120000
   2227   2230     1   0.15375 251793.120000
   2230   2239     1   0.15375 251793.120000
   2233   2245     1   0.15375 251793.120000
   2236   2242     1   0.15375 251793.120000
   2239   2248     1   0.14316 258236.480000
   2242   4528     1   0.14316 258236.480000
   2245   4558     1   0.14316 258236.480000
   2250   2251     1   0.15110 237065.440000
   2250   2254     1   0.15110 237065.440000
   2250   2257     1   0.15110 237065.440000
   2251   2263     1   0.15375 251793.120000
   2254   2266     1   0.15375 251793.120000
   2257   2260     1   0.15375 251793.120000
   2260   2269     1   0.15375 251793.120000
   2263   2275     1   0.15375 251793.120000
   2266   2272     1   0.15375 251793.120000
   2269   2278     1   0.14316 258236.480000
   2272   4588     1   0.14316 258236.480000
   2275   4618     1   0.14316 258236.480000
   2280   2281     1   0.15110 237065.440000
   2280   2284     1   0.15110 237065.440000
   2280   2287     1   0.15110 237065.440000
   2281   2293     1   0.15375 251793.120000
   2284   2296     1   0.15375 251793.120000
   2287   2290     1   0.15375 251793.120000
   2290   2299     1   0.15375 251793.120000
   2293   2305     1   0.15375 251793.120000
   2296   2302     1   0.15375 251793.120000
   2299   2308     1   0.14316 258236.480000
   2302   4648     1   0.14316 258236.480000
   2305   4678     1   0.14316 258236.480000
   2310   2311     1   0.15110 237065.440000
   2310   2314     1   0.15110 237065.440000
   2310   2317     1   0.15110 237065.440000
   2311   2323     1   0.15375 251793.120000
   2314   2326     1   0.15375 251793.120000
   2317   2320     1   0.15375 251793.120000
   2320   2329     1   0.15375 251793.120000
   2323   2335     1   0.15375 251793.120000
   2326   2332     1   0.15375 251793.120000
   2329   2338     1   0.14316 258236.480000
   2332   4708     1   0.14316 258236.480000
   2335   4738     1   0.14316 258236.480000
   2340   2341     1   0.15110 237065.440000
   2340   2344     1   0.15110 237065.440000
   2340   2347     1   0.15110 237065.440000
   2341   2353     1   0.15375 251793.120000
   2344   2356     1   0.15375 251793.120000
   2347   2350     1   0.15375 251793.120000
   2350   2359     1   0.15375 251793.120000
   2353   2365     1   0.15375 251793.120000
   2356   2362     1   0.15375 251793.120000
   2359   2368     1   0.14316 258236.480000
   2362   4768     1   0.14316 258236.480000
   2365   4798     1   0.14316 258236.480000
   2370   2371     1   0.15110 237065.440000
   2370   2374     1   0.15110 237065.440000
   2370   2377     1   0.15110 237065.440000
   2371   2383     1   0.15375 251793.120000
   2374   2386     1   0.15375 251793.120000
   2377   2380     1   0.15375 251793.120000
   2380   2389     1   0.15375 251793.120000
   2383   2395     1   0.15375 251793.120000
   2386   2392     1   0.15375 251793.120000
   2389   2398     1   0.14316 258236.480000
   2392   4828     1   0.14316 258236.480000
   2395   4858     1   0.14316 258236.480000
   2400   2401     1   0.15110 237065.440000
   2400   2404     1   0.15110 237065.440000
   2400   2407     1   0.15110 237065.440000
   2401   2413     1   0.15375 251793.120000
   2404   2416     1   0.15375 251793.120000
   2407   2410     1   0.15375 251793.120000
   2410   2419     1   0.15375 251793.120000
   2413   2425     1   0.15375 251793.120000
   2416   2422     1   0.15375 251793.120000
   2419   2428     1   0.14316 258236.480000
   2422   4888     1   0.14316 258236.480000
   2425   4918     1   0.14316 258236.480000
   2430   2431     1   0.15110 237065.440000
   2430   2434     1   0.15110 237065.440000
   2430   2437     1   0.15110 237065.440000
   2431   2443     1   0.15375 251793.120000
   2434   2446     1   0.15375 251793.120000
   2437   2440     1   0.15375 251793.120000
   2440   2449     1   0.15375 251793.120000
   2443   2455     1   0.15375 251793.120000
   2446   2452     1   0.15375 251793.120000
   2449   2458     1   0.14316 258236.480000
   2452   4948     1   0.14316 258236.480000
   2455   4978     1   0.14316 258236.480000
   2460   2461     1   0.15110 237065.440000
   2460   2464     1   0.15110 237065.440000
   2460   2467     1   0.15110 237065.440000
   2461   2473     1   0.15375 251793.120000
   2464   2476     1   0.15375 251793.120000
   2467   2470     1   0.15375 251793.120000
   2470   2479     1   0.15375 251793.120000
   2473   2485     1   0.15375 251793.120000
   2476   2482     1   0.15375 251793.120000
   2479   2488     1   0.14316 258236.480000
   2482   5008     1   0.14316 258236.480000
   2485   5038     1   0.14316 258236.480000
   2490   2491     1   0.15110 237065.440000
   2490   2494     1   0.15110 237065.440000
   2490   2497     1   0.15110 237065.440000
   2491   2503     1   0.15375 251793.120000
   2494   2506     1   0.15375 251793.120000
   2497   2500     1   0.15375 251793.120000
   2500   2509     1   0.15375 251793.120000
   2503   2515     1   0.15375 251793.120000
   2506   2512     1   0.15375 251793.120000
   2509   2518     1   0.14316 258236.480000
   2512   5068     1   0.14316 258236.480000
   2515   5098     1   0.14316 258236.480000
   2520   2521     1   0.15110 237065.440000
   2520   2524     1   0.15110 237065.440000
   2520   2527     1   0.15110 237065.440000
   2521   2533     1   0.15375 251793.120000
   2524   2536     1   0.15375 251793.120000
   2527   2530     1   0.15375 251793.120000
   2530   2539     1   0.15375 251793.120000
   2533   2545     1   0.15375 251793.120000
   2536   2542     1   0.15375 251793.120000
   2539   2548     1   0.14316 258236.480000
   2542   5128     1   0.14316 258236.480000
   2545   5158     1   0.14316 258236.480000
   2550   2551     1   0.15110 237065.440000
   2550   2554     1   0.15110 237065.440000
   2550   2557     1   0.15110 237065.440000
   2551   2563     1   0.15375 251793.120000
   2554   2566     1   0.15375 251793.120000
   2557   2560     1   0.15375 251793.120000
   2560   2569     1   0.15375 251793.120000
   2563   2575     1   0.15375 251793.120000
   2566   2572     1   0.15375 251793.120000
   2569   2578     1   0.14316 258236.480000
   2572   5188     1   0.14316 258236.480000
   2575   5218     1   0.14316 258236.480000
   2580   2581     1   0.15110 237065.440000
   2580   2584     1   0.15110 237065.440000
   2580   2587     1   0.15110 237065.440000
   2581   2593     1   0.15375 251793.120000
   2584   2596     1   0.15375 251793.120000
   2587   2590     1   0.15375 251793.120000
   2590   2599     1   0.15375 251793.120000
   2593   2605     1   0.15375 251793.120000
   2596   2602     1   0.15375 251793.120000
   2599   2608     1   0.14316 258236.480000
   2602   5248     1   0.14316 258236.480000
   2605   5278     1   0.14316 258236.480000
   2610   2611     1   0.15110 237065.440000
   2610   2614     1   0.15110 237065.440000
   2610   2617     1   0.15110 237065.440000
   2611   2623     1   0.15375 251793.120000
   2614   2626     1   0.15375 251793.120000
   2617   2620     1   0.15375 251793.120000
   2620   2629     1   0.15375 251793.120000
   2623   2635     1   0.15375 251793.120000
   2626   2632     1   0.15375 251793.120000
   2629   2638     1   0.14316 258236.480000
   2632   5308     1   0.14316 258236.480000
   2635   5338     1   0.14316 258236.480000
   2640   2641     1   0.15110 237065.440000
   2640   2644     1   0.15110 237065.440000
   2640   2647     1   0.15110 237065.440000
   2641   2653     1   0.15375 251793.120000
   2644   2656     1   0.15375 251793.120000
   2647   2650     1   0.15375 251793.120000
   2650   2659     1   0.15375 251793.120000
   2653   2665     1   0.15375 251793.120000
   2656   2662     1   0.15375 251793.120000
   2659   2668     1   0.14316 258236.480000
   2662   5368     1   0.14316 258236.480000
   2665   5398     1   0.14316 258236.480000
   2670   2671     1   0.15110 237065.440000
   2670   2674     1   0.15110 237065.440000
   2670   2677     1   0.15110 237065.440000
   2671   2683     1   0.15375 251793.120000
   2674   2686     1   0.15375 251793.120000
   2677   2680     1   0.15375 251793.120000
   2680   2689     1   0.15375 251793.120000
   2683   2695     1   0.15375 251793.120000
   2686   2692     1   0.15375 251793.120000
   2689   2698     1   0.14316 258236.480000
   2692   5428     1   0.14316 258236.480000
   2695   5458     1   0.14316 258236.480000
   2700   2701     1   0.15110 237065.440000
   2700   2704     1   0.15110 237065.440000
   2700   2707     1   0.15110 237065.440000
   2701   2713     1   0.15375 251793.120000
   2704   2716     1   0.15375 251793.120000
   2707   2710     1   0.15375 251793.120000
   2710   2719     1   0.15375 251793.120000
   2713   2725     1   0.15375 251793.120000
   2716   2722     1   0.15375 251793.120000
   2719   2728     1   0.14316 258236.480000
   2722   5488     1   0.14316 258236.480000
   2725   5518     1   0.14316 258236.480000
   2730   2731     1   0.15110 237065.440000
   2730   2734     1   0.15110 237065.440000
   2730   2737     1   0.15110 237065.440000
   2731   2743     1   0.15375 251793.120000
   2734   2746     1   0.15375 251793.120000
   2737   2740     1   0.15375 251793.120000
   2740   2749     1   0.15375 251793.120000
   2743   2755     1   0.15375 251793.120000
   2746   2752     1   0.15375 251793.120000
   2749   2758     1   0.14316 258236.480000
   2752   5548     1   0.14316 258236.480000
   2755   5578     1   0.14316 258236.480000
   2760   2761     1   0.15110 237065.440000
   2760   2764     1   0.15110 237065.440000
   2760   2767     1   0.15110 237065.440000
   2761   2773     1   0.15375 251793.120000
   2764   2776     1   0.15375 251793.120000
   2767   2770     1   0.15375 251793.120000
   2770   2779     1   0.15375 251793.120000
   2773   2785     1   0.15375 251793.120000
   2776   2782     1   0.15375 251793.120000
   2779   2788     1   0.14316 258236.480000
   2782   5608     1   0.14316 258236.480000
   2785   5638     1   0.14316 258236.480000
   2790   2791     1   0.15110 237065.440000
   2790   2794     1   0.15110 237065.440000
   2790   2797     1   0.15110 237065.440000
   2791   2803     1   0.15375 251793.120000
   2794   2806     1   0.15375 251793.120000
   2797   2800     1   0.15375 251793.120000
   2800   2809     1   0.15375 251793.120000
   2803   2815     1   0.15375 251793.120000
   2806   2812     1   0.15375 251793.120000
   2809   2818     1   0.14316 258236.480000
   2812   5668     1   0.14316 258236.480000
   2815   5698     1   0.14316 258236.480000
   2820   2821     1   0.15110 237065.440000
   2820   2824     1   0.15110 237065.440000
   2820   2827     1   0.15110 237065.440000
   2821   2833     1   0.15375 251793.120000
   2824   2836     1   0.15375 251793.120000
   2827   2830     1   0.15375 251793.120000
   2830   2839     1   0.15375 251793.120000
   2833   2845     1   0.15375 251793.120000
   2836   2842     1   0.15375 251793.120000
   2839   2848     1   0.14316 258236.480000
   2842   5712     1   0.14316 258236.480000
   2845   5726     1   0.14316 258236.480000
   2850   2851     1   0.15110 237065.440000
   2850   2854     1   0.15110 237065.440000
   2850   2857     1   0.15110 237065.440000
   2851   2863     1   0.15375 251793.120000
   2854   2866     1   0.15375 251793.120000
   2857   2860     1   0.15375 251793.120000
   2860   2869     1   0.15375 251793.120000
   2863   2875     1   0.15375 251793.120000
   2866   2872     1   0.15375 251793.120000
   2869   2878     1   0.14316 258236.480000
   2872   5740     1   0.14316 258236.480000
   2875   5754     1   0.14316 258236.480000
   2880   2881     1   0.15110 237065.440000
   2880   2884     1   0.15110 237065.440000
   2880   2887     1   0.15110 237065.440000
   2881   2893     1   0.15375 251793.120000
   2884   2896     1   0.15375 251793.120000
   2887   2890     1   0.15375 251793.120000
   2890   2899     1   0.15375 251793.120000
   2893   2905     1   0.15375 251793.120000
   2896   2902     1   0.15375 251793.120000
   2899   2908     1   0.14316 258236.480000
   2902   5768     1   0.14316 258236.480000
   2905   5782     1   0.14316 258236.480000
   2910   2911     1   0.15110 237065.440000
   2910   2914     1   0.15110 237065.440000
   2910   2917     1   0.15110 237065.440000
   2911   2923     1   0.15375 251793.120000
   2914   2926     1   0.15375 251793.120000
   2917   2920     1   0.15375 251793.120000
   2920   2929     1   0.15375 251793.120000
   2923   2935     1   0.15375 251793.120000
   2926   2932     1   0.15375 251793.120000
   2929   2938     1   0.14316 258236.480000
   2932   5796     1   0.14316 258236.480000
   2935   5810     1   0.14316 258236.480000
   2940   2941     1   0.15110 237065.440000
   2940   2944     1   0.15110 237065.440000
   2940   2947     1   0.15110 237065.440000
   2941   2953     1   0.15375 251793.120000
   2944   2956     1   0.15375 251793.120000
   2947   2950     1   0.15375 251793.120000
   2950   2959     1   0.15375 251793.120000
   2953   2965     1   0.15375 251793.120000
   2956   2962     1   0.15375 251793.120000
   2959   2968     1   0.14316 258236.480000
   2962   5824     1   0.14316 258236.480000
   2965   5838     1   0.14316 258236.480000
   2970   2971     1   0.15110 237065.440000
   2970   2974     1   0.15110 237065.440000
   2970   2977     1   0.15110 237065.440000
   2971   2983     1   0.15375 251793.120000
   2974   2986     1   0.15375 251793.120000
   2977   2980     1   0.15375 251793.120000
   2980   2989     1   0.15375 251793.120000
   2983   2995     1   0.15375 251793.120000
   2986   2992     1   0.15375 251793.120000
   2989   2998     1   0.14316 258236.480000
   2992   5852     1   0.14316 258236.480000
   2995   5866     1   0.14316 258236.480000
   3000   3001     1   0.15110 237065.440000
   3000   3004     1   0.15110 237065.440000
   3000   3007     1   0.15110 237065.440000
   3001   3013     1   0.15375 251793.120000
   3004   3016     1   0.15375 251793.120000
   3007   3010     1   0.15375 251793.120000
   3010   3019     1   0.15375 251793.120000
   3013   3025     1   0.15375 251793.120000
   3016   3022     1   0.15375 251793.120000
   3019   3028     1   0.14316 258236.480000
   3022   5880     1   0.14316 258236.480000
   3025   5894     1   0.14316 258236.480000
   3030   3031     1   0.15110 237065.440000
   3030   3034     1   0.15110 237065.440000
   3030   3037     1   0.15110 237065.440000
   3031   3043     1   0.15375 251793.120000
   3034   3046     1   0.15375 251793.120000
   3037   3040     1   0.15375 251793.120000
   3040   3049     1   0.15375 251793.120000
   3043   3055     1   0.15375 251793.120000
   3046   3052     1   0.15375 251793.120000
   3049   3058     1   0.14316 258236.480000
   3052   5908     1   0.14316 258236.480000
   3055   5922     1   0.14316 258236.480000
   3060   3061     1   0.15110 237065.440000
   3060   3064     1   0.15110 237065.440000
   3060   3067     1   0.15110 237065.440000
   3061   3073     1   0.15375 251793.120000
   3064   3076     1   0.15375 251793.120000
   3067   3070     1   0.15375 251793.120000
   3070   3079     1   0.15375 251793.120000
   3073   3085     1   0.15375 251793.120000
   3076   3082     1   0.15375 251793.120000
   3079   3088     1   0.14316 258236.480000
   3082   5936     1   0.14316 258236.480000
   3085   5950     1   0.14316 258236.480000
   3090   3091     1   0.15110 237065.440000
   3090   3094     1   0.15110 237065.440000
   3090   3097     1   0.15110 237065.440000
   3091   3103     1   0.15375 251793.120000
   3094   3106     1   0.15375 251793.120000
   3097   3100     1   0.15375 251793.120000
   3100   3109     1   0.15375 251793.120000
   3103   3115     1   0.15375 251793.120000
   3106   3112     1   0.15375 251793.120000
   3109   3118     1   0.14316 258236.480000
   3112   5964     1   0.14316 258236.480000
   3115   5978     1   0.14316 258236.480000
   3120   3121     1   0.15110 237065.440000
   3120   3124     1   0.15110 237065.440000
   3120   3127     1   0.15110 237065.440000
   3121   3133     1   0.15375 251793.120000
   3124   3136     1   0.15375 251793.120000
   3127   3130     1   0.15375 251793.120000
   3130   3139     1   0.15375 251793.120000
   3133   3145     1   0.15375 251793.120000
   3136   3142     1   0.15375 251793.120000
   3139   3148     1   0.14316 258236.480000
   3142   5992     1   0.14316 258236.480000
   3145   6006     1   0.14316 258236.480000
   3150   3151     1   0.15110 237065.440000
   3150   3154     1   0.15110 237065.440000
   3150   3157     1   0.15110 237065.440000
   3151   3163     1   0.15375 251793.120000
   3154   3166     1   0.15375 251793.120000
   3157   3160     1   0.15375 251793.120000
   3160   3169     1   0.15375 251793.120000
   3163   3175     1   0.15375 251793.120000
   3166   3172     1   0.15375 251793.120000
   3169   3178     1   0.14316 258236.480000
   3172   6020     1   0.14316 258236.480000
   3175   6034     1   0.14316 258236.480000
   3180   3181     1   0.15110 237065.440000
   3180   3184     1   0.15110 237065.440000
   3180   3187     1   0.15110 237065.440000
   3181   3193     1   0.15375 251793.120000
   3184   3196     1   0.15375 251793.120000
   3187   3190     1   0.15375 251793.120000
   3190   3199     1   0.15375 251793.120000
   3193   3205     1   0.15375 251793.120000
   3196   3202     1   0.15375 251793.120000
   3199   3208     1   0.14316 258236.480000
   3202   6048     1   0.14316 258236.480000
   3205   6062     1   0.14316 258236.480000
   3210   3211     1   0.15110 237065.440000
   3210   3214     1   0.15110 237065.440000
   3210   3217     1   0.15110 237065.440000
   3211   3223     1   0.15375 251793.120000
   3214   3226     1   0.15375 251793.120000
   3217   3220     1   0.15375 251793.120000
   3220   3229     1   0.15375 251793.120000
   3223   3235     1   0.15375 251793.120000
   3226   3232     1   0.15375 251793.120000
   3229   3238     1   0.14316 258236.480000
   3232   6076     1   0.14316 258236.480000
   3235   6090     1   0.14316 258236.480000
   3240   3241     1   0.15110 237065.440000
   3240   3244     1   0.15110 237065.440000
   3240   3247     1   0.15110 237065.440000
   3241   3253     1   0.15375 251793.120000
   3244   3256     1   0.15375 251793.120000
   3247   3250     1   0.15375 251793.120000
   3250   3259     1   0.15375 251793.120000
   3253   3265     1   0.15375 251793.120000
   3256   3262     1   0.15375 251793.120000
   3259   3268     1   0.14316 258236.480000
   3262   6104     1   0.14316 258236.480000
   3265   6118     1   0.14316 258236.480000
   3270   3271     1   0.15110 237065.440000
   3270   3274     1   0.15110 237065.440000
   3270   3277     1   0.15110 237065.440000
   3271   3283     1   0.15375 251793.120000
   3274   3286     1   0.15375 251793.120000
   3277   3280     1   0.15375 251793.120000
   3280   3289     1   0.15375 251793.120000
   3283   3295     1   0.15375 251793.120000
   3286   3292     1   0.15375 251793.120000
   3289   3298     1   0.14316 258236.480000
   3292   6132     1   0.14316 258236.480000
   3295   6146     1   0.14316 258236.480000
   3300   3301     1   0.15110 237065.440000
   3300   3304     1   0.15110 237065.440000
   3300   3307     1   0.15110 237065.440000
   3301   3313     1   0.15375 251793.120000
   3304   3316     1   0.15375 251793.120000
   3307   3310     1   0.15375 251793.120000
   3310   3319     1   0.15375 251793.120000
   3313   3325     1   0.15375 251793.120000
   3316   3322     1   0.15375 251793.120000
   3319   3328     1   0.14316 258236.480000
   3322   6160     1   0.14316 258236.480000
   3325   6174     1   0.14316 258236.480000
   3330   3331     1   0.15110 237065.440000
   3330   3334     1   0.15110 237065.440000
   3330   3337     1   0.15110 237065.440000
   3331   3343     1   0.15375 251793.120000
   3334   3346     1   0.15375 251793.120000
   3337   3340     1   0.15375 251793.120000
   3340   3349     1   0.15375 251793.120000
   3343   3355     1   0.15375 251793.120000
   3346   3352     1   0.15375 251793.120000
   3349   3358     1   0.14316 258236.480000
   3352   6188     1   0.14316 258236.480000
   3355   6202     1   0.14316 258236.480000
   3360   3361     1   0.15110 237065.440000
   3360   3364     1   0.15110 237065.440000
   3360   3367     1   0.15110 237065.440000
   3361   3373     1   0.15375 251793.120000
   3364   3376     1   0.15375 251793.120000
   3367   3370     1   0.15375 251793.120000
   3370   3379     1   0.15375 251793.120000
   3373   3385     1   0.15375 251793.120000
   3376   3382     1   0.15375 251793.120000
   3379   3388     1   0.14316 258236.480000
   3382   6216     1   0.14316 258236.480000
   3385   6230     1   0.14316 258236.480000
   3390   3391     1   0.15110 237065.440000
   3390   3394     1   0.15110 237065.440000
   3390   3397     1   0.15110 237065.440000
   3391   3403     1   0.15375 251793.120000
   3394   3406     1   0.15375 251793.120000
   3397   3400     1   0.15375 251793.120000
   3400   3409     1   0.15375 251793.120000
   3403   3415     1   0.15375 251793.120000
   3406   3412     1   0.15375 251793.120000
   3409   3418     1   0.14316 258236.480000
   3412   6244     1   0.14316 258236.480000
   3415   6258     1   0.14316 258236.480000
   3420   3421     1   0.15110 237065.440000
   3420   3424     1   0.15110 237065.440000
   3420   3427     1   0.15110 237065.440000
   3421   3433     1   0.15375 251793.120000
   3424   3436     1   0.15375 251793.120000
   3427   3430     1   0.15375 251793.120000
   3430   3439     1   0.15375 251793.120000
   3433   3445     1   0.15375 251793.120000
   3436   3442     1   0.15375 251793.120000
   3439   3448     1   0.14316 258236.480000
   3442   6272     1   0.14316 258236.480000
   3445   6286     1   0.14316 258236.480000
   3450   3451     1   0.15110 237065.440000
   3450   3454     1   0.15110 237065.440000
   3450   3457     1   0.15110 237065.440000
   3451   3463     1   0.15375 251793.120000
   3454   3466     1   0.15375 251793.120000
   3457   3460     1   0.15375 251793.120000
   3460   3469     1   0.15375 251793.120000
   3463   3475     1   0.15375 251793.120000
   3466   3472     1   0.15375 251793.120000
   3469   3478     1   0.14316 258236.480000
   3472   6300     1   0.14316 258236.480000
   3475   6314     1   0.14316 258236.480000
   3480   3481     1   0.15110 237065.440000
   3480   3484     1   0.15110 237065.440000
   3480   3487     1   0.15110 237065.440000
   3481   3493     1   0.15375 251793.120000
   3484   3496     1   0.15375 251793.120000
   3487   3490     1   0.15375 251793.120000
   3490   3499     1   0.15375 251793.120000
   3493   3505     1   0.15375 251793.120000
   3496   3502     1   0.15375 251793.120000
   3499   3508     1   0.14316 258236.480000
   3502   6328     1   0.14316 258236.480000
   3505   6342     1   0.14316 258236.480000
   3510   3511     1   0.15110 237065.440000
   3510   3514     1   0.15110 237065.440000
   3510   3517     1   0.15110 237065.440000
   3511   3523     1   0.15375 251793.120000
   3514   3526     1   0.15375 251793.120000
   3517   3520     1   0.15375 251793.120000
   3520   3529     1   0.15375 251793.120000
   3523   3535     1   0.15375 251793.120000
   3526   3532     1   0.15375 251793.120000
   3529   3538     1   0.14316 258236.480000
   3532   6356     1   0.14316 258236.480000
   3535   6370     1   0.14316 258236.480000
   3540   3541     1   0.15110 237065.440000
   3540   3544     1   0.15110 237065.440000
   3540   3547     1   0.15110 237065.440000
   3541   3553     1   0.15375 251793.120000
   3544   3556     1   0.15375 251793.120000
   3547   3550     1   0.15375 251793.120000
   3550   3559     1   0.15375 251793.120000
   3553   3565     1   0.15375 251793.120000
   3556   3562     1   0.15375 251793.120000
   3559   3568     1   0.14316 258236.480000
   3562   6384     1   0.14316 258236.480000
   3565   6398     1   0.14316 258236.480000
   3570   3571     1   0.15110 237065.440000
   3570   3574     1   0.15110 237065.440000
   3570   3577     1   0.15110 237065.440000
   3571   3583     1   0.15375 251793.120000
   3574   3586     1   0.15375 251793.120000
   3577   3580     1   0.15375 251793.120000
   3580   3589     1   0.15375 251793.120000
   3583   3595     1   0.15375 251793.120000
   3586   3592     1   0.15375 251793.120000
   3589   3598     1   0.14316 258236.480000
   3592   6412     1   0.14316 258236.480000
   3595   6426     1   0.14316 258236.480000
   3600   3601     1   0.15110 237065.440000
   3600   3604     1   0.15110 237065.440000
   3600   3607     1   0.15110 237065.440000
   3601   3613     1   0.15375 251793.120000
   3604   3616     1   0.15375 251793.120000
   3607   3610     1   0.15375 251793.120000
   3610   3619     1   0.15375 251793.120000
   3613   3625     1   0.15375 251793.120000
   3616   3622     1   0.15375 251793.120000
   3619   3628     1   0.14316 258236.480000
   3622   6440     1   0.14316 258236.480000
   3625   6454     1   0.14316 258236.480000
   3630   3631     1   0.15110 237065.440000
   3630   3634     1   0.15110 237065.440000
   3630   3637     1   0.15110 237065.440000
   3631   3643     1   0.15375 251793.120000
   3634   3646     1   0.15375 251793.120000
   3637   3640     1   0.15375 251793.120000
   3640   3649     1   0.15375 251793.120000
   3643   3655     1   0.15375 251793.120000
   3646   3652     1   0.15375 251793.120000
   3649   3658     1   0.14316 258236.480000
   3652   6468     1   0.14316 258236.480000
   3655   6482     1   0.14316 258236.480000
   3660   3661     1   0.15110 237065.440000
   3660   3664     1   0.15110 237065.440000
   3660   3667     1   0.15110 237065.440000
   3661   3673     1   0.15375 251793.120000
   3664   3676     1   0.15375 251793.120000
   3667   3670     1   0.15375 251793.120000
   3670   3679     1   0.15375 251793.120000
   3673   3685     1   0.15375 251793.120000
   3676   3682     1   0.15375 251793.120000
   3679   3688     1   0.14316 258236.480000
   3682   6496     1   0.14316 258236.480000
   3685   6510     1   0.14316 258236.480000
   3690   3691     1   0.15110 237065.440000
   3690   3694     1   0.15110 237065.440000
   3690   3697     1   0.15110 237065.440000
   3691   3703     1   0.15375 251793.120000
   3694   3706     1   0.15375 251793.120000
   3697   3700     1   0.15375 251793.120000
   3700   3709     1   0.15375 251793.120000
   3703   3715     1   0.15375 251793.120000
   3706   3712     1   0.15375 251793.120000
   3709   3718     1   0.14316 258236.480000
   3712   6524     1   0.14316 258236.480000
   3715   6538     1   0.14316 258236.480000
   3720   3721     1   0.15110 237065.440000
   3720   3724     1   0.15110 237065.440000
   3720   3727     1   0.15110 237065.440000
   3721   3733     1   0.15375 251793.120000
   3724   3736     1   0.15375 251793.120000
   3727   3730     1   0.15375 251793.120000
   3730   3739     1   0.15375 251793.120000
   3733   3745     1   0.15375 251793.120000
   3736   3742     1   0.15375 251793.120000
   3739   3748     1   0.14316 258236.480000
   3742   6552     1   0.14316 258236.480000
   3745   6566     1   0.14316 258236.480000
   3750   3751     1   0.15110 237065.440000
   3750   3754     1   0.15110 237065.440000
   3750   3757     1   0.15110 237065.440000
   3751   3763     1   0.15375 251793.120000
   3754   3766     1   0.15375 251793.120000
   3757   3760     1   0.15375 251793.120000
   3760   3769     1   0.15375 251793.120000
   3763   3775     1   0.15375 251793.120000
   3766   3772     1   0.15375 251793.120000
   3769   3778     1   0.14316 258236.480000
   3772   6580     1   0.14316 258236.480000
   3775   6594     1   0.14316 258236.480000
   3780   3781     1   0.15110 237065.440000
   3780   3784     1   0.15110 237065.440000
   3780   3787     1   0.15110 237065.440000
   3781   3793     1   0.15375 251793.120000
   3784   3796     1   0.15375 251793.120000
   3787   3790     1   0.15375 251793.120000
   3790   3799     1   0.15375 251793.120000
   3793   3805     1   0.15375 251793.120000
   3796   3802     1   0.15375 251793.120000
   3799   3808     1   0.14316 258236.480000
   3802   6608     1   0.14316 258236.480000
   3805   6622     1   0.14316 258236.480000
   3810   3811     1   0.15110 237065.440000
   3810   3814     1   0.15110 237065.440000
   3810   3817     1   0.15110 237065.440000
   3811   3823     1   0.15375 251793.120000
   3814   3826     1   0.15375 251793.120000
   3817   3820     1   0.15375 251793.120000
   3820   3829     1   0.15375 251793.120000
   3823   3835     1   0.15375 251793.120000
   3826   3832     1   0.15375 251793.120000
   3829   3838     1   0.14316 258236.480000
   3832   6636     1   0.14316 258236.480000
   3835   6650     1   0.14316 258236.480000
   3840   3841     1   0.15110 237065.440000
   3840   3844     1   0.15110 237065.440000
   3840   3847     1   0.15110 237065.440000
   3841   3853     1   0.15375 251793.120000
   3844   3856     1   0.15375 251793.120000
   3847   3850     1   0.15375 251793.120000
   3850   3859     1   0.15375 251793.120000
   3853   3865     1   0.15375 251793.120000
   3856   3862     1   0.15375 251793.120000
   3859   3868     1   0.14316 258236.480000
   3862   6664     1   0.14316 258236.480000
   3865   6678     1   0.14316 258236.480000
   3870   3871     1   0.15110 237065.440000
   3870   3874     1   0.15110 237065.440000
   3870   3877     1   0.15110 237065.440000
   3871   3883     1   0.15375 251793.120000
   3874   3886     1   0.15375 251793.120000
   3877   3880     1   0.15375 251793.120000
   3880   3889     1   0.15375 251793.120000
   3883   3895     1   0.15375 251793.120000
   3886   3892     1   0.15375 251793.120000
   3889   3898     1   0.14316 258236.480000
   3892   6692     1   0.14316 258236.480000
   3895   6706     1   0.14316 258236.480000
   3900   3901     1   0.15110 237065.440000
   3900   3904     1   0.15110 237065.440000
   3900   3907     1   0.15110 237065.440000
   3901   3913     1   0.15375 251793.120000
   3904   3916     1   0.15375 251793.120000
   3907   3910     1   0.15375 251793.120000
   3910   3919     1   0.15375 251793.120000
   3913   3925     1   0.15375 251793.120000
   3916   3922     1   0.15375 251793.120000
   3919   3928     1   0.14316 258236.480000
   3922   6720     1   0.14316 258236.480000
   3925   6734     1   0.14316 258236.480000
   3930   3931     1   0.15110 237065.440000
   3930   3934     1   0.15110 237065.440000
   3930   3937     1   0.15110 237065.440000
   3931   3943     1   0.15375 251793.120000
   3934   3946     1   0.15375 251793.120000
   3937   3940     1   0.15375 251793.120000
   3940   3949     1   0.15375 251793.120000
   3943   3955     1   0.15375 251793.120000
   3946   3952     1   0.15375 251793.120000
   3949   3958     1   0.14316 258236.480000
   3952   6748     1   0.14316 258236.480000
   3955   6762     1   0.14316 258236.480000
   3960   3961     1   0.15110 237065.440000
   3960   3964     1   0.15110 237065.440000
   3960   3967     1   0.15110 237065.440000
   3961   3973     1   0.15375 251793.120000
   3964   3976     1   0.15375 251793.120000
   3967   3970     1   0.15375 251793.120000
   3970   3979     1   0.15375 251793.120000
   3973   3985     1   0.15375 251793.120000
   3976   3982     1   0.15375 251793.120000
   3979   3988     1   0.14316 258236.480000
   3982   6776     1   0.14316 258236.480000
   3985   6790     1   0.14316 258236.480000
   3990   3991     1   0.15110 237065.440000
   3990   3994     1   0.15110 237065.440000
   3990   3997     1   0.15110 237065.440000
   3991   4003     1   0.15375 251793.120000
   3994   4006     1   0.15375 251793.120000
   3997   4000     1   0.15375 251793.120000
   4000   4009     1   0.15375 251793.120000
   4003   4015     1   0.15375 251793.120000
   4006   4012     1   0.15375 251793.120000
   4009   4018     1   0.14316 258236.480000
   4012   6804     1   0.14316 258236.480000
   4015   6818     1   0.14316 258236.480000
   4020   4021     1   0.15110 237065.440000
   4020   4024     1   0.15110 237065.440000
   4020   4027     1   0.15110 237065.440000
   4021   4033     1   0.15375 251793.120000
   4024   4036     1   0.15375 251793.120000
   4027   4030     1   0.15375 251793.120000
   4030   4039     1   0.15375 251793.120000
   4033   4045     1   0.15375 251793.120000
   4036   4042     1   0.15375 251793.120000
   4039   4048     1   0.14316 258236.480000
   4042   6832     1   0.14316 258236.480000
   4045   6846     1   0.14316 258236.480000
   4050   4051     1   0.15110 237065.440000
   4050   4054     1   0.15110 237065.440000
   4050   4057     1   0.15110 237065.440000
   4051   4063     1   0.15375 251793.120000
   4054   4066     1   0.15375 251793.120000
   4057   4060     1   0.15375 251793.120000
   4060   4069     1   0.15375 251793.120000
   4063   4075     1   0.15375 251793.120000
   4066   4072     1   0.15375 251793.120000
   4069   4078     1   0.14316 258236.480000
   4072   6860     1   0.14316 258236.480000
   4075   6874     1   0.14316 258236.480000
   4080   4081     1   0.15110 237065.440000
   4080   4084     1   0.15110 237065.440000
   4080   4087     1   0.15110 237065.440000
   4081   4093     1   0.15375 251793.120000
   4084   4096     1   0.15375 251793.120000
   4087   4090     1   0.15375 251793.120000
   4090   4099     1   0.15375 251793.120000
   4093   4105     1   0.15375 251793.120000
   4096   4102     1   0.15375 251793.120000
   4099   4108     1   0.14316 258236.480000
   4102   6888     1   0.14316 258236.480000
   4105   6902     1   0.14316 258236.480000
   4110   4111     1   0.15110 237065.440000
   4110   4114     1   0.15110 237065.440000
   4110   4117     1   0.15110 237065.440000
   4111   4123     1   0.15375 251793.120000
   4114   4126     1   0.15375 251793.120000
   4117   4120     1   0.15375 251793.120000
   4120   4129     1   0.15375 251793.120000
   4123   4135     1   0.15375 251793.120000
   4126   4132     1   0.15375 251793.120000
   4129   4138     1   0.14316 258236.480000
   4132   6916     1   0.14316 258236.480000
   4135   6930     1   0.14316 258236.480000
   4140   4141     1   0.15110 237065.440000
   4140   4144     1   0.15110 237065.440000
   4140   4147     1   0.15110 237065.440000
   4141   4153     1   0.15375 251793.120000
   4144   4156     1   0.15375 251793.120000
   4147   4150     1   0.15375 251793.120000
   4150   4159     1   0.15375 251793.120000
   4153   4165     1   0.15375 251793.120000
   4156   4162     1   0.15375 251793.120000
   4159   4168     1   0.14316 258236.480000
   4162   6944     1   0.14316 258236.480000
   4165   6958     1   0.14316 258236.480000
   4170   4171     1   0.15110 237065.440000
   4170   4174     1   0.15110 237065.440000
   4170   4177     1   0.15110 237065.440000
   4171   4183     1   0.15375 251793.120000
   4174   4186     1   0.15375 251793.120000
   4177   4180     1   0.15375 251793.120000
   4180   4189     1   0.15375 251793.120000
   4183   4195     1   0.15375 251793.120000
   4186   4192     1   0.15375 251793.120000
   4189   4198     1   0.14316 258236.480000
   4192   6972     1   0.14316 258236.480000
   4195   6986     1   0.14316 258236.480000
   4200   4201     1   0.15110 237065.440000
   4200   4204     1   0.15110 237065.440000
   4200   4207     1   0.15110 237065.440000
   4201   4213     1   0.15375 251793.120000
   4204   4216     1   0.15375 251793.120000
   4207   4210     1   0.15375 251793.120000
   4210   4219     1   0.15375 251793.120000
   4213   4225     1   0.15375 251793.120000
   4216   4222     1   0.15375 251793.120000
   4219   4228     1   0.14316 258236.480000
   4222   7000     1   0.14316 258236.480000
   4225   7014     1   0.14316 258236.480000
   4230   4231     1   0.15110 237065.440000
   4230   4234     1   0.15110 237065.440000
   4230   4237     1   0.15110 237065.440000
   4231   4243     1   0.15375 251793.120000
   4234   4246     1   0.15375 251793.120000
   4237   4240     1   0.15375 251793.120000
   4240   4249     1   0.15375 251793.120000
   4243   4255     1   0.15375 251793.120000
   4246   4252     1   0.15375 251793.120000
   4249   4258     1   0.14316 258236.480000
   4252   7028     1   0.14316 258236.480000
   4255   7042     1   0.14316 258236.480000
   4260   4261     1   0.15110 237065.440000
   4260   4264     1   0.15110 237065.440000
   4260   4267     1   0.15110 237065.440000
   4261   4273     1   0.15375 251793.120000
   4264   4276     1   0.15375 251793.120000
   4267   4270     1   0.15375 251793.120000
   4270   4279     1   0.15375 251793.120000
   4273   4285     1   0.15375 251793.120000
   4276   4282     1   0.15375 251793.120000
   4279   4288     1   0.14316 258236.480000
   4282   7056     1   0.14316 258236.480000
   4285   7070     1   0.14316 258236.480000
   4290   4291     1   0.15110 237065.440000
   4290   4294     1   0.15110 237065.440000
   4290   4297     1   0.15110 237065.440000
   4291   4303     1   0.15375 251793.120000
   4294   4306     1   0.15375 251793.120000
   4297   4300     1   0.15375 251793.120000
   4300   4309     1   0.15375 251793.120000
   4303   4315     1   0.15375 251793.120000
   4306   4312     1   0.15375 251793.120000
   4309   4318     1   0.14316 258236.480000
   4312   7084     1   0.14316 258236.480000
   4315   7098     1   0.14316 258236.480000
   4320   4321     1   0.15110 237065.440000
   4320   4324     1   0.15110 237065.440000
   4320   4327     1   0.15110 237065.440000
   4321   4333     1   0.15375 251793.120000
   4324   4336     1   0.15375 251793.120000
   4327   4330     1   0.15375 251793.120000
   4330   4339     1   0.15375 251793.120000
   4333   4345     1   0.15375 251793.120000
   4336   4342     1   0.15375 251793.120000
   4339   4348     1   0.14316 258236.480000
   4342   7112     1   0.14316 258236.480000
   4345   7126     1   0.14316 258236.480000
   4350   4351     1   0.15110 237065.440000
   4350   4354     1   0.15110 237065.440000
   4350   4357     1   0.15110 237065.440000
   4351   4363     1   0.15375 251793.120000
   4354   4366     1   0.15375 251793.120000
   4357   4360     1   0.15375 251793.120000
   4360   4369     1   0.15375 251793.120000
   4363   4375     1   0.15375 251793.120000
   4366   4372     1   0.15375 251793.120000
   4369   4378     1   0.14316 258236.480000
   4372   7140     1   0.14316 258236.480000
   4375   7154     1   0.14316 258236.480000
   4380   4381     1   0.15110 237065.440000
   4380   4384     1   0.15110 237065.440000
   4380   4387     1   0.15110 237065.440000
   4381   4393     1   0.15375 251793.120000
   4384   4396     1   0.15375 251793.120000
   4387   4390     1   0.15375 251793.120000
   4390   4399     1   0.15375 251793.120000
   4393   4405     1   0.15375 251793.120000
   4396   4402     1   0.15375 251793.120000
   4399   4408     1   0.14316 258236.480000
   4402   7168     1   0.14316 258236.480000
   4405   7182     1   0.14316 258236.480000
   4410   4411     1   0.15110 237065.440000
   4410   4414     1   0.15110 237065.440000
   4410   4417     1   0.15110 237065.440000
   4411   4423     1   0.15375 251793.120000
   4414   4426     1   0.15375 251793.120000
   4417   4420     1   0.15375 251793.120000
   4420   4429     1   0.15375 251793.120000
   4423   4435     1   0.15375 251793.120000
   4426   4432     1   0.15375 251793.120000
   4429   4438     1   0.14316 258236.480000
   4432   7196     1   0.14316 258236.480000
   4435   7210     1   0.14316 258236.480000
   4440   4441     1   0.15110 237065.440000
   4440   4444     1   0.15110 237065.440000
   4440   4447     1   0.15110 237065.440000
   4441   4453     1   0.15375 251793.120000
   4444   4456     1   0.15375 251793.120000
   4447   4450     1   0.15375 251793.120000
   4450   4459     1   0.15375 251793.120000
   4453   4465     1   0.15375 251793.120000
   4456   4462     1   0.15375 251793.120000
   4459   4468     1   0.14316 258236.480000
   4462   7224     1   0.14316 258236.480000
   4465   7238     1   0.14316 258236.480000
   4470   4471     1   0.15110 237065.440000
   4470   4474     1   0.15110 237065.440000
   4470   4477     1   0.15110 237065.440000
   4471   4483     1   0.15375 251793.120000
   4474   4486     1   0.15375 251793.120000
   4477   4480     1   0.15375 251793.120000
   4480   4489     1   0.15375 251793.120000
   4483   4495     1   0.15375 251793.120000
   4486   4492     1   0.15375 251793.120000
   4489   4498     1   0.14316 258236.480000
   4492   7252     1   0.14316 258236.480000
   4495   7266     1   0.14316 258236.480000
   4500   4501     1   0.15110 237065.440000
   4500   4504     1   0.15110 237065.440000
   4500   4507     1   0.15110 237065.440000
   4501   4513     1   0.15375 251793.120000
   4504   4516     1   0.15375 251793.120000
   4507   4510     1   0.15375 251793.120000
   4510   4519     1   0.15375 251793.120000
   4513   4525     1   0.15375 251793.120000
   4516   4522     1   0.15375 251793.120000
   4519   4528     1   0.14316 258236.480000
   4522   7280     1   0.14316 258236.480000
   4525   7294     1   0.14316 258236.480000
   4530   4531     1   0.15110 237065.440000
   4530   4534     1   0.15110 237065.440000
   4530   4537     1   0.15110 237065.440000
   4531   4543     1   0.15375 251793.120000
   4534   4546     1   0.15375 251793.120000
   4537   4540     1   0.15375 251793.120000
   4540   4549     1   0.15375 251793.120000
   4543   4555     1   0.15375 251793.120000
   4546   4552     1   0.15375 251793.120000
   4549   4558     1   0.14316 258236.480000
   4552   7308     1   0.14316 258236.480000
   4555   7322     1   0.14316 258236.480000
   4560   4561     1   0.15110 237065.440000
   4560   4564     1   0.15110 237065.440000
   4560   4567     1   0.15110 237065.440000
   4561   4573     1   0.15375 251793.120000
   4564   4576     1   0.15375 251793.120000
   4567   4570     1   0.15375 251793.120000
   4570   4579     1   0.15375 251793.120000
   4573   4585     1   0.15375 251793.120000
   4576   4582     1   0.15375 251793.120000
   4579   4588     1   0.14316 258236.480000
   4582   7336     1   0.14316 258236.480000
   4585   7350     1   0.14316 258236.480000
   4590   4591     1   0.15110 237065.440000
   4590   4594     1   0.15110 237065.440000
   4590   4597     1   0.15110 237065.440000
   4591   4603     1   0.15375 251793.120000
   4594   4606     1   0.15375 251793.120000
   4597   4600     1   0.15375 251793.120000
   4600   4609     1   0.15375 251793.120000
   4603   4615     1   0.15375 251793.120000
   4606   4612     1   0.15375 251793.120000
   4609   4618     1   0.14316 258236.480000
   4612   7364     1   0.14316 258236.480000
   4615   7378     1   0.14316 258236.480000
   4620   4621     1   0.15110 237065.440000
   4620   4624     1   0.15110 237065.440000
   4620   4627     1   0.15110 237065.440000
   4621   4633     1   0.15375 251793.120000
   4624   4636     1   0.15375 251793.120000
   4627   4630     1   0.15375 251793.120000
   4630   4639     1   0.15375 251793.120000
   4633   4645     1   0.15375 251793.120000
   4636   4642     1   0.15375 251793.120000
   4639   4648     1   0.14316 258236.480000
   4642   7392     1   0.14316 258236.480000
   4645   7406     1   0.14316 258236.480000
   4650   4651     1   0.15110 237065.440000
   4650   4654     1   0.15110 237065.440000
   4650   4657     1   0.15110 237065.440000
   4651   4663     1   0.15375 251793.120000
   4654   4666     1   0.15375 251793.120000
   4657   4660     1   0.15375 251793.120000
   4660   4669     1   0.15375 251793.120000
   4663   4675     1   0.15375 251793.120000
   4666   4672     1   0.15375 251793.120000
   4669   4678     1   0.14316 258236.480000
   4672   7420     1   0.14316 258236.480000
   4675   7434     1   0.14316 258236.480000
   4680   4681     1   0.15110 237065.440000
   4680   4684     1   0.15110 237065.440000
   4680   4687     1   0.15110 237065.440000
   4681   4693     1   0.15375 251793.120000
   4684   4696     1   0.15375 251793.120000
   4687   4690     1   0.15375 251793.120000
   4690   4699     1   0.15375 251793.120000
   4693   4705     1   0.15375 251793.120000
   4696   4702     1   0.15375 251793.120000
   4699   4708     1   0.14316 258236.480000
   4702   7448     1   0.14316 258236.480000
   4705   7462     1   0.14316 258236.480000
   4710   4711     1   0.15110 237065.440000
   4710   4714     1   0.15110 237065.440000
   4710   4717     1   0.15110 237065.440000
   4711   4723     1   0.15375 251793.120000
   4714   4726     1   0.15375 251793.120000
   4717   4720     1   0.15375 251793.120000
   4720   4729     1   0.15375 251793.120000
   4723   4735     1   0.15375 251793.120000
   4726   4732     1   0.15375 251793.120000
   4729   4738     1   0.14316 258236.480000
   4732   7476     1   0.14316 258236.480000
   4735   7490     1   0.14316 258236.480000
   4740   4741     1   0.15110 237065.440000
   4740   4744     1   0.15110 237065.440000
   4740   4747     1   0.15110 237065.440000
   4741   4753     1   0.15375 251793.120000
   4744   4756     1   0.15375 251793.120000
   4747   4750     1   0.15375 251793.120000
   4750   4759     1   0.15375 251793.120000
   4753   4765     1   0.15375 251793.120000
   4756   4762     1   0.15375 251793.120000
   4759   4768     1   0.14316 258236.480000
   4762   7504     1   0.14316 258236.480000
   4765   7518     1   0.14316 258236.480000
   4770   4771     1   0.15110 237065.440000
   4770   4774     1   0.15110 237065.440000
   4770   4777     1   0.15110 237065.440000
   4771   4783     1   0.15375 251793.120000
   4774   4786     1   0.15375 251793.120000
   4777   4780     1   0.15375 251793.120000
   4780   4789     1   0.15375 251793.120000
   4783   4795     1   0.15375 251793.120000
   4786   4792     1   0.15375 251793.120000
   4789   4798     1   0.14316 258236.480000
   4792   7532     1   0.14316 258236.480000
   4795   7546     1   0.14316 258236.480000
   4800   4801     1   0.15110 237065.440000
   4800   4804     1   0.15110 237065.440000
   4800   4807     1   0.15110 237065.440000
   4801   4813     1   0.15375 251793.120000
   4804   4816     1   0.15375 251793.120000
   4807   4810     1   0.15375 251793.120000
   4810   4819     1   0.15375 251793.120000
   4813   4825     1   0.15375 251793.120000
   4816   4822     1   0.15375 251793.120000
   4819   4828     1   0.14316 258236.480000
   4822   7560     1   0.14316 258236.480000
   4825   7574     1   0.14316 258236.480000
   4830   4831     1   0.15110 237065.440000
   4830   4834     1   0.15110 237065.440000
   4830   4837     1   0.15110 237065.440000
   4831   4843     1   0.15375 251793.120000
   4834   4846     1   0.15375 251793.120000
   4837   4840     1   0.15375 251793.120000
   4840   4849     1   0.15375 251793.120000
   4843   4855     1   0.15375 251793.120000
   4846   4852     1   0.15375 251793.120000
   4849   4858     1   0.14316 258236.480000
   4852   7588     1   0.14316 258236.480000
   4855   7602     1   0.14316 258236.480000
   4860   4861     1   0.15110 237065.440000
   4860   4864     1   0.15110 237065.440000
   4860   4867     1   0.15110 237065.440000
   4861   4873     1   0.15375 251793.120000
   4864   4876     1   0.15375 251793.120000
   4867   4870     1   0.15375 251793.120000
   4870   4879     1   0.15375 251793.120000
   4873   4885     1   0.15375 251793.120000
   4876   4882     1   0.15375 251793.120000
   4879   4888     1   0.14316 258236.480000
   4882   7616     1   0.14316 258236.480000
   4885   7630     1   0.14316 258236.480000
   4890   4891     1   0.15110 237065.440000
   4890   4894     1   0.15110 237065.440000
   4890   4897     1   0.15110 237065.440000
   4891   4903     1   0.15375 251793.120000
   4894   4906     1   0.15375 251793.120000
   4897   4900     1   0.15375 251793.120000
   4900   4909     1   0.15375 251793.120000
   4903   4915     1   0.15375 251793.120000
   4906   4912     1   0.15375 251793.120000
   4909   4918     1   0.14316 258236.480000
   4912   7644     1   0.14316 258236.480000
   4915   7658     1   0.14316 258236.480000
   4920   4921     1   0.15110 237065.440000
   4920   4924     1   0.15110 237065.440000
   4920   4927     1   0.15110 237065.440000
   4921   4933     1   0.15375 251793.120000
   4924   4936     1   0.15375 251793.120000
   4927   4930     1   0.15375 251793.120000
   4930   4939     1   0.15375 251793.120000
   4933   4945     1   0.15375 251793.120000
   4936   4942     1   0.15375 251793.120000
   4939   4948     1   0.14316 258236.480000
   4942   7672     1   0.14316 258236.480000
   4945   7686     1   0.14316 258236.480000
   4950   4951     1   0.15110 237065.440000
   4950   4954     1   0.15110 237065.440000
   4950   4957     1   0.15110 237065.440000
   4951   4963     1   0.15375 251793.120000
   4954   4966     1   0.15375 251793.120000
   4957   4960     1   0.15375 251793.120000
   4960   4969     1   0.15375 251793.120000
   4963   4975     1   0.15375 251793.120000
   4966   4972     1   0.15375 251793.120000
   4969   4978     1   0.14316 258236.480000
   4972   7700     1   0.14316 258236.480000
   4975   7714     1   0.14316 258236.480000
   4980   4981     1   0.15110 237065.440000
   4980   4984     1   0.15110 237065.440000
   4980   4987     1   0.15110 237065.440000
   4981   4993     1   0.15375 251793.120000
   4984   4996     1   0.15375 251793.120000
   4987   4990     1   0.15375 251793.120000
   4990   4999     1   0.15375 251793.120000
   4993   5005     1   0.15375 251793.120000
   4996   5002     1   0.15375 251793.120000
   4999   5008     1   0.14316 258236.480000
   5002   7728     1   0.14316 258236.480000
   5005   7742     1   0.14316 258236.480000
   5010   5011     1   0.15110 237065.440000
   5010   5014     1   0.15110 237065.440000
   5010   5017     1   0.15110 237065.440000
   5011   5023     1   0.15375 251793.120000
   5014   5026     1   0.15375 251793.120000
   5017   5020     1   0.15375 251793.120000
   5020   5029     1   0.15375 251793.120000
   5023   5035     1   0.15375 251793.120000
   5026   5032     1   0.15375 251793.120000
   5029   5038     1   0.14316 258236.480000
   5032   7756     1   0.14316 258236.480000
   5035   7770     1   0.14316 258236.480000
   5040   5041     1   0.15110 237065.440000
   5040   5044     1   0.15110 237065.440000
   5040   5047     1   0.15110 237065.440000
   5041   5053     1   0.15375 251793.120000
   5044   5056     1   0.15375 251793.120000
   5047   5050     1   0.15375 251793.120000
   5050   5059     1   0.15375 251793.120000
   5053   5065     1   0.15375 251793.120000
   5056   5062     1   0.15375 251793.120000
   5059   5068     1   0.14316 258236.480000
   5062   7784     1   0.14316 258236.480000
   5065   7798     1   0.14316 258236.480000
   5070   5071     1   0.15110 237065.440000
   5070   5074     1   0.15110 237065.440000
   5070   5077     1   0.15110 237065.440000
   5071   5083     1   0.15375 251793.120000
   5074   5086     1   0.15375 251793.120000
   5077   5080     1   0.15375 251793.120000
   5080   5089     1   0.15375 251793.120000
   5083   5095     1   0.15375 251793.120000
   5086   5092     1   0.15375 251793.120000
   5089   5098     1   0.14316 258236.480000
   5092   7812     1   0.14316 258236.480000
   5095   7826     1   0.14316 258236.480000
   5100   5101     1   0.15110 237065.440000
   5100   5104     1   0.15110 237065.440000
   5100   5107     1   0.15110 237065.440000
   5101   5113     1   0.15375 251793.120000
   5104   5116     1   0.15375 251793.120000
   5107   5110     1   0.15375 251793.120000
   5110   5119     1   0.15375 251793.120000
   5113   5125     1   0.15375 251793.120000
   5116   5122     1   0.15375 251793.120000
   5119   5128     1   0.14316 258236.480000
   5122   7840     1   0.14316 258236.480000
   5125   7854     1   0.14316 258236.480000
   5130   5131     1   0.15110 237065.440000
   5130   5134     1   0.15110 237065.440000
   5130   5137     1   0.15110 237065.440000
   5131   5143     1   0.15375 251793.120000
   5134   5146     1   0.15375 251793.120000
   5137   5140     1   0.15375 251793.120000
   5140   5149     1   0.15375 251793.120000
   5143   5155     1   0.15375 251793.120000
   5146   5152     1   0.15375 251793.120000
   5149   5158     1   0.14316 258236.480000
   5152   7868     1   0.14316 258236.480000
   5155   7882     1   0.14316 258236.480000
   5160   5161     1   0.15110 237065.440000
   5160   5164     1   0.15110 237065.440000
   5160   5167     1   0.15110 237065.440000
   5161   5173     1   0.15375 251793.120000
   5164   5176     1   0.15375 251793.120000
   5167   5170     1   0.15375 251793.120000
   5170   5179     1   0.15375 251793.120000
   5173   5185     1   0.15375 251793.120000
   5176   5182     1   0.15375 251793.120000
   5179   5188     1   0.14316 258236.480000
   5182   7896     1   0.14316 258236.480000
   5185   7910     1   0.14316 258236.480000
   5190   5191     1   0.15110 237065.440000
   5190   5194     1   0.15110 237065.440000
   5190   5197     1   0.15110 237065.440000
   5191   5203     1   0.15375 251793.120000
   5194   5206     1   0.15375 251793.120000
   5197   5200     1   0.15375 251793.120000
   5200   5209     1   0.15375 251793.120000
   5203   5215     1   0.15375 251793.120000
   5206   5212     1   0.15375 251793.120000
   5209   5218     1   0.14316 258236.480000
   5212   7924     1   0.14316 258236.480000
   5215   7938     1   0.14316 258236.480000
   5220   5221     1   0.15110 237065.440000
   5220   5224     1   0.15110 237065.440000
   5220   5227     1   0.15110 237065.440000
   5221   5233     1   0.15375 251793.120000
   5224   5236     1   0.15375 251793.120000
   5227   5230     1   0.15375 251793.120000
   5230   5239     1   0.15375 251793.120000
   5233   5245     1   0.15375 251793.120000
   5236   5242     1   0.15375 251793.120000
   5239   5248     1   0.14316 258236.480000
   5242   7952     1   0.14316 258236.480000
   5245   7966     1   0.14316 258236.480000
   5250   5251     1   0.15110 237065.440000
   5250   5254     1   0.15110 237065.440000
   5250   5257     1   0.15110 237065.440000
   5251   5263     1   0.15375 251793.120000
   5254   5266     1   0.15375 251793.120000
   5257   5260     1   0.15375 251793.120000
   5260   5269     1   0.15375 251793.120000
   5263   5275     1   0.15375 251793.120000
   5266   5272     1   0.15375 251793.120000
   5269   5278     1   0.14316 258236.480000
   5272   7980     1   0.14316 258236.480000
   5275   7994     1   0.14316 258236.480000
   5280   5281     1   0.15110 237065.440000
   5280   5284     1   0.15110 237065.440000
   5280   5287     1   0.15110 237065.440000
   5281   5293     1   0.15375 251793.120000
   5284   5296     1   0.15375 251793.120000
   5287   5290     1   0.15375 251793.120000
   5290   5299     1   0.15375 251793.120000
   5293   5305     1   0.15375 251793.120000
   5296   5302     1   0.15375 251793.120000
   5299   5308     1   0.14316 258236.480000
   5302   8008     1   0.14316 258236.480000
   5305   8022     1   0.14316 258236.480000
   5310   5311     1   0.15110 237065.440000
   5310   5314     1   0.15110 237065.440000
   5310   5317     1   0.15110 237065.440000
   5311   5323     1   0.15375 251793.120000
   5314   5326     1   0.15375 251793.120000
   5317   5320     1   0.15375 251793.120000
   5320   5329     1   0.15375 251793.120000
   5323   5335     1   0.15375 251793.120000
   5326   5332     1   0.15375 251793.120000
   5329   5338     1   0.14316 258236.480000
   5332   8036     1   0.14316 258236.480000
   5335   8050     1   0.14316 258236.480000
   5340   5341     1   0.15110 237065.440000
   5340   5344     1   0.15110 237065.440000
   5340   5347     1   0.15110 237065.440000
   5341   5353     1   0.15375 251793.120000
   5344   5356     1   0.15375 251793.120000
   5347   5350     1   0.15375 251793.120000
   5350   5359     1   0.15375 251793.120000
   5353   5365     1   0.15375 251793.120000
   5356   5362     1   0.15375 251793.120000
   5359   5368     1   0.14316 258236.480000
   5362   8064     1   0.14316 258236.480000
   5365   8078     1   0.14316 258236.480000
   5370   5371     1   0.15110 237065.440000
   5370   5374     1   0.15110 237065.440000
   5370   5377     1   0.15110 237065.440000
   5371   5383     1   0.15375 251793.120000
   5374   5386     1   0.15375 251793.120000
   5377   5380     1   0.15375 251793.120000
   5380   5389     1   0.15375 251793.120000
   5383   5395     1   0.15375 251793.120000
   5386   5392     1   0.15375 251793.120000
   5389   5398     1   0.14316 258236.480000
   5392   8092     1   0.14316 258236.480000
   5395   8106     1   0.14316 258236.480000
   5400   5401     1   0.15110 237065.440000
   5400   5404     1   0.15110 237065.440000
   5400   5407     1   0.15110 237065.440000
   5401   5413     1   0.15375 251793.120000
   5404   5416     1   0.15375 251793.120000
   5407   5410     1   0.15375 251793.120000
   5410   5419     1   0.15375 251793.120000
   5413   5425     1   0.15375 251793.120000
   5416   5422     1   0.15375 251793.120000
   5419   5428     1   0.14316 258236.480000
   5422   8120     1   0.14316 258236.480000
   5425   8134     1   0.14316 258236.480000
   5430   5431     1   0.15110 237065.440000
   5430   5434     1   0.15110 237065.440000
   5430   5437     1   0.15110 237065.440000
   5431   5443     1   0.15375 251793.120000
   5434   5446     1   0.15375 251793.120000
   5437   5440     1   0.15375 251793.120000
   5440   5449     1   0.15375 251793.120000
   5443   5455     1   0.15375 251793.120000
   5446   5452     1   0.15375 251793.120000
   5449   5458     1   0.14316 258236.480000
   5452   8148     1   0.14316 258236.480000
   5455   8162     1   0.14316 258236.480000
   5460   5461     1   0.15110 237065.440000
   5460   5464     1   0.15110 237065.440000
   5460   5467     1   0.15110 237065.440000
   5461   5473     1   0.15375 251793.120000
   5464   5476     1   0.15375 251793.120000
   5467   5470     1   0.15375 251793.120000
   5470   5479     1   0.15375 251793.120000
   5473   5485     1   0.15375 251793.120000
   5476   5482     1   0.15375 251793.120000
   5479   5488     1   0.14316 258236.480000
   5482   8176     1   0.14316 258236.480000
   5485   8190     1   0.14316 258236.480000
   5490   5491     1   0.15110 237065.440000
   5490   5494     1   0.15110 237065.440000
   5490   5497     1   0.15110 237065.440000
   5491   5503     1   0.15375 251793.120000
   5494   5506     1   0.15375 251793.120000
   5497   5500     1   0.15375 251793.120000
   5500   5509     1   0.15375 251793.120000
   5503   5515     1   0.15375 251793.120000
   5506   5512     1   0.15375 251793.120000
   5509   5518     1   0.14316 258236.480000
   5512   8204     1   0.14316 258236.480000
   5515   8218     1   0.14316 258236.480000
   5520   5521     1   0.15110 237065.440000
   5520   5524     1   0.15110 237065.440000
   5520   5527     1   0.15110 237065.440000
   5521   5533     1   0.15375 251793.120000
   5524   5536     1   0.15375 251793.120000
   5527   5530     1   0.15375 251793.120000
   5530   5539     1   0.15375 251793.120000
   5533   5545     1   0.15375 251793.120000
   5536   5542     1   0.15375 251793.120000
   5539   5548     1   0.14316 258236.480000
   5542   8232     1   0.14316 258236.480000
   5545   8246     1   0.14316 258236.480000
   5550   5551     1   0.15110 237065.440000
   5550   5554     1   0.15110 237065.440000
   5550   5557     1   0.15110 237065.440000
   5551   5563     1   0.15375 251793.120000
   5554   5566     1   0.15375 251793.120000
   5557   5560     1   0.15375 251793.120000
   5560   5569     1   0.15375 251793.120000
   5563   5575     1   0.15375 251793.120000
   5566   5572     1   0.15375 251793.120000
   5569   5578     1   0.14316 258236.480000
   5572   8260     1   0.14316 258236.480000
   5575   8274     1   0.14316 258236.480000
   5580   5581     1   0.15110 237065.440000
   5580   5584     1   0.15110 237065.440000
   5580   5587     1   0.15110 237065.440000
   5581   5593     1   0.15375 251793.120000
   5584   5596     1   0.15375 251793.120000
   5587   5590     1   0.15375 251793.120000
   5590   5599     1   0.15375 251793.120000
   5593   5605     1   0.15375 251793.120000
   5596   5602     1   0.15375 251793.120000
   5599   5608     1   0.14316 258236.480000
   5602   8288     1   0.14316 258236.480000
   5605   8302     1   0.14316 258236.480000
   5610   5611     1   0.15110 237065.440000
   5610   5614     1   0.15110 237065.440000
   5610   5617     1   0.15110 237065.440000
   5611   5623     1   0.15375 251793.120000
   5614   5626     1   0.15375 251793.120000
   5617   5620     1   0.15375 251793.120000
   5620   5629     1   0.15375 251793.120000
   5623   5635     1   0.15375 251793.120000
   5626   5632     1   0.15375 251793.120000
   5629   5638     1   0.14316 258236.480000
   5632   8316     1   0.14316 258236.480000
   5635   8330     1   0.14316 258236.480000
   5640   5641     1   0.15110 237065.440000
   5640   5644     1   0.15110 237065.440000
   5640   5647     1   0.15110 237065.440000
   5641   5653     1   0.15375 251793.120000
   5644   5656     1   0.15375 251793.120000
   5647   5650     1   0.15375 251793.120000
   5650   5659     1   0.15375 251793.120000
   5653   5665     1   0.15375 251793.120000
   5656   5662     1   0.15375 251793.120000
   5659   5668     1   0.14316 258236.480000
   5662   8344     1   0.14316 258236.480000
   5665   8358     1   0.14316 258236.480000
   5670   5671     1   0.15110 237065.440000
   5670   5674     1   0.15110 237065.440000
   5670   5677     1   0.15110 237065.440000
   5671   5683     1   0.15375 251793.120000
   5674   5686     1   0.15375 251793.120000
   5677   5680     1   0.15375 251793.120000
   5680   5689     1   0.15375 251793.120000
   5683   5695     1   0.15375 251793.120000
   5686   5692     1   0.15375 251793.120000
   5689   5698     1   0.14316 258236.480000
   5692   8372     1   0.14316 258236.480000
   5695   8386     1   0.14316 258236.480000
   5700   5703     1   0.15375 251793.120000
   5700   5709     1   0.15110 237065.440000
   5703   5706     1   0.15375 251793.120000
   5706   5712     1   0.14316 258236.480000
   5714   5717     1   0.15375 251793.120000
   5714   5723     1   0.15110 237065.440000
   5717   5720     1   0.15375 251793.120000
   5720   5726     1   0.14316 258236.480000
   5728   5731     1   0.15375 251793.120000
   5728   5737     1   0.15110 237065.440000
   5731   5734     1   0.15375 251793.120000
   5734   5740     1   0.14316 258236.480000
   5742   5745     1   0.15375 251793.120000
   5742   5751     1   0.15110 237065.440000
   5745   5748     1   0.15375 251793.120000
   5748   5754     1   0.14316 258236.480000
   5756   5759     1   0.15375 251793.120000
   5756   5765     1   0.15110 237065.440000
   5759   5762     1   0.15375 251793.120000
   5762   5768     1   0.14316 258236.480000
   5770   5773     1   0.15375 251793.120000
   5770   5779     1   0.15110 237065.440000
   5773   5776     1   0.15375 251793.120000
   5776   5782     1   0.14316 258236.480000
   5784   5787     1   0.15375 251793.120000
   5784   5793     1   0.15110 237065.440000
   5787   5790     1   0.15375 251793.120000
   5790   5796     1   0.14316 258236.480000
   5798   5801     1   0.15375 251793.120000
   5798   5807     1   0.15110 237065.440000
   5801   5804     1   0.15375 251793.120000
   5804   5810     1   0.14316 258236.480000
   5812   5815     1   0.15375 251793.120000
   5812   5821     1   0.15110 237065.440000
   5815   5818     1   0.15375 251793.120000
   5818   5824     1   0.14316 258236.480000
   5826   5829     1   0.15375 251793.120000
   5826   5835     1   0.15110 237065.440000
   5829   5832     1   0.15375 251793.120000
   5832   5838     1   0.14316 258236.480000
   5840   5843     1   0.15375 251793.120000
   5840   5849     1   0.15110 237065.440000
   5843   5846     1   0.15375 251793.120000
   5846   5852     1   0.14316 258236.480000
   5854   5857     1   0.15375 251793.120000
   5854   5863     1   0.15110 237065.440000
   5857   5860     1   0.15375 251793.120000
   5860   5866     1   0.14316 258236.480000
   5868   5871     1   0.15375 251793.120000
   5868   5877     1   0.15110 237065.440000
   5871   5874     1   0.15375 251793.120000
   5874   5880     1   0.14316 258236.480000
   5882   5885     1   0.15375 251793.120000
   5882   5891     1   0.15110 237065.440000
   5885   5888     1   0.15375 251793.120000
   5888   5894     1   0.14316 258236.480000
   5896   5899     1   0.15375 251793.120000
   5896   5905     1   0.15110 237065.440000
   5899   5902     1   0.15375 251793.120000
   5902   5908     1   0.14316 258236.480000
   5910   5913     1   0.15375 251793.120000
   5910   5919     1   0.15110 237065.440000
   5913   5916     1   0.15375 251793.120000
   5916   5922     1   0.14316 258236.480000
   5924   5927     1   0.15375 251793.120000
   5924   5933     1   0.15110 237065.440000
   5927   5930     1   0.15375 251793.120000
   5930   5936     1   0.14316 258236.480000
   5938   5941     1   0.15375 251793.120000
   5938   5947     1   0.15110 237065.440000
   5941   5944     1   0.15375 251793.120000
   5944   5950     1   0.14316 258236.480000
   5952   5955     1   0.15375 251793.120000
   5952   5961     1   0.15110 237065.440000
   5955   5958     1   0.15375 251793.120000
   5958   5964     1   0.14316 258236.480000
   5966   5969     1   0.15375 251793.120000
   5966   5975     1   0.15110 237065.440000
   5969   5972     1   0.15375 251793.120000
   5972   5978     1   0.14316 258236.480000
   5980   5983     1   0.15375 251793.120000
   5980   5989     1   0.15110 237065.440000
   5983   5986     1   0.15375 251793.120000
   5986   5992     1   0.14316 258236.480000
   5994   5997     1   0.15375 251793.120000
   5994   6003     1   0.15110 237065.440000
   5997   6000     1   0.15375 251793.120000
   6000   6006     1   0.14316 258236.480000
   6008   6011     1   0.15375 251793.120000
   6008   6017     1   0.15110 237065.440000
   6011   6014     1   0.15375 251793.120000
   6014   6020     1   0.14316 258236.480000
   6022   6025     1   0.15375 251793.120000
   6022   6031     1   0.15110 237065.440000
   6025   6028     1   0.15375 251793.120000
   6028   6034     1   0.14316 258236.480000
   6036   6039     1   0.15375 251793.120000
   6036   6045     1   0.15110 237065.440000
   6039   6042     1   0.15375 251793.120000
   6042   6048     1   0.14316 258236.480000
   6050   6053     1   0.15375 251793.120000
   6050   6059     1   0.15110 237065.440000
   6053   6056     1   0.15375 251793.120000
   6056   6062     1   0.14316 258236.480000
   6064   6067     1   0.15375 251793.120000
   6064   6073     1   0.15110 237065.440000
   6067   6070     1   0.15375 251793.120000
   6070   6076     1   0.14316 258236.480000
   6078   6081     1   0.15375 251793.120000
   6078   6087     1   0.15110 237065.440000
   6081   6084     1   0.15375 251793.120000
   6084   6090     1   0.14316 258236.480000
   6092   6095     1   0.15375 251793.120000
   6092   6101     1   0.15110 237065.440000
   6095   6098     1   0.15375 251793.120000
   6098   6104     1   0.14316 258236.480000
   6106   6109     1   0.15375 251793.120000
   6106   6115     1   0.15110 237065.440000
   6109   6112     1   0.15375 251793.120000
   6112   6118     1   0.14316 258236.480000
   6120   6123     1   0.15375 251793.120000
   6120   6129     1   0.15110 237065.440000
   6123   6126     1   0.15375 251793.120000
   6126   6132     1   0.14316 258236.480000
   6134   6137     1   0.15375 251793.120000
   6134   6143     1   0.15110 237065.440000
   6137   6140     1   0.15375 251793.120000
   6140   6146     1   0.14316 258236.480000
   6148   6151     1   0.15375 251793.120000
   6148   6157     1   0.15110 237065.440000
   6151   6154     1   0.15375 251793.120000
   6154   6160     1   0.14316 258236.480000
   6162   6165     1   0.15375 251793.120000
   6162   6171     1   0.15110 237065.440000
   6165   6168     1   0.15375 251793.120000
   6168   6174     1   0.14316 258236.480000
   6176   6179     1   0.15375 251793.120000
   6176   6185     1   0.15110 237065.440000
   6179   6182     1   0.15375 251793.120000
   6182   6188     1   0.14316 258236.480000
   6190   6193     1   0.15375 251793.120000
   6190   6199     1   0.15110 237065.440000
   6193   6196     1   0.15375 251793.120000
   6196   6202     1   0.14316 258236.480000
   6204   6207     1   0.15375 251793.120000
   6204   6213     1   0.15110 237065.440000
   6207   6210     1   0.15375 251793.120000
   6210   6216     1   0.14316 258236.480000
   6218   6221     1   0.15375 251793.120000
   6218   6227     1   0.15110 237065.440000
   6221   6224     1   0.15375 251793.120000
   6224   6230     1   0.14316 258236.480000
   6232   6235     1   0.15375 251793.120000
   6232   6241     1   0.15110 237065.440000
   6235   6238     1   0.15375 251793.120000
   6238   6244     1   0.14316 258236.480000
   6246   6249     1   0.15375 251793.120000
   6246   6255     1   0.15110 237065.440000
   6249   6252     1   0.15375 251793.120000
   6252   6258     1   0.14316 258236.480000
   6260   6263     1   0.15375 251793.120000
   6260   6269     1   0.15110 237065.440000
   6263   6266     1   0.15375 251793.120000
   6266   6272     1   0.14316 258236.480000
   6274   6277     1   0.15375 251793.120000
   6274   6283     1   0.15110 237065.440000
   6277   6280     1   0.15375 251793.120000
   6280   6286     1   0.14316 258236.480000
   6288   6291     1   0.15375 251793.120000
   6288   6297     1   0.15110 237065.440000
   6291   6294     1   0.15375 251793.120000
   6294   6300     1   0.14316 258236.480000
   6302   6305     1   0.15375 251793.120000
   6302   6311     1   0.15110 237065.440000
   6305   6308     1   0.15375 251793.120000
   6308   6314     1   0.14316 258236.480000
   6316   6319     1   0.15375 251793.120000
   6316   6325     1   0.15110 237065.440000
   6319   6322     1   0.15375 251793.120000
   6322   6328     1   0.14316 258236.480000
   6330   6333     1   0.15375 251793.120000
   6330   6339     1   0.15110 237065.440000
   6333   6336     1   0.15375 251793.120000
   6336   6342     1   0.14316 258236.480000
   6344   6347     1   0.15375 251793.120000
   6344   6353     1   0.15110 237065.440000
   6347   6350     1   0.15375 251793.120000
   6350   6356     1   0.14316 258236.480000
   6358   6361     1   0.15375 251793.120000
   6358   6367     1   0.15110 237065.440000
   6361   6364     1   0.15375 251793.120000
   6364   6370     1   0.14316 258236.480000
   6372   6375     1   0.15375 251793.120000
   6372   6381     1   0.15110 237065.440000
   6375   6378     1   0.15375 251793.120000
   6378   6384     1   0.14316 258236.480000
   6386   6389     1   0.15375 251793.120000
   6386   6395     1   0.15110 237065.440000
   6389   6392     1   0.15375 251793.120000
   6392   6398     1   0.14316 258236.480000
   6400   6403     1   0.15375 251793.120000
   6400   6409     1   0.15110 237065.440000
   6403   6406     1   0.15375 251793.120000
   6406   6412     1   0.14316 258236.480000
   6414   6417     1   0.15375 251793.120000
   6414   6423     1   0.15110 237065.440000
   6417   6420     1   0.15375 251793.120000
   6420   6426     1   0.14316 258236.480000
   6428   6431     1   0.15375 251793.120000
   6428   6437     1   0.15110 237065.440000
   6431   6434     1   0.15375 251793.120000
   6434   6440     1   0.14316 258236.480000
   6442   6445     1   0.15375 251793.120000
   6442   6451     1   0.15110 237065.440000
   6445   6448     1   0.15375 251793.120000
   6448   6454     1   0.14316 258236.480000
   6456   6459     1   0.15375 251793.120000
   6456   6465     1   0.15110 237065.440000
   6459   6462     1   0.15375 251793.120000
   6462   6468     1   0.14316 258236.480000
   6470   6473     1   0.15375 251793.120000
   6470   6479     1   0.15110 237065.440000
   6473   6476     1   0.15375 251793.120000
   6476   6482     1   0.14316 258236.480000
   6484   6487     1   0.15375 251793.120000
   6484   6493     1   0.15110 237065.440000
   6487   6490     1   0.15375 251793.120000
   6490   6496     1   0.14316 258236.480000
   6498   6501     1   0.15375 251793.120000
   6498   6507     1   0.15110 237065.440000
   6501   6504     1   0.15375 251793.120000
   6504   6510     1   0.14316 258236.480000
   6512   6515     1   0.15375 251793.120000
   6512   6521     1   0.15110 237065.440000
   6515   6518     1   0.15375 251793.120000
   6518   6524     1   0.14316 258236.480000
   6526   6529     1   0.15375 251793.120000
   6526   6535     1   0.15110 237065.440000
   6529   6532     1   0.15375 251793.120000
   6532   6538     1   0.14316 258236.480000
   6540   6543     1   0.15375 251793.120000
   6540   6549     1   0.15110 237065.440000
   6543   6546     1   0.15375 251793.120000
   6546   6552     1   0.14316 258236.480000
   6554   6557     1   0.15375 251793.120000
   6554   6563     1   0.15110 237065.440000
   6557   6560     1   0.15375 251793.120000
   6560   6566     1   0.14316 258236.480000
   6568   6571     1   0.15375 251793.120000
   6568   6577     1   0.15110 237065.440000
   6571   6574     1   0.15375 251793.120000
   6574   6580     1   0.14316 258236.480000
   6582   6585     1   0.15375 251793.120000
   6582   6591     1   0.15110 237065.440000
   6585   6588     1   0.15375 251793.120000
   6588   6594     1   0.14316 258236.480000
   6596   6599     1   0.15375 251793.120000
   6596   6605     1   0.15110 237065.440000
   6599   6602     1   0.15375 251793.120000
   6602   6608     1   0.14316 258236.480000
   6610   6613     1   0.15375 251793.120000
   6610   6619     1   0.15110 237065.440000
   6613   6616     1   0.15375 251793.120000
   6616   6622     1   0.14316 258236.480000
   6624   6627     1   0.15375 251793.120000
   6624   6633     1   0.15110 237065.440000
   6627   6630     1   0.15375 251793.120000
   6630   6636     1   0.14316 258236.480000
   6638   6641     1   0.15375 251793.120000
   6638   6647     1   0.15110 237065.440000
   6641   6644     1   0.15375 251793.120000
   6644   6650     1   0.14316 258236.480000
   6652   6655     1   0.15375 251793.120000
   6652   6661     1   0.15110 237065.440000
   6655   6658     1   0.15375 251793.120000
   6658   6664     1   0.14316 258236.480000
   6666   6669     1   0.15375 251793.120000
   6666   6675     1   0.15110 237065.440000
   6669   6672     1   0.15375 251793.120000
   6672   6678     1   0.14316 258236.480000
   6680   6683     1   0.15375 251793.120000
   6680   6689     1   0.15110 237065.440000
   6683   6686     1   0.15375 251793.120000
   6686   6692     1   0.14316 258236.480000
   6694   6697     1   0.15375 251793.120000
   6694   6703     1   0.15110 237065.440000
   6697   6700     1   0.15375 251793.120000
   6700   6706     1   0.14316 258236.480000
   6708   6711     1   0.15375 251793.120000
   6708   6717     1   0.15110 237065.440000
   6711   6714     1   0.15375 251793.120000
   6714   6720     1   0.14316 258236.480000
   6722   6725     1   0.15375 251793.120000
   6722   6731     1   0.15110 237065.440000
   6725   6728     1   0.15375 251793.120000
   6728   6734     1   0.14316 258236.480000
   6736   6739     1   0.15375 251793.120000
   6736   6745     1   0.15110 237065.440000
   6739   6742     1   0.15375 251793.120000
   6742   6748     1   0.14316 258236.480000
   6750   6753     1   0.15375 251793.120000
   6750   6759     1   0.15110 237065.440000
   6753   6756     1   0.15375 251793.120000
   6756   6762     1   0.14316 258236.480000
   6764   6767     1   0.15375 251793.120000
   6764   6773     1   0.15110 237065.440000
   6767   6770     1   0.15375 251793.120000
   6770   6776     1   0.14316 258236.480000
   6778   6781     1   0.15375 251793.120000
   6778   6787     1   0.15110 237065.440000
   6781   6784     1   0.15375 251793.120000
   6784   6790     1   0.14316 258236.480000
   6792   6795     1   0.15375 251793.120000
   6792   6801     1   0.15110 237065.440000
   6795   6798     1   0.15375 251793.120000
   6798   6804     1   0.14316 258236.480000
   6806   6809     1   0.15375 251793.120000
   6806   6815     1   0.15110 237065.440000
   6809   6812     1   0.15375 251793.120000
   6812   6818     1   0.14316 258236.480000
   6820   6823     1   0.15375 251793.120000
   6820   6829     1   0.15110 237065.440000
   6823   6826     1   0.15375 251793.120000
   6826   6832     1   0.14316 258236.480000
   6834   6837     1   0.15375 251793.120000
   6834   6843     1   0.15110 237065.440000
   6837   6840     1   0.15375 251793.120000
   6840   6846     1   0.14316 258236.480000
   6848   6851     1   0.15375 251793.120000
   6848   6857     1   0.15110 237065.440000
   6851   6854     1   0.15375 251793.120000
   6854   6860     1   0.14316 258236.480000
   6862   6865     1   0.15375 251793.120000
   6862   6871     1   0.15110 237065.440000
   6865   6868     1   0.15375 251793.120000
   6868   6874     1   0.14316 258236.480000
   6876   6879     1   0.15375 251793.120000
   6876   6885     1   0.15110 237065.440000
   6879   6882     1   0.15375 251793.120000
   6882   6888     1   0.14316 258236.480000
   6890   6893     1   0.15375 251793.120000
   6890   6899     1   0.15110 237065.440000
   6893   6896     1   0.15375 251793.120000
   6896   6902     1   0.14316 258236.480000
   6904   6907     1   0.15375 251793.120000
   6904   6913     1   0.15110 237065.440000
   6907   6910     1   0.15375 251793.120000
   6910   6916     1   0.14316 258236.480000
   6918   6921     1   0.15375 251793.120000
   6918   6927     1   0.15110 237065.440000
   6921   6924     1   0.15375 251793.120000
   6924   6930     1   0.14316 258236.480000
   6932   6935     1   0.15375 251793.120000
   6932   6941     1   0.15110 237065.440000
   6935   6938     1   0.15375 251793.120000
   6938   6944     1   0.14316 258236.480000
   6946   6949     1   0.15375 251793.120000
   6946   6955     1   0.15110 237065.440000
   6949   6952     1   0.15375 251793.120000
   6952   6958     1   0.14316 258236.480000
   6960   6963     1   0.15375 251793.120000
   6960   6969     1   0.15110 237065.440000
   6963   6966     1   0.15375 251793.120000
   6966   6972     1   0.14316 258236.480000
   6974   6977     1   0.15375 251793.120000
   6974   6983     1   0.15110 237065.440000
   6977   6980     1   0.15375 251793.120000
   6980   6986     1   0.14316 258236.480000
   6988   6991     1   0.15375 251793.120000
   6988   6997     1   0.15110 237065.440000
   6991   6994     1   0.15375 251793.120000
   6994   7000     1   0.14316 258236.480000
   7002   7005     1   0.15375 251793.120000
   7002   7011     1   0.15110 237065.440000
   7005   7008     1   0.15375 251793.120000
   7008   7014     1   0.14316 258236.480000
   7016   7019     1   0.15375 251793.120000
   7016   7025     1   0.15110 237065.440000
   7019   7022     1   0.15375 251793.120000
   7022   7028     1   0.14316 258236.480000
   7030   7033     1   0.15375 251793.120000
   7030   7039     1   0.15110 237065.440000
   7033   7036     1   0.15375 251793.120000
   7036   7042     1   0.14316 258236.480000
   7044   7047     1   0.15375 251793.120000
   7044   7053     1   0.15110 237065.440000
   7047   7050     1   0.15375 251793.120000
   7050   7056     1   0.14316 258236.480000
   7058   7061     1   0.15375 251793.120000
   7058   7067     1   0.15110 237065.440000
   7061   7064     1   0.15375 251793.120000
   7064   7070     1   0.14316 258236.480000
   7072   7075     1   0.15375 251793.120000
   7072   7081     1   0.15110 237065.440000
   7075   7078     1   0.15375 251793.120000
   7078   7084     1   0.14316 258236.480000
   7086   7089     1   0.15375 251793.120000
   7086   7095     1   0.15110 237065.440000
   7089   7092     1   0.15375 251793.120000
   7092   7098     1   0.14316 258236.480000
   7100   7103     1   0.15375 251793.120000
   7100   7109     1   0.15110 237065.440000
   7103   7106     1   0.15375 251793.120000
   7106   7112     1   0.14316 258236.480000
   7114   7117     1   0.15375 251793.120000
   7114   7123     1   0.15110 237065.440000
   7117   7120     1   0.15375 251793.120000
   7120   7126     1   0.14316 258236.480000
   7128   7131     1   0.15375 251793.120000
   7128   7137     1   0.15110 237065.440000
   7131   7134     1   0.15375 251793.120000
   7134   7140     1   0.14316 258236.480000
   7142   7145     1   0.15375 251793.120000
   7142   7151     1   0.15110 237065.440000
   7145   7148     1   0.15375 251793.120000
   7148   7154     1   0.14316 258236.480000
   7156   7159     1   0.15375 251793.120000
   7156   7165     1   0.15110 237065.440000
   7159   7162     1   0.15375 251793.120000
   7162   7168     1   0.14316 258236.480000
   7170   7173     1   0.15375 251793.120000
   7170   7179     1   0.15110 237065.440000
   7173   7176     1   0.15375 251793.120000
   7176   7182     1   0.14316 258236.480000
   7184   7187     1   0.15375 251793.120000
   7184   7193     1   0.15110 237065.440000
   7187   7190     1   0.15375 251793.120000
   7190   7196     1   0.14316 258236.480000
   7198   7201     1   0.15375 251793.120000
   7198   7207     1   0.15110 237065.440000
   7201   7204     1   0.15375 251793.120000
   7204   7210     1   0.14316 258236.480000
   7212   7215     1   0.15375 251793.120000
   7212   7221     1   0.15110 237065.440000
   7215   7218     1   0.15375 251793.120000
   7218   7224     1   0.14316 258236.480000
   7226   7229     1   0.15375 251793.120000
   7226   7235     1   0.15110 237065.440000
   7229   7232     1   0.15375 251793.120000
   7232   7238     1   0.14316 258236.480000
   7240   7243     1   0.15375 251793.120000
   7240   7249     1   0.15110 237065.440000
   7243   7246     1   0.15375 251793.120000
   7246   7252     1   0.14316 258236.480000
   7254   7257     1   0.15375 251793.120000
   7254   7263     1   0.15110 237065.440000
   7257   7260     1   0.15375 251793.120000
   7260   7266     1   0.14316 258236.480000
   7268   7271     1   0.15375 251793.120000
   7268   7277     1   0.15110 237065.440000
   7271   7274     1   0.15375 251793.120000
   7274   7280     1   0.14316 258236.480000
   7282   7285     1   0.15375 251793.120000
   7282   7291     1   0.15110 237065.440000
   7285   7288     1   0.15375 251793.120000
   7288   7294     1   0.14316 258236.480000
   7296   7299     1   0.15375 251793.120000
   7296   7305     1   0.15110 237065.440000
   7299   7302     1   0.15375 251793.120000
   7302   7308     1   0.14316 258236.480000
   7310   7313     1   0.15375 251793.120000
   7310   7319     1   0.15110 237065.440000
   7313   7316     1   0.15375 251793.120000
   7316   7322     1   0.14316 258236.480000
   7324   7327     1   0.15375 251793.120000
   7324   7333     1   0.15110 237065.440000
   7327   7330     1   0.15375 251793.120000
   7330   7336     1   0.14316 258236.480000
   7338   7341     1   0.15375 251793.120000
   7338   7347     1   0.15110 237065.440000
   7341   7344     1   0.15375 251793.120000
   7344   7350     1   0.14316 258236.480000
   7352   7355     1   0.15375 251793.120000
   7352   7361     1   0.15110 237065.440000
   7355   7358     1   0.15375 251793.120000
   7358   7364     1   0.14316 258236.480000
   7366   7369     1   0.15375 251793.120000
   7366   7375     1   0.15110 237065.440000
   7369   7372     1   0.15375 251793.120000
   7372   7378     1   0.14316 258236.480000
   7380   7383     1   0.15375 251793.120000
   7380   7389     1   0.15110 237065.440000
   7383   7386     1   0.15375 251793.120000
   7386   7392     1   0.14316 258236.480000
   7394   7397     1   0.15375 251793.120000
   7394   7403     1   0.15110 237065.440000
   7397   7400     1   0.15375 251793.120000
   7400   7406     1   0.14316 258236.480000
   7408   7411     1   0.15375 251793.120000
   7408   7417     1   0.15110 237065.440000
   7411   7414     1   0.15375 251793.120000
   7414   7420     1   0.14316 258236.480000
   7422   7425     1   0.15375 251793.120000
   7422   7431     1   0.15110 237065.440000
   7425   7428     1   0.15375 251793.120000
   7428   7434     1   0.14316 258236.480000
   7436   7439     1   0.15375 251793.120000
   7436   7445     1   0.15110 237065.440000
   7439   7442     1   0.15375 251793.120000
   7442   7448     1   0.14316 258236.480000
   7450   7453     1   0.15375 251793.120000
   7450   7459     1   0.15110 237065.440000
   7453   7456     1   0.15375 251793.120000
   7456   7462     1   0.14316 258236.480000
   7464   7467     1   0.15375 251793.120000
   7464   7473     1   0.15110 237065.440000
   7467   7470     1   0.15375 251793.120000
   7470   7476     1   0.14316 258236.480000
   7478   7481     1   0.15375 251793.120000
   7478   7487     1   0.15110 237065.440000
   7481   7484     1   0.15375 251793.120000
   7484   7490     1   0.14316 258236.480000
   7492   7495     1   0.15375 251793.120000
   7492   7501     1   0.15110 237065.440000
   7495   7498     1   0.15375 251793.120000
   7498   7504     1   0.14316 258236.480000
   7506   7509     1   0.15375 251793.120000
   7506   7515     1   0.15110 237065.440000
   7509   7512     1   0.15375 251793.120000
   7512   7518     1   0.14316 258236.480000
   7520   7523     1   0.15375 251793.120000
   7520   7529     1   0.15110 237065.440000
   7523   7526     1   0.15375 251793.120000
   7526   7532     1   0.14316 258236.480000
   7534   7537     1   0.15375 251793.120000
   7534   7543     1   0.15110 237065.440000
   7537   7540     1   0.15375 251793.120000
   7540   7546     1   0.14316 258236.480000
   7548   7551     1   0.15375 251793.120000
   7548   7557     1   0.15110 237065.440000
   7551   7554     1   0.15375 251793.120000
   7554   7560     1   0.14316 258236.480000
   7562   7565     1   0.15375 251793.120000
   7562   7571     1   0.15110 237065.440000
   7565   7568     1   0.15375 251793.120000
   7568   7574     1   0.14316 258236.480000
   7576   7579     1   0.15375 251793.120000
   7576   7585     1   0.15110 237065.440000
   7579   7582     1   0.15375 251793.120000
   7582   7588     1   0.14316 258236.480000
   7590   7593     1   0.15375 251793.120000
   7590   7599     1   0.15110 237065.440000
   7593   7596     1   0.15375 251793.120000
   7596   7602     1   0.14316 258236.480000
   7604   7607     1   0.15375 251793.120000
   7604   7613     1   0.15110 237065.440000
   7607   7610     1   0.15375 251793.120000
   7610   7616     1   0.14316 258236.480000
   7618   7621     1   0.15375 251793.120000
   7618   7627     1   0.15110 237065.440000
   7621   7624     1   0.15375 251793.120000
   7624   7630     1   0.14316 258236.480000
   7632   7635     1   0.15375 251793.120000
   7632   7641     1   0.15110 237065.440000
   7635   7638     1   0.15375 251793.120000
   7638   7644     1   0.14316 258236.480000
   7646   7649     1   0.15375 251793.120000
   7646   7655     1   0.15110 237065.440000
   7649   7652     1   0.15375 251793.120000
   7652   7658     1   0.14316 258236.480000
   7660   7663     1   0.15375 251793.120000
   7660   7669     1   0.15110 237065.440000
   7663   7666     1   0.15375 251793.120000
   7666   7672     1   0.14316 258236.480000
   7674   7677     1   0.15375 251793.120000
   7674   7683     1   0.15110 237065.440000
   7677   7680     1   0.15375 251793.120000
   7680   7686     1   0.14316 258236.480000
   7688   7691     1   0.15375 251793.120000
   7688   7697     1   0.15110 237065.440000
   7691   7694     1   0.15375 251793.120000
   7694   7700     1   0.14316 258236.480000
   7702   7705     1   0.15375 251793.120000
   7702   7711     1   0.15110 237065.440000
   7705   7708     1   0.15375 251793.120000
   7708   7714     1   0.14316 258236.480000
   7716   7719     1   0.15375 251793.120000
   7716   7725     1   0.15110 237065.440000
   7719   7722     1   0.15375 251793.120000
   7722   7728     1   0.14316 258236.480000
   7730   7733     1   0.15375 251793.120000
   7730   7739     1   0.15110 237065.440000
   7733   7736     1   0.15375 251793.120000
   7736   7742     1   0.14316 258236.480000
   7744   7747     1   0.15375 251793.120000
   7744   7753     1   0.15110 237065.440000
   7747   7750     1   0.15375 251793.120000
   7750   7756     1   0.14316 258236.480000
   7758   7761     1   0.15375 251793.120000
   7758   7767     1   0.15110 237065.440000
   7761   7764     1   0.15375 251793.120000
   7764   7770     1   0.14316 258236.480000
   7772   7775     1   0.15375 251793.120000
   7772   7781     1   0.15110 237065.440000
   7775   7778     1   0.15375 251793.120000
   7778   7784     1   0.14316 258236.480000
   7786   7789     1   0.15375 251793.120000
   7786   7795     1   0.15110 237065.440000
   7789   7792     1   0.15375 251793.120000
   7792   7798     1   0.14316 258236.480000
   7800   7803     1   0.15375 251793.120000
   7800   7809     1   0.15110 237065.440000
   7803   7806     1   0.15375 251793.120000
   7806   7812     1   0.14316 258236.480000
   7814   7817     1   0.15375 251793.120000
   7814   7823     1   0.15110 237065.440000
   7817   7820     1   0.15375 251793.120000
   7820   7826     1   0.14316 258236.480000
   7828   7831     1   0.15375 251793.120000
   7828   7837     1   0.15110 237065.440000
   7831   7834     1   0.15375 251793.120000
   7834   7840     1   0.14316 258236.480000
   7842   7845     1   0.15375 251793.120000
   7842   7851     1   0.15110 237065.440000
   7845   7848     1   0.15375 251793.120000
   7848   7854     1   0.14316 258236.480000
   7856   7859     1   0.15375 251793.120000
   7856   7865     1   0.15110 237065.440000
   7859   7862     1   0.15375 251793.120000
   7862   7868     1   0.14316 258236.480000
   7870   7873     1   0.15375 251793.120000
   7870   7879     1   0.15110 237065.440000
   7873   7876     1   0.15375 251793.120000
   7876   7882     1   0.14316 258236.480000
   7884   7887     1   0.15375 251793.120000
   7884   7893     1   0.15110 237065.440000
   7887   7890     1   0.15375 251793.120000
   7890   7896     1   0.14316 258236.480000
   7898   7901     1   0.15375 251793.120000
   7898   7907     1   0.15110 237065.440000
   7901   7904     1   0.15375 251793.120000
   7904   7910     1   0.14316 258236.480000
   7912   7915     1   0.15375 251793.120000
   7912   7921     1   0.15110 237065.440000
   7915   7918     1   0.15375 251793.120000
   7918   7924     1   0.14316 258236.480000
   7926   7929     1   0.15375 251793.120000
   7926   7935     1   0.15110 237065.440000
   7929   7932     1   0.15375 251793.120000
   7932   7938     1   0.14316 258236.480000
   7940   7943     1   0.15375 251793.120000
   7940   7949     1   0.15110 237065.440000
   7943   7946     1   0.15375 251793.120000
   7946   7952     1   0.14316 258236.480000
   7954   7957     1   0.15375 251793.120000
   7954   7963     1   0.15110 237065.440000
   7957   7960     1   0.15375 251793.120000
   7960   7966     1   0.14316 258236.480000
   7968   7971     1   0.15375 251793.120000
   7968   7977     1   0.15110 237065.440000
   7971   7974     1   0.15375 251793.120000
   7974   7980     1   0.14316 258236.480000
   7982   7985     1   0.15375 251793.120000
   7982   7991     1   0.15110 237065.440000
   7985   7988     1   0.15375 251793.120000
   7988   7994     1   0.14316 258236.480000
   7996   7999     1   0.15375 251793.120000
   7996   8005     1   0.15110 237065.440000
   7999   8002     1   0.15375 251793.120000
   8002   8008     1   0.14316 258236.480000
   8010   8013     1   0.15375 251793.120000
   8010   8019     1   0.15110 237065.440000
   8013   8016     1   0.15375 251793.120000
   8016   8022     1   0.14316 258236.480000
   8024   8027     1   0.15375 251793.120000
   8024   8033     1   0.15110 237065.440000
   8027   8030     1   0.15375 251793.120000
   8030   8036     1   0.14316 258236.480000
   8038   8041     1   0.15375 251793.120000
   8038   8047     1   0.15110 237065.440000
   8041   8044     1   0.15375 251793.120000
   8044   8050     1   0.14316 258236.480000
   8052   8055     1   0.15375 251793.120000
   8052   8061     1   0.15110 237065.440000
   8055   8058     1   0.15375 251793.120000
   8058   8064     1   0.14316 258236.480000
   8066   8069     1   0.15375 251793.120000
   8066   8075     1   0.15110 237065.440000
   8069   8072     1   0.15375 251793.120000
   8072   8078     1   0.14316 258236.480000
   8080   8083     1   0.15375 251793.120000
   8080   8089     1   0.15110 237065.440000
   8083   8086     1   0.15375 251793.120000
   8086   8092     1   0.14316 258236.480000
   8094   8097     1   0.15375 251793.120000
   8094   8103     1   0.15110 237065.440000
   8097   8100     1   0.15375 251793.120000
   8100   8106     1   0.14316 258236.480000
   8108   8111     1   0.15375 251793.120000
   8108   8117     1   0.15110 237065.440000
   8111   8114     1   0.15375 251793.120000
   8114   8120     1   0.14316 258236.480000
   8122   8125     1   0.15375 251793.120000
   8122   8131     1   0.15110 237065.440000
   8125   8128     1   0.15375 251793.120000
   8128   8134     1   0.14316 258236.480000
   8136   8139     1   0.15375 251793.120000
   8136   8145     1   0.15110 237065.440000
   8139   8142     1   0.15375 251793.120000
   8142   8148     1   0.14316 258236.480000
   8150   8153     1   0.15375 251793.120000
   8150   8159     1   0.15110 237065.440000
   8153   8156     1   0.15375 251793.120000
   8156   8162     1   0.14316 258236.480000
   8164   8167     1   0.15375 251793.120000
   8164   8173     1   0.15110 237065.440000
   8167   8170     1   0.15375 251793.120000
   8170   8176     1   0.14316 258236.480000
   8178   8181     1   0.15375 251793.120000
   8178   8187     1   0.15110 237065.440000
   8181   8184     1   0.15375 251793.120000
   8184   8190     1   0.14316 258236.480000
   8192   8195     1   0.15375 251793.120000
   8192   8201     1   0.15110 237065.440000
   8195   8198     1   0.15375 251793.120000
   8198   8204     1   0.14316 258236.480000
   8206   8209     1   0.15375 251793.120000
   8206   8215     1   0.15110 237065.440000
   8209   8212     1   0.15375 251793.120000
   8212   8218     1   0.14316 258236.480000
   8220   8223     1   0.15375 251793.120000
   8220   8229     1   0.15110 237065.440000
   8223   8226     1   0.15375 251793.120000
   8226   8232     1   0.14316 258236.480000
   8234   8237     1   0.15375 251793.120000
   8234   8243     1   0.15110 237065.440000
   8237   8240     1   0.15375 251793.120000
   8240   8246     1   0.14316 258236.480000
   8248   8251     1   0.15375 251793.120000
   8248   8257     1   0.15110 237065.440000
   8251   8254     1   0.15375 251793.120000
   8254   8260     1   0.14316 258236.480000
   8262   8265     1   0.15375 251793.120000
   8262   8271     1   0.15110 237065.440000
   8265   8268     1   0.15375 251793.120000
   8268   8274     1   0.14316 258236.480000
   8276   8279     1   0.15375 251793.120000
   8276   8285     1   0.15110 237065.440000
   8279   8282     1   0.15375 251793.120000
   8282   8288     1   0.14316 258236.480000
   8290   8293     1   0.15375 251793.120000
   8290   8299     1   0.15110 237065.440000
   8293   8296     1   0.15375 251793.120000
   8296   8302     1   0.14316 258236.480000
   8304   8307     1   0.15375 251793.120000
   8304   8313     1   0.15110 237065.440000
   8307   8310     1   0.15375 251793.120000
   8310   8316     1   0.14316 258236.480000
   8318   8321     1   0.15375 251793.120000
   8318   8327     1   0.15110 237065.440000
   8321   8324     1   0.15375 251793.120000
   8324   8330     1   0.14316 258236.480000
   8332   8335     1   0.15375 251793.120000
   8332   8341     1   0.15110 237065.440000
   8335   8338     1   0.15375 251793.120000
   8338   8344     1   0.14316 258236.480000
   8346   8349     1   0.15375 251793.120000
   8346   8355     1   0.15110 237065.440000
   8349   8352     1   0.15375 251793.120000
   8352   8358     1   0.14316 258236.480000
   8360   8363     1   0.15375 251793.120000
   8360   8369     1   0.15110 237065.440000
   8363   8366     1   0.15375 251793.120000
   8366   8372     1   0.14316 258236.480000
   8374   8377     1   0.15375 251793.120000
   8374   8383     1   0.15110 237065.440000
   8377   8380     1   0.15375 251793.120000
   8380   8386     1   0.14316 258236.480000
      1     29     1   0.10304 312293.760000
      2      3     1   0.10910 283424.160000
      2      4     1   0.10910 283424.160000
      5      6     1   0.10910 283424.160000
      5      7     1   0.10910 283424.160000
      8      9     1   0.10910 283424.160000
      8     10     1   0.10910 283424.160000
     11     12     1   0.10969 276646.080000
     11     13     1   0.10969 276646.080000
     14     15     1   0.10969 276646.080000
     14     16     1   0.10969 276646.080000
     17     18     1   0.10969 276646.080000
     17     19     1   0.10969 276646.080000
     20     21     1   0.10969 276646.080000
     20     22     1   0.10969 276646.080000
     23     24     1   0.10969 276646.080000
     23     25     1   0.10969 276646.080000
     26     27     1   0.10969 276646.080000
     26     28     1   0.10969 276646.080000
     30     59     1   0.10304 312293.760000
     31     32     1   0.10910 283424.160000
     31     33     1   0.10910 283424.160000
     34     35     1   0.10910 283424.160000
     34     36     1   0.10910 283424.160000
     37     38     1   0.10910 283424.160000
     37     39     1   0.10910 283424.160000
     40     41     1   0.10969 276646.080000
     40     42     1   0.10969 276646.080000
     43     44     1   0.10969 276646.080000
     43     45     1   0.10969 276646.080000
     46     47     1   0.10969 276646.080000
     46     48     1   0.10969 276646.080000
     49     50     1   0.10969 276646.080000
     49     51     1   0.10969 276646.080000
     52     53     1   0.10969 276646.080000
     52     54     1   0.10969 276646.080000
     55     56     1   0.10969 276646.080000
     55     57     1   0.10969 276646.080000
     60     89     1   0.10304 312293.760000
     61     62     1   0.10910 283424.160000
     61     63     1   0.10910 283424.160000
     64     65     1   0.10910 283424.160000
     64     66     1   0.10910 283424.160000
     67     68     1   0.10910 283424.160000
     67     69     1   0.10910 283424.160000
     70     71     1   0.10969 276646.080000
     70     72     1   0.10969 276646.080000
     73     74     1   0.10969 276646.080000
     73     75     1   0.10969 276646.080000
     76     77     1   0.10969 276646.080000
     76     78     1   0.10969 276646.080000
     79     80     1   0.10969 276646.080000
     79     81     1   0.10969 276646.080000
     82     83     1   0.10969 276646.080000
     82     84     1   0.10969 276646.080000
     85     86     1   0.10969 276646.080000
     85     87     1   0.10969 276646.080000
     90    119     1   0.10304 312293.760000
     91     92     1   0.10910 283424.160000
     91     93     1   0.10910 283424.160000
     94     95     1   0.10910 283424.160000
     94     96     1   0.10910 283424.160000
     97     98     1   0.10910 283424.160000
     97     99     1   0.10910 283424.160000
    100    101     1   0.10969 276646.080000
    100    102     1   0.10969 276646.080000
    103    104     1   0.10969 276646.080000
    103    105     1   0.10969 276646.080000
    106    107     1   0.10969 276646.080000
    106    108     1   0.10969 276646.080000
    109    110     1   0.10969 276646.080000
    109    111     1   0.10969 276646.080000
    112    113     1   0.10969 276646.080000
    112    114     1   0.10969 276646.080000
    115    116     1   0.10969 276646.080000
    115    117     1   0.10969 276646.080000
    120    149     1   0.10304 312293.760000
    121    122     1   0.10910 283424.160000
    121    123     1   0.10910 283424.160000
    124    125     1   0.10910 283424.160000
    124    126     1   0.10910 283424.160000
    127    128     1   0.10910 283424.160000
    127    129     1   0.10910 283424.160000
    130    131     1   0.10969 276646.080000
    130    132     1   0.10969 276646.080000
    133    134     1   0.10969 276646.080000
    133    135     1   0.10969 276646.080000
    136    137     1   0.10969 276646.080000
    136    138     1   0.10969 276646.080000
    139    140     1   0.10969 276646.080000
    139    141     1   0.10969 276646.080000
    142    143     1   0.10969 276646.080000
    142    144     1   0.10969 276646.080000
    145    146     1   0.10969 276646.080000
    145    147     1   0.10969 276646.080000
    150    179     1   0.10304 312293.760000
    151    152     1   0.10910 283424.160000
    151    153     1   0.10910 283424.160000
    154    155     1   0.10910 283424.160000
    154    156     1   0.10910 283424.160000
    157    158     1   0.10910 283424.160000
    157    159     1   0.10910 283424.160000
    160    161     1   0.10969 276646.080000
    160    162     1   0.10969 276646.080000
    163    164     1   0.10969 276646.080000
    163    165     1   0.10969 276646.080000
    166    167     1   0.10969 276646.080000
    166    168     1   0.10969 276646.080000
    169    170     1   0.10969 276646.080000
    169    171     1   0.10969 276646.080000
    172    173     1   0.10969 276646.080000
    172    174     1   0.10969 276646.080000
    175    176     1   0.10969 276646.080000
    175    177     1   0.10969 276646.080000
    180    209     1   0.10304 312293.760000
    181    182     1   0.10910 283424.160000
    181    183     1   0.10910 283424.160000
    184    185     1   0.10910 283424.160000
    184    186     1   0.10910 283424.160000
    187    188     1   0.10910 283424.160000
    187    189     1   0.10910 283424.160000
    190    191     1   0.10969 276646.080000
    190    192     1   0.10969 276646.080000
    193    194     1   0.10969 276646.080000
    193    195     1   0.10969 276646.080000
    196    197     1   0.10969 276646.080000
    196    198     1   0.10969 276646.080000
    199    200     1   0.10969 276646.080000
    199    201     1   0.10969 276646.080000
    202    203     1   0.10969 276646.080000
    202    204     1   0.10969 276646.080000
    205    206     1   0.10969 276646.080000
    205    207     1   0.10969 276646.080000
    210    239     1   0.10304 312293.760000
    211    212     1   0.10910 283424.160000
    211    213     1   0.10910 283424.160000
    214    215     1   0.10910 283424.160000
    214    216     1   0.10910 283424.160000
    217    218     1   0.10910 283424.160000
    217    219     1   0.10910 283424.160000
    220    221     1   0.10969 276646.080000
    220    222     1   0.10969 276646.080000
    223    224     1   0.10969 276646.080000
    223    225     1   0.10969 276646.080000
    226    227     1   0.10969 276646.080000
    226    228     1   0.10969 276646.080000
    229    230     1   0.10969 276646.080000
    229    231     1   0.10969 276646.080000
    232    233     1   0.10969 276646.080000
    232    234     1   0.10969 276646.080000
    235    236     1   0.10969 276646.080000
    235    237     1   0.10969 276646.080000
    240    269     1   0.10304 312293.760000
    241    242     1   0.10910 283424.160000
    241    243     1   0.10910 283424.160000
    244    245     1   0.10910 283424.160000
    244    246     1   0.10910 283424.160000
    247    248     1   0.10910 283424.160000
    247    249     1   0.10910 283424.160000
    250    251     1   0.10969 276646.080000
    250    252     1   0.10969 276646.080000
    253    254     1   0.10969 276646.080000
    253    255     1   0.10969 276646.080000
    256    257     1   0.10969 276646.080000
    256    258     1   0.10969 276646.080000
    259    260     1   0.10969 276646.080000
    259    261     1   0.10969 276646.080000
    262    263     1   0.10969 276646.080000
    262    264     1   0.10969 276646.080000
    265    266     1   0.10969 276646.080000
    265    267     1   0.10969 276646.080000
    270    299     1   0.10304 312293.760000
    271    272     1   0.10910 283424.160000
    271    273     1   0.10910 283424.160000
    274    275     1   0.10910 283424.160000
    274    276     1   0.10910 283424.160000
    277    278     1   0.10910 283424.160000
    277    279     1   0.10910 283424.160000
    280    281     1   0.10969 276646.080000
    280    282     1   0.10969 276646.080000
    283    284     1   0.10969 276646.080000
    283    285     1   0.10969 276646.080000
    286    287     1   0.10969 276646.080000
    286    288     1   0.10969 276646.080000
    289    290     1   0.10969 276646.080000
    289    291     1   0.10969 276646.080000
    292    293     1   0.10969 276646.080000
    292    294     1   0.10969 276646.080000
    295    296     1   0.10969 276646.080000
    295    297     1   0.10969 276646.080000
    300    329     1   0.10304 312293.760000
    301    302     1   0.10910 283424.160000
    301    303     1   0.10910 283424.160000
    304    305     1   0.10910 283424.160000
    304    306     1   0.10910 283424.160000
    307    308     1   0.10910 283424.160000
    307    309     1   0.10910 283424.160000
    310    311     1   0.10969 276646.080000
    310    312     1   0.10969 276646.080000
    313    314     1   0.10969 276646.080000
    313    315     1   0.10969 276646.080000
    316    317     1   0.10969 276646.080000
    316    318     1   0.10969 276646.080000
    319    320     1   0.10969 276646.080000
    319    321     1   0.10969 276646.080000
    322    323     1   0.10969 276646.080000
    322    324     1   0.10969 276646.080000
    325    326     1   0.10969 276646.080000
    325    327     1   0.10969 276646.080000
    330    359     1   0.10304 312293.760000
    331    332     1   0.10910 283424.160000
    331    333     1   0.10910 283424.160000
    334    335     1   0.10910 283424.160000
    334    336     1   0.10910 283424.160000
    337    338     1   0.10910 283424.160000
    337    339     1   0.10910 283424.160000
    340    341     1   0.10969 276646.080000
    340    342     1   0.10969 276646.080000
    343    344     1   0.10969 276646.080000
    343    345     1   0.10969 276646.080000
    346    347     1   0.10969 276646.080000
    346    348     1   0.10969 276646.080000
    349    350     1   0.10969 276646.080000
    349    351     1   0.10969 276646.080000
    352    353     1   0.10969 276646.080000
    352    354     1   0.10969 276646.080000
    355    356     1   0.10969 276646.080000
    355    357     1   0.10969 276646.080000
    360    389     1   0.10304 312293.760000
    361    362     1   0.10910 283424.160000
    361    363     1   0.10910 283424.160000
    364    365     1   0.10910 283424.160000
    364    366     1   0.10910 283424.160000
    367    368     1   0.10910 283424.160000
    367    369     1   0.10910 283424.160000
    370    371     1   0.10969 276646.080000
    370    372     1   0.10969 276646.080000
    373    374     1   0.10969 276646.080000
    373    375     1   0.10969 276646.080000
    376    377     1   0.10969 276646.080000
    376    378     1   0.10969 276646.080000
    379    380     1   0.10969 276646.080000
    379    381     1   0.10969 276646.080000
    382    383     1   0.10969 276646.080000
    382    384     1   0.10969 276646.080000
    385    386     1   0.10969 276646.080000
    385    387     1   0.10969 276646.080000
    390    419     1   0.10304 312293.760000
    391    392     1   0.10910 283424.160000
    391    393     1   0.10910 283424.160000
    394    395     1   0.10910 283424.160000
    394    396     1   0.10910 283424.160000
    397    398     1   0.10910 283424.160000
    397    399     1   0.10910 283424.160000
    400    401     1   0.10969 276646.080000
    400    402     1   0.10969 276646.080000
    403    404     1   0.10969 276646.080000
    403    405     1   0.10969 276646.080000
    406    407     1   0.10969 276646.080000
    406    408     1   0.10969 276646.080000
    409    410     1   0.10969 276646.080000
    409    411     1   0.10969 276646.080000
    412    413     1   0.10969 276646.080000
    412    414     1   0.10969 276646.080000
    415    416     1   0.10969 276646.080000
    415    417     1   0.10969 276646.080000
    420    449     1   0.10304 312293.760000
    421    422     1   0.10910 283424.160000
    421    423     1   0.10910 283424.160000
    424    425     1   0.10910 283424.160000
    424    426     1   0.10910 283424.160000
    427    428     1   0.10910 283424.160000
    427    429     1   0.10910 283424.160000
    430    431     1   0.10969 276646.080000
    430    432     1   0.10969 276646.080000
    433    434     1   0.10969 276646.080000
    433    435     1   0.10969 276646.080000
    436    437     1   0.10969 276646.080000
    436    438     1   0.10969 276646.080000
    439    440     1   0.10969 276646.080000
    439    441     1   0.10969 276646.080000
    442    443     1   0.10969 276646.080000
    442    444     1   0.10969 276646.080000
    445    446     1   0.10969 276646.080000
    445    447     1   0.10969 276646.080000
    450    479     1   0.10304 312293.760000
    451    452     1   0.10910 283424.160000
    451    453     1   0.10910 283424.160000
    454    455     1   0.10910 283424.160000
    454    456     1   0.10910 283424.160000
    457    458     1   0.10910 283424.160000
    457    459     1   0.10910 283424.160000
    460    461     1   0.10969 276646.080000
    460    462     1   0.10969 276646.080000
    463    464     1   0.10969 276646.080000
    463    465     1   0.10969 276646.080000
    466    467     1   0.10969 276646.080000
    466    468     1   0.10969 276646.080000
    469    470     1   0.10969 276646.080000
    469    471     1   0.10969 276646.080000
    472    473     1   0.10969 276646.080000
    472    474     1   0.10969 276646.080000
    475    476     1   0.10969 276646.080000
    475    477     1   0.10969 276646.080000
    480    509     1   0.10304 312293.760000
    481    482     1   0.10910 283424.160000
    481    483     1   0.10910 283424.160000
    484    485     1   0.10910 283424.160000
    484    486     1   0.10910 283424.160000
    487    488     1   0.10910 283424.160000
    487    489     1   0.10910 283424.160000
    490    491     1   0.10969 276646.080000
    490    492     1   0.10969 276646.080000
    493    494     1   0.10969 276646.080000
    493    495     1   0.10969 276646.080000
    496    497     1   0.10969 276646.080000
    496    498     1   0.10969 276646.080000
    499    500     1   0.10969 276646.080000
    499    501     1   0.10969 276646.080000
    502    503     1   0.10969 276646.080000
    502    504     1   0.10969 276646.080000
    505    506     1   0.10969 276646.080000
    505    507     1   0.10969 276646.080000
    510    539     1   0.10304 312293.760000
    511    512     1   0.10910 283424.160000
    511    513     1   0.10910 283424.160000
    514    515     1   0.10910 283424.160000
    514    516     1   0.10910 283424.160000
    517    518     1   0.10910 283424.160000
    517    519     1   0.10910 283424.160000
    520    521     1   0.10969 276646.080000
    520    522     1   0.10969 276646.080000
    523    524     1   0.10969 276646.080000
    523    525     1   0.10969 276646.080000
    526    527     1   0.10969 276646.080000
    526    528     1   0.10969 276646.080000
    529    530     1   0.10969 276646.080000
    529    531     1   0.10969 276646.080000
    532    533     1   0.10969 276646.080000
    532    534     1   0.10969 276646.080000
    535    536     1   0.10969 276646.080000
    535    537     1   0.10969 276646.080000
    540    569     1   0.10304 312293.760000
    541    542     1   0.10910 283424.160000
    541    543     1   0.10910 283424.160000
    544    545     1   0.10910 283424.160000
    544    546     1   0.10910 283424.160000
    547    548     1   0.10910 283424.160000
    547    549     1   0.10910 283424.160000
    550    551     1   0.10969 276646.080000
    550    552     1   0.10969 276646.080000
    553    554     1   0.10969 276646.080000
    553    555     1   0.10969 276646.080000
    556    557     1   0.10969 276646.080000
    556    558     1   0.10969 276646.080000
    559    560     1   0.10969 276646.080000
    559    561     1   0.10969 276646.080000
    562    563     1   0.10969 276646.080000
    562    564     1   0.10969 276646.080000
    565    566     1   0.10969 276646.080000
    565    567     1   0.10969 276646.080000
    570    599     1   0.10304 312293.760000
    571    572     1   0.10910 283424.160000
    571    573     1   0.10910 283424.160000
    574    575     1   0.10910 283424.160000
    574    576     1   0.10910 283424.160000
    577    578     1   0.10910 283424.160000
    577    579     1   0.10910 283424.160000
    580    581     1   0.10969 276646.080000
    580    582     1   0.10969 276646.080000
    583    584     1   0.10969 276646.080000
    583    585     1   0.10969 276646.080000
    586    587     1   0.10969 276646.080000
    586    588     1   0.10969 276646.080000
    589    590     1   0.10969 276646.080000
    589    591     1   0.10969 276646.080000
    592    593     1   0.10969 276646.080000
    592    594     1   0.10969 276646.080000
    595    596     1   0.10969 276646.080000
    595    597     1   0.10969 276646.080000
    600    629     1   0.10304 312293.760000
    601    602     1   0.10910 283424.160000
    601    603     1   0.10910 283424.160000
    604    605     1   0.10910 283424.160000
    604    606     1   0.10910 283424.160000
    607    608     1   0.10910 283424.160000
    607    609     1   0.10910 283424.160000
    610    611     1   0.10969 276646.080000
    610    612     1   0.10969 276646.080000
    613    614     1   0.10969 276646.080000
    613    615     1   0.10969 276646.080000
    616    617     1   0.10969 276646.080000
    616    618     1   0.10969 276646.080000
    619    620     1   0.10969 276646.080000
    619    621     1   0.10969 276646.080000
    622    623     1   0.10969 276646.080000
    622    624     1   0.10969 276646.080000
    625    626     1   0.10969 276646.080000
    625    627     1   0.10969 276646.080000
    630    659     1   0.10304 312293.760000
    631    632     1   0.10910 283424.160000
    631    633     1   0.10910 283424.160000
    634    635     1   0.10910 283424.160000
    634    636     1   0.10910 283424.160000
    637    638     1   0.10910 283424.160000
    637    639     1   0.10910 283424.160000
    640    641     1   0.10969 276646.080000
    640    642     1   0.10969 276646.080000
    643    644     1   0.10969 276646.080000
    643    645     1   0.10969 276646.080000
    646    647     1   0.10969 276646.080000
    646    648     1   0.10969 276646.080000
    649    650     1   0.10969 276646.080000
    649    651     1   0.10969 276646.080000
    652    653     1   0.10969 276646.080000
    652    654     1   0.10969 276646.080000
    655    656     1   0.10969 276646.080000
    655    657     1   0.10969 276646.080000
    660    689     1   0.10304 312293.760000
    661    662     1   0.10910 283424.160000
    661    663     1   0.10910 283424.160000
    664    665     1   0.10910 283424.160000
    664    666     1   0.10910 283424.160000
    667    668     1   0.10910 283424.160000
    667    669     1   0.10910 283424.160000
    670    671     1   0.10969 276646.080000
    670    672     1   0.10969 276646.080000
    673    674     1   0.10969 276646.080000
    673    675     1   0.10969 276646.080000
    676    677     1   0.10969 276646.080000
    676    678     1   0.10969 276646.080000
    679    680     1   0.10969 276646.080000
    679    681     1   0.10969 276646.080000
    682    683     1   0.10969 276646.080000
    682    684     1   0.10969 276646.080000
    685    686     1   0.10969 276646.080000
    685    687     1   0.10969 276646.080000
    690    719     1   0.10304 312293.760000
    691    692     1   0.10910 283424.160000
    691    693     1   0.10910 283424.160000
    694    695     1   0.10910 283424.160000
    694    696     1   0.10910 283424.160000
    697    698     1   0.10910 283424.160000
    697    699     1   0.10910 283424.160000
    700    701     1   0.10969 276646.080000
    700    702     1   0.10969 276646.080000
    703    704     1   0.10969 276646.080000
    703    705     1   0.10969 276646.080000
    706    707     1   0.10969 276646.080000
    706    708     1   0.10969 276646.080000
    709    710     1   0.10969 276646.080000
    709    711     1   0.10969 276646.080000
    712    713     1   0.10969 276646.080000
    712    714     1   0.10969 276646.080000
    715    716     1   0.10969 276646.080000
    715    717     1   0.10969 276646.080000
    720    749     1   0.10304 312293.760000
    721    722     1   0.10910 283424.160000
    721    723     1   0.10910 283424.160000
    724    725     1   0.10910 283424.160000
    724    726     1   0.10910 283424.160000
    727    728     1   0.10910 283424.160000
    727    729     1   0.10910 283424.160000
    730    731     1   0.10969 276646.080000
    730    732     1   0.10969 276646.080000
    733    734     1   0.10969 276646.080000
    733    735     1   0.10969 276646.080000
    736    737     1   0.10969 276646.080000
    736    738     1   0.10969 276646.080000
    739    740     1   0.10969 276646.080000
    739    741     1   0.10969 276646.080000
    742    743     1   0.10969 276646.080000
    742    744     1   0.10969 276646.080000
    745    746     1   0.10969 276646.080000
    745    747     1   0.10969 276646.080000
    750    779     1   0.10304 312293.760000
    751    752     1   0.10910 283424.160000
    751    753     1   0.10910 283424.160000
    754    755     1   0.10910 283424.160000
    754    756     1   0.10910 283424.160000
    757    758     1   0.10910 283424.160000
    757    759     1   0.10910 283424.160000
    760    761     1   0.10969 276646.080000
    760    762     1   0.10969 276646.080000
    763    764     1   0.10969 276646.080000
    763    765     1   0.10969 276646.080000
    766    767     1   0.10969 276646.080000
    766    768     1   0.10969 276646.080000
    769    770     1   0.10969 276646.080000
    769    771     1   0.10969 276646.080000
    772    773     1   0.10969 276646.080000
    772    774     1   0.10969 276646.080000
    775    776     1   0.10969 276646.080000
    775    777     1   0.10969 276646.080000
    780    809     1   0.10304 312293.760000
    781    782     1   0.10910 283424.160000
    781    783     1   0.10910 283424.160000
    784    785     1   0.10910 283424.160000
    784    786     1   0.10910 283424.160000
    787    788     1   0.10910 283424.160000
    787    789     1   0.10910 283424.160000
    790    791     1   0.10969 276646.080000
    790    792     1   0.10969 276646.080000
    793    794     1   0.10969 276646.080000
    793    795     1   0.10969 276646.080000
    796    797     1   0.10969 276646.080000
    796    798     1   0.10969 276646.080000
    799    800     1   0.10969 276646.080000
    799    801     1   0.10969 276646.080000
    802    803     1   0.10969 276646.080000
    802    804     1   0.10969 276646.080000
    805    806     1   0.10969 276646.080000
    805    807     1   0.10969 276646.080000
    810    839     1   0.10304 312293.760000
    811    812     1   0.10910 283424.160000
    811    813     1   0.10910 283424.160000
    814    815     1   0.10910 283424.160000
    814    816     1   0.10910 283424.160000
    817    818     1   0.10910 283424.160000
    817    819     1   0.10910 283424.160000
    820    821     1   0.10969 276646.080000
    820    822     1   0.10969 276646.080000
    823    824     1   0.10969 276646.080000
    823    825     1   0.10969 276646.080000
    826    827     1   0.10969 276646.080000
    826    828     1   0.10969 276646.080000
    829    830     1   0.10969 276646.080000
    829    831     1   0.10969 276646.080000
    832    833     1   0.10969 276646.080000
    832    834     1   0.10969 276646.080000
    835    836     1   0.10969 276646.080000
    835    837     1   0.10969 276646.080000
    840    869     1   0.10304 312293.760000
    841    842     1   0.10910 283424.160000
    841    843     1   0.10910 283424.160000
    844    845     1   0.10910 283424.160000
    844    846     1   0.10910 283424.160000
    847    848     1   0.10910 283424.160000
    847    849     1   0.10910 283424.160000
    850    851     1   0.10969 276646.080000
    850    852     1   0.10969 276646.080000
    853    854     1   0.10969 276646.080000
    853    855     1   0.10969 276646.080000
    856    857     1   0.10969 276646.080000
    856    858     1   0.10969 276646.080000
    859    860     1   0.10969 276646.080000
    859    861     1   0.10969 276646.080000
    862    863     1   0.10969 276646.080000
    862    864     1   0.10969 276646.080000
    865    866     1   0.10969 276646.080000
    865    867     1   0.10969 276646.080000
    870    899     1   0.10304 312293.760000
    871    872     1   0.10910 283424.160000
    871    873     1   0.10910 283424.160000
    874    875     1   0.10910 283424.160000
    874    876     1   0.10910 283424.160000
    877    878     1   0.10910 283424.160000
    877    879     1   0.10910 283424.160000
    880    881     1   0.10969 276646.080000
    880    882     1   0.10969 276646.080000
    883    884     1   0.10969 276646.080000
    883    885     1   0.10969 276646.080000
    886    887     1   0.10969 276646.080000
    886    888     1   0.10969 276646.080000
    889    890     1   0.10969 276646.080000
    889    891     1   0.10969 276646.080000
    892    893     1   0.10969 276646.080000
    892    894     1   0.10969 276646.080000
    895    896     1   0.10969 276646.080000
    895    897     1   0.10969 276646.080000
    900    929     1   0.10304 312293.760000
    901    902     1   0.10910 283424.160000
    901    903     1   0.10910 283424.160000
    904    905     1   0.10910 283424.160000
    904    906     1   0.10910 283424.160000
    907    908     1   0.10910 283424.160000
    907    909     1   0.10910 283424.160000
    910    911     1   0.10969 276646.080000
    910    912     1   0.10969 276646.080000
    913    914     1   0.10969 276646.080000
    913    915     1   0.10969 276646.080000
    916    917     1   0.10969 276646.080000
    916    918     1   0.10969 276646.080000
    919    920     1   0.10969 276646.080000
    919    921     1   0.10969 276646.080000
    922    923     1   0.10969 276646.080000
    922    924     1   0.10969 276646.080000
    925    926     1   0.10969 276646.080000
    925    927     1   0.10969 276646.080000
    930    959     1   0.10304 312293.760000
    931    932     1   0.10910 283424.160000
    931    933     1   0.10910 283424.160000
    934    935     1   0.10910 283424.160000
    934    936     1   0.10910 283424.160000
    937    938     1   0.10910 283424.160000
    937    939     1   0.10910 283424.160000
    940    941     1   0.10969 276646.080000
    940    942     1   0.10969 276646.080000
    943    944     1   0.10969 276646.080000
    943    945     1   0.10969 276646.080000
    946    947     1   0.10969 276646.080000
    946    948     1   0.10969 276646.080000
    949    950     1   0.10969 276646.080000
    949    951     1   0.10969 276646.080000
    952    953     1   0.10969 276646.080000
    952    954     1   0.10969 276646.080000
    955    956     1   0.10969 276646.080000
    955    957     1   0.10969 276646.080000
    960    989     1   0.10304 312293.760000
    961    962     1   0.10910 283424.160000
    961    963     1   0.10910 283424.160000
    964    965     1   0.10910 283424.160000
    964    966     1   0.10910 283424.160000
    967    968     1   0.10910 283424.160000
    967    969     1   0.10910 283424.160000
    970    971     1   0.10969 276646.080000
    970    972     1   0.10969 276646.080000
    973    974     1   0.10969 276646.080000
    973    975     1   0.10969 276646.080000
    976    977     1   0.10969 276646.080000
    976    978     1   0.10969 276646.080000
    979    980     1   0.10969 276646.080000
    979    981     1   0.10969 276646.080000
    982    983     1   0.10969 276646.080000
    982    984     1   0.10969 276646.080000
    985    986     1   0.10969 276646.080000
    985    987     1   0.10969 276646.080000
    990   1019     1   0.10304 312293.760000
    991    992     1   0.10910 283424.160000
    991    993     1   0.10910 283424.160000
    994    995     1   0.10910 283424.160000
    994    996     1   0.10910 283424.160000
    997    998     1   0.10910 283424.160000
    997    999     1   0.10910 283424.160000
   1000   1001     1   0.10969 276646.080000
   1000   1002     1   0.10969 276646.080000
   1003   1004     1   0.10969 276646.080000
   1003   1005     1   0.10969 276646.080000
   1006   1007     1   0.10969 276646.080000
   1006   1008     1   0.10969 276646.080000
   1009   1010     1   0.10969 276646.080000
   1009   1011     1   0.10969 276646.080000
   1012   1013     1   0.10969 276646.080000
   1012   1014     1   0.10969 276646.080000
   1015   1016     1   0.10969 276646.080000
   1015   1017     1   0.10969 276646.080000
   1020   1049     1   0.10304 312293.760000
   1021   1022     1   0.10910 283424.160000
   1021   1023     1   0.10910 283424.160000
   1024   1025     1   0.10910 283424.160000
   1024   1026     1   0.10910 283424.160000
   1027   1028     1   0.10910 283424.160000
   1027   1029     1   0.10910 283424.160000
   1030   1031     1   0.10969 276646.080000
   1030   1032     1   0.10969 276646.080000
   1033   1034     1   0.10969 276646.080000
   1033   1035     1   0.10969 276646.080000
   1036   1037     1   0.10969 276646.080000
   1036   1038     1   0.10969 276646.080000
   1039   1040     1   0.10969 276646.080000
   1039   1041     1   0.10969 276646.080000
   1042   1043     1   0.10969 276646.080000
   1042   1044     1   0.10969 276646.080000
   1045   1046     1   0.10969 276646.080000
   1045   1047     1   0.10969 276646.080000
   1050   1079     1   0.10304 312293.760000
   1051   1052     1   0.10910 283424.160000
   1051   1053     1   0.10910 283424.160000
   1054   1055     1   0.10910 283424.160000
   1054   1056     1   0.10910 283424.160000
   1057   1058     1   0.10910 283424.160000
   1057   1059     1   0.10910 283424.160000
   1060   1061     1   0.10969 276646.080000
   1060   1062     1   0.10969 276646.080000
   1063   1064     1   0.10969 276646.080000
   1063   1065     1   0.10969 276646.080000
   1066   1067     1   0.10969 276646.080000
   1066   1068     1   0.10969 276646.080000
   1069   1070     1   0.10969 276646.080000
   1069   1071     1   0.10969 276646.080000
   1072   1073     1   0.10969 276646.080000
   1072   1074     1   0.10969 276646.080000
   1075   1076     1   0.10969 276646.080000
   1075   1077     1   0.10969 276646.080000
   1080   1109     1   0.10304 312293.760000
   1081   1082     1   0.10910 283424.160000
   1081   1083     1   0.10910 283424.160000
   1084   1085     1   0.10910 283424.160000
   1084   1086     1   0.10910 283424.160000
   1087   1088     1   0.10910 283424.160000
   1087   1089     1   0.10910 283424.160000
   1090   1091     1   0.10969 276646.080000
   1090   1092     1   0.10969 276646.080000
   1093   1094     1   0.10969 276646.080000
   1093   1095     1   0.10969 276646.080000
   1096   1097     1   0.10969 276646.080000
   1096   1098     1   0.10969 276646.080000
   1099   1100     1   0.10969 276646.080000
   1099   1101     1   0.10969 276646.080000
   1102   1103     1   0.10969 276646.080000
   1102   1104     1   0.10969 276646.080000
   1105   1106     1   0.10969 276646.080000
   1105   1107     1   0.10969 276646.080000
   1110   1139     1   0.10304 312293.760000
   1111   1112     1   0.10910 283424.160000
   1111   1113     1   0.10910 283424.160000
   1114   1115     1   0.10910 283424.160000
   1114   1116     1   0.10910 283424.160000
   1117   1118     1   0.10910 283424.160000
   1117   1119     1   0.10910 283424.160000
   1120   1121     1   0.10969 276646.080000
   1120   1122     1   0.10969 276646.080000
   1123   1124     1   0.10969 276646.080000
   1123   1125     1   0.10969 276646.080000
   1126   1127     1   0.10969 276646.080000
   1126   1128     1   0.10969 276646.080000
   1129   1130     1   0.10969 276646.080000
   1129   1131     1   0.10969 276646.080000
   1132   1133     1   0.10969 276646.080000
   1132   1134     1   0.10969 276646.080000
   1135   1136     1   0.10969 276646.080000
   1135   1137     1   0.10969 276646.080000
   1140   1169     1   0.10304 312293.760000
   1141   1142     1   0.10910 283424.160000
   1141   1143     1   0.10910 283424.160000
   1144   1145     1   0.10910 283424.160000
   1144   1146     1   0.10910 283424.160000
   1147   1148     1   0.10910 283424.160000
   1147   1149     1   0.10910 283424.160000
   1150   1151     1   0.10969 276646.080000
   1150   1152     1   0.10969 276646.080000
   1153   1154     1   0.10969 276646.080000
   1153   1155     1   0.10969 276646.080000
   1156   1157     1   0.10969 276646.080000
   1156   1158     1   0.10969 276646.080000
   1159   1160     1   0.10969 276646.080000
   1159   1161     1   0.10969 276646.080000
   1162   1163     1   0.10969 276646.080000
   1162   1164     1   0.10969 276646.080000
   1165   1166     1   0.10969 276646.080000
   1165   1167     1   0.10969 276646.080000
   1170   1199     1   0.10304 312293.760000
   1171   1172     1   0.10910 283424.160000
   1171   1173     1   0.10910 283424.160000
   1174   1175     1   0.10910 283424.160000
   1174   1176     1   0.10910 283424.160000
   1177   1178     1   0.10910 283424.160000
   1177   1179     1   0.10910 283424.160000
   1180   1181     1   0.10969 276646.080000
   1180   1182     1   0.10969 276646.080000
   1183   1184     1   0.10969 276646.080000
   1183   1185     1   0.10969 276646.080000
   1186   1187     1   0.10969 276646.080000
   1186   1188     1   0.10969 276646.080000
   1189   1190     1   0.10969 276646.080000
   1189   1191     1   0.10969 276646.080000
   1192   1193     1   0.10969 276646.080000
   1192   1194     1   0.10969 276646.080000
   1195   1196     1   0.10969 276646.080000
   1195   1197     1   0.10969 276646.080000
   1200   1229     1   0.10304 312293.760000
   1201   1202     1   0.10910 283424.160000
   1201   1203     1   0.10910 283424.160000
   1204   1205     1   0.10910 283424.160000
   1204   1206     1   0.10910 283424.160000
   1207   1208     1   0.10910 283424.160000
   1207   1209     1   0.10910 283424.160000
   1210   1211     1   0.10969 276646.080000
   1210   1212     1   0.10969 276646.080000
   1213   1214     1   0.10969 276646.080000
   1213   1215     1   0.10969 276646.080000
   1216   1217     1   0.10969 276646.080000
   1216   1218     1   0.10969 276646.080000
   1219   1220     1   0.10969 276646.080000
   1219   1221     1   0.10969 276646.080000
   1222   1223     1   0.10969 276646.080000
   1222   1224     1   0.10969 276646.080000
   1225   1226     1   0.10969 276646.080000
   1225   1227     1   0.10969 276646.080000
   1230   1259     1   0.10304 312293.760000
   1231   1232     1   0.10910 283424.160000
   1231   1233     1   0.10910 283424.160000
   1234   1235     1   0.10910 283424.160000
   1234   1236     1   0.10910 283424.160000
   1237   1238     1   0.10910 283424.160000
   1237   1239     1   0.10910 283424.160000
   1240   1241     1   0.10969 276646.080000
   1240   1242     1   0.10969 276646.080000
   1243   1244     1   0.10969 276646.080000
   1243   1245     1   0.10969 276646.080000
   1246   1247     1   0.10969 276646.080000
   1246   1248     1   0.10969 276646.080000
   1249   1250     1   0.10969 276646.080000
   1249   1251     1   0.10969 276646.080000
   1252   1253     1   0.10969 276646.080000
   1252   1254     1   0.10969 276646.080000
   1255   1256     1   0.10969 276646.080000
   1255   1257     1   0.10969 276646.080000
   1260   1289     1   0.10304 312293.760000
   1261   1262     1   0.10910 283424.160000
   1261   1263     1   0.10910 283424.160000
   1264   1265     1   0.10910 283424.160000
   1264   1266     1   0.10910 283424.160000
   1267   1268     1   0.10910 283424.160000
   1267   1269     1   0.10910 283424.160000
   1270   1271     1   0.10969 276646.080000
   1270   1272     1   0.10969 276646.080000
   1273   1274     1   0.10969 276646.080000
   1273   1275     1   0.10969 276646.080000
   1276   1277     1   0.10969 276646.080000
   1276   1278     1   0.10969 276646.080000
   1279   1280     1   0.10969 276646.080000
   1279   1281     1   0.10969 276646.080000
   1282   1283     1   0.10969 276646.080000
   1282   1284     1   0.10969 276646.080000
   1285   1286     1   0.10969 276646.080000
   1285   1287     1   0.10969 276646.080000
   1290   1319     1   0.10304 312293.760000
   1291   1292     1   0.10910 283424.160000
   1291   1293     1   0.10910 283424.160000
   1294   1295     1   0.10910 283424.160000
   1294   1296     1   0.10910 283424.160000
   1297   1298     1   0.10910 283424.160000
   1297   1299     1   0.10910 283424.160000
   1300   1301     1   0.10969 276646.080000
   1300   1302     1   0.10969 276646.080000
   1303   1304     1   0.10969 276646.080000
   1303   1305     1   0.10969 276646.080000
   1306   1307     1   0.10969 276646.080000
   1306   1308     1   0.10969 276646.080000
   1309   1310     1   0.10969 276646.080000
   1309   1311     1   0.10969 276646.080000
   1312   1313     1   0.10969 276646.080000
   1312   1314     1   0.10969 276646.080000
   1315   1316     1   0.10969 276646.080000
   1315   1317     1   0.10969 276646.080000
   1320   1349     1   0.10304 312293.760000
   1321   1322     1   0.10910 283424.160000
   1321   1323     1   0.10910 283424.160000
   1324   1325     1   0.10910 283424.160000
   1324   1326     1   0.10910 283424.160000
   1327   1328     1   0.10910 283424.160000
   1327   1329     1   0.10910 283424.160000
   1330   1331     1   0.10969 276646.080000
   1330   1332     1   0.10969 276646.080000
   1333   1334     1   0.10969 276646.080000
   1333   1335     1   0.10969 276646.080000
   1336   1337     1   0.10969 276646.080000
   1336   1338     1   0.10969 276646.080000
   1339   1340     1   0.10969 276646.080000
   1339   1341     1   0.10969 276646.080000
   1342   1343     1   0.10969 276646.080000
   1342   1344     1   0.10969 276646.080000
   1345   1346     1   0.10969 276646.080000
   1345   1347     1   0.10969 276646.080000
   1350   1379     1   0.10304 312293.760000
   1351   1352     1   0.10910 283424.160000
   1351   1353     1   0.10910 283424.160000
   1354   1355     1   0.10910 283424.160000
   1354   1356     1   0.10910 283424.160000
   1357   1358     1   0.10910 283424.160000
   1357   1359     1   0.10910 283424.160000
   1360   1361     1   0.10969 276646.080000
   1360   1362     1   0.10969 276646.080000
   1363   1364     1   0.10969 276646.080000
   1363   1365     1   0.10969 276646.080000
   1366   1367     1   0.10969 276646.080000
   1366   1368     1   0.10969 276646.080000
   1369   1370     1   0.10969 276646.080000
   1369   1371     1   0.10969 276646.080000
   1372   1373     1   0.10969 276646.080000
   1372   1374     1   0.10969 276646.080000
   1375   1376     1   0.10969 276646.080000
   1375   1377     1   0.10969 276646.080000
   1380   1409     1   0.10304 312293.760000
   1381   1382     1   0.10910 283424.160000
   1381   1383     1   0.10910 283424.160000
   1384   1385     1   0.10910 283424.160000
   1384   1386     1   0.10910 283424.160000
   1387   1388     1   0.10910 283424.160000
   1387   1389     1   0.10910 283424.160000
   1390   1391     1   0.10969 276646.080000
   1390   1392     1   0.10969 276646.080000
   1393   1394     1   0.10969 276646.080000
   1393   1395     1   0.10969 276646.080000
   1396   1397     1   0.10969 276646.080000
   1396   1398     1   0.10969 276646.080000
   1399   1400     1   0.10969 276646.080000
   1399   1401     1   0.10969 276646.080000
   1402   1403     1   0.10969 276646.080000
   1402   1404     1   0.10969 276646.080000
   1405   1406     1   0.10969 276646.080000
   1405   1407     1   0.10969 276646.080000
   1410   1439     1   0.10304 312293.760000
   1411   1412     1   0.10910 283424.160000
   1411   1413     1   0.10910 283424.160000
   1414   1415     1   0.10910 283424.160000
   1414   1416     1   0.10910 283424.160000
   1417   1418     1   0.10910 283424.160000
   1417   1419     1   0.10910 283424.160000
   1420   1421     1   0.10969 276646.080000
   1420   1422     1   0.10969 276646.080000
   1423   1424     1   0.10969 276646.080000
   1423   1425     1   0.10969 276646.080000
   1426   1427     1   0.10969 276646.080000
   1426   1428     1   0.10969 276646.080000
   1429   1430     1   0.10969 276646.080000
   1429   1431     1   0.10969 276646.080000
   1432   1433     1   0.10969 276646.080000
   1432   1434     1   0.10969 276646.080000
   1435   1436     1   0.10969 276646.080000
   1435   1437     1   0.10969 276646.080000
   1440   1469     1   0.10304 312293.760000
   1441   1442     1   0.10910 283424.160000
   1441   1443     1   0.10910 283424.160000
   1444   1445     1   0.10910 283424.160000
   1444   1446     1   0.10910 283424.160000
   1447   1448     1   0.10910 283424.160000
   1447   1449     1   0.10910 283424.160000
   1450   1451     1   0.10969 276646.080000
   1450   1452     1   0.10969 276646.080000
   1453   1454     1   0.10969 276646.080000
   1453   1455     1   0.10969 276646.080000
   1456   1457     1   0.10969 276646.080000
   1456   1458     1   0.10969 276646.080000
   1459   1460     1   0.10969 276646.080000
   1459   1461     1   0.10969 276646.080000
   1462   1463     1   0.10969 276646.080000
   1462   1464     1   0.10969 276646.080000
   1465   1466     1   0.10969 276646.080000
   1465   1467     1   0.10969 276646.080000
   1470   1499     1   0.10304 312293.760000
   1471   1472     1   0.10910 283424.160000
   1471   1473     1   0.10910 283424.160000
   1474   1475     1   0.10910 283424.160000
   1474   1476     1   0.10910 283424.160000
   1477   1478     1   0.10910 283424.160000
   1477   1479     1   0.10910 283424.160000
   1480   1481     1   0.10969 276646.080000
   1480   1482     1   0.10969 276646.080000
   1483   1484     1   0.10969 276646.080000
   1483   1485     1   0.10969 276646.080000
   1486   1487     1   0.10969 276646.080000
   1486   1488     1   0.10969 276646.080000
   1489   1490     1   0.10969 276646.080000
   1489   1491     1   0.10969 276646.080000
   1492   1493     1   0.10969 276646.080000
   1492   1494     1   0.10969 276646.080000
   1495   1496     1   0.10969 276646.080000
   1495   1497     1   0.10969 276646.080000
   1500   1529     1   0.10304 312293.760000
   1501   1502     1   0.10910 283424.160000
   1501   1503     1   0.10910 283424.160000
   1504   1505     1   0.10910 283424.160000
   1504   1506     1   0.10910 283424.160000
   1507   1508     1   0.10910 283424.160000
   1507   1509     1   0.10910 283424.160000
   1510   1511     1   0.10969 276646.080000
   1510   1512     1   0.10969 276646.080000
   1513   1514     1   0.10969 276646.080000
   1513   1515     1   0.10969 276646.080000
   1516   1517     1   0.10969 276646.080000
   1516   1518     1   0.10969 276646.080000
   1519   1520     1   0.10969 276646.080000
   1519   1521     1   0.10969 276646.080000
   1522   1523     1   0.10969 276646.080000
   1522   1524     1   0.10969 276646.080000
   1525   1526     1   0.10969 276646.080000
   1525   1527     1   0.10969 276646.080000
   1530   1559     1   0.10304 312293.760000
   1531   1532     1   0.10910 283424.160000
   1531   1533     1   0.10910 283424.160000
   1534   1535     1   0.10910 283424.160000
   1534   1536     1   0.10910 283424.160000
   1537   1538     1   0.10910 283424.160000
   1537   1539     1   0.10910 283424.160000
   1540   1541     1   0.10969 276646.080000
   1540   1542     1   0.10969 276646.080000
   1543   1544     1   0.10969 276646.080000
   1543   1545     1   0.10969 276646.080000
   1546   1547     1   0.10969 276646.080000
   1546   1548     1   0.10969 276646.080000
   1549   1550     1   0.10969 276646.080000
   1549   1551     1   0.10969 276646.080000
   1552   1553     1   0.10969 276646.080000
   1552   1554     1   0.10969 276646.080000
   1555   1556     1   0.10969 276646.080000
   1555   1557     1   0.10969 276646.080000
   1560   1589     1   0.10304 312293.760000
   1561   1562     1   0.10910 283424.160000
   1561   1563     1   0.10910 283424.160000
   1564   1565     1   0.10910 283424.160000
   1564   1566     1   0.10910 283424.160000
   1567   1568     1   0.10910 283424.160000
   1567   1569     1   0.10910 283424.160000
   1570   1571     1   0.10969 276646.080000
   1570   1572     1   0.10969 276646.080000
   1573   1574     1   0.10969 276646.080000
   1573   1575     1   0.10969 276646.080000
   1576   1577     1   0.10969 276646.080000
   1576   1578     1   0.10969 276646.080000
   1579   1580     1   0.10969 276646.080000
   1579   1581     1   0.10969 276646.080000
   1582   1583     1   0.10969 276646.080000
   1582   1584     1   0.10969 276646.080000
   1585   1586     1   0.10969 276646.080000
   1585   1587     1   0.10969 276646.080000
   1590   1619     1   0.10304 312293.760000
   1591   1592     1   0.10910 283424.160000
   1591   1593     1   0.10910 283424.160000
   1594   1595     1   0.10910 283424.160000
   1594   1596     1   0.10910 283424.160000
   1597   1598     1   0.10910 283424.160000
   1597   1599     1   0.10910 283424.160000
   1600   1601     1   0.10969 276646.080000
   1600   1602     1   0.10969 276646.080000
   1603   1604     1   0.10969 276646.080000
   1603   1605     1   0.10969 276646.080000
   1606   1607     1   0.10969 276646.080000
   1606   1608     1   0.10969 276646.080000
   1609   1610     1   0.10969 276646.080000
   1609   1611     1   0.10969 276646.080000
   1612   1613     1   0.10969 276646.080000
   1612   1614     1   0.10969 276646.080000
   1615   1616     1   0.10969 276646.080000
   1615   1617     1   0.10969 276646.080000
   1620   1649     1   0.10304 312293.760000
   1621   1622     1   0.10910 283424.160000
   1621   1623     1   0.10910 283424.160000
   1624   1625     1   0.10910 283424.160000
   1624   1626     1   0.10910 283424.160000
   1627   1628     1   0.10910 283424.160000
   1627   1629     1   0.10910 283424.160000
   1630   1631     1   0.10969 276646.080000
   1630   1632     1   0.10969 276646.080000
   1633   1634     1   0.10969 276646.080000
   1633   1635     1   0.10969 276646.080000
   1636   1637     1   0.10969 276646.080000
   1636   1638     1   0.10969 276646.080000
   1639   1640     1   0.10969 276646.080000
   1639   1641     1   0.10969 276646.080000
   1642   1643     1   0.10969 276646.080000
   1642   1644     1   0.10969 276646.080000
   1645   1646     1   0.10969 276646.080000
   1645   1647     1   0.10969 276646.080000
   1650   1679     1   0.10304 312293.760000
   1651   1652     1   0.10910 283424.160000
   1651   1653     1   0.10910 283424.160000
   1654   1655     1   0.10910 283424.160000
   1654   1656     1   0.10910 283424.160000
   1657   1658     1   0.10910 283424.160000
   1657   1659     1   0.10910 283424.160000
   1660   1661     1   0.10969 276646.080000
   1660   1662     1   0.10969 276646.080000
   1663   1664     1   0.10969 276646.080000
   1663   1665     1   0.10969 276646.080000
   1666   1667     1   0.10969 276646.080000
   1666   1668     1   0.10969 276646.080000
   1669   1670     1   0.10969 276646.080000
   1669   1671     1   0.10969 276646.080000
   1672   1673     1   0.10969 276646.080000
   1672   1674     1   0.10969 276646.080000
   1675   1676     1   0.10969 276646.080000
   1675   1677     1   0.10969 276646.080000
   1680   1709     1   0.10304 312293.760000
   1681   1682     1   0.10910 283424.160000
   1681   1683     1   0.10910 283424.160000
   1684   1685     1   0.10910 283424.160000
   1684   1686     1   0.10910 283424.160000
   1687   1688     1   0.10910 283424.160000
   1687   1689     1   0.10910 283424.160000
   1690   1691     1   0.10969 276646.080000
   1690   1692     1   0.10969 276646.080000
   1693   1694     1   0.10969 276646.080000
   1693   1695     1   0.10969 276646.080000
   1696   1697     1   0.10969 276646.080000
   1696   1698     1   0.10969 276646.080000
   1699   1700     1   0.10969 276646.080000
   1699   1701     1   0.10969 276646.080000
   1702   1703     1   0.10969 276646.080000
   1702   1704     1   0.10969 276646.080000
   1705   1706     1   0.10969 276646.080000
   1705   1707     1   0.10969 276646.080000
   1710   1739     1   0.10304 312293.760000
   1711   1712     1   0.10910 283424.160000
   1711   1713     1   0.10910 283424.160000
   1714   1715     1   0.10910 283424.160000
   1714   1716     1   0.10910 283424.160000
   1717   1718     1   0.10910 283424.160000
   1717   1719     1   0.10910 283424.160000
   1720   1721     1   0.10969 276646.080000
   1720   1722     1   0.10969 276646.080000
   1723   1724     1   0.10969 276646.080000
   1723   1725     1   0.10969 276646.080000
   1726   1727     1   0.10969 276646.080000
   1726   1728     1   0.10969 276646.080000
   1729   1730     1   0.10969 276646.080000
   1729   1731     1   0.10969 276646.080000
   1732   1733     1   0.10969 276646.080000
   1732   1734     1   0.10969 276646.080000
   1735   1736     1   0.10969 276646.080000
   1735   1737     1   0.10969 276646.080000
   1740   1769     1   0.10304 312293.760000
   1741   1742     1   0.10910 283424.160000
   1741   1743     1   0.10910 283424.160000
   1744   1745     1   0.10910 283424.160000
   1744   1746     1   0.10910 283424.160000
   1747   1748     1   0.10910 283424.160000
   1747   1749     1   0.10910 283424.160000
   1750   1751     1   0.10969 276646.080000
   1750   1752     1   0.10969 276646.080000
   1753   1754     1   0.10969 276646.080000
   1753   1755     1   0.10969 276646.080000
   1756   1757     1   0.10969 276646.080000
   1756   1758     1   0.10969 276646.080000
   1759   1760     1   0.10969 276646.080000
   1759   1761     1   0.10969 276646.080000
   1762   1763     1   0.10969 276646.080000
   1762   1764     1   0.10969 276646.080000
   1765   1766     1   0.10969 276646.080000
   1765   1767     1   0.10969 276646.080000
   1770   1799     1   0.10304 312293.760000
   1771   1772     1   0.10910 283424.160000
   1771   1773     1   0.10910 283424.160000
   1774   1775     1   0.10910 283424.160000
   1774   1776     1   0.10910 283424.160000
   1777   1778     1   0.10910 283424.160000
   1777   1779     1   0.10910 283424.160000
   1780   1781     1   0.10969 276646.080000
   1780   1782     1   0.10969 276646.080000
   1783   1784     1   0.10969 276646.080000
   1783   1785     1   0.10969 276646.080000
   1786   1787     1   0.10969 276646.080000
   1786   1788     1   0.10969 276646.080000
   1789   1790     1   0.10969 276646.080000
   1789   1791     1   0.10969 276646.080000
   1792   1793     1   0.10969 276646.080000
   1792   1794     1   0.10969 276646.080000
   1795   1796     1   0.10969 276646.080000
   1795   1797     1   0.10969 276646.080000
   1800   1829     1   0.10304 312293.760000
   1801   1802     1   0.10910 283424.160000
   1801   1803     1   0.10910 283424.160000
   1804   1805     1   0.10910 283424.160000
   1804   1806     1   0.10910 283424.160000
   1807   1808     1   0.10910 283424.160000
   1807   1809     1   0.10910 283424.160000
   1810   1811     1   0.10969 276646.080000
   1810   1812     1   0.10969 276646.080000
   1813   1814     1   0.10969 276646.080000
   1813   1815     1   0.10969 276646.080000
   1816   1817     1   0.10969 276646.080000
   1816   1818     1   0.10969 276646.080000
   1819   1820     1   0.10969 276646.080000
   1819   1821     1   0.10969 276646.080000
   1822   1823     1   0.10969 276646.080000
   1822   1824     1   0.10969 276646.080000
   1825   1826     1   0.10969 276646.080000
   1825   1827     1   0.10969 276646.080000
   1830   1859     1   0.10304 312293.760000
   1831   1832     1   0.10910 283424.160000
   1831   1833     1   0.10910 283424.160000
   1834   1835     1   0.10910 283424.160000
   1834   1836     1   0.10910 283424.160000
   1837   1838     1   0.10910 283424.160000
   1837   1839     1   0.10910 283424.160000
   1840   1841     1   0.10969 276646.080000
   1840   1842     1   0.10969 276646.080000
   1843   1844     1   0.10969 276646.080000
   1843   1845     1   0.10969 276646.080000
   1846   1847     1   0.10969 276646.080000
   1846   1848     1   0.10969 276646.080000
   1849   1850     1   0.10969 276646.080000
   1849   1851     1   0.10969 276646.080000
   1852   1853     1   0.10969 276646.080000
   1852   1854     1   0.10969 276646.080000
   1855   1856     1   0.10969 276646.080000
   1855   1857     1   0.10969 276646.080000
   1860   1889     1   0.10304 312293.760000
   1861   1862     1   0.10910 283424.160000
   1861   1863     1   0.10910 283424.160000
   1864   1865     1   0.10910 283424.160000
   1864   1866     1   0.10910 283424.160000
   1867   1868     1   0.10910 283424.160000
   1867   1869     1   0.10910 283424.160000
   1870   1871     1   0.10969 276646.080000
   1870   1872     1   0.10969 276646.080000
   1873   1874     1   0.10969 276646.080000
   1873   1875     1   0.10969 276646.080000
   1876   1877     1   0.10969 276646.080000
   1876   1878     1   0.10969 276646.080000
   1879   1880     1   0.10969 276646.080000
   1879   1881     1   0.10969 276646.080000
   1882   1883     1   0.10969 276646.080000
   1882   1884     1   0.10969 276646.080000
   1885   1886     1   0.10969 276646.080000
   1885   1887     1   0.10969 276646.080000
   1890   1919     1   0.10304 312293.760000
   1891   1892     1   0.10910 283424.160000
   1891   1893     1   0.10910 283424.160000
   1894   1895     1   0.10910 283424.160000
   1894   1896     1   0.10910 283424.160000
   1897   1898     1   0.10910 283424.160000
   1897   1899     1   0.10910 283424.160000
   1900   1901     1   0.10969 276646.080000
   1900   1902     1   0.10969 276646.080000
   1903   1904     1   0.10969 276646.080000
   1903   1905     1   0.10969 276646.080000
   1906   1907     1   0.10969 276646.080000
   1906   1908     1   0.10969 276646.080000
   1909   1910     1   0.10969 276646.080000
   1909   1911     1   0.10969 276646.080000
   1912   1913     1   0.10969 276646.080000
   1912   1914     1   0.10969 276646.080000
   1915   1916     1   0.10969 276646.080000
   1915   1917     1   0.10969 276646.080000
   1920   1949     1   0.10304 312293.760000
   1921   1922     1   0.10910 283424.160000
   1921   1923     1   0.10910 283424.160000
   1924   1925     1   0.10910 283424.160000
   1924   1926     1   0.10910 283424.160000
   1927   1928     1   0.10910 283424.160000
   1927   1929     1   0.10910 283424.160000
   1930   1931     1   0.10969 276646.080000
   1930   1932     1   0.10969 276646.080000
   1933   1934     1   0.10969 276646.080000
   1933   1935     1   0.10969 276646.080000
   1936   1937     1   0.10969 276646.080000
   1936   1938     1   0.10969 276646.080000
   1939   1940     1   0.10969 276646.080000
   1939   1941     1   0.10969 276646.080000
   1942   1943     1   0.10969 276646.080000
   1942   1944     1   0.10969 276646.080000
   1945   1946     1   0.10969 276646.080000
   1945   1947     1   0.10969 276646.080000
   1950   1979     1   0.10304 312293.760000
   1951   1952     1   0.10910 283424.160000
   1951   1953     1   0.10910 283424.160000
   1954   1955     1   0.10910 283424.160000
   1954   1956     1   0.10910 283424.160000
   1957   1958     1   0.10910 283424.160000
   1957   1959     1   0.10910 283424.160000
   1960   1961     1   0.10969 276646.080000
   1960   1962     1   0.10969 276646.080000
   1963   1964     1   0.10969 276646.080000
   1963   1965     1   0.10969 276646.080000
   1966   1967     1   0.10969 276646.080000
   1966   1968     1   0.10969 276646.080000
   1969   1970     1   0.10969 276646.080000
   1969   1971     1   0.10969 276646.080000
   1972   1973     1   0.10969 276646.080000
   1972   1974     1   0.10969 276646.080000
   1975   1976     1   0.10969 276646.080000
   1975   1977     1   0.10969 276646.080000
   1980   2009     1   0.10304 312293.760000
   1981   1982     1   0.10910 283424.160000
   1981   1983     1   0.10910 283424.160000
   1984   1985     1   0.10910 283424.160000
   1984   1986     1   0.10910 283424.160000
   1987   1988     1   0.10910 283424.160000
   1987   1989     1   0.10910 283424.160000
   1990   1991     1   0.10969 276646.080000
   1990   1992     1   0.10969 276646.080000
   1993   1994     1   0.10969 276646.080000
   1993   1995     1   0.10969 276646.080000
   1996   1997     1   0.10969 276646.080000
   1996   1998     1   0.10969 276646.080000
   1999   2000     1   0.10969 276646.080000
   1999   2001     1   0.10969 276646.080000
   2002   2003     1   0.10969 276646.080000
   2002   2004     1   0.10969 276646.080000
   2005   2006     1   0.10969 276646.080000
   2005   2007     1   0.10969 276646.080000
   2010   2039     1   0.10304 312293.760000
   2011   2012     1   0.10910 283424.160000
   2011   2013     1   0.10910 283424.160000
   2014   2015     1   0.10910 283424.160000
   2014   2016     1   0.10910 283424.160000
   2017   2018     1   0.10910 283424.160000
   2017   2019     1   0.10910 283424.160000
   2020   2021     1   0.10969 276646.080000
   2020   2022     1   0.10969 276646.080000
   2023   2024     1   0.10969 276646.080000
   2023   2025     1   0.10969 276646.080000
   2026   2027     1   0.10969 276646.080000
   2026   2028     1   0.10969 276646.080000
   2029   2030     1   0.10969 276646.080000
   2029   2031     1   0.10969 276646.080000
   2032   2033     1   0.10969 276646.080000
   2032   2034     1   0.10969 276646.080000
   2035   2036     1   0.10969 276646.080000
   2035   2037     1   0.10969 276646.080000
   2040   2069     1   0.10304 312293.760000
   2041   2042     1   0.10910 283424.160000
   2041   2043     1   0.10910 283424.160000
   2044   2045     1   0.10910 283424.160000
   2044   2046     1   0.10910 283424.160000
   2047   2048     1   0.10910 283424.160000
   2047   2049     1   0.10910 283424.160000
   2050   2051     1   0.10969 276646.080000
   2050   2052     1   0.10969 276646.080000
   2053   2054     1   0.10969 276646.080000
   2053   2055     1   0.10969 276646.080000
   2056   2057     1   0.10969 276646.080000
   2056   2058     1   0.10969 276646.080000
   2059   2060     1   0.10969 276646.080000
   2059   2061     1   0.10969 276646.080000
   2062   2063     1   0.10969 276646.080000
   2062   2064     1   0.10969 276646.080000
   2065   2066     1   0.10969 276646.080000
   2065   2067     1   0.10969 276646.080000
   2070   2099     1   0.10304 312293.760000
   2071   2072     1   0.10910 283424.160000
   2071   2073     1   0.10910 283424.160000
   2074   2075     1   0.10910 283424.160000
   2074   2076     1   0.10910 283424.160000
   2077   2078     1   0.10910 283424.160000
   2077   2079     1   0.10910 283424.160000
   2080   2081     1   0.10969 276646.080000
   2080   2082     1   0.10969 276646.080000
   2083   2084     1   0.10969 276646.080000
   2083   2085     1   0.10969 276646.080000
   2086   2087     1   0.10969 276646.080000
   2086   2088     1   0.10969 276646.080000
   2089   2090     1   0.10969 276646.080000
   2089   2091     1   0.10969 276646.080000
   2092   2093     1   0.10969 276646.080000
   2092   2094     1   0.10969 276646.080000
   2095   2096     1   0.10969 276646.080000
   2095   2097     1   0.10969 276646.080000
   2100   2129     1   0.10304 312293.760000
   2101   2102     1   0.10910 283424.160000
   2101   2103     1   0.10910 283424.160000
   2104   2105     1   0.10910 283424.160000
   2104   2106     1   0.10910 283424.160000
   2107   2108     1   0.10910 283424.160000
   2107   2109     1   0.10910 283424.160000
   2110   2111     1   0.10969 276646.080000
   2110   2112     1   0.10969 276646.080000
   2113   2114     1   0.10969 276646.080000
   2113   2115     1   0.10969 276646.080000
   2116   2117     1   0.10969 276646.080000
   2116   2118     1   0.10969 276646.080000
   2119   2120     1   0.10969 276646.080000
   2119   2121     1   0.10969 276646.080000
   2122   2123     1   0.10969 276646.080000
   2122   2124     1   0.10969 276646.080000
   2125   2126     1   0.10969 276646.080000
   2125   2127     1   0.10969 276646.080000
   2130   2159     1   0.10304 312293.760000
   2131   2132     1   0.10910 283424.160000
   2131   2133     1   0.10910 283424.160000
   2134   2135     1   0.10910 283424.160000
   2134   2136     1   0.10910 283424.160000
   2137   2138     1   0.10910 283424.160000
   2137   2139     1   0.10910 283424.160000
   2140   2141     1   0.10969 276646.080000
   2140   2142     1   0.10969 276646.080000
   2143   2144     1   0.10969 276646.080000
   2143   2145     1   0.10969 276646.080000
   2146   2147     1   0.10969 276646.080000
   2146   2148     1   0.10969 276646.080000
   2149   2150     1   0.10969 276646.080000
   2149   2151     1   0.10969 276646.080000
   2152   2153     1   0.10969 276646.080000
   2152   2154     1   0.10969 276646.080000
   2155   2156     1   0.10969 276646.080000
   2155   2157     1   0.10969 276646.080000
   2160   2189     1   0.10304 312293.760000
   2161   2162     1   0.10910 283424.160000
   2161   2163     1   0.10910 283424.160000
   2164   2165     1   0.10910 283424.160000
   2164   2166     1   0.10910 283424.160000
   2167   2168     1   0.10910 283424.160000
   2167   2169     1   0.10910 283424.160000
   2170   2171     1   0.10969 276646.080000
   2170   2172     1   0.10969 276646.080000
   2173   2174     1   0.10969 276646.080000
   2173   2175     1   0.10969 276646.080000
   2176   2177     1   0.10969 276646.080000
   2176   2178     1   0.10969 276646.080000
   2179   2180     1   0.10969 276646.080000
   2179   2181     1   0.10969 276646.080000
   2182   2183     1   0.10969 276646.080000
   2182   2184     1   0.10969 276646.080000
   2185   2186     1   0.10969 276646.080000
   2185   2187     1   0.10969 276646.080000
   2190   2219     1   0.10304 312293.760000
   2191   2192     1   0.10910 283424.160000
   2191   2193     1   0.10910 283424.160000
   2194   2195     1   0.10910 283424.160000
   2194   2196     1   0.10910 283424.160000
   2197   2198     1   0.10910 283424.160000
   2197   2199     1   0.10910 283424.160000
   2200   2201     1   0.10969 276646.080000
   2200   2202     1   0.10969 276646.080000
   2203   2204     1   0.10969 276646.080000
   2203   2205     1   0.10969 276646.080000
   2206   2207     1   0.10969 276646.080000
   2206   2208     1   0.10969 276646.080000
   2209   2210     1   0.10969 276646.080000
   2209   2211     1   0.10969 276646.080000
   2212   2213     1   0.10969 276646.080000
   2212   2214     1   0.10969 276646.080000
   2215   2216     1   0.10969 276646.080000
   2215   2217     1   0.10969 276646.080000
   2220   2249     1   0.10304 312293.760000
   2221   2222     1   0.10910 283424.160000
   2221   2223     1   0.10910 283424.160000
   2224   2225     1   0.10910 283424.160000
   2224   2226     1   0.10910 283424.160000
   2227   2228     1   0.10910 283424.160000
   2227   2229     1   0.10910 283424.160000
   2230   2231     1   0.10969 276646.080000
   2230   2232     1   0.10969 276646.080000
   2233   2234     1   0.10969 276646.080000
   2233   2235     1   0.10969 276646.080000
   2236   2237     1   0.10969 276646.080000
   2236   2238     1   0.10969 276646.080000
   2239   2240     1   0.10969 276646.080000
   2239   2241     1   0.10969 276646.080000
   2242   2243     1   0.10969 276646.080000
   2242   2244     1   0.10969 276646.080000
   2245   2246     1   0.10969 276646.080000
   2245   2247     1   0.10969 276646.080000
   2250   2279     1   0.10304 312293.760000
   2251   2252     1   0.10910 283424.160000
   2251   2253     1   0.10910 283424.160000
   2254   2255     1   0.10910 283424.160000
   2254   2256     1   0.10910 283424.160000
   2257   2258     1   0.10910 283424.160000
   2257   2259     1   0.10910 283424.160000
   2260   2261     1   0.10969 276646.080000
   2260   2262     1   0.10969 276646.080000
   2263   2264     1   0.10969 276646.080000
   2263   2265     1   0.10969 276646.080000
   2266   2267     1   0.10969 276646.080000
   2266   2268     1   0.10969 276646.080000
   2269   2270     1   0.10969 276646.080000
   2269   2271     1   0.10969 276646.080000
   2272   2273     1   0.10969 276646.080000
   2272   2274     1   0.10969 276646.080000
   2275   2276     1   0.10969 276646.080000
   2275   2277     1   0.10969 276646.080000
   2280   2309     1   0.10304 312293.760000
   2281   2282     1   0.10910 283424.160000
   2281   2283     1   0.10910 283424.160000
   2284   2285     1   0.10910 283424.160000
   2284   2286     1   0.10910 283424.160000
   2287   2288     1   0.10910 283424.160000
   2287   2289     1   0.10910 283424.160000
   2290   2291     1   0.10969 276646.080000
   2290   2292     1   0.10969 276646.080000
   2293   2294     1   0.10969 276646.080000
   2293   2295     1   0.10969 276646.080000
   2296   2297     1   0.10969 276646.080000
   2296   2298     1   0.10969 276646.080000
   2299   2300     1   0.10969 276646.080000
   2299   2301     1   0.10969 276646.080000
   2302   2303     1   0.10969 276646.080000
   2302   2304     1   0.10969 276646.080000
   2305   2306     1   0.10969 276646.080000
   2305   2307     1   0.10969 276646.080000
   2310   2339     1   0.10304 312293.760000
   2311   2312     1   0.10910 283424.160000
   2311   2313     1   0.10910 283424.160000
   2314   2315     1   0.10910 283424.160000
   2314   2316     1   0.10910 283424.160000
   2317   2318     1   0.10910 283424.160000
   2317   2319     1   0.10910 283424.160000
   2320   2321     1   0.10969 276646.080000
   2320   2322     1   0.10969 276646.080000
   2323   2324     1   0.10969 276646.080000
   2323   2325     1   0.10969 276646.080000
   2326   2327     1   0.10969 276646.080000
   2326   2328     1   0.10969 276646.080000
   2329   2330     1   0.10969 276646.080000
   2329   2331     1   0.10969 276646.080000
   2332   2333     1   0.10969 276646.080000
   2332   2334     1   0.10969 276646.080000
   2335   2336     1   0.10969 276646.080000
   2335   2337     1   0.10969 276646.080000
   2340   2369     1   0.10304 312293.760000
   2341   2342     1   0.10910 283424.160000
   2341   2343     1   0.10910 283424.160000
   2344   2345     1   0.10910 283424.160000
   2344   2346     1   0.10910 283424.160000
   2347   2348     1   0.10910 283424.160000
   2347   2349     1   0.10910 283424.160000
   2350   2351     1   0.10969 276646.080000
   2350   2352     1   0.10969 276646.080000
   2353   2354     1   0.10969 276646.080000
   2353   2355     1   0.10969 276646.080000
   2356   2357     1   0.10969 276646.080000
   2356   2358     1   0.10969 276646.080000
   2359   2360     1   0.10969 276646.080000
   2359   2361     1   0.10969 276646.080000
   2362   2363     1   0.10969 276646.080000
   2362   2364     1   0.10969 276646.080000
   2365   2366     1   0.10969 276646.080000
   2365   2367     1   0.10969 276646.080000
   2370   2399     1   0.10304 312293.760000
   2371   2372     1   0.10910 283424.160000
   2371   2373     1   0.10910 283424.160000
   2374   2375     1   0.10910 283424.160000
   2374   2376     1   0.10910 283424.160000
   2377   2378     1   0.10910 283424.160000
   2377   2379     1   0.10910 283424.160000
   2380   2381     1   0.10969 276646.080000
   2380   2382     1   0.10969 276646.080000
   2383   2384     1   0.10969 276646.080000
   2383   2385     1   0.10969 276646.080000
   2386   2387     1   0.10969 276646.080000
   2386   2388     1   0.10969 276646.080000
   2389   2390     1   0.10969 276646.080000
   2389   2391     1   0.10969 276646.080000
   2392   2393     1   0.10969 276646.080000
   2392   2394     1   0.10969 276646.080000
   2395   2396     1   0.10969 276646.080000
   2395   2397     1   0.10969 276646.080000
   2400   2429     1   0.10304 312293.760000
   2401   2402     1   0.10910 283424.160000
   2401   2403     1   0.10910 283424.160000
   2404   2405     1   0.10910 283424.160000
   2404   2406     1   0.10910 283424.160000
   2407   2408     1   0.10910 283424.160000
   2407   2409     1   0.10910 283424.160000
   2410   2411     1   0.10969 276646.080000
   2410   2412     1   0.10969 276646.080000
   2413   2414     1   0.10969 276646.080000
   2413   2415     1   0.10969 276646.080000
   2416   2417     1   0.10969 276646.080000
   2416   2418     1   0.10969 276646.080000
   2419   2420     1   0.10969 276646.080000
   2419   2421     1   0.10969 276646.080000
   2422   2423     1   0.10969 276646.080000
   2422   2424     1   0.10969 276646.080000
   2425   2426     1   0.10969 276646.080000
   2425   2427     1   0.10969 276646.080000
   2430   2459     1   0.10304 312293.760000
   2431   2432     1   0.10910 283424.160000
   2431   2433     1   0.10910 283424.160000
   2434   2435     1   0.10910 283424.160000
   2434   2436     1   0.10910 283424.160000
   2437   2438     1   0.10910 283424.160000
   2437   2439     1   0.10910 283424.160000
   2440   2441     1   0.10969 276646.080000
   2440   2442     1   0.10969 276646.080000
   2443   2444     1   0.10969 276646.080000
   2443   2445     1   0.10969 276646.080000
   2446   2447     1   0.10969 276646.080000
   2446   2448     1   0.10969 276646.080000
   2449   2450     1   0.10969 276646.080000
   2449   2451     1   0.10969 276646.080000
   2452   2453     1   0.10969 276646.080000
   2452   2454     1   0.10969 276646.080000
   2455   2456     1   0.10969 276646.080000
   2455   2457     1   0.10969 276646.080000
   2460   2489     1   0.10304 312293.760000
   2461   2462     1   0.10910 283424.160000
   2461   2463     1   0.10910 283424.160000
   2464   2465     1   0.10910 283424.160000
   2464   2466     1   0.10910 283424.160000
   2467   2468     1   0.10910 283424.160000
   2467   2469     1   0.10910 283424.160000
   2470   2471     1   0.10969 276646.080000
   2470   2472     1   0.10969 276646.080000
   2473   2474     1   0.10969 276646.080000
   2473   2475     1   0.10969 276646.080000
   2476   2477     1   0.10969 276646.080000
   2476   2478     1   0.10969 276646.080000
   2479   2480     1   0.10969 276646.080000
   2479   2481     1   0.10969 276646.080000
   2482   2483     1   0.10969 276646.080000
   2482   2484     1   0.10969 276646.080000
   2485   2486     1   0.10969 276646.080000
   2485   2487     1   0.10969 276646.080000
   2490   2519     1   0.10304 312293.760000
   2491   2492     1   0.10910 283424.160000
   2491   2493     1   0.10910 283424.160000
   2494   2495     1   0.10910 283424.160000
   2494   2496     1   0.10910 283424.160000
   2497   2498     1   0.10910 283424.160000
   2497   2499     1   0.10910 283424.160000
   2500   2501     1   0.10969 276646.080000
   2500   2502     1   0.10969 276646.080000
   2503   2504     1   0.10969 276646.080000
   2503   2505     1   0.10969 276646.080000
   2506   2507     1   0.10969 276646.080000
   2506   2508     1   0.10969 276646.080000
   2509   2510     1   0.10969 276646.080000
   2509   2511     1   0.10969 276646.080000
   2512   2513     1   0.10969 276646.080000
   2512   2514     1   0.10969 276646.080000
   2515   2516     1   0.10969 276646.080000
   2515   2517     1   0.10969 276646.080000
   2520   2549     1   0.10304 312293.760000
   2521   2522     1   0.10910 283424.160000
   2521   2523     1   0.10910 283424.160000
   2524   2525     1   0.10910 283424.160000
   2524   2526     1   0.10910 283424.160000
   2527   2528     1   0.10910 283424.160000
   2527   2529     1   0.10910 283424.160000
   2530   2531     1   0.10969 276646.080000
   2530   2532     1   0.10969 276646.080000
   2533   2534     1   0.10969 276646.080000
   2533   2535     1   0.10969 276646.080000
   2536   2537     1   0.10969 276646.080000
   2536   2538     1   0.10969 276646.080000
   2539   2540     1   0.10969 276646.080000
   2539   2541     1   0.10969 276646.080000
   2542   2543     1   0.10969 276646.080000
   2542   2544     1   0.10969 276646.080000
   2545   2546     1   0.10969 276646.080000
   2545   2547     1   0.10969 276646.080000
   2550   2579     1   0.10304 312293.760000
   2551   2552     1   0.10910 283424.160000
   2551   2553     1   0.10910 283424.160000
   2554   2555     1   0.10910 283424.160000
   2554   2556     1   0.10910 283424.160000
   2557   2558     1   0.10910 283424.160000
   2557   2559     1   0.10910 283424.160000
   2560   2561     1   0.10969 276646.080000
   2560   2562     1   0.10969 276646.080000
   2563   2564     1   0.10969 276646.080000
   2563   2565     1   0.10969 276646.080000
   2566   2567     1   0.10969 276646.080000
   2566   2568     1   0.10969 276646.080000
   2569   2570     1   0.10969 276646.080000
   2569   2571     1   0.10969 276646.080000
   2572   2573     1   0.10969 276646.080000
   2572   2574     1   0.10969 276646.080000
   2575   2576     1   0.10969 276646.080000
   2575   2577     1   0.10969 276646.080000
   2580   2609     1   0.10304 312293.760000
   2581   2582     1   0.10910 283424.160000
   2581   2583     1   0.10910 283424.160000
   2584   2585     1   0.10910 283424.160000
   2584   2586     1   0.10910 283424.160000
   2587   2588     1   0.10910 283424.160000
   2587   2589     1   0.10910 283424.160000
   2590   2591     1   0.10969 276646.080000
   2590   2592     1   0.10969 276646.080000
   2593   2594     1   0.10969 276646.080000
   2593   2595     1   0.10969 276646.080000
   2596   2597     1   0.10969 276646.080000
   2596   2598     1   0.10969 276646.080000
   2599   2600     1   0.10969 276646.080000
   2599   2601     1   0.10969 276646.080000
   2602   2603     1   0.10969 276646.080000
   2602   2604     1   0.10969 276646.080000
   2605   2606     1   0.10969 276646.080000
   2605   2607     1   0.10969 276646.080000
   2610   2639     1   0.10304 312293.760000
   2611   2612     1   0.10910 283424.160000
   2611   2613     1   0.10910 283424.160000
   2614   2615     1   0.10910 283424.160000
   2614   2616     1   0.10910 283424.160000
   2617   2618     1   0.10910 283424.160000
   2617   2619     1   0.10910 283424.160000
   2620   2621     1   0.10969 276646.080000
   2620   2622     1   0.10969 276646.080000
   2623   2624     1   0.10969 276646.080000
   2623   2625     1   0.10969 276646.080000
   2626   2627     1   0.10969 276646.080000
   2626   2628     1   0.10969 276646.080000
   2629   2630     1   0.10969 276646.080000
   2629   2631     1   0.10969 276646.080000
   2632   2633     1   0.10969 276646.080000
   2632   2634     1   0.10969 276646.080000
   2635   2636     1   0.10969 276646.080000
   2635   2637     1   0.10969 276646.080000
   2640   2669     1   0.10304 312293.760000
   2641   2642     1   0.10910 283424.160000
   2641   2643     1   0.10910 283424.160000
   2644   2645     1   0.10910 283424.160000
   2644   2646     1   0.10910 283424.160000
   2647   2648     1   0.10910 283424.160000
   2647   2649     1   0.10910 283424.160000
   2650   2651     1   0.10969 276646.080000
   2650   2652     1   0.10969 276646.080000
   2653   2654     1   0.10969 276646.080000
   2653   2655     1   0.10969 276646.080000
   2656   2657     1   0.10969 276646.080000
   2656   2658     1   0.10969 276646.080000
   2659   2660     1   0.10969 276646.080000
   2659   2661     1   0.10969 276646.080000
   2662   2663     1   0.10969 276646.080000
   2662   2664     1   0.10969 276646.080000
   2665   2666     1   0.10969 276646.080000
   2665   2667     1   0.10969 276646.080000
   2670   2699     1   0.10304 312293.760000
   2671   2672     1   0.10910 283424.160000
   2671   2673     1   0.10910 283424.160000
   2674   2675     1   0.10910 283424.160000
   2674   2676     1   0.10910 283424.160000
   2677   2678     1   0.10910 283424.160000
   2677   2679     1   0.10910 283424.160000
   2680   2681     1   0.10969 276646.080000
   2680   2682     1   0.10969 276646.080000
   2683   2684     1   0.10969 276646.080000
   2683   2685     1   0.10969 276646.080000
   2686   2687     1   0.10969 276646.080000
   2686   2688     1   0.10969 276646.080000
   2689   2690     1   0.10969 276646.080000
   2689   2691     1   0.10969 276646.080000
   2692   2693     1   0.10969 276646.080000
   2692   2694     1   0.10969 276646.080000
   2695   2696     1   0.10969 276646.080000
   2695   2697     1   0.10969 276646.080000
   2700   2729     1   0.10304 312293.760000
   2701   2702     1   0.10910 283424.160000
   2701   2703     1   0.10910 283424.160000
   2704   2705     1   0.10910 283424.160000
   2704   2706     1   0.10910 283424.160000
   2707   2708     1   0.10910 283424.160000
   2707   2709     1   0.10910 283424.160000
   2710   2711     1   0.10969 276646.080000
   2710   2712     1   0.10969 276646.080000
   2713   2714     1   0.10969 276646.080000
   2713   2715     1   0.10969 276646.080000
   2716   2717     1   0.10969 276646.080000
   2716   2718     1   0.10969 276646.080000
   2719   2720     1   0.10969 276646.080000
   2719   2721     1   0.10969 276646.080000
   2722   2723     1   0.10969 276646.080000
   2722   2724     1   0.10969 276646.080000
   2725   2726     1   0.10969 276646.080000
   2725   2727     1   0.10969 276646.080000
   2730   2759     1   0.10304 312293.760000
   2731   2732     1   0.10910 283424.160000
   2731   2733     1   0.10910 283424.160000
   2734   2735     1   0.10910 283424.160000
   2734   2736     1   0.10910 283424.160000
   2737   2738     1   0.10910 283424.160000
   2737   2739     1   0.10910 283424.160000
   2740   2741     1   0.10969 276646.080000
   2740   2742     1   0.10969 276646.080000
   2743   2744     1   0.10969 276646.080000
   2743   2745     1   0.10969 276646.080000
   2746   2747     1   0.10969 276646.080000
   2746   2748     1   0.10969 276646.080000
   2749   2750     1   0.10969 276646.080000
   2749   2751     1   0.10969 276646.080000
   2752   2753     1   0.10969 276646.080000
   2752   2754     1   0.10969 276646.080000
   2755   2756     1   0.10969 276646.080000
   2755   2757     1   0.10969 276646.080000
   2760   2789     1   0.10304 312293.760000
   2761   2762     1   0.10910 283424.160000
   2761   2763     1   0.10910 283424.160000
   2764   2765     1   0.10910 283424.160000
   2764   2766     1   0.10910 283424.160000
   2767   2768     1   0.10910 283424.160000
   2767   2769     1   0.10910 283424.160000
   2770   2771     1   0.10969 276646.080000
   2770   2772     1   0.10969 276646.080000
   2773   2774     1   0.10969 276646.080000
   2773   2775     1   0.10969 276646.080000
   2776   2777     1   0.10969 276646.080000
   2776   2778     1   0.10969 276646.080000
   2779   2780     1   0.10969 276646.080000
   2779   2781     1   0.10969 276646.080000
   2782   2783     1   0.10969 276646.080000
   2782   2784     1   0.10969 276646.080000
   2785   2786     1   0.10969 276646.080000
   2785   2787     1   0.10969 276646.080000
   2790   2819     1   0.10304 312293.760000
   2791   2792     1   0.10910 283424.160000
   2791   2793     1   0.10910 283424.160000
   2794   2795     1   0.10910 283424.160000
   2794   2796     1   0.10910 283424.160000
   2797   2798     1   0.10910 283424.160000
   2797   2799     1   0.10910 283424.160000
   2800   2801     1   0.10969 276646.080000
   2800   2802     1   0.10969 276646.080000
   2803   2804     1   0.10969 276646.080000
   2803   2805     1   0.10969 276646.080000
   2806   2807     1   0.10969 276646.080000
   2806   2808     1   0.10969 276646.080000
   2809   2810     1   0.10969 276646.080000
   2809   2811     1   0.10969 276646.080000
   2812   2813     1   0.10969 276646.080000
   2812   2814     1   0.10969 276646.080000
   2815   2816     1   0.10969 276646.080000
   2815   2817     1   0.10969 276646.080000
   2820   2849     1   0.10304 312293.760000
   2821   2822     1   0.10910 283424.160000
   2821   2823     1   0.10910 283424.160000
   2824   2825     1   0.10910 283424.160000
   2824   2826     1   0.10910 283424.160000
   2827   2828     1   0.10910 283424.160000
   2827   2829     1   0.10910 283424.160000
   2830   2831     1   0.10969 276646.080000
   2830   2832     1   0.10969 276646.080000
   2833   2834     1   0.10969 276646.080000
   2833   2835     1   0.10969 276646.080000
   2836   2837     1   0.10969 276646.080000
   2836   2838     1   0.10969 276646.080000
   2839   2840     1   0.10969 276646.080000
   2839   2841     1   0.10969 276646.080000
   2842   2843     1   0.10969 276646.080000
   2842   2844     1   0.10969 276646.080000
   2845   2846     1   0.10969 276646.080000
   2845   2847     1   0.10969 276646.080000
   2850   2879     1   0.10304 312293.760000
   2851   2852     1   0.10910 283424.160000
   2851   2853     1   0.10910 283424.160000
   2854   2855     1   0.10910 283424.160000
   2854   2856     1   0.10910 283424.160000
   2857   2858     1   0.10910 283424.160000
   2857   2859     1   0.10910 283424.160000
   2860   2861     1   0.10969 276646.080000
   2860   2862     1   0.10969 276646.080000
   2863   2864     1   0.10969 276646.080000
   2863   2865     1   0.10969 276646.080000
   2866   2867     1   0.10969 276646.080000
   2866   2868     1   0.10969 276646.080000
   2869   2870     1   0.10969 276646.080000
   2869   2871     1   0.10969 276646.080000
   2872   2873     1   0.10969 276646.080000
   2872   2874     1   0.10969 276646.080000
   2875   2876     1   0.10969 276646.080000
   2875   2877     1   0.10969 276646.080000
   2880   2909     1   0.10304 312293.760000
   2881   2882     1   0.10910 283424.160000
   2881   2883     1   0.10910 283424.160000
   2884   2885     1   0.10910 283424.160000
   2884   2886     1   0.10910 283424.160000
   2887   2888     1   0.10910 283424.160000
   2887   2889     1   0.10910 283424.160000
   2890   2891     1   0.10969 276646.080000
   2890   2892     1   0.10969 276646.080000
   2893   2894     1   0.10969 276646.080000
   2893   2895     1   0.10969 276646.080000
   2896   2897     1   0.10969 276646.080000
   2896   2898     1   0.10969 276646.080000
   2899   2900     1   0.10969 276646.080000
   2899   2901     1   0.10969 276646.080000
   2902   2903     1   0.10969 276646.080000
   2902   2904     1   0.10969 276646.080000
   2905   2906     1   0.10969 276646.080000
   2905   2907     1   0.10969 276646.080000
   2910   2939     1   0.10304 312293.760000
   2911   2912     1   0.10910 283424.160000
   2911   2913     1   0.10910 283424.160000
   2914   2915     1   0.10910 283424.160000
   2914   2916     1   0.10910 283424.160000
   2917   2918     1   0.10910 283424.160000
   2917   2919     1   0.10910 283424.160000
   2920   2921     1   0.10969 276646.080000
   2920   2922     1   0.10969 276646.080000
   2923   2924     1   0.10969 276646.080000
   2923   2925     1   0.10969 276646.080000
   2926   2927     1   0.10969 276646.080000
   2926   2928     1   0.10969 276646.080000
   2929   2930     1   0.10969 276646.080000
   2929   2931     1   0.10969 276646.080000
   2932   2933     1   0.10969 276646.080000
   2932   2934     1   0.10969 276646.080000
   2935   2936     1   0.10969 276646.080000
   2935   2937     1   0.10969 276646.080000
   2940   2969     1   0.10304 312293.760000
   2941   2942     1   0.10910 283424.160000
   2941   2943     1   0.10910 283424.160000
   2944   2945     1   0.10910 283424.160000
   2944   2946     1   0.10910 283424.160000
   2947   2948     1   0.10910 283424.160000
   2947   2949     1   0.10910 283424.160000
   2950   2951     1   0.10969 276646.080000
   2950   2952     1   0.10969 276646.080000
   2953   2954     1   0.10969 276646.080000
   2953   2955     1   0.10969 276646.080000
   2956   2957     1   0.10969 276646.080000
   2956   2958     1   0.10969 276646.080000
   2959   2960     1   0.10969 276646.080000
   2959   2961     1   0.10969 276646.080000
   2962   2963     1   0.10969 276646.080000
   2962   2964     1   0.10969 276646.080000
   2965   2966     1   0.10969 276646.080000
   2965   2967     1   0.10969 276646.080000
   2970   2999     1   0.10304 312293.760000
   2971   2972     1   0.10910 283424.160000
   2971   2973     1   0.10910 283424.160000
   2974   2975     1   0.10910 283424.160000
   2974   2976     1   0.10910 283424.160000
   2977   2978     1   0.10910 283424.160000
   2977   2979     1   0.10910 283424.160000
   2980   2981     1   0.10969 276646.080000
   2980   2982     1   0.10969 276646.080000
   2983   2984     1   0.10969 276646.080000
   2983   2985     1   0.10969 276646.080000
   2986   2987     1   0.10969 276646.080000
   2986   2988     1   0.10969 276646.080000
   2989   2990     1   0.10969 276646.080000
   2989   2991     1   0.10969 276646.080000
   2992   2993     1   0.10969 276646.080000
   2992   2994     1   0.10969 276646.080000
   2995   2996     1   0.10969 276646.080000
   2995   2997     1   0.10969 276646.080000
   3000   3029     1   0.10304 312293.760000
   3001   3002     1   0.10910 283424.160000
   3001   3003     1   0.10910 283424.160000
   3004   3005     1   0.10910 283424.160000
   3004   3006     1   0.10910 283424.160000
   3007   3008     1   0.10910 283424.160000
   3007   3009     1   0.10910 283424.160000
   3010   3011     1   0.10969 276646.080000
   3010   3012     1   0.10969 276646.080000
   3013   3014     1   0.10969 276646.080000
   3013   3015     1   0.10969 276646.080000
   3016   3017     1   0.10969 276646.080000
   3016   3018     1   0.10969 276646.080000
   3019   3020     1   0.10969 276646.080000
   3019   3021     1   0.10969 276646.080000
   3022   3023     1   0.10969 276646.080000
   3022   3024     1   0.10969 276646.080000
   3025   3026     1   0.10969 276646.080000
   3025   3027     1   0.10969 276646.080000
   3030   3059     1   0.10304 312293.760000
   3031   3032     1   0.10910 283424.160000
   3031   3033     1   0.10910 283424.160000
   3034   3035     1   0.10910 283424.160000
   3034   3036     1   0.10910 283424.160000
   3037   3038     1   0.10910 283424.160000
   3037   3039     1   0.10910 283424.160000
   3040   3041     1   0.10969 276646.080000
   3040   3042     1   0.10969 276646.080000
   3043   3044     1   0.10969 276646.080000
   3043   3045     1   0.10969 276646.080000
   3046   3047     1   0.10969 276646.080000
   3046   3048     1   0.10969 276646.080000
   3049   3050     1   0.10969 276646.080000
   3049   3051     1   0.10969 276646.080000
   3052   3053     1   0.10969 276646.080000
   3052   3054     1   0.10969 276646.080000
   3055   3056     1   0.10969 276646.080000
   3055   3057     1   0.10969 276646.080000
   3060   3089     1   0.10304 312293.760000
   3061   3062     1   0.10910 283424.160000
   3061   3063     1   0.10910 283424.160000
   3064   3065     1   0.10910 283424.160000
   3064   3066     1   0.10910 283424.160000
   3067   3068     1   0.10910 283424.160000
   3067   3069     1   0.10910 283424.160000
   3070   3071     1   0.10969 276646.080000
   3070   3072     1   0.10969 276646.080000
   3073   3074     1   0.10969 276646.080000
   3073   3075     1   0.10969 276646.080000
   3076   3077     1   0.10969 276646.080000
   3076   3078     1   0.10969 276646.080000
   3079   3080     1   0.10969 276646.080000
   3079   3081     1   0.10969 276646.080000
   3082   3083     1   0.10969 276646.080000
   3082   3084     1   0.10969 276646.080000
   3085   3086     1   0.10969 276646.080000
   3085   3087     1   0.10969 276646.080000
   3090   3119     1   0.10304 312293.760000
   3091   3092     1   0.10910 283424.160000
   3091   3093     1   0.10910 283424.160000
   3094   3095     1   0.10910 283424.160000
   3094   3096     1   0.10910 283424.160000
   3097   3098     1   0.10910 283424.160000
   3097   3099     1   0.10910 283424.160000
   3100   3101     1   0.10969 276646.080000
   3100   3102     1   0.10969 276646.080000
   3103   3104     1   0.10969 276646.080000
   3103   3105     1   0.10969 276646.080000
   3106   3107     1   0.10969 276646.080000
   3106   3108     1   0.10969 276646.080000
   3109   3110     1   0.10969 276646.080000
   3109   3111     1   0.10969 276646.080000
   3112   3113     1   0.10969 276646.080000
   3112   3114     1   0.10969 276646.080000
   3115   3116     1   0.10969 276646.080000
   3115   3117     1   0.10969 276646.080000
   3120   3149     1   0.10304 312293.760000
   3121   3122     1   0.10910 283424.160000
   3121   3123     1   0.10910 283424.160000
   3124   3125     1   0.10910 283424.160000
   3124   3126     1   0.10910 283424.160000
   3127   3128     1   0.10910 283424.160000
   3127   3129     1   0.10910 283424.160000
   3130   3131     1   0.10969 276646.080000
   3130   3132     1   0.10969 276646.080000
   3133   3134     1   0.10969 276646.080000
   3133   3135     1   0.10969 276646.080000
   3136   3137     1   0.10969 276646.080000
   3136   3138     1   0.10969 276646.080000
   3139   3140     1   0.10969 276646.080000
   3139   3141     1   0.10969 276646.080000
   3142   3143     1   0.10969 276646.080000
   3142   3144     1   0.10969 276646.080000
   3145   3146     1   0.10969 276646.080000
   3145   3147     1   0.10969 276646.080000
   3150   3179     1   0.10304 312293.760000
   3151   3152     1   0.10910 283424.160000
   3151   3153     1   0.10910 283424.160000
   3154   3155     1   0.10910 283424.160000
   3154   3156     1   0.10910 283424.160000
   3157   3158     1   0.10910 283424.160000
   3157   3159     1   0.10910 283424.160000
   3160   3161     1   0.10969 276646.080000
   3160   3162     1   0.10969 276646.080000
   3163   3164     1   0.10969 276646.080000
   3163   3165     1   0.10969 276646.080000
   3166   3167     1   0.10969 276646.080000
   3166   3168     1   0.10969 276646.080000
   3169   3170     1   0.10969 276646.080000
   3169   3171     1   0.10969 276646.080000
   3172   3173     1   0.10969 276646.080000
   3172   3174     1   0.10969 276646.080000
   3175   3176     1   0.10969 276646.080000
   3175   3177     1   0.10969 276646.080000
   3180   3209     1   0.10304 312293.760000
   3181   3182     1   0.10910 283424.160000
   3181   3183     1   0.10910 283424.160000
   3184   3185     1   0.10910 283424.160000
   3184   3186     1   0.10910 283424.160000
   3187   3188     1   0.10910 283424.160000
   3187   3189     1   0.10910 283424.160000
   3190   3191     1   0.10969 276646.080000
   3190   3192     1   0.10969 276646.080000
   3193   3194     1   0.10969 276646.080000
   3193   3195     1   0.10969 276646.080000
   3196   3197     1   0.10969 276646.080000
   3196   3198     1   0.10969 276646.080000
   3199   3200     1   0.10969 276646.080000
   3199   3201     1   0.10969 276646.080000
   3202   3203     1   0.10969 276646.080000
   3202   3204     1   0.10969 276646.080000
   3205   3206     1   0.10969 276646.080000
   3205   3207     1   0.10969 276646.080000
   3210   3239     1   0.10304 312293.760000
   3211   3212     1   0.10910 283424.160000
   3211   3213     1   0.10910 283424.160000
   3214   3215     1   0.10910 283424.160000
   3214   3216     1   0.10910 283424.160000
   3217   3218     1   0.10910 283424.160000
   3217   3219     1   0.10910 283424.160000
   3220   3221     1   0.10969 276646.080000
   3220   3222     1   0.10969 276646.080000
   3223   3224     1   0.10969 276646.080000
   3223   3225     1   0.10969 276646.080000
   3226   3227     1   0.10969 276646.080000
   3226   3228     1   0.10969 276646.080000
   3229   3230     1   0.10969 276646.080000
   3229   3231     1   0.10969 276646.080000
   3232   3233     1   0.10969 276646.080000
   3232   3234     1   0.10969 276646.080000
   3235   3236     1   0.10969 276646.080000
   3235   3237     1   0.10969 276646.080000
   3240   3269     1   0.10304 312293.760000
   3241   3242     1   0.10910 283424.160000
   3241   3243     1   0.10910 283424.160000
   3244   3245     1   0.10910 283424.160000
   3244   3246     1   0.10910 283424.160000
   3247   3248     1   0.10910 283424.160000
   3247   3249     1   0.10910 283424.160000
   3250   3251     1   0.10969 276646.080000
   3250   3252     1   0.10969 276646.080000
   3253   3254     1   0.10969 276646.080000
   3253   3255     1   0.10969 276646.080000
   3256   3257     1   0.10969 276646.080000
   3256   3258     1   0.10969 276646.080000
   3259   3260     1   0.10969 276646.080000
   3259   3261     1   0.10969 276646.080000
   3262   3263     1   0.10969 276646.080000
   3262   3264     1   0.10969 276646.080000
   3265   3266     1   0.10969 276646.080000
   3265   3267     1   0.10969 276646.080000
   3270   3299     1   0.10304 312293.760000
   3271   3272     1   0.10910 283424.160000
   3271   3273     1   0.10910 283424.160000
   3274   3275     1   0.10910 283424.160000
   3274   3276     1   0.10910 283424.160000
   3277   3278     1   0.10910 283424.160000
   3277   3279     1   0.10910 283424.160000
   3280   3281     1   0.10969 276646.080000
   3280   3282     1   0.10969 276646.080000
   3283   3284     1   0.10969 276646.080000
   3283   3285     1   0.10969 276646.080000
   3286   3287     1   0.10969 276646.080000
   3286   3288     1   0.10969 276646.080000
   3289   3290     1   0.10969 276646.080000
   3289   3291     1   0.10969 276646.080000
   3292   3293     1   0.10969 276646.080000
   3292   3294     1   0.10969 276646.080000
   3295   3296     1   0.10969 276646.080000
   3295   3297     1   0.10969 276646.080000
   3300   3329     1   0.10304 312293.760000
   3301   3302     1   0.10910 283424.160000
   3301   3303     1   0.10910 283424.160000
   3304   3305     1   0.10910 283424.160000
   3304   3306     1   0.10910 283424.160000
   3307   3308     1   0.10910 283424.160000
   3307   3309     1   0.10910 283424.160000
   3310   3311     1   0.10969 276646.080000
   3310   3312     1   0.10969 276646.080000
   3313   3314     1   0.10969 276646.080000
   3313   3315     1   0.10969 276646.080000
   3316   3317     1   0.10969 276646.080000
   3316   3318     1   0.10969 276646.080000
   3319   3320     1   0.10969 276646.080000
   3319   3321     1   0.10969 276646.080000
   3322   3323     1   0.10969 276646.080000
   3322   3324     1   0.10969 276646.080000
   3325   3326     1   0.10969 276646.080000
   3325   3327     1   0.10969 276646.080000
   3330   3359     1   0.10304 312293.760000
   3331   3332     1   0.10910 283424.160000
   3331   3333     1   0.10910 283424.160000
   3334   3335     1   0.10910 283424.160000
   3334   3336     1   0.10910 283424.160000
   3337   3338     1   0.10910 283424.160000
   3337   3339     1   0.10910 283424.160000
   3340   3341     1   0.10969 276646.080000
   3340   3342     1   0.10969 276646.080000
   3343   3344     1   0.10969 276646.080000
   3343   3345     1   0.10969 276646.080000
   3346   3347     1   0.10969 276646.080000
   3346   3348     1   0.10969 276646.080000
   3349   3350     1   0.10969 276646.080000
   3349   3351     1   0.10969 276646.080000
   3352   3353     1   0.10969 276646.080000
   3352   3354     1   0.10969 276646.080000
   3355   3356     1   0.10969 276646.080000
   3355   3357     1   0.10969 276646.080000
   3360   3389     1   0.10304 312293.760000
   3361   3362     1   0.10910 283424.160000
   3361   3363     1   0.10910 283424.160000
   3364   3365     1   0.10910 283424.160000
   3364   3366     1   0.10910 283424.160000
   3367   3368     1   0.10910 283424.160000
   3367   3369     1   0.10910 283424.160000
   3370   3371     1   0.10969 276646.080000
   3370   3372     1   0.10969 276646.080000
   3373   3374     1   0.10969 276646.080000
   3373   3375     1   0.10969 276646.080000
   3376   3377     1   0.10969 276646.080000
   3376   3378     1   0.10969 276646.080000
   3379   3380     1   0.10969 276646.080000
   3379   3381     1   0.10969 276646.080000
   3382   3383     1   0.10969 276646.080000
   3382   3384     1   0.10969 276646.080000
   3385   3386     1   0.10969 276646.080000
   3385   3387     1   0.10969 276646.080000
   3390   3419     1   0.10304 312293.760000
   3391   3392     1   0.10910 283424.160000
   3391   3393     1   0.10910 283424.160000
   3394   3395     1   0.10910 283424.160000
   3394   3396     1   0.10910 283424.160000
   3397   3398     1   0.10910 283424.160000
   3397   3399     1   0.10910 283424.160000
   3400   3401     1   0.10969 276646.080000
   3400   3402     1   0.10969 276646.080000
   3403   3404     1   0.10969 276646.080000
   3403   3405     1   0.10969 276646.080000
   3406   3407     1   0.10969 276646.080000
   3406   3408     1   0.10969 276646.080000
   3409   3410     1   0.10969 276646.080000
   3409   3411     1   0.10969 276646.080000
   3412   3413     1   0.10969 276646.080000
   3412   3414     1   0.10969 276646.080000
   3415   3416     1   0.10969 276646.080000
   3415   3417     1   0.10969 276646.080000
   3420   3449     1   0.10304 312293.760000
   3421   3422     1   0.10910 283424.160000
   3421   3423     1   0.10910 283424.160000
   3424   3425     1   0.10910 283424.160000
   3424   3426     1   0.10910 283424.160000
   3427   3428     1   0.10910 283424.160000
   3427   3429     1   0.10910 283424.160000
   3430   3431     1   0.10969 276646.080000
   3430   3432     1   0.10969 276646.080000
   3433   3434     1   0.10969 276646.080000
   3433   3435     1   0.10969 276646.080000
   3436   3437     1   0.10969 276646.080000
   3436   3438     1   0.10969 276646.080000
   3439   3440     1   0.10969 276646.080000
   3439   3441     1   0.10969 276646.080000
   3442   3443     1   0.10969 276646.080000
   3442   3444     1   0.10969 276646.080000
   3445   3446     1   0.10969 276646.080000
   3445   3447     1   0.10969 276646.080000
   3450   3479     1   0.10304 312293.760000
   3451   3452     1   0.10910 283424.160000
   3451   3453     1   0.10910 283424.160000
   3454   3455     1   0.10910 283424.160000
   3454   3456     1   0.10910 283424.160000
   3457   3458     1   0.10910 283424.160000
   3457   3459     1   0.10910 283424.160000
   3460   3461     1   0.10969 276646.080000
   3460   3462     1   0.10969 276646.080000
   3463   3464     1   0.10969 276646.080000
   3463   3465     1   0.10969 276646.080000
   3466   3467     1   0.10969 276646.080000
   3466   3468     1   0.10969 276646.080000
   3469   3470     1   0.10969 276646.080000
   3469   3471     1   0.10969 276646.080000
   3472   3473     1   0.10969 276646.080000
   3472   3474     1   0.10969 276646.080000
   3475   3476     1   0.10969 276646.080000
   3475   3477     1   0.10969 276646.080000
   3480   3509     1   0.10304 312293.760000
   3481   3482     1   0.10910 283424.160000
   3481   3483     1   0.10910 283424.160000
   3484   3485     1   0.10910 283424.160000
   3484   3486     1   0.10910 283424.160000
   3487   3488     1   0.10910 283424.160000
   3487   3489     1   0.10910 283424.160000
   3490   3491     1   0.10969 276646.080000
   3490   3492     1   0.10969 276646.080000
   3493   3494     1   0.10969 276646.080000
   3493   3495     1   0.10969 276646.080000
   3496   3497     1   0.10969 276646.080000
   3496   3498     1   0.10969 276646.080000
   3499   3500     1   0.10969 276646.080000
   3499   3501     1   0.10969 276646.080000
   3502   3503     1   0.10969 276646.080000
   3502   3504     1   0.10969 276646.080000
   3505   3506     1   0.10969 276646.080000
   3505   3507     1   0.10969 276646.080000
   3510   3539     1   0.10304 312293.760000
   3511   3512     1   0.10910 283424.160000
   3511   3513     1   0.10910 283424.160000
   3514   3515     1   0.10910 283424.160000
   3514   3516     1   0.10910 283424.160000
   3517   3518     1   0.10910 283424.160000
   3517   3519     1   0.10910 283424.160000
   3520   3521     1   0.10969 276646.080000
   3520   3522     1   0.10969 276646.080000
   3523   3524     1   0.10969 276646.080000
   3523   3525     1   0.10969 276646.080000
   3526   3527     1   0.10969 276646.080000
   3526   3528     1   0.10969 276646.080000
   3529   3530     1   0.10969 276646.080000
   3529   3531     1   0.10969 276646.080000
   3532   3533     1   0.10969 276646.080000
   3532   3534     1   0.10969 276646.080000
   3535   3536     1   0.10969 276646.080000
   3535   3537     1   0.10969 276646.080000
   3540   3569     1   0.10304 312293.760000
   3541   3542     1   0.10910 283424.160000
   3541   3543     1   0.10910 283424.160000
   3544   3545     1   0.10910 283424.160000
   3544   3546     1   0.10910 283424.160000
   3547   3548     1   0.10910 283424.160000
   3547   3549     1   0.10910 283424.160000
   3550   3551     1   0.10969 276646.080000
   3550   3552     1   0.10969 276646.080000
   3553   3554     1   0.10969 276646.080000
   3553   3555     1   0.10969 276646.080000
   3556   3557     1   0.10969 276646.080000
   3556   3558     1   0.10969 276646.080000
   3559   3560     1   0.10969 276646.080000
   3559   3561     1   0.10969 276646.080000
   3562   3563     1   0.10969 276646.080000
   3562   3564     1   0.10969 276646.080000
   3565   3566     1   0.10969 276646.080000
   3565   3567     1   0.10969 276646.080000
   3570   3599     1   0.10304 312293.760000
   3571   3572     1   0.10910 283424.160000
   3571   3573     1   0.10910 283424.160000
   3574   3575     1   0.10910 283424.160000
   3574   3576     1   0.10910 283424.160000
   3577   3578     1   0.10910 283424.160000
   3577   3579     1   0.10910 283424.160000
   3580   3581     1   0.10969 276646.080000
   3580   3582     1   0.10969 276646.080000
   3583   3584     1   0.10969 276646.080000
   3583   3585     1   0.10969 276646.080000
   3586   3587     1   0.10969 276646.080000
   3586   3588     1   0.10969 276646.080000
   3589   3590     1   0.10969 276646.080000
   3589   3591     1   0.10969 276646.080000
   3592   3593     1   0.10969 276646.080000
   3592   3594     1   0.10969 276646.080000
   3595   3596     1   0.10969 276646.080000
   3595   3597     1   0.10969 276646.080000
   3600   3629     1   0.10304 312293.760000
   3601   3602     1   0.10910 283424.160000
   3601   3603     1   0.10910 283424.160000
   3604   3605     1   0.10910 283424.160000
   3604   3606     1   0.10910 283424.160000
   3607   3608     1   0.10910 283424.160000
   3607   3609     1   0.10910 283424.160000
   3610   3611     1   0.10969 276646.080000
   3610   3612     1   0.10969 276646.080000
   3613   3614     1   0.10969 276646.080000
   3613   3615     1   0.10969 276646.080000
   3616   3617     1   0.10969 276646.080000
   3616   3618     1   0.10969 276646.080000
   3619   3620     1   0.10969 276646.080000
   3619   3621     1   0.10969 276646.080000
   3622   3623     1   0.10969 276646.080000
   3622   3624     1   0.10969 276646.080000
   3625   3626     1   0.10969 276646.080000
   3625   3627     1   0.10969 276646.080000
   3630   3659     1   0.10304 312293.760000
   3631   3632     1   0.10910 283424.160000
   3631   3633     1   0.10910 283424.160000
   3634   3635     1   0.10910 283424.160000
   3634   3636     1   0.10910 283424.160000
   3637   3638     1   0.10910 283424.160000
   3637   3639     1   0.10910 283424.160000
   3640   3641     1   0.10969 276646.080000
   3640   3642     1   0.10969 276646.080000
   3643   3644     1   0.10969 276646.080000
   3643   3645     1   0.10969 276646.080000
   3646   3647     1   0.10969 276646.080000
   3646   3648     1   0.10969 276646.080000
   3649   3650     1   0.10969 276646.080000
   3649   3651     1   0.10969 276646.080000
   3652   3653     1   0.10969 276646.080000
   3652   3654     1   0.10969 276646.080000
   3655   3656     1   0.10969 276646.080000
   3655   3657     1   0.10969 276646.080000
   3660   3689     1   0.10304 312293.760000
   3661   3662     1   0.10910 283424.160000
   3661   3663     1   0.10910 283424.160000
   3664   3665     1   0.10910 283424.160000
   3664   3666     1   0.10910 283424.160000
   3667   3668     1   0.10910 283424.160000
   3667   3669     1   0.10910 283424.160000
   3670   3671     1   0.10969 276646.080000
   3670   3672     1   0.10969 276646.080000
   3673   3674     1   0.10969 276646.080000
   3673   3675     1   0.10969 276646.080000
   3676   3677     1   0.10969 276646.080000
   3676   3678     1   0.10969 276646.080000
   3679   3680     1   0.10969 276646.080000
   3679   3681     1   0.10969 276646.080000
   3682   3683     1   0.10969 276646.080000
   3682   3684     1   0.10969 276646.080000
   3685   3686     1   0.10969 276646.080000
   3685   3687     1   0.10969 276646.080000
   3690   3719     1   0.10304 312293.760000
   3691   3692     1   0.10910 283424.160000
   3691   3693     1   0.10910 283424.160000
   3694   3695     1   0.10910 283424.160000
   3694   3696     1   0.10910 283424.160000
   3697   3698     1   0.10910 283424.160000
   3697   3699     1   0.10910 283424.160000
   3700   3701     1   0.10969 276646.080000
   3700   3702     1   0.10969 276646.080000
   3703   3704     1   0.10969 276646.080000
   3703   3705     1   0.10969 276646.080000
   3706   3707     1   0.10969 276646.080000
   3706   3708     1   0.10969 276646.080000
   3709   3710     1   0.10969 276646.080000
   3709   3711     1   0.10969 276646.080000
   3712   3713     1   0.10969 276646.080000
   3712   3714     1   0.10969 276646.080000
   3715   3716     1   0.10969 276646.080000
   3715   3717     1   0.10969 276646.080000
   3720   3749     1   0.10304 312293.760000
   3721   3722     1   0.10910 283424.160000
   3721   3723     1   0.10910 283424.160000
   3724   3725     1   0.10910 283424.160000
   3724   3726     1   0.10910 283424.160000
   3727   3728     1   0.10910 283424.160000
   3727   3729     1   0.10910 283424.160000
   3730   3731     1   0.10969 276646.080000
   3730   3732     1   0.10969 276646.080000
   3733   3734     1   0.10969 276646.080000
   3733   3735     1   0.10969 276646.080000
   3736   3737     1   0.10969 276646.080000
   3736   3738     1   0.10969 276646.080000
   3739   3740     1   0.10969 276646.080000
   3739   3741     1   0.10969 276646.080000
   3742   3743     1   0.10969 276646.080000
   3742   3744     1   0.10969 276646.080000
   3745   3746     1   0.10969 276646.080000
   3745   3747     1   0.10969 276646.080000
   3750   3779     1   0.10304 312293.760000
   3751   3752     1   0.10910 283424.160000
   3751   3753     1   0.10910 283424.160000
   3754   3755     1   0.10910 283424.160000
   3754   3756     1   0.10910 283424.160000
   3757   3758     1   0.10910 283424.160000
   3757   3759     1   0.10910 283424.160000
   3760   3761     1   0.10969 276646.080000
   3760   3762     1   0.10969 276646.080000
   3763   3764     1   0.10969 276646.080000
   3763   3765     1   0.10969 276646.080000
   3766   3767     1   0.10969 276646.080000
   3766   3768     1   0.10969 276646.080000
   3769   3770     1   0.10969 276646.080000
   3769   3771     1   0.10969 276646.080000
   3772   3773     1   0.10969 276646.080000
   3772   3774     1   0.10969 276646.080000
   3775   3776     1   0.10969 276646.080000
   3775   3777     1   0.10969 276646.080000
   3780   3809     1   0.10304 312293.760000
   3781   3782     1   0.10910 283424.160000
   3781   3783     1   0.10910 283424.160000
   3784   3785     1   0.10910 283424.160000
   3784   3786     1   0.10910 283424.160000
   3787   3788     1   0.10910 283424.160000
   3787   3789     1   0.10910 283424.160000
   3790   3791     1   0.10969 276646.080000
   3790   3792     1   0.10969 276646.080000
   3793   3794     1   0.10969 276646.080000
   3793   3795     1   0.10969 276646.080000
   3796   3797     1   0.10969 276646.080000
   3796   3798     1   0.10969 276646.080000
   3799   3800     1   0.10969 276646.080000
   3799   3801     1   0.10969 276646.080000
   3802   3803     1   0.10969 276646.080000
   3802   3804     1   0.10969 276646.080000
   3805   3806     1   0.10969 276646.080000
   3805   3807     1   0.10969 276646.080000
   3810   3839     1   0.10304 312293.760000
   3811   3812     1   0.10910 283424.160000
   3811   3813     1   0.10910 283424.160000
   3814   3815     1   0.10910 283424.160000
   3814   3816     1   0.10910 283424.160000
   3817   3818     1   0.10910 283424.160000
   3817   3819     1   0.10910 283424.160000
   3820   3821     1   0.10969 276646.080000
   3820   3822     1   0.10969 276646.080000
   3823   3824     1   0.10969 276646.080000
   3823   3825     1   0.10969 276646.080000
   3826   3827     1   0.10969 276646.080000
   3826   3828     1   0.10969 276646.080000
   3829   3830     1   0.10969 276646.080000
   3829   3831     1   0.10969 276646.080000
   3832   3833     1   0.10969 276646.080000
   3832   3834     1   0.10969 276646.080000
   3835   3836     1   0.10969 276646.080000
   3835   3837     1   0.10969 276646.080000
   3840   3869     1   0.10304 312293.760000
   3841   3842     1   0.10910 283424.160000
   3841   3843     1   0.10910 283424.160000
   3844   3845     1   0.10910 283424.160000
   3844   3846     1   0.10910 283424.160000
   3847   3848     1   0.10910 283424.160000
   3847   3849     1   0.10910 283424.160000
   3850   3851     1   0.10969 276646.080000
   3850   3852     1   0.10969 276646.080000
   3853   3854     1   0.10969 276646.080000
   3853   3855     1   0.10969 276646.080000
   3856   3857     1   0.10969 276646.080000
   3856   3858     1   0.10969 276646.080000
   3859   3860     1   0.10969 276646.080000
   3859   3861     1   0.10969 276646.080000
   3862   3863     1   0.10969 276646.080000
   3862   3864     1   0.10969 276646.080000
   3865   3866     1   0.10969 276646.080000
   3865   3867     1   0.10969 276646.080000
   3870   3899     1   0.10304 312293.760000
   3871   3872     1   0.10910 283424.160000
   3871   3873     1   0.10910 283424.160000
   3874   3875     1   0.10910 283424.160000
   3874   3876     1   0.10910 283424.160000
   3877   3878     1   0.10910 283424.160000
   3877   3879     1   0.10910 283424.160000
   3880   3881     1   0.10969 276646.080000
   3880   3882     1   0.10969 276646.080000
   3883   3884     1   0.10969 276646.080000
   3883   3885     1   0.10969 276646.080000
   3886   3887     1   0.10969 276646.080000
   3886   3888     1   0.10969 276646.080000
   3889   3890     1   0.10969 276646.080000
   3889   3891     1   0.10969 276646.080000
   3892   3893     1   0.10969 276646.080000
   3892   3894     1   0.10969 276646.080000
   3895   3896     1   0.10969 276646.080000
   3895   3897     1   0.10969 276646.080000
   3900   3929     1   0.10304 312293.760000
   3901   3902     1   0.10910 283424.160000
   3901   3903     1   0.10910 283424.160000
   3904   3905     1   0.10910 283424.160000
   3904   3906     1   0.10910 283424.160000
   3907   3908     1   0.10910 283424.160000
   3907   3909     1   0.10910 283424.160000
   3910   3911     1   0.10969 276646.080000
   3910   3912     1   0.10969 276646.080000
   3913   3914     1   0.10969 276646.080000
   3913   3915     1   0.10969 276646.080000
   3916   3917     1   0.10969 276646.080000
   3916   3918     1   0.10969 276646.080000
   3919   3920     1   0.10969 276646.080000
   3919   3921     1   0.10969 276646.080000
   3922   3923     1   0.10969 276646.080000
   3922   3924     1   0.10969 276646.080000
   3925   3926     1   0.10969 276646.080000
   3925   3927     1   0.10969 276646.080000
   3930   3959     1   0.10304 312293.760000
   3931   3932     1   0.10910 283424.160000
   3931   3933     1   0.10910 283424.160000
   3934   3935     1   0.10910 283424.160000
   3934   3936     1   0.10910 283424.160000
   3937   3938     1   0.10910 283424.160000
   3937   3939     1   0.10910 283424.160000
   3940   3941     1   0.10969 276646.080000
   3940   3942     1   0.10969 276646.080000
   3943   3944     1   0.10969 276646.080000
   3943   3945     1   0.10969 276646.080000
   3946   3947     1   0.10969 276646.080000
   3946   3948     1   0.10969 276646.080000
   3949   3950     1   0.10969 276646.080000
   3949   3951     1   0.10969 276646.080000
   3952   3953     1   0.10969 276646.080000
   3952   3954     1   0.10969 276646.080000
   3955   3956     1   0.10969 276646.080000
   3955   3957     1   0.10969 276646.080000
   3960   3989     1   0.10304 312293.760000
   3961   3962     1   0.10910 283424.160000
   3961   3963     1   0.10910 283424.160000
   3964   3965     1   0.10910 283424.160000
   3964   3966     1   0.10910 283424.160000
   3967   3968     1   0.10910 283424.160000
   3967   3969     1   0.10910 283424.160000
   3970   3971     1   0.10969 276646.080000
   3970   3972     1   0.10969 276646.080000
   3973   3974     1   0.10969 276646.080000
   3973   3975     1   0.10969 276646.080000
   3976   3977     1   0.10969 276646.080000
   3976   3978     1   0.10969 276646.080000
   3979   3980     1   0.10969 276646.080000
   3979   3981     1   0.10969 276646.080000
   3982   3983     1   0.10969 276646.080000
   3982   3984     1   0.10969 276646.080000
   3985   3986     1   0.10969 276646.080000
   3985   3987     1   0.10969 276646.080000
   3990   4019     1   0.10304 312293.760000
   3991   3992     1   0.10910 283424.160000
   3991   3993     1   0.10910 283424.160000
   3994   3995     1   0.10910 283424.160000
   3994   3996     1   0.10910 283424.160000
   3997   3998     1   0.10910 283424.160000
   3997   3999     1   0.10910 283424.160000
   4000   4001     1   0.10969 276646.080000
   4000   4002     1   0.10969 276646.080000
   4003   4004     1   0.10969 276646.080000
   4003   4005     1   0.10969 276646.080000
   4006   4007     1   0.10969 276646.080000
   4006   4008     1   0.10969 276646.080000
   4009   4010     1   0.10969 276646.080000
   4009   4011     1   0.10969 276646.080000
   4012   4013     1   0.10969 276646.080000
   4012   4014     1   0.10969 276646.080000
   4015   4016     1   0.10969 276646.080000
   4015   4017     1   0.10969 276646.080000
   4020   4049     1   0.10304 312293.760000
   4021   4022     1   0.10910 283424.160000
   4021   4023     1   0.10910 283424.160000
   4024   4025     1   0.10910 283424.160000
   4024   4026     1   0.10910 283424.160000
   4027   4028     1   0.10910 283424.160000
   4027   4029     1   0.10910 283424.160000
   4030   4031     1   0.10969 276646.080000
   4030   4032     1   0.10969 276646.080000
   4033   4034     1   0.10969 276646.080000
   4033   4035     1   0.10969 276646.080000
   4036   4037     1   0.10969 276646.080000
   4036   4038     1   0.10969 276646.080000
   4039   4040     1   0.10969 276646.080000
   4039   4041     1   0.10969 276646.080000
   4042   4043     1   0.10969 276646.080000
   4042   4044     1   0.10969 276646.080000
   4045   4046     1   0.10969 276646.080000
   4045   4047     1   0.10969 276646.080000
   4050   4079     1   0.10304 312293.760000
   4051   4052     1   0.10910 283424.160000
   4051   4053     1   0.10910 283424.160000
   4054   4055     1   0.10910 283424.160000
   4054   4056     1   0.10910 283424.160000
   4057   4058     1   0.10910 283424.160000
   4057   4059     1   0.10910 283424.160000
   4060   4061     1   0.10969 276646.080000
   4060   4062     1   0.10969 276646.080000
   4063   4064     1   0.10969 276646.080000
   4063   4065     1   0.10969 276646.080000
   4066   4067     1   0.10969 276646.080000
   4066   4068     1   0.10969 276646.080000
   4069   4070     1   0.10969 276646.080000
   4069   4071     1   0.10969 276646.080000
   4072   4073     1   0.10969 276646.080000
   4072   4074     1   0.10969 276646.080000
   4075   4076     1   0.10969 276646.080000
   4075   4077     1   0.10969 276646.080000
   4080   4109     1   0.10304 312293.760000
   4081   4082     1   0.10910 283424.160000
   4081   4083     1   0.10910 283424.160000
   4084   4085     1   0.10910 283424.160000
   4084   4086     1   0.10910 283424.160000
   4087   4088     1   0.10910 283424.160000
   4087   4089     1   0.10910 283424.160000
   4090   4091     1   0.10969 276646.080000
   4090   4092     1   0.10969 276646.080000
   4093   4094     1   0.10969 276646.080000
   4093   4095     1   0.10969 276646.080000
   4096   4097     1   0.10969 276646.080000
   4096   4098     1   0.10969 276646.080000
   4099   4100     1   0.10969 276646.080000
   4099   4101     1   0.10969 276646.080000
   4102   4103     1   0.10969 276646.080000
   4102   4104     1   0.10969 276646.080000
   4105   4106     1   0.10969 276646.080000
   4105   4107     1   0.10969 276646.080000
   4110   4139     1   0.10304 312293.760000
   4111   4112     1   0.10910 283424.160000
   4111   4113     1   0.10910 283424.160000
   4114   4115     1   0.10910 283424.160000
   4114   4116     1   0.10910 283424.160000
   4117   4118     1   0.10910 283424.160000
   4117   4119     1   0.10910 283424.160000
   4120   4121     1   0.10969 276646.080000
   4120   4122     1   0.10969 276646.080000
   4123   4124     1   0.10969 276646.080000
   4123   4125     1   0.10969 276646.080000
   4126   4127     1   0.10969 276646.080000
   4126   4128     1   0.10969 276646.080000
   4129   4130     1   0.10969 276646.080000
   4129   4131     1   0.10969 276646.080000
   4132   4133     1   0.10969 276646.080000
   4132   4134     1   0.10969 276646.080000
   4135   4136     1   0.10969 276646.080000
   4135   4137     1   0.10969 276646.080000
   4140   4169     1   0.10304 312293.760000
   4141   4142     1   0.10910 283424.160000
   4141   4143     1   0.10910 283424.160000
   4144   4145     1   0.10910 283424.160000
   4144   4146     1   0.10910 283424.160000
   4147   4148     1   0.10910 283424.160000
   4147   4149     1   0.10910 283424.160000
   4150   4151     1   0.10969 276646.080000
   4150   4152     1   0.10969 276646.080000
   4153   4154     1   0.10969 276646.080000
   4153   4155     1   0.10969 276646.080000
   4156   4157     1   0.10969 276646.080000
   4156   4158     1   0.10969 276646.080000
   4159   4160     1   0.10969 276646.080000
   4159   4161     1   0.10969 276646.080000
   4162   4163     1   0.10969 276646.080000
   4162   4164     1   0.10969 276646.080000
   4165   4166     1   0.10969 276646.080000
   4165   4167     1   0.10969 276646.080000
   4170   4199     1   0.10304 312293.760000
   4171   4172     1   0.10910 283424.160000
   4171   4173     1   0.10910 283424.160000
   4174   4175     1   0.10910 283424.160000
   4174   4176     1   0.10910 283424.160000
   4177   4178     1   0.10910 283424.160000
   4177   4179     1   0.10910 283424.160000
   4180   4181     1   0.10969 276646.080000
   4180   4182     1   0.10969 276646.080000
   4183   4184     1   0.10969 276646.080000
   4183   4185     1   0.10969 276646.080000
   4186   4187     1   0.10969 276646.080000
   4186   4188     1   0.10969 276646.080000
   4189   4190     1   0.10969 276646.080000
   4189   4191     1   0.10969 276646.080000
   4192   4193     1   0.10969 276646.080000
   4192   4194     1   0.10969 276646.080000
   4195   4196     1   0.10969 276646.080000
   4195   4197     1   0.10969 276646.080000
   4200   4229     1   0.10304 312293.760000
   4201   4202     1   0.10910 283424.160000
   4201   4203     1   0.10910 283424.160000
   4204   4205     1   0.10910 283424.160000
   4204   4206     1   0.10910 283424.160000
   4207   4208     1   0.10910 283424.160000
   4207   4209     1   0.10910 283424.160000
   4210   4211     1   0.10969 276646.080000
   4210   4212     1   0.10969 276646.080000
   4213   4214     1   0.10969 276646.080000
   4213   4215     1   0.10969 276646.080000
   4216   4217     1   0.10969 276646.080000
   4216   4218     1   0.10969 276646.080000
   4219   4220     1   0.10969 276646.080000
   4219   4221     1   0.10969 276646.080000
   4222   4223     1   0.10969 276646.080000
   4222   4224     1   0.10969 276646.080000
   4225   4226     1   0.10969 276646.080000
   4225   4227     1   0.10969 276646.080000
   4230   4259     1   0.10304 312293.760000
   4231   4232     1   0.10910 283424.160000
   4231   4233     1   0.10910 283424.160000
   4234   4235     1   0.10910 283424.160000
   4234   4236     1   0.10910 283424.160000
   4237   4238     1   0.10910 283424.160000
   4237   4239     1   0.10910 283424.160000
   4240   4241     1   0.10969 276646.080000
   4240   4242     1   0.10969 276646.080000
   4243   4244     1   0.10969 276646.080000
   4243   4245     1   0.10969 276646.080000
   4246   4247     1   0.10969 276646.080000
   4246   4248     1   0.10969 276646.080000
   4249   4250     1   0.10969 276646.080000
   4249   4251     1   0.10969 276646.080000
   4252   4253     1   0.10969 276646.080000
   4252   4254     1   0.10969 276646.080000
   4255   4256     1   0.10969 276646.080000
   4255   4257     1   0.10969 276646.080000
   4260   4289     1   0.10304 312293.760000
   4261   4262     1   0.10910 283424.160000
   4261   4263     1   0.10910 283424.160000
   4264   4265     1   0.10910 283424.160000
   4264   4266     1   0.10910 283424.160000
   4267   4268     1   0.10910 283424.160000
   4267   4269     1   0.10910 283424.160000
   4270   4271     1   0.10969 276646.080000
   4270   4272     1   0.10969 276646.080000
   4273   4274     1   0.10969 276646.080000
   4273   4275     1   0.10969 276646.080000
   4276   4277     1   0.10969 276646.080000
   4276   4278     1   0.10969 276646.080000
   4279   4280     1   0.10969 276646.080000
   4279   4281     1   0.10969 276646.080000
   4282   4283     1   0.10969 276646.080000
   4282   4284     1   0.10969 276646.080000
   4285   4286     1   0.10969 276646.080000
   4285   4287     1   0.10969 276646.080000
   4290   4319     1   0.10304 312293.760000
   4291   4292     1   0.10910 283424.160000
   4291   4293     1   0.10910 283424.160000
   4294   4295     1   0.10910 283424.160000
   4294   4296     1   0.10910 283424.160000
   4297   4298     1   0.10910 283424.160000
   4297   4299     1   0.10910 283424.160000
   4300   4301     1   0.10969 276646.080000
   4300   4302     1   0.10969 276646.080000
   4303   4304     1   0.10969 276646.080000
   4303   4305     1   0.10969 276646.080000
   4306   4307     1   0.10969 276646.080000
   4306   4308     1   0.10969 276646.080000
   4309   4310     1   0.10969 276646.080000
   4309   4311     1   0.10969 276646.080000
   4312   4313     1   0.10969 276646.080000
   4312   4314     1   0.10969 276646.080000
   4315   4316     1   0.10969 276646.080000
   4315   4317     1   0.10969 276646.080000
   4320   4349     1   0.10304 312293.760000
   4321   4322     1   0.10910 283424.160000
   4321   4323     1   0.10910 283424.160000
   4324   4325     1   0.10910 283424.160000
   4324   4326     1   0.10910 283424.160000
   4327   4328     1   0.10910 283424.160000
   4327   4329     1   0.10910 283424.160000
   4330   4331     1   0.10969 276646.080000
   4330   4332     1   0.10969 276646.080000
   4333   4334     1   0.10969 276646.080000
   4333   4335     1   0.10969 276646.080000
   4336   4337     1   0.10969 276646.080000
   4336   4338     1   0.10969 276646.080000
   4339   4340     1   0.10969 276646.080000
   4339   4341     1   0.10969 276646.080000
   4342   4343     1   0.10969 276646.080000
   4342   4344     1   0.10969 276646.080000
   4345   4346     1   0.10969 276646.080000
   4345   4347     1   0.10969 276646.080000
   4350   4379     1   0.10304 312293.760000
   4351   4352     1   0.10910 283424.160000
   4351   4353     1   0.10910 283424.160000
   4354   4355     1   0.10910 283424.160000
   4354   4356     1   0.10910 283424.160000
   4357   4358     1   0.10910 283424.160000
   4357   4359     1   0.10910 283424.160000
   4360   4361     1   0.10969 276646.080000
   4360   4362     1   0.10969 276646.080000
   4363   4364     1   0.10969 276646.080000
   4363   4365     1   0.10969 276646.080000
   4366   4367     1   0.10969 276646.080000
   4366   4368     1   0.10969 276646.080000
   4369   4370     1   0.10969 276646.080000
   4369   4371     1   0.10969 276646.080000
   4372   4373     1   0.10969 276646.080000
   4372   4374     1   0.10969 276646.080000
   4375   4376     1   0.10969 276646.080000
   4375   4377     1   0.10969 276646.080000
   4380   4409     1   0.10304 312293.760000
   4381   4382     1   0.10910 283424.160000
   4381   4383     1   0.10910 283424.160000
   4384   4385     1   0.10910 283424.160000
   4384   4386     1   0.10910 283424.160000
   4387   4388     1   0.10910 283424.160000
   4387   4389     1   0.10910 283424.160000
   4390   4391     1   0.10969 276646.080000
   4390   4392     1   0.10969 276646.080000
   4393   4394     1   0.10969 276646.080000
   4393   4395     1   0.10969 276646.080000
   4396   4397     1   0.10969 276646.080000
   4396   4398     1   0.10969 276646.080000
   4399   4400     1   0.10969 276646.080000
   4399   4401     1   0.10969 276646.080000
   4402   4403     1   0.10969 276646.080000
   4402   4404     1   0.10969 276646.080000
   4405   4406     1   0.10969 276646.080000
   4405   4407     1   0.10969 276646.080000
   4410   4439     1   0.10304 312293.760000
   4411   4412     1   0.10910 283424.160000
   4411   4413     1   0.10910 283424.160000
   4414   4415     1   0.10910 283424.160000
   4414   4416     1   0.10910 283424.160000
   4417   4418     1   0.10910 283424.160000
   4417   4419     1   0.10910 283424.160000
   4420   4421     1   0.10969 276646.080000
   4420   4422     1   0.10969 276646.080000
   4423   4424     1   0.10969 276646.080000
   4423   4425     1   0.10969 276646.080000
   4426   4427     1   0.10969 276646.080000
   4426   4428     1   0.10969 276646.080000
   4429   4430     1   0.10969 276646.080000
   4429   4431     1   0.10969 276646.080000
   4432   4433     1   0.10969 276646.080000
   4432   4434     1   0.10969 276646.080000
   4435   4436     1   0.10969 276646.080000
   4435   4437     1   0.10969 276646.080000
   4440   4469     1   0.10304 312293.760000
   4441   4442     1   0.10910 283424.160000
   4441   4443     1   0.10910 283424.160000
   4444   4445     1   0.10910 283424.160000
   4444   4446     1   0.10910 283424.160000
   4447   4448     1   0.10910 283424.160000
   4447   4449     1   0.10910 283424.160000
   4450   4451     1   0.10969 276646.080000
   4450   4452     1   0.10969 276646.080000
   4453   4454     1   0.10969 276646.080000
   4453   4455     1   0.10969 276646.080000
   4456   4457     1   0.10969 276646.080000
   4456   4458     1   0.10969 276646.080000
   4459   4460     1   0.10969 276646.080000
   4459   4461     1   0.10969 276646.080000
   4462   4463     1   0.10969 276646.080000
   4462   4464     1   0.10969 276646.080000
   4465   4466     1   0.10969 276646.080000
   4465   4467     1   0.10969 276646.080000
   4470   4499     1   0.10304 312293.760000
   4471   4472     1   0.10910 283424.160000
   4471   4473     1   0.10910 283424.160000
   4474   4475     1   0.10910 283424.160000
   4474   4476     1   0.10910 283424.160000
   4477   4478     1   0.10910 283424.160000
   4477   4479     1   0.10910 283424.160000
   4480   4481     1   0.10969 276646.080000
   4480   4482     1   0.10969 276646.080000
   4483   4484     1   0.10969 276646.080000
   4483   4485     1   0.10969 276646.080000
   4486   4487     1   0.10969 276646.080000
   4486   4488     1   0.10969 276646.080000
   4489   4490     1   0.10969 276646.080000
   4489   4491     1   0.10969 276646.080000
   4492   4493     1   0.10969 276646.080000
   4492   4494     1   0.10969 276646.080000
   4495   4496     1   0.10969 276646.080000
   4495   4497     1   0.10969 276646.080000
   4500   4529     1   0.10304 312293.760000
   4501   4502     1   0.10910 283424.160000
   4501   4503     1   0.10910 283424.160000
   4504   4505     1   0.10910 283424.160000
   4504   4506     1   0.10910 283424.160000
   4507   4508     1   0.10910 283424.160000
   4507   4509     1   0.10910 283424.160000
   4510   4511     1   0.10969 276646.080000
   4510   4512     1   0.10969 276646.080000
   4513   4514     1   0.10969 276646.080000
   4513   4515     1   0.10969 276646.080000
   4516   4517     1   0.10969 276646.080000
   4516   4518     1   0.10969 276646.080000
   4519   4520     1   0.10969 276646.080000
   4519   4521     1   0.10969 276646.080000
   4522   4523     1   0.10969 276646.080000
   4522   4524     1   0.10969 276646.080000
   4525   4526     1   0.10969 276646.080000
   4525   4527     1   0.10969 276646.080000
   4530   4559     1   0.10304 312293.760000
   4531   4532     1   0.10910 283424.160000
   4531   4533     1   0.10910 283424.160000
   4534   4535     1   0.10910 283424.160000
   4534   4536     1   0.10910 283424.160000
   4537   4538     1   0.10910 283424.160000
   4537   4539     1   0.10910 283424.160000
   4540   4541     1   0.10969 276646.080000
   4540   4542     1   0.10969 276646.080000
   4543   4544     1   0.10969 276646.080000
   4543   4545     1   0.10969 276646.080000
   4546   4547     1   0.10969 276646.080000
   4546   4548     1   0.10969 276646.080000
   4549   4550     1   0.10969 276646.080000
   4549   4551     1   0.10969 276646.080000
   4552   4553     1   0.10969 276646.080000
   4552   4554     1   0.10969 276646.080000
   4555   4556     1   0.10969 276646.080000
   4555   4557     1   0.10969 276646.080000
   4560   4589     1   0.10304 312293.760000
   4561   4562     1   0.10910 283424.160000
   4561   4563     1   0.10910 283424.160000
   4564   4565     1   0.10910 283424.160000
   4564   4566     1   0.10910 283424.160000
   4567   4568     1   0.10910 283424.160000
   4567   4569     1   0.10910 283424.160000
   4570   4571     1   0.10969 276646.080000
   4570   4572     1   0.10969 276646.080000
   4573   4574     1   0.10969 276646.080000
   4573   4575     1   0.10969 276646.080000
   4576   4577     1   0.10969 276646.080000
   4576   4578     1   0.10969 276646.080000
   4579   4580     1   0.10969 276646.080000
   4579   4581     1   0.10969 276646.080000
   4582   4583     1   0.10969 276646.080000
   4582   4584     1   0.10969 276646.080000
   4585   4586     1   0.10969 276646.080000
   4585   4587     1   0.10969 276646.080000
   4590   4619     1   0.10304 312293.760000
   4591   4592     1   0.10910 283424.160000
   4591   4593     1   0.10910 283424.160000
   4594   4595     1   0.10910 283424.160000
   4594   4596     1   0.10910 283424.160000
   4597   4598     1   0.10910 283424.160000
   4597   4599     1   0.10910 283424.160000
   4600   4601     1   0.10969 276646.080000
   4600   4602     1   0.10969 276646.080000
   4603   4604     1   0.10969 276646.080000
   4603   4605     1   0.10969 276646.080000
   4606   4607     1   0.10969 276646.080000
   4606   4608     1   0.10969 276646.080000
   4609   4610     1   0.10969 276646.080000
   4609   4611     1   0.10969 276646.080000
   4612   4613     1   0.10969 276646.080000
   4612   4614     1   0.10969 276646.080000
   4615   4616     1   0.10969 276646.080000
   4615   4617     1   0.10969 276646.080000
   4620   4649     1   0.10304 312293.760000
   4621   4622     1   0.10910 283424.160000
   4621   4623     1   0.10910 283424.160000
   4624   4625     1   0.10910 283424.160000
   4624   4626     1   0.10910 283424.160000
   4627   4628     1   0.10910 283424.160000
   4627   4629     1   0.10910 283424.160000
   4630   4631     1   0.10969 276646.080000
   4630   4632     1   0.10969 276646.080000
   4633   4634     1   0.10969 276646.080000
   4633   4635     1   0.10969 276646.080000
   4636   4637     1   0.10969 276646.080000
   4636   4638     1   0.10969 276646.080000
   4639   4640     1   0.10969 276646.080000
   4639   4641     1   0.10969 276646.080000
   4642   4643     1   0.10969 276646.080000
   4642   4644     1   0.10969 276646.080000
   4645   4646     1   0.10969 276646.080000
   4645   4647     1   0.10969 276646.080000
   4650   4679     1   0.10304 312293.760000
   4651   4652     1   0.10910 283424.160000
   4651   4653     1   0.10910 283424.160000
   4654   4655     1   0.10910 283424.160000
   4654   4656     1   0.10910 283424.160000
   4657   4658     1   0.10910 283424.160000
   4657   4659     1   0.10910 283424.160000
   4660   4661     1   0.10969 276646.080000
   4660   4662     1   0.10969 276646.080000
   4663   4664     1   0.10969 276646.080000
   4663   4665     1   0.10969 276646.080000
   4666   4667     1   0.10969 276646.080000
   4666   4668     1   0.10969 276646.080000
   4669   4670     1   0.10969 276646.080000
   4669   4671     1   0.10969 276646.080000
   4672   4673     1   0.10969 276646.080000
   4672   4674     1   0.10969 276646.080000
   4675   4676     1   0.10969 276646.080000
   4675   4677     1   0.10969 276646.080000
   4680   4709     1   0.10304 312293.760000
   4681   4682     1   0.10910 283424.160000
   4681   4683     1   0.10910 283424.160000
   4684   4685     1   0.10910 283424.160000
   4684   4686     1   0.10910 283424.160000
   4687   4688     1   0.10910 283424.160000
   4687   4689     1   0.10910 283424.160000
   4690   4691     1   0.10969 276646.080000
   4690   4692     1   0.10969 276646.080000
   4693   4694     1   0.10969 276646.080000
   4693   4695     1   0.10969 276646.080000
   4696   4697     1   0.10969 276646.080000
   4696   4698     1   0.10969 276646.080000
   4699   4700     1   0.10969 276646.080000
   4699   4701     1   0.10969 276646.080000
   4702   4703     1   0.10969 276646.080000
   4702   4704     1   0.10969 276646.080000
   4705   4706     1   0.10969 276646.080000
   4705   4707     1   0.10969 276646.080000
   4710   4739     1   0.10304 312293.760000
   4711   4712     1   0.10910 283424.160000
   4711   4713     1   0.10910 283424.160000
   4714   4715     1   0.10910 283424.160000
   4714   4716     1   0.10910 283424.160000
   4717   4718     1   0.10910 283424.160000
   4717   4719     1   0.10910 283424.160000
   4720   4721     1   0.10969 276646.080000
   4720   4722     1   0.10969 276646.080000
   4723   4724     1   0.10969 276646.080000
   4723   4725     1   0.10969 276646.080000
   4726   4727     1   0.10969 276646.080000
   4726   4728     1   0.10969 276646.080000
   4729   4730     1   0.10969 276646.080000
   4729   4731     1   0.10969 276646.080000
   4732   4733     1   0.10969 276646.080000
   4732   4734     1   0.10969 276646.080000
   4735   4736     1   0.10969 276646.080000
   4735   4737     1   0.10969 276646.080000
   4740   4769     1   0.10304 312293.760000
   4741   4742     1   0.10910 283424.160000
   4741   4743     1   0.10910 283424.160000
   4744   4745     1   0.10910 283424.160000
   4744   4746     1   0.10910 283424.160000
   4747   4748     1   0.10910 283424.160000
   4747   4749     1   0.10910 283424.160000
   4750   4751     1   0.10969 276646.080000
   4750   4752     1   0.10969 276646.080000
   4753   4754     1   0.10969 276646.080000
   4753   4755     1   0.10969 276646.080000
   4756   4757     1   0.10969 276646.080000
   4756   4758     1   0.10969 276646.080000
   4759   4760     1   0.10969 276646.080000
   4759   4761     1   0.10969 276646.080000
   4762   4763     1   0.10969 276646.080000
   4762   4764     1   0.10969 276646.080000
   4765   4766     1   0.10969 276646.080000
   4765   4767     1   0.10969 276646.080000
   4770   4799     1   0.10304 312293.760000
   4771   4772     1   0.10910 283424.160000
   4771   4773     1   0.10910 283424.160000
   4774   4775     1   0.10910 283424.160000
   4774   4776     1   0.10910 283424.160000
   4777   4778     1   0.10910 283424.160000
   4777   4779     1   0.10910 283424.160000
   4780   4781     1   0.10969 276646.080000
   4780   4782     1   0.10969 276646.080000
   4783   4784     1   0.10969 276646.080000
   4783   4785     1   0.10969 276646.080000
   4786   4787     1   0.10969 276646.080000
   4786   4788     1   0.10969 276646.080000
   4789   4790     1   0.10969 276646.080000
   4789   4791     1   0.10969 276646.080000
   4792   4793     1   0.10969 276646.080000
   4792   4794     1   0.10969 276646.080000
   4795   4796     1   0.10969 276646.080000
   4795   4797     1   0.10969 276646.080000
   4800   4829     1   0.10304 312293.760000
   4801   4802     1   0.10910 283424.160000
   4801   4803     1   0.10910 283424.160000
   4804   4805     1   0.10910 283424.160000
   4804   4806     1   0.10910 283424.160000
   4807   4808     1   0.10910 283424.160000
   4807   4809     1   0.10910 283424.160000
   4810   4811     1   0.10969 276646.080000
   4810   4812     1   0.10969 276646.080000
   4813   4814     1   0.10969 276646.080000
   4813   4815     1   0.10969 276646.080000
   4816   4817     1   0.10969 276646.080000
   4816   4818     1   0.10969 276646.080000
   4819   4820     1   0.10969 276646.080000
   4819   4821     1   0.10969 276646.080000
   4822   4823     1   0.10969 276646.080000
   4822   4824     1   0.10969 276646.080000
   4825   4826     1   0.10969 276646.080000
   4825   4827     1   0.10969 276646.080000
   4830   4859     1   0.10304 312293.760000
   4831   4832     1   0.10910 283424.160000
   4831   4833     1   0.10910 283424.160000
   4834   4835     1   0.10910 283424.160000
   4834   4836     1   0.10910 283424.160000
   4837   4838     1   0.10910 283424.160000
   4837   4839     1   0.10910 283424.160000
   4840   4841     1   0.10969 276646.080000
   4840   4842     1   0.10969 276646.080000
   4843   4844     1   0.10969 276646.080000
   4843   4845     1   0.10969 276646.080000
   4846   4847     1   0.10969 276646.080000
   4846   4848     1   0.10969 276646.080000
   4849   4850     1   0.10969 276646.080000
   4849   4851     1   0.10969 276646.080000
   4852   4853     1   0.10969 276646.080000
   4852   4854     1   0.10969 276646.080000
   4855   4856     1   0.10969 276646.080000
   4855   4857     1   0.10969 276646.080000
   4860   4889     1   0.10304 312293.760000
   4861   4862     1   0.10910 283424.160000
   4861   4863     1   0.10910 283424.160000
   4864   4865     1   0.10910 283424.160000
   4864   4866     1   0.10910 283424.160000
   4867   4868     1   0.10910 283424.160000
   4867   4869     1   0.10910 283424.160000
   4870   4871     1   0.10969 276646.080000
   4870   4872     1   0.10969 276646.080000
   4873   4874     1   0.10969 276646.080000
   4873   4875     1   0.10969 276646.080000
   4876   4877     1   0.10969 276646.080000
   4876   4878     1   0.10969 276646.080000
   4879   4880     1   0.10969 276646.080000
   4879   4881     1   0.10969 276646.080000
   4882   4883     1   0.10969 276646.080000
   4882   4884     1   0.10969 276646.080000
   4885   4886     1   0.10969 276646.080000
   4885   4887     1   0.10969 276646.080000
   4890   4919     1   0.10304 312293.760000
   4891   4892     1   0.10910 283424.160000
   4891   4893     1   0.10910 283424.160000
   4894   4895     1   0.10910 283424.160000
   4894   4896     1   0.10910 283424.160000
   4897   4898     1   0.10910 283424.160000
   4897   4899     1   0.10910 283424.160000
   4900   4901     1   0.10969 276646.080000
   4900   4902     1   0.10969 276646.080000
   4903   4904     1   0.10969 276646.080000
   4903   4905     1   0.10969 276646.080000
   4906   4907     1   0.10969 276646.080000
   4906   4908     1   0.10969 276646.080000
   4909   4910     1   0.10969 276646.080000
   4909   4911     1   0.10969 276646.080000
   4912   4913     1   0.10969 276646.080000
   4912   4914     1   0.10969 276646.080000
   4915   4916     1   0.10969 276646.080000
   4915   4917     1   0.10969 276646.080000
   4920   4949     1   0.10304 312293.760000
   4921   4922     1   0.10910 283424.160000
   4921   4923     1   0.10910 283424.160000
   4924   4925     1   0.10910 283424.160000
   4924   4926     1   0.10910 283424.160000
   4927   4928     1   0.10910 283424.160000
   4927   4929     1   0.10910 283424.160000
   4930   4931     1   0.10969 276646.080000
   4930   4932     1   0.10969 276646.080000
   4933   4934     1   0.10969 276646.080000
   4933   4935     1   0.10969 276646.080000
   4936   4937     1   0.10969 276646.080000
   4936   4938     1   0.10969 276646.080000
   4939   4940     1   0.10969 276646.080000
   4939   4941     1   0.10969 276646.080000
   4942   4943     1   0.10969 276646.080000
   4942   4944     1   0.10969 276646.080000
   4945   4946     1   0.10969 276646.080000
   4945   4947     1   0.10969 276646.080000
   4950   4979     1   0.10304 312293.760000
   4951   4952     1   0.10910 283424.160000
   4951   4953     1   0.10910 283424.160000
   4954   4955     1   0.10910 283424.160000
   4954   4956     1   0.10910 283424.160000
   4957   4958     1   0.10910 283424.160000
   4957   4959     1   0.10910 283424.160000
   4960   4961     1   0.10969 276646.080000
   4960   4962     1   0.10969 276646.080000
   4963   4964     1   0.10969 276646.080000
   4963   4965     1   0.10969 276646.080000
   4966   4967     1   0.10969 276646.080000
   4966   4968     1   0.10969 276646.080000
   4969   4970     1   0.10969 276646.080000
   4969   4971     1   0.10969 276646.080000
   4972   4973     1   0.10969 276646.080000
   4972   4974     1   0.10969 276646.080000
   4975   4976     1   0.10969 276646.080000
   4975   4977     1   0.10969 276646.080000
   4980   5009     1   0.10304 312293.760000
   4981   4982     1   0.10910 283424.160000
   4981   4983     1   0.10910 283424.160000
   4984   4985     1   0.10910 283424.160000
   4984   4986     1   0.10910 283424.160000
   4987   4988     1   0.10910 283424.160000
   4987   4989     1   0.10910 283424.160000
   4990   4991     1   0.10969 276646.080000
   4990   4992     1   0.10969 276646.080000
   4993   4994     1   0.10969 276646.080000
   4993   4995     1   0.10969 276646.080000
   4996   4997     1   0.10969 276646.080000
   4996   4998     1   0.10969 276646.080000
   4999   5000     1   0.10969 276646.080000
   4999   5001     1   0.10969 276646.080000
   5002   5003     1   0.10969 276646.080000
   5002   5004     1   0.10969 276646.080000
   5005   5006     1   0.10969 276646.080000
   5005   5007     1   0.10969 276646.080000
   5010   5039     1   0.10304 312293.760000
   5011   5012     1   0.10910 283424.160000
   5011   5013     1   0.10910 283424.160000
   5014   5015     1   0.10910 283424.160000
   5014   5016     1   0.10910 283424.160000
   5017   5018     1   0.10910 283424.160000
   5017   5019     1   0.10910 283424.160000
   5020   5021     1   0.10969 276646.080000
   5020   5022     1   0.10969 276646.080000
   5023   5024     1   0.10969 276646.080000
   5023   5025     1   0.10969 276646.080000
   5026   5027     1   0.10969 276646.080000
   5026   5028     1   0.10969 276646.080000
   5029   5030     1   0.10969 276646.080000
   5029   5031     1   0.10969 276646.080000
   5032   5033     1   0.10969 276646.080000
   5032   5034     1   0.10969 276646.080000
   5035   5036     1   0.10969 276646.080000
   5035   5037     1   0.10969 276646.080000
   5040   5069     1   0.10304 312293.760000
   5041   5042     1   0.10910 283424.160000
   5041   5043     1   0.10910 283424.160000
   5044   5045     1   0.10910 283424.160000
   5044   5046     1   0.10910 283424.160000
   5047   5048     1   0.10910 283424.160000
   5047   5049     1   0.10910 283424.160000
   5050   5051     1   0.10969 276646.080000
   5050   5052     1   0.10969 276646.080000
   5053   5054     1   0.10969 276646.080000
   5053   5055     1   0.10969 276646.080000
   5056   5057     1   0.10969 276646.080000
   5056   5058     1   0.10969 276646.080000
   5059   5060     1   0.10969 276646.080000
   5059   5061     1   0.10969 276646.080000
   5062   5063     1   0.10969 276646.080000
   5062   5064     1   0.10969 276646.080000
   5065   5066     1   0.10969 276646.080000
   5065   5067     1   0.10969 276646.080000
   5070   5099     1   0.10304 312293.760000
   5071   5072     1   0.10910 283424.160000
   5071   5073     1   0.10910 283424.160000
   5074   5075     1   0.10910 283424.160000
   5074   5076     1   0.10910 283424.160000
   5077   5078     1   0.10910 283424.160000
   5077   5079     1   0.10910 283424.160000
   5080   5081     1   0.10969 276646.080000
   5080   5082     1   0.10969 276646.080000
   5083   5084     1   0.10969 276646.080000
   5083   5085     1   0.10969 276646.080000
   5086   5087     1   0.10969 276646.080000
   5086   5088     1   0.10969 276646.080000
   5089   5090     1   0.10969 276646.080000
   5089   5091     1   0.10969 276646.080000
   5092   5093     1   0.10969 276646.080000
   5092   5094     1   0.10969 276646.080000
   5095   5096     1   0.10969 276646.080000
   5095   5097     1   0.10969 276646.080000
   5100   5129     1   0.10304 312293.760000
   5101   5102     1   0.10910 283424.160000
   5101   5103     1   0.10910 283424.160000
   5104   5105     1   0.10910 283424.160000
   5104   5106     1   0.10910 283424.160000
   5107   5108     1   0.10910 283424.160000
   5107   5109     1   0.10910 283424.160000
   5110   5111     1   0.10969 276646.080000
   5110   5112     1   0.10969 276646.080000
   5113   5114     1   0.10969 276646.080000
   5113   5115     1   0.10969 276646.080000
   5116   5117     1   0.10969 276646.080000
   5116   5118     1   0.10969 276646.080000
   5119   5120     1   0.10969 276646.080000
   5119   5121     1   0.10969 276646.080000
   5122   5123     1   0.10969 276646.080000
   5122   5124     1   0.10969 276646.080000
   5125   5126     1   0.10969 276646.080000
   5125   5127     1   0.10969 276646.080000
   5130   5159     1   0.10304 312293.760000
   5131   5132     1   0.10910 283424.160000
   5131   5133     1   0.10910 283424.160000
   5134   5135     1   0.10910 283424.160000
   5134   5136     1   0.10910 283424.160000
   5137   5138     1   0.10910 283424.160000
   5137   5139     1   0.10910 283424.160000
   5140   5141     1   0.10969 276646.080000
   5140   5142     1   0.10969 276646.080000
   5143   5144     1   0.10969 276646.080000
   5143   5145     1   0.10969 276646.080000
   5146   5147     1   0.10969 276646.080000
   5146   5148     1   0.10969 276646.080000
   5149   5150     1   0.10969 276646.080000
   5149   5151     1   0.10969 276646.080000
   5152   5153     1   0.10969 276646.080000
   5152   5154     1   0.10969 276646.080000
   5155   5156     1   0.10969 276646.080000
   5155   5157     1   0.10969 276646.080000
   5160   5189     1   0.10304 312293.760000
   5161   5162     1   0.10910 283424.160000
   5161   5163     1   0.10910 283424.160000
   5164   5165     1   0.10910 283424.160000
   5164   5166     1   0.10910 283424.160000
   5167   5168     1   0.10910 283424.160000
   5167   5169     1   0.10910 283424.160000
   5170   5171     1   0.10969 276646.080000
   5170   5172     1   0.10969 276646.080000
   5173   5174     1   0.10969 276646.080000
   5173   5175     1   0.10969 276646.080000
   5176   5177     1   0.10969 276646.080000
   5176   5178     1   0.10969 276646.080000
   5179   5180     1   0.10969 276646.080000
   5179   5181     1   0.10969 276646.080000
   5182   5183     1   0.10969 276646.080000
   5182   5184     1   0.10969 276646.080000
   5185   5186     1   0.10969 276646.080000
   5185   5187     1   0.10969 276646.080000
   5190   5219     1   0.10304 312293.760000
   5191   5192     1   0.10910 283424.160000
   5191   5193     1   0.10910 283424.160000
   5194   5195     1   0.10910 283424.160000
   5194   5196     1   0.10910 283424.160000
   5197   5198     1   0.10910 283424.160000
   5197   5199     1   0.10910 283424.160000
   5200   5201     1   0.10969 276646.080000
   5200   5202     1   0.10969 276646.080000
   5203   5204     1   0.10969 276646.080000
   5203   5205     1   0.10969 276646.080000
   5206   5207     1   0.10969 276646.080000
   5206   5208     1   0.10969 276646.080000
   5209   5210     1   0.10969 276646.080000
   5209   5211     1   0.10969 276646.080000
   5212   5213     1   0.10969 276646.080000
   5212   5214     1   0.10969 276646.080000
   5215   5216     1   0.10969 276646.080000
   5215   5217     1   0.10969 276646.080000
   5220   5249     1   0.10304 312293.760000
   5221   5222     1   0.10910 283424.160000
   5221   5223     1   0.10910 283424.160000
   5224   5225     1   0.10910 283424.160000
   5224   5226     1   0.10910 283424.160000
   5227   5228     1   0.10910 283424.160000
   5227   5229     1   0.10910 283424.160000
   5230   5231     1   0.10969 276646.080000
   5230   5232     1   0.10969 276646.080000
   5233   5234     1   0.10969 276646.080000
   5233   5235     1   0.10969 276646.080000
   5236   5237     1   0.10969 276646.080000
   5236   5238     1   0.10969 276646.080000
   5239   5240     1   0.10969 276646.080000
   5239   5241     1   0.10969 276646.080000
   5242   5243     1   0.10969 276646.080000
   5242   5244     1   0.10969 276646.080000
   5245   5246     1   0.10969 276646.080000
   5245   5247     1   0.10969 276646.080000
   5250   5279     1   0.10304 312293.760000
   5251   5252     1   0.10910 283424.160000
   5251   5253     1   0.10910 283424.160000
   5254   5255     1   0.10910 283424.160000
   5254   5256     1   0.10910 283424.160000
   5257   5258     1   0.10910 283424.160000
   5257   5259     1   0.10910 283424.160000
   5260   5261     1   0.10969 276646.080000
   5260   5262     1   0.10969 276646.080000
   5263   5264     1   0.10969 276646.080000
   5263   5265     1   0.10969 276646.080000
   5266   5267     1   0.10969 276646.080000
   5266   5268     1   0.10969 276646.080000
   5269   5270     1   0.10969 276646.080000
   5269   5271     1   0.10969 276646.080000
   5272   5273     1   0.10969 276646.080000
   5272   5274     1   0.10969 276646.080000
   5275   5276     1   0.10969 276646.080000
   5275   5277     1   0.10969 276646.080000
   5280   5309     1   0.10304 312293.760000
   5281   5282     1   0.10910 283424.160000
   5281   5283     1   0.10910 283424.160000
   5284   5285     1   0.10910 283424.160000
   5284   5286     1   0.10910 283424.160000
   5287   5288     1   0.10910 283424.160000
   5287   5289     1   0.10910 283424.160000
   5290   5291     1   0.10969 276646.080000
   5290   5292     1   0.10969 276646.080000
   5293   5294     1   0.10969 276646.080000
   5293   5295     1   0.10969 276646.080000
   5296   5297     1   0.10969 276646.080000
   5296   5298     1   0.10969 276646.080000
   5299   5300     1   0.10969 276646.080000
   5299   5301     1   0.10969 276646.080000
   5302   5303     1   0.10969 276646.080000
   5302   5304     1   0.10969 276646.080000
   5305   5306     1   0.10969 276646.080000
   5305   5307     1   0.10969 276646.080000
   5310   5339     1   0.10304 312293.760000
   5311   5312     1   0.10910 283424.160000
   5311   5313     1   0.10910 283424.160000
   5314   5315     1   0.10910 283424.160000
   5314   5316     1   0.10910 283424.160000
   5317   5318     1   0.10910 283424.160000
   5317   5319     1   0.10910 283424.160000
   5320   5321     1   0.10969 276646.080000
   5320   5322     1   0.10969 276646.080000
   5323   5324     1   0.10969 276646.080000
   5323   5325     1   0.10969 276646.080000
   5326   5327     1   0.10969 276646.080000
   5326   5328     1   0.10969 276646.080000
   5329   5330     1   0.10969 276646.080000
   5329   5331     1   0.10969 276646.080000
   5332   5333     1   0.10969 276646.080000
   5332   5334     1   0.10969 276646.080000
   5335   5336     1   0.10969 276646.080000
   5335   5337     1   0.10969 276646.080000
   5340   5369     1   0.10304 312293.760000
   5341   5342     1   0.10910 283424.160000
   5341   5343     1   0.10910 283424.160000
   5344   5345     1   0.10910 283424.160000
   5344   5346     1   0.10910 283424.160000
   5347   5348     1   0.10910 283424.160000
   5347   5349     1   0.10910 283424.160000
   5350   5351     1   0.10969 276646.080000
   5350   5352     1   0.10969 276646.080000
   5353   5354     1   0.10969 276646.080000
   5353   5355     1   0.10969 276646.080000
   5356   5357     1   0.10969 276646.080000
   5356   5358     1   0.10969 276646.080000
   5359   5360     1   0.10969 276646.080000
   5359   5361     1   0.10969 276646.080000
   5362   5363     1   0.10969 276646.080000
   5362   5364     1   0.10969 276646.080000
   5365   5366     1   0.10969 276646.080000
   5365   5367     1   0.10969 276646.080000
   5370   5399     1   0.10304 312293.760000
   5371   5372     1   0.10910 283424.160000
   5371   5373     1   0.10910 283424.160000
   5374   5375     1   0.10910 283424.160000
   5374   5376     1   0.10910 283424.160000
   5377   5378     1   0.10910 283424.160000
   5377   5379     1   0.10910 283424.160000
   5380   5381     1   0.10969 276646.080000
   5380   5382     1   0.10969 276646.080000
   5383   5384     1   0.10969 276646.080000
   5383   5385     1   0.10969 276646.080000
   5386   5387     1   0.10969 276646.080000
   5386   5388     1   0.10969 276646.080000
   5389   5390     1   0.10969 276646.080000
   5389   5391     1   0.10969 276646.080000
   5392   5393     1   0.10969 276646.080000
   5392   5394     1   0.10969 276646.080000
   5395   5396     1   0.10969 276646.080000
   5395   5397     1   0.10969 276646.080000
   5400   5429     1   0.10304 312293.760000
   5401   5402     1   0.10910 283424.160000
   5401   5403     1   0.10910 283424.160000
   5404   5405     1   0.10910 283424.160000
   5404   5406     1   0.10910 283424.160000
   5407   5408     1   0.10910 283424.160000
   5407   5409     1   0.10910 283424.160000
   5410   5411     1   0.10969 276646.080000
   5410   5412     1   0.10969 276646.080000
   5413   5414     1   0.10969 276646.080000
   5413   5415     1   0.10969 276646.080000
   5416   5417     1   0.10969 276646.080000
   5416   5418     1   0.10969 276646.080000
   5419   5420     1   0.10969 276646.080000
   5419   5421     1   0.10969 276646.080000
   5422   5423     1   0.10969 276646.080000
   5422   5424     1   0.10969 276646.080000
   5425   5426     1   0.10969 276646.080000
   5425   5427     1   0.10969 276646.080000
   5430   5459     1   0.10304 312293.760000
   5431   5432     1   0.10910 283424.160000
   5431   5433     1   0.10910 283424.160000
   5434   5435     1   0.10910 283424.160000
   5434   5436     1   0.10910 283424.160000
   5437   5438     1   0.10910 283424.160000
   5437   5439     1   0.10910 283424.160000
   5440   5441     1   0.10969 276646.080000
   5440   5442     1   0.10969 276646.080000
   5443   5444     1   0.10969 276646.080000
   5443   5445     1   0.10969 276646.080000
   5446   5447     1   0.10969 276646.080000
   5446   5448     1   0.10969 276646.080000
   5449   5450     1   0.10969 276646.080000
   5449   5451     1   0.10969 276646.080000
   5452   5453     1   0.10969 276646.080000
   5452   5454     1   0.10969 276646.080000
   5455   5456     1   0.10969 276646.080000
   5455   5457     1   0.10969 276646.080000
   5460   5489     1   0.10304 312293.760000
   5461   5462     1   0.10910 283424.160000
   5461   5463     1   0.10910 283424.160000
   5464   5465     1   0.10910 283424.160000
   5464   5466     1   0.10910 283424.160000
   5467   5468     1   0.10910 283424.160000
   5467   5469     1   0.10910 283424.160000
   5470   5471     1   0.10969 276646.080000
   5470   5472     1   0.10969 276646.080000
   5473   5474     1   0.10969 276646.080000
   5473   5475     1   0.10969 276646.080000
   5476   5477     1   0.10969 276646.080000
   5476   5478     1   0.10969 276646.080000
   5479   5480     1   0.10969 276646.080000
   5479   5481     1   0.10969 276646.080000
   5482   5483     1   0.10969 276646.080000
   5482   5484     1   0.10969 276646.080000
   5485   5486     1   0.10969 276646.080000
   5485   5487     1   0.10969 276646.080000
   5490   5519     1   0.10304 312293.760000
   5491   5492     1   0.10910 283424.160000
   5491   5493     1   0.10910 283424.160000
   5494   5495     1   0.10910 283424.160000
   5494   5496     1   0.10910 283424.160000
   5497   5498     1   0.10910 283424.160000
   5497   5499     1   0.10910 283424.160000
   5500   5501     1   0.10969 276646.080000
   5500   5502     1   0.10969 276646.080000
   5503   5504     1   0.10969 276646.080000
   5503   5505     1   0.10969 276646.080000
   5506   5507     1   0.10969 276646.080000
   5506   5508     1   0.10969 276646.080000
   5509   5510     1   0.10969 276646.080000
   5509   5511     1   0.10969 276646.080000
   5512   5513     1   0.10969 276646.080000
   5512   5514     1   0.10969 276646.080000
   5515   5516     1   0.10969 276646.080000
   5515   5517     1   0.10969 276646.080000
   5520   5549     1   0.10304 312293.760000
   5521   5522     1   0.10910 283424.160000
   5521   5523     1   0.10910 283424.160000
   5524   5525     1   0.10910 283424.160000
   5524   5526     1   0.10910 283424.160000
   5527   5528     1   0.10910 283424.160000
   5527   5529     1   0.10910 283424.160000
   5530   5531     1   0.10969 276646.080000
   5530   5532     1   0.10969 276646.080000
   5533   5534     1   0.10969 276646.080000
   5533   5535     1   0.10969 276646.080000
   5536   5537     1   0.10969 276646.080000
   5536   5538     1   0.10969 276646.080000
   5539   5540     1   0.10969 276646.080000
   5539   5541     1   0.10969 276646.080000
   5542   5543     1   0.10969 276646.080000
   5542   5544     1   0.10969 276646.080000
   5545   5546     1   0.10969 276646.080000
   5545   5547     1   0.10969 276646.080000
   5550   5579     1   0.10304 312293.760000
   5551   5552     1   0.10910 283424.160000
   5551   5553     1   0.10910 283424.160000
   5554   5555     1   0.10910 283424.160000
   5554   5556     1   0.10910 283424.160000
   5557   5558     1   0.10910 283424.160000
   5557   5559     1   0.10910 283424.160000
   5560   5561     1   0.10969 276646.080000
   5560   5562     1   0.10969 276646.080000
   5563   5564     1   0.10969 276646.080000
   5563   5565     1   0.10969 276646.080000
   5566   5567     1   0.10969 276646.080000
   5566   5568     1   0.10969 276646.080000
   5569   5570     1   0.10969 276646.080000
   5569   5571     1   0.10969 276646.080000
   5572   5573     1   0.10969 276646.080000
   5572   5574     1   0.10969 276646.080000
   5575   5576     1   0.10969 276646.080000
   5575   5577     1   0.10969 276646.080000
   5580   5609     1   0.10304 312293.760000
   5581   5582     1   0.10910 283424.160000
   5581   5583     1   0.10910 283424.160000
   5584   5585     1   0.10910 283424.160000
   5584   5586     1   0.10910 283424.160000
   5587   5588     1   0.10910 283424.160000
   5587   5589     1   0.10910 283424.160000
   5590   5591     1   0.10969 276646.080000
   5590   5592     1   0.10969 276646.080000
   5593   5594     1   0.10969 276646.080000
   5593   5595     1   0.10969 276646.080000
   5596   5597     1   0.10969 276646.080000
   5596   5598     1   0.10969 276646.080000
   5599   5600     1   0.10969 276646.080000
   5599   5601     1   0.10969 276646.080000
   5602   5603     1   0.10969 276646.080000
   5602   5604     1   0.10969 276646.080000
   5605   5606     1   0.10969 276646.080000
   5605   5607     1   0.10969 276646.080000
   5610   5639     1   0.10304 312293.760000
   5611   5612     1   0.10910 283424.160000
   5611   5613     1   0.10910 283424.160000
   5614   5615     1   0.10910 283424.160000
   5614   5616     1   0.10910 283424.160000
   5617   5618     1   0.10910 283424.160000
   5617   5619     1   0.10910 283424.160000
   5620   5621     1   0.10969 276646.080000
   5620   5622     1   0.10969 276646.080000
   5623   5624     1   0.10969 276646.080000
   5623   5625     1   0.10969 276646.080000
   5626   5627     1   0.10969 276646.080000
   5626   5628     1   0.10969 276646.080000
   5629   5630     1   0.10969 276646.080000
   5629   5631     1   0.10969 276646.080000
   5632   5633     1   0.10969 276646.080000
   5632   5634     1   0.10969 276646.080000
   5635   5636     1   0.10969 276646.080000
   5635   5637     1   0.10969 276646.080000
   5640   5669     1   0.10304 312293.760000
   5641   5642     1   0.10910 283424.160000
   5641   5643     1   0.10910 283424.160000
   5644   5645     1   0.10910 283424.160000
   5644   5646     1   0.10910 283424.160000
   5647   5648     1   0.10910 283424.160000
   5647   5649     1   0.10910 283424.160000
   5650   5651     1   0.10969 276646.080000
   5650   5652     1   0.10969 276646.080000
   5653   5654     1   0.10969 276646.080000
   5653   5655     1   0.10969 276646.080000
   5656   5657     1   0.10969 276646.080000
   5656   5658     1   0.10969 276646.080000
   5659   5660     1   0.10969 276646.080000
   5659   5661     1   0.10969 276646.080000
   5662   5663     1   0.10969 276646.080000
   5662   5664     1   0.10969 276646.080000
   5665   5666     1   0.10969 276646.080000
   5665   5667     1   0.10969 276646.080000
   5670   5699     1   0.10304 312293.760000
   5671   5672     1   0.10910 283424.160000
   5671   5673     1   0.10910 283424.160000
   5674   5675     1   0.10910 283424.160000
   5674   5676     1   0.10910 283424.160000
   5677   5678     1   0.10910 283424.160000
   5677   5679     1   0.10910 283424.160000
   5680   5681     1   0.10969 276646.080000
   5680   5682     1   0.10969 276646.080000
   5683   5684     1   0.10969 276646.080000
   5683   5685     1   0.10969 276646.080000
   5686   5687     1   0.10969 276646.080000
   5686   5688     1   0.10969 276646.080000
   5689   5690     1   0.10969 276646.080000
   5689   5691     1   0.10969 276646.080000
   5692   5693     1   0.10969 276646.080000
   5692   5694     1   0.10969 276646.080000
   5695   5696     1   0.10969 276646.080000
   5695   5697     1   0.10969 276646.080000
   5700   5701     1   0.10910 283424.160000
   5700   5702     1   0.10910 283424.160000
   5703   5704     1   0.10969 276646.080000
   5703   5705     1   0.10969 276646.080000
   5706   5707     1   0.10969 276646.080000
   5706   5708     1   0.10969 276646.080000
   5709   5710     1   0.10304 312293.760000
   5709   5711     1   0.10304 312293.760000
   5709   5713     1   0.10304 312293.760000
   5714   5715     1   0.10910 283424.160000
   5714   5716     1   0.10910 283424.160000
   5717   5718     1   0.10969 276646.080000
   5717   5719     1   0.10969 276646.080000
   5720   5721     1   0.10969 276646.080000
   5720   5722     1   0.10969 276646.080000
   5723   5724     1   0.10304 312293.760000
   5723   5725     1   0.10304 312293.760000
   5723   5727     1   0.10304 312293.760000
   5728   5729     1   0.10910 283424.160000
   5728   5730     1   0.10910 283424.160000
   5731   5732     1   0.10969 276646.080000
   5731   5733     1   0.10969 276646.080000
   5734   5735     1   0.10969 276646.080000
   5734   5736     1   0.10969 276646.080000
   5737   5738     1   0.10304 312293.760000
   5737   5739     1   0.10304 312293.760000
   5737   5741     1   0.10304 312293.760000
   5742   5743     1   0.10910 283424.160000
   5742   5744     1   0.10910 283424.160000
   5745   5746     1   0.10969 276646.080000
   5745   5747     1   0.10969 276646.080000
   5748   5749     1   0.10969 276646.080000
   5748   5750     1   0.10969 276646.080000
   5751   5752     1   0.10304 312293.760000
   5751   5753     1   0.10304 312293.760000
   5751   5755     1   0.10304 312293.760000
   5756   5757     1   0.10910 283424.160000
   5756   5758     1   0.10910 283424.160000
   5759   5760     1   0.10969 276646.080000
   5759   5761     1   0.10969 276646.080000
   5762   5763     1   0.10969 276646.080000
   5762   5764     1   0.10969 276646.080000
   5765   5766     1   0.10304 312293.760000
   5765   5767     1   0.10304 312293.760000
   5765   5769     1   0.10304 312293.760000
   5770   5771     1   0.10910 283424.160000
   5770   5772     1   0.10910 283424.160000
   5773   5774     1   0.10969 276646.080000
   5773   5775     1   0.10969 276646.080000
   5776   5777     1   0.10969 276646.080000
   5776   5778     1   0.10969 276646.080000
   5779   5780     1   0.10304 312293.760000
   5779   5781     1   0.10304 312293.760000
   5779   5783     1   0.10304 312293.760000
   5784   5785     1   0.10910 283424.160000
   5784   5786     1   0.10910 283424.160000
   5787   5788     1   0.10969 276646.080000
   5787   5789     1   0.10969 276646.080000
   5790   5791     1   0.10969 276646.080000
   5790   5792     1   0.10969 276646.080000
   5793   5794     1   0.10304 312293.760000
   5793   5795     1   0.10304 312293.760000
   5793   5797     1   0.10304 312293.760000
   5798   5799     1   0.10910 283424.160000
   5798   5800     1   0.10910 283424.160000
   5801   5802     1   0.10969 276646.080000
   5801   5803     1   0.10969 276646.080000
   5804   5805     1   0.10969 276646.080000
   5804   5806     1   0.10969 276646.080000
   5807   5808     1   0.10304 312293.760000
   5807   5809     1   0.10304 312293.760000
   5807   5811     1   0.10304 312293.760000
   5812   5813     1   0.10910 283424.160000
   5812   5814     1   0.10910 283424.160000
   5815   5816     1   0.10969 276646.080000
   5815   5817     1   0.10969 276646.080000
   5818   5819     1   0.10969 276646.080000
   5818   5820     1   0.10969 276646.080000
   5821   5822     1   0.10304 312293.760000
   5821   5823     1   0.10304 312293.760000
   5821   5825     1   0.10304 312293.760000
   5826   5827     1   0.10910 283424.160000
   5826   5828     1   0.10910 283424.160000
   5829   5830     1   0.10969 276646.080000
   5829   5831     1   0.10969 276646.080000
   5832   5833     1   0.10969 276646.080000
   5832   5834     1   0.10969 276646.080000
   5835   5836     1   0.10304 312293.760000
   5835   5837     1   0.10304 312293.760000
   5835   5839     1   0.10304 312293.760000
   5840   5841     1   0.10910 283424.160000
   5840   5842     1   0.10910 283424.160000
   5843   5844     1   0.10969 276646.080000
   5843   5845     1   0.10969 276646.080000
   5846   5847     1   0.10969 276646.080000
   5846   5848     1   0.10969 276646.080000
   5849   5850     1   0.10304 312293.760000
   5849   5851     1   0.10304 312293.760000
   5849   5853     1   0.10304 312293.760000
   5854   5855     1   0.10910 283424.160000
   5854   5856     1   0.10910 283424.160000
   5857   5858     1   0.10969 276646.080000
   5857   5859     1   0.10969 276646.080000
   5860   5861     1   0.10969 276646.080000
   5860   5862     1   0.10969 276646.080000
   5863   5864     1   0.10304 312293.760000
   5863   5865     1   0.10304 312293.760000
   5863   5867     1   0.10304 312293.760000
   5868   5869     1   0.10910 283424.160000
   5868   5870     1   0.10910 283424.160000
   5871   5872     1   0.10969 276646.080000
   5871   5873     1   0.10969 276646.080000
   5874   5875     1   0.10969 276646.080000
   5874   5876     1   0.10969 276646.080000
   5877   5878     1   0.10304 312293.760000
   5877   5879     1   0.10304 312293.760000
   5877   5881     1   0.10304 312293.760000
   5882   5883     1   0.10910 283424.160000
   5882   5884     1   0.10910 283424.160000
   5885   5886     1   0.10969 276646.080000
   5885   5887     1   0.10969 276646.080000
   5888   5889     1   0.10969 276646.080000
   5888   5890     1   0.10969 276646.080000
   5891   5892     1   0.10304 312293.760000
   5891   5893     1   0.10304 312293.760000
   5891   5895     1   0.10304 312293.760000
   5896   5897     1   0.10910 283424.160000
   5896   5898     1   0.10910 283424.160000
   5899   5900     1   0.10969 276646.080000
   5899   5901     1   0.10969 276646.080000
   5902   5903     1   0.10969 276646.080000
   5902   5904     1   0.10969 276646.080000
   5905   5906     1   0.10304 312293.760000
   5905   5907     1   0.10304 312293.760000
   5905   5909     1   0.10304 312293.760000
   5910   5911     1   0.10910 283424.160000
   5910   5912     1   0.10910 283424.160000
   5913   5914     1   0.10969 276646.080000
   5913   5915     1   0.10969 276646.080000
   5916   5917     1   0.10969 276646.080000
   5916   5918     1   0.10969 276646.080000
   5919   5920     1   0.10304 312293.760000
   5919   5921     1   0.10304 312293.760000
   5919   5923     1   0.10304 312293.760000
   5924   5925     1   0.10910 283424.160000
   5924   5926     1   0.10910 283424.160000
   5927   5928     1   0.10969 276646.080000
   5927   5929     1   0.10969 276646.080000
   5930   5931     1   0.10969 276646.080000
   5930   5932     1   0.10969 276646.080000
   5933   5934     1   0.10304 312293.760000
   5933   5935     1   0.10304 312293.760000
   5933   5937     1   0.10304 312293.760000
   5938   5939     1   0.10910 283424.160000
   5938   5940     1   0.10910 283424.160000
   5941   5942     1   0.10969 276646.080000
   5941   5943     1   0.10969 276646.080000
   5944   5945     1   0.10969 276646.080000
   5944   5946     1   0.10969 276646.080000
   5947   5948     1   0.10304 312293.760000
   5947   5949     1   0.10304 312293.760000
   5947   5951     1   0.10304 312293.760000
   5952   5953     1   0.10910 283424.160000
   5952   5954     1   0.10910 283424.160000
   5955   5956     1   0.10969 276646.080000
   5955   5957     1   0.10969 276646.080000
   5958   5959     1   0.10969 276646.080000
   5958   5960     1   0.10969 276646.080000
   5961   5962     1   0.10304 312293.760000
   5961   5963     1   0.10304 312293.760000
   5961   5965     1   0.10304 312293.760000
   5966   5967     1   0.10910 283424.160000
   5966   5968     1   0.10910 283424.160000
   5969   5970     1   0.10969 276646.080000
   5969   5971     1   0.10969 276646.080000
   5972   5973     1   0.10969 276646.080000
   5972   5974     1   0.10969 276646.080000
   5975   5976     1   0.10304 312293.760000
   5975   5977     1   0.10304 312293.760000
   5975   5979     1   0.10304 312293.760000
   5980   5981     1   0.10910 283424.160000
   5980   5982     1   0.10910 283424.160000
   5983   5984     1   0.10969 276646.080000
   5983   5985     1   0.10969 276646.080000
   5986   5987     1   0.10969 276646.080000
   5986   5988     1   0.10969 276646.080000
   5989   5990     1   0.10304 312293.760000
   5989   5991     1   0.10304 312293.760000
   5989   5993     1   0.10304 312293.760000
   5994   5995     1   0.10910 283424.160000
   5994   5996     1   0.10910 283424.160000
   5997   5998     1   0.10969 276646.080000
   5997   5999     1   0.10969 276646.080000
   6000   6001     1   0.10969 276646.080000
   6000   6002     1   0.10969 276646.080000
   6003   6004     1   0.10304 312293.760000
   6003   6005     1   0.10304 312293.760000
   6003   6007     1   0.10304 312293.760000
   6008   6009     1   0.10910 283424.160000
   6008   6010     1   0.10910 283424.160000
   6011   6012     1   0.10969 276646.080000
   6011   6013     1   0.10969 276646.080000
   6014   6015     1   0.10969 276646.080000
   6014   6016     1   0.10969 276646.080000
   6017   6018     1   0.10304 312293.760000
   6017   6019     1   0.10304 312293.760000
   6017   6021     1   0.10304 312293.760000
   6022   6023     1   0.10910 283424.160000
   6022   6024     1   0.10910 283424.160000
   6025   6026     1   0.10969 276646.080000
   6025   6027     1   0.10969 276646.080000
   6028   6029     1   0.10969 276646.080000
   6028   6030     1   0.10969 276646.080000
   6031   6032     1   0.10304 312293.760000
   6031   6033     1   0.10304 312293.760000
   6031   6035     1   0.10304 312293.760000
   6036   6037     1   0.10910 283424.160000
   6036   6038     1   0.10910 283424.160000
   6039   6040     1   0.10969 276646.080000
   6039   6041     1   0.10969 276646.080000
   6042   6043     1   0.10969 276646.080000
   6042   6044     1   0.10969 276646.080000
   6045   6046     1   0.10304 312293.760000
   6045   6047     1   0.10304 312293.760000
   6045   6049     1   0.10304 312293.760000
   6050   6051     1   0.10910 283424.160000
   6050   6052     1   0.10910 283424.160000
   6053   6054     1   0.10969 276646.080000
   6053   6055     1   0.10969 276646.080000
   6056   6057     1   0.10969 276646.080000
   6056   6058     1   0.10969 276646.080000
   6059   6060     1   0.10304 312293.760000
   6059   6061     1   0.10304 312293.760000
   6059   6063     1   0.10304 312293.760000
   6064   6065     1   0.10910 283424.160000
   6064   6066     1   0.10910 283424.160000
   6067   6068     1   0.10969 276646.080000
   6067   6069     1   0.10969 276646.080000
   6070   6071     1   0.10969 276646.080000
   6070   6072     1   0.10969 276646.080000
   6073   6074     1   0.10304 312293.760000
   6073   6075     1   0.10304 312293.760000
   6073   6077     1   0.10304 312293.760000
   6078   6079     1   0.10910 283424.160000
   6078   6080     1   0.10910 283424.160000
   6081   6082     1   0.10969 276646.080000
   6081   6083     1   0.10969 276646.080000
   6084   6085     1   0.10969 276646.080000
   6084   6086     1   0.10969 276646.080000
   6087   6088     1   0.10304 312293.760000
   6087   6089     1   0.10304 312293.760000
   6087   6091     1   0.10304 312293.760000
   6092   6093     1   0.10910 283424.160000
   6092   6094     1   0.10910 283424.160000
   6095   6096     1   0.10969 276646.080000
   6095   6097     1   0.10969 276646.080000
   6098   6099     1   0.10969 276646.080000
   6098   6100     1   0.10969 276646.080000
   6101   6102     1   0.10304 312293.760000
   6101   6103     1   0.10304 312293.760000
   6101   6105     1   0.10304 312293.760000
   6106   6107     1   0.10910 283424.160000
   6106   6108     1   0.10910 283424.160000
   6109   6110     1   0.10969 276646.080000
   6109   6111     1   0.10969 276646.080000
   6112   6113     1   0.10969 276646.080000
   6112   6114     1   0.10969 276646.080000
   6115   6116     1   0.10304 312293.760000
   6115   6117     1   0.10304 312293.760000
   6115   6119     1   0.10304 312293.760000
   6120   6121     1   0.10910 283424.160000
   6120   6122     1   0.10910 283424.160000
   6123   6124     1   0.10969 276646.080000
   6123   6125     1   0.10969 276646.080000
   6126   6127     1   0.10969 276646.080000
   6126   6128     1   0.10969 276646.080000
   6129   6130     1   0.10304 312293.760000
   6129   6131     1   0.10304 312293.760000
   6129   6133     1   0.10304 312293.760000
   6134   6135     1   0.10910 283424.160000
   6134   6136     1   0.10910 283424.160000
   6137   6138     1   0.10969 276646.080000
   6137   6139     1   0.10969 276646.080000
   6140   6141     1   0.10969 276646.080000
   6140   6142     1   0.10969 276646.080000
   6143   6144     1   0.10304 312293.760000
   6143   6145     1   0.10304 312293.760000
   6143   6147     1   0.10304 312293.760000
   6148   6149     1   0.10910 283424.160000
   6148   6150     1   0.10910 283424.160000
   6151   6152     1   0.10969 276646.080000
   6151   6153     1   0.10969 276646.080000
   6154   6155     1   0.10969 276646.080000
   6154   6156     1   0.10969 276646.080000
   6157   6158     1   0.10304 312293.760000
   6157   6159     1   0.10304 312293.760000
   6157   6161     1   0.10304 312293.760000
   6162   6163     1   0.10910 283424.160000
   6162   6164     1   0.10910 283424.160000
   6165   6166     1   0.10969 276646.080000
   6165   6167     1   0.10969 276646.080000
   6168   6169     1   0.10969 276646.080000
   6168   6170     1   0.10969 276646.080000
   6171   6172     1   0.10304 312293.760000
   6171   6173     1   0.10304 312293.760000
   6171   6175     1   0.10304 312293.760000
   6176   6177     1   0.10910 283424.160000
   6176   6178     1   0.10910 283424.160000
   6179   6180     1   0.10969 276646.080000
   6179   6181     1   0.10969 276646.080000
   6182   6183     1   0.10969 276646.080000
   6182   6184     1   0.10969 276646.080000
   6185   6186     1   0.10304 312293.760000
   6185   6187     1   0.10304 312293.760000
   6185   6189     1   0.10304 312293.760000
   6190   6191     1   0.10910 283424.160000
   6190   6192     1   0.10910 283424.160000
   6193   6194     1   0.10969 276646.080000
   6193   6195     1   0.10969 276646.080000
   6196   6197     1   0.10969 276646.080000
   6196   6198     1   0.10969 276646.080000
   6199   6200     1   0.10304 312293.760000
   6199   6201     1   0.10304 312293.760000
   6199   6203     1   0.10304 312293.760000
   6204   6205     1   0.10910 283424.160000
   6204   6206     1   0.10910 283424.160000
   6207   6208     1   0.10969 276646.080000
   6207   6209     1   0.10969 276646.080000
   6210   6211     1   0.10969 276646.080000
   6210   6212     1   0.10969 276646.080000
   6213   6214     1   0.10304 312293.760000
   6213   6215     1   0.10304 312293.760000
   6213   6217     1   0.10304 312293.760000
   6218   6219     1   0.10910 283424.160000
   6218   6220     1   0.10910 283424.160000
   6221   6222     1   0.10969 276646.080000
   6221   6223     1   0.10969 276646.080000
   6224   6225     1   0.10969 276646.080000
   6224   6226     1   0.10969 276646.080000
   6227   6228     1   0.10304 312293.760000
   6227   6229     1   0.10304 312293.760000
   6227   6231     1   0.10304 312293.760000
   6232   6233     1   0.10910 283424.160000
   6232   6234     1   0.10910 283424.160000
   6235   6236     1   0.10969 276646.080000
   6235   6237     1   0.10969 276646.080000
   6238   6239     1   0.10969 276646.080000
   6238   6240     1   0.10969 276646.080000
   6241   6242     1   0.10304 312293.760000
   6241   6243     1   0.10304 312293.760000
   6241   6245     1   0.10304 312293.760000
   6246   6247     1   0.10910 283424.160000
   6246   6248     1   0.10910 283424.160000
   6249   6250     1   0.10969 276646.080000
   6249   6251     1   0.10969 276646.080000
   6252   6253     1   0.10969 276646.080000
   6252   6254     1   0.10969 276646.080000
   6255   6256     1   0.10304 312293.760000
   6255   6257     1   0.10304 312293.760000
   6255   6259     1   0.10304 312293.760000
   6260   6261     1   0.10910 283424.160000
   6260   6262     1   0.10910 283424.160000
   6263   6264     1   0.10969 276646.080000
   6263   6265     1   0.10969 276646.080000
   6266   6267     1   0.10969 276646.080000
   6266   6268     1   0.10969 276646.080000
   6269   6270     1   0.10304 312293.760000
   6269   6271     1   0.10304 312293.760000
   6269   6273     1   0.10304 312293.760000
   6274   6275     1   0.10910 283424.160000
   6274   6276     1   0.10910 283424.160000
   6277   6278     1   0.10969 276646.080000
   6277   6279     1   0.10969 276646.080000
   6280   6281     1   0.10969 276646.080000
   6280   6282     1   0.10969 276646.080000
   6283   6284     1   0.10304 312293.760000
   6283   6285     1   0.10304 312293.760000
   6283   6287     1   0.10304 312293.760000
   6288   6289     1   0.10910 283424.160000
   6288   6290     1   0.10910 283424.160000
   6291   6292     1   0.10969 276646.080000
   6291   6293     1   0.10969 276646.080000
   6294   6295     1   0.10969 276646.080000
   6294   6296     1   0.10969 276646.080000
   6297   6298     1   0.10304 312293.760000
   6297   6299     1   0.10304 312293.760000
   6297   6301     1   0.10304 312293.760000
   6302   6303     1   0.10910 283424.160000
   6302   6304     1   0.10910 283424.160000
   6305   6306     1   0.10969 276646.080000
   6305   6307     1   0.10969 276646.080000
   6308   6309     1   0.10969 276646.080000
   6308   6310     1   0.10969 276646.080000
   6311   6312     1   0.10304 312293.760000
   6311   6313     1   0.10304 312293.760000
   6311   6315     1   0.10304 312293.760000
   6316   6317     1   0.10910 283424.160000
   6316   6318     1   0.10910 283424.160000
   6319   6320     1   0.10969 276646.080000
   6319   6321     1   0.10969 276646.080000
   6322   6323     1   0.10969 276646.080000
   6322   6324     1   0.10969 276646.080000
   6325   6326     1   0.10304 312293.760000
   6325   6327     1   0.10304 312293.760000
   6325   6329     1   0.10304 312293.760000
   6330   6331     1   0.10910 283424.160000
   6330   6332     1   0.10910 283424.160000
   6333   6334     1   0.10969 276646.080000
   6333   6335     1   0.10969 276646.080000
   6336   6337     1   0.10969 276646.080000
   6336   6338     1   0.10969 276646.080000
   6339   6340     1   0.10304 312293.760000
   6339   6341     1   0.10304 312293.760000
   6339   6343     1   0.10304 312293.760000
   6344   6345     1   0.10910 283424.160000
   6344   6346     1   0.10910 283424.160000
   6347   6348     1   0.10969 276646.080000
   6347   6349     1   0.10969 276646.080000
   6350   6351     1   0.10969 276646.080000
   6350   6352     1   0.10969 276646.080000
   6353   6354     1   0.10304 312293.760000
   6353   6355     1   0.10304 312293.760000
   6353   6357     1   0.10304 312293.760000
   6358   6359     1   0.10910 283424.160000
   6358   6360     1   0.10910 283424.160000
   6361   6362     1   0.10969 276646.080000
   6361   6363     1   0.10969 276646.080000
   6364   6365     1   0.10969 276646.080000
   6364   6366     1   0.10969 276646.080000
   6367   6368     1   0.10304 312293.760000
   6367   6369     1   0.10304 312293.760000
   6367   6371     1   0.10304 312293.760000
   6372   6373     1   0.10910 283424.160000
   6372   6374     1   0.10910 283424.160000
   6375   6376     1   0.10969 276646.080000
   6375   6377     1   0.10969 276646.080000
   6378   6379     1   0.10969 276646.080000
   6378   6380     1   0.10969 276646.080000
   6381   6382     1   0.10304 312293.760000
   6381   6383     1   0.10304 312293.760000
   6381   6385     1   0.10304 312293.760000
   6386   6387     1   0.10910 283424.160000
   6386   6388     1   0.10910 283424.160000
   6389   6390     1   0.10969 276646.080000
   6389   6391     1   0.10969 276646.080000
   6392   6393     1   0.10969 276646.080000
   6392   6394     1   0.10969 276646.080000
   6395   6396     1   0.10304 312293.760000
   6395   6397     1   0.10304 312293.760000
   6395   6399     1   0.10304 312293.760000
   6400   6401     1   0.10910 283424.160000
   6400   6402     1   0.10910 283424.160000
   6403   6404     1   0.10969 276646.080000
   6403   6405     1   0.10969 276646.080000
   6406   6407     1   0.10969 276646.080000
   6406   6408     1   0.10969 276646.080000
   6409   6410     1   0.10304 312293.760000
   6409   6411     1   0.10304 312293.760000
   6409   6413     1   0.10304 312293.760000
   6414   6415     1   0.10910 283424.160000
   6414   6416     1   0.10910 283424.160000
   6417   6418     1   0.10969 276646.080000
   6417   6419     1   0.10969 276646.080000
   6420   6421     1   0.10969 276646.080000
   6420   6422     1   0.10969 276646.080000
   6423   6424     1   0.10304 312293.760000
   6423   6425     1   0.10304 312293.760000
   6423   6427     1   0.10304 312293.760000
   6428   6429     1   0.10910 283424.160000
   6428   6430     1   0.10910 283424.160000
   6431   6432     1   0.10969 276646.080000
   6431   6433     1   0.10969 276646.080000
   6434   6435     1   0.10969 276646.080000
   6434   6436     1   0.10969 276646.080000
   6437   6438     1   0.10304 312293.760000
   6437   6439     1   0.10304 312293.760000
   6437   6441     1   0.10304 312293.760000
   6442   6443     1   0.10910 283424.160000
   6442   6444     1   0.10910 283424.160000
   6445   6446     1   0.10969 276646.080000
   6445   6447     1   0.10969 276646.080000
   6448   6449     1   0.10969 276646.080000
   6448   6450     1   0.10969 276646.080000
   6451   6452     1   0.10304 312293.760000
   6451   6453     1   0.10304 312293.760000
   6451   6455     1   0.10304 312293.760000
   6456   6457     1   0.10910 283424.160000
   6456   6458     1   0.10910 283424.160000
   6459   6460     1   0.10969 276646.080000
   6459   6461     1   0.10969 276646.080000
   6462   6463     1   0.10969 276646.080000
   6462   6464     1   0.10969 276646.080000
   6465   6466     1   0.10304 312293.760000
   6465   6467     1   0.10304 312293.760000
   6465   6469     1   0.10304 312293.760000
   6470   6471     1   0.10910 283424.160000
   6470   6472     1   0.10910 283424.160000
   6473   6474     1   0.10969 276646.080000
   6473   6475     1   0.10969 276646.080000
   6476   6477     1   0.10969 276646.080000
   6476   6478     1   0.10969 276646.080000
   6479   6480     1   0.10304 312293.760000
   6479   6481     1   0.10304 312293.760000
   6479   6483     1   0.10304 312293.760000
   6484   6485     1   0.10910 283424.160000
   6484   6486     1   0.10910 283424.160000
   6487   6488     1   0.10969 276646.080000
   6487   6489     1   0.10969 276646.080000
   6490   6491     1   0.10969 276646.080000
   6490   6492     1   0.10969 276646.080000
   6493   6494     1   0.10304 312293.760000
   6493   6495     1   0.10304 312293.760000
   6493   6497     1   0.10304 312293.760000
   6498   6499     1   0.10910 283424.160000
   6498   6500     1   0.10910 283424.160000
   6501   6502     1   0.10969 276646.080000
   6501   6503     1   0.10969 276646.080000
   6504   6505     1   0.10969 276646.080000
   6504   6506     1   0.10969 276646.080000
   6507   6508     1   0.10304 312293.760000
   6507   6509     1   0.10304 312293.760000
   6507   6511     1   0.10304 312293.760000
   6512   6513     1   0.10910 283424.160000
   6512   6514     1   0.10910 283424.160000
   6515   6516     1   0.10969 276646.080000
   6515   6517     1   0.10969 276646.080000
   6518   6519     1   0.10969 276646.080000
   6518   6520     1   0.10969 276646.080000
   6521   6522     1   0.10304 312293.760000
   6521   6523     1   0.10304 312293.760000
   6521   6525     1   0.10304 312293.760000
   6526   6527     1   0.10910 283424.160000
   6526   6528     1   0.10910 283424.160000
   6529   6530     1   0.10969 276646.080000
   6529   6531     1   0.10969 276646.080000
   6532   6533     1   0.10969 276646.080000
   6532   6534     1   0.10969 276646.080000
   6535   6536     1   0.10304 312293.760000
   6535   6537     1   0.10304 312293.760000
   6535   6539     1   0.10304 312293.760000
   6540   6541     1   0.10910 283424.160000
   6540   6542     1   0.10910 283424.160000
   6543   6544     1   0.10969 276646.080000
   6543   6545     1   0.10969 276646.080000
   6546   6547     1   0.10969 276646.080000
   6546   6548     1   0.10969 276646.080000
   6549   6550     1   0.10304 312293.760000
   6549   6551     1   0.10304 312293.760000
   6549   6553     1   0.10304 312293.760000
   6554   6555     1   0.10910 283424.160000
   6554   6556     1   0.10910 283424.160000
   6557   6558     1   0.10969 276646.080000
   6557   6559     1   0.10969 276646.080000
   6560   6561     1   0.10969 276646.080000
   6560   6562     1   0.10969 276646.080000
   6563   6564     1   0.10304 312293.760000
   6563   6565     1   0.10304 312293.760000
   6563   6567     1   0.10304 312293.760000
   6568   6569     1   0.10910 283424.160000
   6568   6570     1   0.10910 283424.160000
   6571   6572     1   0.10969 276646.080000
   6571   6573     1   0.10969 276646.080000
   6574   6575     1   0.10969 276646.080000
   6574   6576     1   0.10969 276646.080000
   6577   6578     1   0.10304 312293.760000
   6577   6579     1   0.10304 312293.760000
   6577   6581     1   0.10304 312293.760000
   6582   6583     1   0.10910 283424.160000
   6582   6584     1   0.10910 283424.160000
   6585   6586     1   0.10969 276646.080000
   6585   6587     1   0.10969 276646.080000
   6588   6589     1   0.10969 276646.080000
   6588   6590     1   0.10969 276646.080000
   6591   6592     1   0.10304 312293.760000
   6591   6593     1   0.10304 312293.760000
   6591   6595     1   0.10304 312293.760000
   6596   6597     1   0.10910 283424.160000
   6596   6598     1   0.10910 283424.160000
   6599   6600     1   0.10969 276646.080000
   6599   6601     1   0.10969 276646.080000
   6602   6603     1   0.10969 276646.080000
   6602   6604     1   0.10969 276646.080000
   6605   6606     1   0.10304 312293.760000
   6605   6607     1   0.10304 312293.760000
   6605   6609     1   0.10304 312293.760000
   6610   6611     1   0.10910 283424.160000
   6610   6612     1   0.10910 283424.160000
   6613   6614     1   0.10969 276646.080000
   6613   6615     1   0.10969 276646.080000
   6616   6617     1   0.10969 276646.080000
   6616   6618     1   0.10969 276646.080000
   6619   6620     1   0.10304 312293.760000
   6619   6621     1   0.10304 312293.760000
   6619   6623     1   0.10304 312293.760000
   6624   6625     1   0.10910 283424.160000
   6624   6626     1   0.10910 283424.160000
   6627   6628     1   0.10969 276646.080000
   6627   6629     1   0.10969 276646.080000
   6630   6631     1   0.10969 276646.080000
   6630   6632     1   0.10969 276646.080000
   6633   6634     1   0.10304 312293.760000
   6633   6635     1   0.10304 312293.760000
   6633   6637     1   0.10304 312293.760000
   6638   6639     1   0.10910 283424.160000
   6638   6640     1   0.10910 283424.160000
   6641   6642     1   0.10969 276646.080000
   6641   6643     1   0.10969 276646.080000
   6644   6645     1   0.10969 276646.080000
   6644   6646     1   0.10969 276646.080000
   6647   6648     1   0.10304 312293.760000
   6647   6649     1   0.10304 312293.760000
   6647   6651     1   0.10304 312293.760000
   6652   6653     1   0.10910 283424.160000
   6652   6654     1   0.10910 283424.160000
   6655   6656     1   0.10969 276646.080000
   6655   6657     1   0.10969 276646.080000
   6658   6659     1   0.10969 276646.080000
   6658   6660     1   0.10969 276646.080000
   6661   6662     1   0.10304 312293.760000
   6661   6663     1   0.10304 312293.760000
   6661   6665     1   0.10304 312293.760000
   6666   6667     1   0.10910 283424.160000
   6666   6668     1   0.10910 283424.160000
   6669   6670     1   0.10969 276646.080000
   6669   6671     1   0.10969 276646.080000
   6672   6673     1   0.10969 276646.080000
   6672   6674     1   0.10969 276646.080000
   6675   6676     1   0.10304 312293.760000
   6675   6677     1   0.10304 312293.760000
   6675   6679     1   0.10304 312293.760000
   6680   6681     1   0.10910 283424.160000
   6680   6682     1   0.10910 283424.160000
   6683   6684     1   0.10969 276646.080000
   6683   6685     1   0.10969 276646.080000
   6686   6687     1   0.10969 276646.080000
   6686   6688     1   0.10969 276646.080000
   6689   6690     1   0.10304 312293.760000
   6689   6691     1   0.10304 312293.760000
   6689   6693     1   0.10304 312293.760000
   6694   6695     1   0.10910 283424.160000
   6694   6696     1   0.10910 283424.160000
   6697   6698     1   0.10969 276646.080000
   6697   6699     1   0.10969 276646.080000
   6700   6701     1   0.10969 276646.080000
   6700   6702     1   0.10969 276646.080000
   6703   6704     1   0.10304 312293.760000
   6703   6705     1   0.10304 312293.760000
   6703   6707     1   0.10304 312293.760000
   6708   6709     1   0.10910 283424.160000
   6708   6710     1   0.10910 283424.160000
   6711   6712     1   0.10969 276646.080000
   6711   6713     1   0.10969 276646.080000
   6714   6715     1   0.10969 276646.080000
   6714   6716     1   0.10969 276646.080000
   6717   6718     1   0.10304 312293.760000
   6717   6719     1   0.10304 312293.760000
   6717   6721     1   0.10304 312293.760000
   6722   6723     1   0.10910 283424.160000
   6722   6724     1   0.10910 283424.160000
   6725   6726     1   0.10969 276646.080000
   6725   6727     1   0.10969 276646.080000
   6728   6729     1   0.10969 276646.080000
   6728   6730     1   0.10969 276646.080000
   6731   6732     1   0.10304 312293.760000
   6731   6733     1   0.10304 312293.760000
   6731   6735     1   0.10304 312293.760000
   6736   6737     1   0.10910 283424.160000
   6736   6738     1   0.10910 283424.160000
   6739   6740     1   0.10969 276646.080000
   6739   6741     1   0.10969 276646.080000
   6742   6743     1   0.10969 276646.080000
   6742   6744     1   0.10969 276646.080000
   6745   6746     1   0.10304 312293.760000
   6745   6747     1   0.10304 312293.760000
   6745   6749     1   0.10304 312293.760000
   6750   6751     1   0.10910 283424.160000
   6750   6752     1   0.10910 283424.160000
   6753   6754     1   0.10969 276646.080000
   6753   6755     1   0.10969 276646.080000
   6756   6757     1   0.10969 276646.080000
   6756   6758     1   0.10969 276646.080000
   6759   6760     1   0.10304 312293.760000
   6759   6761     1   0.10304 312293.760000
   6759   6763     1   0.10304 312293.760000
   6764   6765     1   0.10910 283424.160000
   6764   6766     1   0.10910 283424.160000
   6767   6768     1   0.10969 276646.080000
   6767   6769     1   0.10969 276646.080000
   6770   6771     1   0.10969 276646.080000
   6770   6772     1   0.10969 276646.080000
   6773   6774     1   0.10304 312293.760000
   6773   6775     1   0.10304 312293.760000
   6773   6777     1   0.10304 312293.760000
   6778   6779     1   0.10910 283424.160000
   6778   6780     1   0.10910 283424.160000
   6781   6782     1   0.10969 276646.080000
   6781   6783     1   0.10969 276646.080000
   6784   6785     1   0.10969 276646.080000
   6784   6786     1   0.10969 276646.080000
   6787   6788     1   0.10304 312293.760000
   6787   6789     1   0.10304 312293.760000
   6787   6791     1   0.10304 312293.760000
   6792   6793     1   0.10910 283424.160000
   6792   6794     1   0.10910 283424.160000
   6795   6796     1   0.10969 276646.080000
   6795   6797     1   0.10969 276646.080000
   6798   6799     1   0.10969 276646.080000
   6798   6800     1   0.10969 276646.080000
   6801   6802     1   0.10304 312293.760000
   6801   6803     1   0.10304 312293.760000
   6801   6805     1   0.10304 312293.760000
   6806   6807     1   0.10910 283424.160000
   6806   6808     1   0.10910 283424.160000
   6809   6810     1   0.10969 276646.080000
   6809   6811     1   0.10969 276646.080000
   6812   6813     1   0.10969 276646.080000
   6812   6814     1   0.10969 276646.080000
   6815   6816     1   0.10304 312293.760000
   6815   6817     1   0.10304 312293.760000
   6815   6819     1   0.10304 312293.760000
   6820   6821     1   0.10910 283424.160000
   6820   6822     1   0.10910 283424.160000
   6823   6824     1   0.10969 276646.080000
   6823   6825     1   0.10969 276646.080000
   6826   6827     1   0.10969 276646.080000
   6826   6828     1   0.10969 276646.080000
   6829   6830     1   0.10304 312293.760000
   6829   6831     1   0.10304 312293.760000
   6829   6833     1   0.10304 312293.760000
   6834   6835     1   0.10910 283424.160000
   6834   6836     1   0.10910 283424.160000
   6837   6838     1   0.10969 276646.080000
   6837   6839     1   0.10969 276646.080000
   6840   6841     1   0.10969 276646.080000
   6840   6842     1   0.10969 276646.080000
   6843   6844     1   0.10304 312293.760000
   6843   6845     1   0.10304 312293.760000
   6843   6847     1   0.10304 312293.760000
   6848   6849     1   0.10910 283424.160000
   6848   6850     1   0.10910 283424.160000
   6851   6852     1   0.10969 276646.080000
   6851   6853     1   0.10969 276646.080000
   6854   6855     1   0.10969 276646.080000
   6854   6856     1   0.10969 276646.080000
   6857   6858     1   0.10304 312293.760000
   6857   6859     1   0.10304 312293.760000
   6857   6861     1   0.10304 312293.760000
   6862   6863     1   0.10910 283424.160000
   6862   6864     1   0.10910 283424.160000
   6865   6866     1   0.10969 276646.080000
   6865   6867     1   0.10969 276646.080000
   6868   6869     1   0.10969 276646.080000
   6868   6870     1   0.10969 276646.080000
   6871   6872     1   0.10304 312293.760000
   6871   6873     1   0.10304 312293.760000
   6871   6875     1   0.10304 312293.760000
   6876   6877     1   0.10910 283424.160000
   6876   6878     1   0.10910 283424.160000
   6879   6880     1   0.10969 276646.080000
   6879   6881     1   0.10969 276646.080000
   6882   6883     1   0.10969 276646.080000
   6882   6884     1   0.10969 276646.080000
   6885   6886     1   0.10304 312293.760000
   6885   6887     1   0.10304 312293.760000
   6885   6889     1   0.10304 312293.760000
   6890   6891     1   0.10910 283424.160000
   6890   6892     1   0.10910 283424.160000
   6893   6894     1   0.10969 276646.080000
   6893   6895     1   0.10969 276646.080000
   6896   6897     1   0.10969 276646.080000
   6896   6898     1   0.10969 276646.080000
   6899   6900     1   0.10304 312293.760000
   6899   6901     1   0.10304 312293.760000
   6899   6903     1   0.10304 312293.760000
   6904   6905     1   0.10910 283424.160000
   6904   6906     1   0.10910 283424.160000
   6907   6908     1   0.10969 276646.080000
   6907   6909     1   0.10969 276646.080000
   6910   6911     1   0.10969 276646.080000
   6910   6912     1   0.10969 276646.080000
   6913   6914     1   0.10304 312293.760000
   6913   6915     1   0.10304 312293.760000
   6913   6917     1   0.10304 312293.760000
   6918   6919     1   0.10910 283424.160000
   6918   6920     1   0.10910 283424.160000
   6921   6922     1   0.10969 276646.080000
   6921   6923     1   0.10969 276646.080000
   6924   6925     1   0.10969 276646.080000
   6924   6926     1   0.10969 276646.080000
   6927   6928     1   0.10304 312293.760000
   6927   6929     1   0.10304 312293.760000
   6927   6931     1   0.10304 312293.760000
   6932   6933     1   0.10910 283424.160000
   6932   6934     1   0.10910 283424.160000
   6935   6936     1   0.10969 276646.080000
   6935   6937     1   0.10969 276646.080000
   6938   6939     1   0.10969 276646.080000
   6938   6940     1   0.10969 276646.080000
   6941   6942     1   0.10304 312293.760000
   6941   6943     1   0.10304 312293.760000
   6941   6945     1   0.10304 312293.760000
   6946   6947     1   0.10910 283424.160000
   6946   6948     1   0.10910 283424.160000
   6949   6950     1   0.10969 276646.080000
   6949   6951     1   0.10969 276646.080000
   6952   6953     1   0.10969 276646.080000
   6952   6954     1   0.10969 276646.080000
   6955   6956     1   0.10304 312293.760000
   6955   6957     1   0.10304 312293.760000
   6955   6959     1   0.10304 312293.760000
   6960   6961     1   0.10910 283424.160000
   6960   6962     1   0.10910 283424.160000
   6963   6964     1   0.10969 276646.080000
   6963   6965     1   0.10969 276646.080000
   6966   6967     1   0.10969 276646.080000
   6966   6968     1   0.10969 276646.080000
   6969   6970     1   0.10304 312293.760000
   6969   6971     1   0.10304 312293.760000
   6969   6973     1   0.10304 312293.760000
   6974   6975     1   0.10910 283424.160000
   6974   6976     1   0.10910 283424.160000
   6977   6978     1   0.10969 276646.080000
   6977   6979     1   0.10969 276646.080000
   6980   6981     1   0.10969 276646.080000
   6980   6982     1   0.10969 276646.080000
   6983   6984     1   0.10304 312293.760000
   6983   6985     1   0.10304 312293.760000
   6983   6987     1   0.10304 312293.760000
   6988   6989     1   0.10910 283424.160000
   6988   6990     1   0.10910 283424.160000
   6991   6992     1   0.10969 276646.080000
   6991   6993     1   0.10969 276646.080000
   6994   6995     1   0.10969 276646.080000
   6994   6996     1   0.10969 276646.080000
   6997   6998     1   0.10304 312293.760000
   6997   6999     1   0.10304 312293.760000
   6997   7001     1   0.10304 312293.760000
   7002   7003     1   0.10910 283424.160000
   7002   7004     1   0.10910 283424.160000
   7005   7006     1   0.10969 276646.080000
   7005   7007     1   0.10969 276646.080000
   7008   7009     1   0.10969 276646.080000
   7008   7010     1   0.10969 276646.080000
   7011   7012     1   0.10304 312293.760000
   7011   7013     1   0.10304 312293.760000
   7011   7015     1   0.10304 312293.760000
   7016   7017     1   0.10910 283424.160000
   7016   7018     1   0.10910 283424.160000
   7019   7020     1   0.10969 276646.080000
   7019   7021     1   0.10969 276646.080000
   7022   7023     1   0.10969 276646.080000
   7022   7024     1   0.10969 276646.080000
   7025   7026     1   0.10304 312293.760000
   7025   7027     1   0.10304 312293.760000
   7025   7029     1   0.10304 312293.760000
   7030   7031     1   0.10910 283424.160000
   7030   7032     1   0.10910 283424.160000
   7033   7034     1   0.10969 276646.080000
   7033   7035     1   0.10969 276646.080000
   7036   7037     1   0.10969 276646.080000
   7036   7038     1   0.10969 276646.080000
   7039   7040     1   0.10304 312293.760000
   7039   7041     1   0.10304 312293.760000
   7039   7043     1   0.10304 312293.760000
   7044   7045     1   0.10910 283424.160000
   7044   7046     1   0.10910 283424.160000
   7047   7048     1   0.10969 276646.080000
   7047   7049     1   0.10969 276646.080000
   7050   7051     1   0.10969 276646.080000
   7050   7052     1   0.10969 276646.080000
   7053   7054     1   0.10304 312293.760000
   7053   7055     1   0.10304 312293.760000
   7053   7057     1   0.10304 312293.760000
   7058   7059     1   0.10910 283424.160000
   7058   7060     1   0.10910 283424.160000
   7061   7062     1   0.10969 276646.080000
   7061   7063     1   0.10969 276646.080000
   7064   7065     1   0.10969 276646.080000
   7064   7066     1   0.10969 276646.080000
   7067   7068     1   0.10304 312293.760000
   7067   7069     1   0.10304 312293.760000
   7067   7071     1   0.10304 312293.760000
   7072   7073     1   0.10910 283424.160000
   7072   7074     1   0.10910 283424.160000
   7075   7076     1   0.10969 276646.080000
   7075   7077     1   0.10969 276646.080000
   7078   7079     1   0.10969 276646.080000
   7078   7080     1   0.10969 276646.080000
   7081   7082     1   0.10304 312293.760000
   7081   7083     1   0.10304 312293.760000
   7081   7085     1   0.10304 312293.760000
   7086   7087     1   0.10910 283424.160000
   7086   7088     1   0.10910 283424.160000
   7089   7090     1   0.10969 276646.080000
   7089   7091     1   0.10969 276646.080000
   7092   7093     1   0.10969 276646.080000
   7092   7094     1   0.10969 276646.080000
   7095   7096     1   0.10304 312293.760000
   7095   7097     1   0.10304 312293.760000
   7095   7099     1   0.10304 312293.760000
   7100   7101     1   0.10910 283424.160000
   7100   7102     1   0.10910 283424.160000
   7103   7104     1   0.10969 276646.080000
   7103   7105     1   0.10969 276646.080000
   7106   7107     1   0.10969 276646.080000
   7106   7108     1   0.10969 276646.080000
   7109   7110     1   0.10304 312293.760000
   7109   7111     1   0.10304 312293.760000
   7109   7113     1   0.10304 312293.760000
   7114   7115     1   0.10910 283424.160000
   7114   7116     1   0.10910 283424.160000
   7117   7118     1   0.10969 276646.080000
   7117   7119     1   0.10969 276646.080000
   7120   7121     1   0.10969 276646.080000
   7120   7122     1   0.10969 276646.080000
   7123   7124     1   0.10304 312293.760000
   7123   7125     1   0.10304 312293.760000
   7123   7127     1   0.10304 312293.760000
   7128   7129     1   0.10910 283424.160000
   7128   7130     1   0.10910 283424.160000
   7131   7132     1   0.10969 276646.080000
   7131   7133     1   0.10969 276646.080000
   7134   7135     1   0.10969 276646.080000
   7134   7136     1   0.10969 276646.080000
   7137   7138     1   0.10304 312293.760000
   7137   7139     1   0.10304 312293.760000
   7137   7141     1   0.10304 312293.760000
   7142   7143     1   0.10910 283424.160000
   7142   7144     1   0.10910 283424.160000
   7145   7146     1   0.10969 276646.080000
   7145   7147     1   0.10969 276646.080000
   7148   7149     1   0.10969 276646.080000
   7148   7150     1   0.10969 276646.080000
   7151   7152     1   0.10304 312293.760000
   7151   7153     1   0.10304 312293.760000
   7151   7155     1   0.10304 312293.760000
   7156   7157     1   0.10910 283424.160000
   7156   7158     1   0.10910 283424.160000
   7159   7160     1   0.10969 276646.080000
   7159   7161     1   0.10969 276646.080000
   7162   7163     1   0.10969 276646.080000
   7162   7164     1   0.10969 276646.080000
   7165   7166     1   0.10304 312293.760000
   7165   7167     1   0.10304 312293.760000
   7165   7169     1   0.10304 312293.760000
   7170   7171     1   0.10910 283424.160000
   7170   7172     1   0.10910 283424.160000
   7173   7174     1   0.10969 276646.080000
   7173   7175     1   0.10969 276646.080000
   7176   7177     1   0.10969 276646.080000
   7176   7178     1   0.10969 276646.080000
   7179   7180     1   0.10304 312293.760000
   7179   7181     1   0.10304 312293.760000
   7179   7183     1   0.10304 312293.760000
   7184   7185     1   0.10910 283424.160000
   7184   7186     1   0.10910 283424.160000
   7187   7188     1   0.10969 276646.080000
   7187   7189     1   0.10969 276646.080000
   7190   7191     1   0.10969 276646.080000
   7190   7192     1   0.10969 276646.080000
   7193   7194     1   0.10304 312293.760000
   7193   7195     1   0.10304 312293.760000
   7193   7197     1   0.10304 312293.760000
   7198   7199     1   0.10910 283424.160000
   7198   7200     1   0.10910 283424.160000
   7201   7202     1   0.10969 276646.080000
   7201   7203     1   0.10969 276646.080000
   7204   7205     1   0.10969 276646.080000
   7204   7206     1   0.10969 276646.080000
   7207   7208     1   0.10304 312293.760000
   7207   7209     1   0.10304 312293.760000
   7207   7211     1   0.10304 312293.760000
   7212   7213     1   0.10910 283424.160000
   7212   7214     1   0.10910 283424.160000
   7215   7216     1   0.10969 276646.080000
   7215   7217     1   0.10969 276646.080000
   7218   7219     1   0.10969 276646.080000
   7218   7220     1   0.10969 276646.080000
   7221   7222     1   0.10304 312293.760000
   7221   7223     1   0.10304 312293.760000
   7221   7225     1   0.10304 312293.760000
   7226   7227     1   0.10910 283424.160000
   7226   7228     1   0.10910 283424.160000
   7229   7230     1   0.10969 276646.080000
   7229   7231     1   0.10969 276646.080000
   7232   7233     1   0.10969 276646.080000
   7232   7234     1   0.10969 276646.080000
   7235   7236     1   0.10304 312293.760000
   7235   7237     1   0.10304 312293.760000
   7235   7239     1   0.10304 312293.760000
   7240   7241     1   0.10910 283424.160000
   7240   7242     1   0.10910 283424.160000
   7243   7244     1   0.10969 276646.080000
   7243   7245     1   0.10969 276646.080000
   7246   7247     1   0.10969 276646.080000
   7246   7248     1   0.10969 276646.080000
   7249   7250     1   0.10304 312293.760000
   7249   7251     1   0.10304 312293.760000
   7249   7253     1   0.10304 312293.760000
   7254   7255     1   0.10910 283424.160000
   7254   7256     1   0.10910 283424.160000
   7257   7258     1   0.10969 276646.080000
   7257   7259     1   0.10969 276646.080000
   7260   7261     1   0.10969 276646.080000
   7260   7262     1   0.10969 276646.080000
   7263   7264     1   0.10304 312293.760000
   7263   7265     1   0.10304 312293.760000
   7263   7267     1   0.10304 312293.760000
   7268   7269     1   0.10910 283424.160000
   7268   7270     1   0.10910 283424.160000
   7271   7272     1   0.10969 276646.080000
   7271   7273     1   0.10969 276646.080000
   7274   7275     1   0.10969 276646.080000
   7274   7276     1   0.10969 276646.080000
   7277   7278     1   0.10304 312293.760000
   7277   7279     1   0.10304 312293.760000
   7277   7281     1   0.10304 312293.760000
   7282   7283     1   0.10910 283424.160000
   7282   7284     1   0.10910 283424.160000
   7285   7286     1   0.10969 276646.080000
   7285   7287     1   0.10969 276646.080000
   7288   7289     1   0.10969 276646.080000
   7288   7290     1   0.10969 276646.080000
   7291   7292     1   0.10304 312293.760000
   7291   7293     1   0.10304 312293.760000
   7291   7295     1   0.10304 312293.760000
   7296   7297     1   0.10910 283424.160000
   7296   7298     1   0.10910 283424.160000
   7299   7300     1   0.10969 276646.080000
   7299   7301     1   0.10969 276646.080000
   7302   7303     1   0.10969 276646.080000
   7302   7304     1   0.10969 276646.080000
   7305   7306     1   0.10304 312293.760000
   7305   7307     1   0.10304 312293.760000
   7305   7309     1   0.10304 312293.760000
   7310   7311     1   0.10910 283424.160000
   7310   7312     1   0.10910 283424.160000
   7313   7314     1   0.10969 276646.080000
   7313   7315     1   0.10969 276646.080000
   7316   7317     1   0.10969 276646.080000
   7316   7318     1   0.10969 276646.080000
   7319   7320     1   0.10304 312293.760000
   7319   7321     1   0.10304 312293.760000
   7319   7323     1   0.10304 312293.760000
   7324   7325     1   0.10910 283424.160000
   7324   7326     1   0.10910 283424.160000
   7327   7328     1   0.10969 276646.080000
   7327   7329     1   0.10969 276646.080000
   7330   7331     1   0.10969 276646.080000
   7330   7332     1   0.10969 276646.080000
   7333   7334     1   0.10304 312293.760000
   7333   7335     1   0.10304 312293.760000
   7333   7337     1   0.10304 312293.760000
   7338   7339     1   0.10910 283424.160000
   7338   7340     1   0.10910 283424.160000
   7341   7342     1   0.10969 276646.080000
   7341   7343     1   0.10969 276646.080000
   7344   7345     1   0.10969 276646.080000
   7344   7346     1   0.10969 276646.080000
   7347   7348     1   0.10304 312293.760000
   7347   7349     1   0.10304 312293.760000
   7347   7351     1   0.10304 312293.760000
   7352   7353     1   0.10910 283424.160000
   7352   7354     1   0.10910 283424.160000
   7355   7356     1   0.10969 276646.080000
   7355   7357     1   0.10969 276646.080000
   7358   7359     1   0.10969 276646.080000
   7358   7360     1   0.10969 276646.080000
   7361   7362     1   0.10304 312293.760000
   7361   7363     1   0.10304 312293.760000
   7361   7365     1   0.10304 312293.760000
   7366   7367     1   0.10910 283424.160000
   7366   7368     1   0.10910 283424.160000
   7369   7370     1   0.10969 276646.080000
   7369   7371     1   0.10969 276646.080000
   7372   7373     1   0.10969 276646.080000
   7372   7374     1   0.10969 276646.080000
   7375   7376     1   0.10304 312293.760000
   7375   7377     1   0.10304 312293.760000
   7375   7379     1   0.10304 312293.760000
   7380   7381     1   0.10910 283424.160000
   7380   7382     1   0.10910 283424.160000
   7383   7384     1   0.10969 276646.080000
   7383   7385     1   0.10969 276646.080000
   7386   7387     1   0.10969 276646.080000
   7386   7388     1   0.10969 276646.080000
   7389   7390     1   0.10304 312293.760000
   7389   7391     1   0.10304 312293.760000
   7389   7393     1   0.10304 312293.760000
   7394   7395     1   0.10910 283424.160000
   7394   7396     1   0.10910 283424.160000
   7397   7398     1   0.10969 276646.080000
   7397   7399     1   0.10969 276646.080000
   7400   7401     1   0.10969 276646.080000
   7400   7402     1   0.10969 276646.080000
   7403   7404     1   0.10304 312293.760000
   7403   7405     1   0.10304 312293.760000
   7403   7407     1   0.10304 312293.760000
   7408   7409     1   0.10910 283424.160000
   7408   7410     1   0.10910 283424.160000
   7411   7412     1   0.10969 276646.080000
   7411   7413     1   0.10969 276646.080000
   7414   7415     1   0.10969 276646.080000
   7414   7416     1   0.10969 276646.080000
   7417   7418     1   0.10304 312293.760000
   7417   7419     1   0.10304 312293.760000
   7417   7421     1   0.10304 312293.760000
   7422   7423     1   0.10910 283424.160000
   7422   7424     1   0.10910 283424.160000
   7425   7426     1   0.10969 276646.080000
   7425   7427     1   0.10969 276646.080000
   7428   7429     1   0.10969 276646.080000
   7428   7430     1   0.10969 276646.080000
   7431   7432     1   0.10304 312293.760000
   7431   7433     1   0.10304 312293.760000
   7431   7435     1   0.10304 312293.760000
   7436   7437     1   0.10910 283424.160000
   7436   7438     1   0.10910 283424.160000
   7439   7440     1   0.10969 276646.080000
   7439   7441     1   0.10969 276646.080000
   7442   7443     1   0.10969 276646.080000
   7442   7444     1   0.10969 276646.080000
   7445   7446     1   0.10304 312293.760000
   7445   7447     1   0.10304 312293.760000
   7445   7449     1   0.10304 312293.760000
   7450   7451     1   0.10910 283424.160000
   7450   7452     1   0.10910 283424.160000
   7453   7454     1   0.10969 276646.080000
   7453   7455     1   0.10969 276646.080000
   7456   7457     1   0.10969 276646.080000
   7456   7458     1   0.10969 276646.080000
   7459   7460     1   0.10304 312293.760000
   7459   7461     1   0.10304 312293.760000
   7459   7463     1   0.10304 312293.760000
   7464   7465     1   0.10910 283424.160000
   7464   7466     1   0.10910 283424.160000
   7467   7468     1   0.10969 276646.080000
   7467   7469     1   0.10969 276646.080000
   7470   7471     1   0.10969 276646.080000
   7470   7472     1   0.10969 276646.080000
   7473   7474     1   0.10304 312293.760000
   7473   7475     1   0.10304 312293.760000
   7473   7477     1   0.10304 312293.760000
   7478   7479     1   0.10910 283424.160000
   7478   7480     1   0.10910 283424.160000
   7481   7482     1   0.10969 276646.080000
   7481   7483     1   0.10969 276646.080000
   7484   7485     1   0.10969 276646.080000
   7484   7486     1   0.10969 276646.080000
   7487   7488     1   0.10304 312293.760000
   7487   7489     1   0.10304 312293.760000
   7487   7491     1   0.10304 312293.760000
   7492   7493     1   0.10910 283424.160000
   7492   7494     1   0.10910 283424.160000
   7495   7496     1   0.10969 276646.080000
   7495   7497     1   0.10969 276646.080000
   7498   7499     1   0.10969 276646.080000
   7498   7500     1   0.10969 276646.080000
   7501   7502     1   0.10304 312293.760000
   7501   7503     1   0.10304 312293.760000
   7501   7505     1   0.10304 312293.760000
   7506   7507     1   0.10910 283424.160000
   7506   7508     1   0.10910 283424.160000
   7509   7510     1   0.10969 276646.080000
   7509   7511     1   0.10969 276646.080000
   7512   7513     1   0.10969 276646.080000
   7512   7514     1   0.10969 276646.080000
   7515   7516     1   0.10304 312293.760000
   7515   7517     1   0.10304 312293.760000
   7515   7519     1   0.10304 312293.760000
   7520   7521     1   0.10910 283424.160000
   7520   7522     1   0.10910 283424.160000
   7523   7524     1   0.10969 276646.080000
   7523   7525     1   0.10969 276646.080000
   7526   7527     1   0.10969 276646.080000
   7526   7528     1   0.10969 276646.080000
   7529   7530     1   0.10304 312293.760000
   7529   7531     1   0.10304 312293.760000
   7529   7533     1   0.10304 312293.760000
   7534   7535     1   0.10910 283424.160000
   7534   7536     1   0.10910 283424.160000
   7537   7538     1   0.10969 276646.080000
   7537   7539     1   0.10969 276646.080000
   7540   7541     1   0.10969 276646.080000
   7540   7542     1   0.10969 276646.080000
   7543   7544     1   0.10304 312293.760000
   7543   7545     1   0.10304 312293.760000
   7543   7547     1   0.10304 312293.760000
   7548   7549     1   0.10910 283424.160000
   7548   7550     1   0.10910 283424.160000
   7551   7552     1   0.10969 276646.080000
   7551   7553     1   0.10969 276646.080000
   7554   7555     1   0.10969 276646.080000
   7554   7556     1   0.10969 276646.080000
   7557   7558     1   0.10304 312293.760000
   7557   7559     1   0.10304 312293.760000
   7557   7561     1   0.10304 312293.760000
   7562   7563     1   0.10910 283424.160000
   7562   7564     1   0.10910 283424.160000
   7565   7566     1   0.10969 276646.080000
   7565   7567     1   0.10969 276646.080000
   7568   7569     1   0.10969 276646.080000
   7568   7570     1   0.10969 276646.080000
   7571   7572     1   0.10304 312293.760000
   7571   7573     1   0.10304 312293.760000
   7571   7575     1   0.10304 312293.760000
   7576   7577     1   0.10910 283424.160000
   7576   7578     1   0.10910 283424.160000
   7579   7580     1   0.10969 276646.080000
   7579   7581     1   0.10969 276646.080000
   7582   7583     1   0.10969 276646.080000
   7582   7584     1   0.10969 276646.080000
   7585   7586     1   0.10304 312293.760000
   7585   7587     1   0.10304 312293.760000
   7585   7589     1   0.10304 312293.760000
   7590   7591     1   0.10910 283424.160000
   7590   7592     1   0.10910 283424.160000
   7593   7594     1   0.10969 276646.080000
   7593   7595     1   0.10969 276646.080000
   7596   7597     1   0.10969 276646.080000
   7596   7598     1   0.10969 276646.080000
   7599   7600     1   0.10304 312293.760000
   7599   7601     1   0.10304 312293.760000
   7599   7603     1   0.10304 312293.760000
   7604   7605     1   0.10910 283424.160000
   7604   7606     1   0.10910 283424.160000
   7607   7608     1   0.10969 276646.080000
   7607   7609     1   0.10969 276646.080000
   7610   7611     1   0.10969 276646.080000
   7610   7612     1   0.10969 276646.080000
   7613   7614     1   0.10304 312293.760000
   7613   7615     1   0.10304 312293.760000
   7613   7617     1   0.10304 312293.760000
   7618   7619     1   0.10910 283424.160000
   7618   7620     1   0.10910 283424.160000
   7621   7622     1   0.10969 276646.080000
   7621   7623     1   0.10969 276646.080000
   7624   7625     1   0.10969 276646.080000
   7624   7626     1   0.10969 276646.080000
   7627   7628     1   0.10304 312293.760000
   7627   7629     1   0.10304 312293.760000
   7627   7631     1   0.10304 312293.760000
   7632   7633     1   0.10910 283424.160000
   7632   7634     1   0.10910 283424.160000
   7635   7636     1   0.10969 276646.080000
   7635   7637     1   0.10969 276646.080000
   7638   7639     1   0.10969 276646.080000
   7638   7640     1   0.10969 276646.080000
   7641   7642     1   0.10304 312293.760000
   7641   7643     1   0.10304 312293.760000
   7641   7645     1   0.10304 312293.760000
   7646   7647     1   0.10910 283424.160000
   7646   7648     1   0.10910 283424.160000
   7649   7650     1   0.10969 276646.080000
   7649   7651     1   0.10969 276646.080000
   7652   7653     1   0.10969 276646.080000
   7652   7654     1   0.10969 276646.080000
   7655   7656     1   0.10304 312293.760000
   7655   7657     1   0.10304 312293.760000
   7655   7659     1   0.10304 312293.760000
   7660   7661     1   0.10910 283424.160000
   7660   7662     1   0.10910 283424.160000
   7663   7664     1   0.10969 276646.080000
   7663   7665     1   0.10969 276646.080000
   7666   7667     1   0.10969 276646.080000
   7666   7668     1   0.10969 276646.080000
   7669   7670     1   0.10304 312293.760000
   7669   7671     1   0.10304 312293.760000
   7669   7673     1   0.10304 312293.760000
   7674   7675     1   0.10910 283424.160000
   7674   7676     1   0.10910 283424.160000
   7677   7678     1   0.10969 276646.080000
   7677   7679     1   0.10969 276646.080000
   7680   7681     1   0.10969 276646.080000
   7680   7682     1   0.10969 276646.080000
   7683   7684     1   0.10304 312293.760000
   7683   7685     1   0.10304 312293.760000
   7683   7687     1   0.10304 312293.760000
   7688   7689     1   0.10910 283424.160000
   7688   7690     1   0.10910 283424.160000
   7691   7692     1   0.10969 276646.080000
   7691   7693     1   0.10969 276646.080000
   7694   7695     1   0.10969 276646.080000
   7694   7696     1   0.10969 276646.080000
   7697   7698     1   0.10304 312293.760000
   7697   7699     1   0.10304 312293.760000
   7697   7701     1   0.10304 312293.760000
   7702   7703     1   0.10910 283424.160000
   7702   7704     1   0.10910 283424.160000
   7705   7706     1   0.10969 276646.080000
   7705   7707     1   0.10969 276646.080000
   7708   7709     1   0.10969 276646.080000
   7708   7710     1   0.10969 276646.080000
   7711   7712     1   0.10304 312293.760000
   7711   7713     1   0.10304 312293.760000
   7711   7715     1   0.10304 312293.760000
   7716   7717     1   0.10910 283424.160000
   7716   7718     1   0.10910 283424.160000
   7719   7720     1   0.10969 276646.080000
   7719   7721     1   0.10969 276646.080000
   7722   7723     1   0.10969 276646.080000
   7722   7724     1   0.10969 276646.080000
   7725   7726     1   0.10304 312293.760000
   7725   7727     1   0.10304 312293.760000
   7725   7729     1   0.10304 312293.760000
   7730   7731     1   0.10910 283424.160000
   7730   7732     1   0.10910 283424.160000
   7733   7734     1   0.10969 276646.080000
   7733   7735     1   0.10969 276646.080000
   7736   7737     1   0.10969 276646.080000
   7736   7738     1   0.10969 276646.080000
   7739   7740     1   0.10304 312293.760000
   7739   7741     1   0.10304 312293.760000
   7739   7743     1   0.10304 312293.760000
   7744   7745     1   0.10910 283424.160000
   7744   7746     1   0.10910 283424.160000
   7747   7748     1   0.10969 276646.080000
   7747   7749     1   0.10969 276646.080000
   7750   7751     1   0.10969 276646.080000
   7750   7752     1   0.10969 276646.080000
   7753   7754     1   0.10304 312293.760000
   7753   7755     1   0.10304 312293.760000
   7753   7757     1   0.10304 312293.760000
   7758   7759     1   0.10910 283424.160000
   7758   7760     1   0.10910 283424.160000
   7761   7762     1   0.10969 276646.080000
   7761   7763     1   0.10969 276646.080000
   7764   7765     1   0.10969 276646.080000
   7764   7766     1   0.10969 276646.080000
   7767   7768     1   0.10304 312293.760000
   7767   7769     1   0.10304 312293.760000
   7767   7771     1   0.10304 312293.760000
   7772   7773     1   0.10910 283424.160000
   7772   7774     1   0.10910 283424.160000
   7775   7776     1   0.10969 276646.080000
   7775   7777     1   0.10969 276646.080000
   7778   7779     1   0.10969 276646.080000
   7778   7780     1   0.10969 276646.080000
   7781   7782     1   0.10304 312293.760000
   7781   7783     1   0.10304 312293.760000
   7781   7785     1   0.10304 312293.760000
   7786   7787     1   0.10910 283424.160000
   7786   7788     1   0.10910 283424.160000
   7789   7790     1   0.10969 276646.080000
   7789   7791     1   0.10969 276646.080000
   7792   7793     1   0.10969 276646.080000
   7792   7794     1   0.10969 276646.080000
   7795   7796     1   0.10304 312293.760000
   7795   7797     1   0.10304 312293.760000
   7795   7799     1   0.10304 312293.760000
   7800   7801     1   0.10910 283424.160000
   7800   7802     1   0.10910 283424.160000
   7803   7804     1   0.10969 276646.080000
   7803   7805     1   0.10969 276646.080000
   7806   7807     1   0.10969 276646.080000
   7806   7808     1   0.10969 276646.080000
   7809   7810     1   0.10304 312293.760000
   7809   7811     1   0.10304 312293.760000
   7809   7813     1   0.10304 312293.760000
   7814   7815     1   0.10910 283424.160000
   7814   7816     1   0.10910 283424.160000
   7817   7818     1   0.10969 276646.080000
   7817   7819     1   0.10969 276646.080000
   7820   7821     1   0.10969 276646.080000
   7820   7822     1   0.10969 276646.080000
   7823   7824     1   0.10304 312293.760000
   7823   7825     1   0.10304 312293.760000
   7823   7827     1   0.10304 312293.760000
   7828   7829     1   0.10910 283424.160000
   7828   7830     1   0.10910 283424.160000
   7831   7832     1   0.10969 276646.080000
   7831   7833     1   0.10969 276646.080000
   7834   7835     1   0.10969 276646.080000
   7834   7836     1   0.10969 276646.080000
   7837   7838     1   0.10304 312293.760000
   7837   7839     1   0.10304 312293.760000
   7837   7841     1   0.10304 312293.760000
   7842   7843     1   0.10910 283424.160000
   7842   7844     1   0.10910 283424.160000
   7845   7846     1   0.10969 276646.080000
   7845   7847     1   0.10969 276646.080000
   7848   7849     1   0.10969 276646.080000
   7848   7850     1   0.10969 276646.080000
   7851   7852     1   0.10304 312293.760000
   7851   7853     1   0.10304 312293.760000
   7851   7855     1   0.10304 312293.760000
   7856   7857     1   0.10910 283424.160000
   7856   7858     1   0.10910 283424.160000
   7859   7860     1   0.10969 276646.080000
   7859   7861     1   0.10969 276646.080000
   7862   7863     1   0.10969 276646.080000
   7862   7864     1   0.10969 276646.080000
   7865   7866     1   0.10304 312293.760000
   7865   7867     1   0.10304 312293.760000
   7865   7869     1   0.10304 312293.760000
   7870   7871     1   0.10910 283424.160000
   7870   7872     1   0.10910 283424.160000
   7873   7874     1   0.10969 276646.080000
   7873   7875     1   0.10969 276646.080000
   7876   7877     1   0.10969 276646.080000
   7876   7878     1   0.10969 276646.080000
   7879   7880     1   0.10304 312293.760000
   7879   7881     1   0.10304 312293.760000
   7879   7883     1   0.10304 312293.760000
   7884   7885     1   0.10910 283424.160000
   7884   7886     1   0.10910 283424.160000
   7887   7888     1   0.10969 276646.080000
   7887   7889     1   0.10969 276646.080000
   7890   7891     1   0.10969 276646.080000
   7890   7892     1   0.10969 276646.080000
   7893   7894     1   0.10304 312293.760000
   7893   7895     1   0.10304 312293.760000
   7893   7897     1   0.10304 312293.760000
   7898   7899     1   0.10910 283424.160000
   7898   7900     1   0.10910 283424.160000
   7901   7902     1   0.10969 276646.080000
   7901   7903     1   0.10969 276646.080000
   7904   7905     1   0.10969 276646.080000
   7904   7906     1   0.10969 276646.080000
   7907   7908     1   0.10304 312293.760000
   7907   7909     1   0.10304 312293.760000
   7907   7911     1   0.10304 312293.760000
   7912   7913     1   0.10910 283424.160000
   7912   7914     1   0.10910 283424.160000
   7915   7916     1   0.10969 276646.080000
   7915   7917     1   0.10969 276646.080000
   7918   7919     1   0.10969 276646.080000
   7918   7920     1   0.10969 276646.080000
   7921   7922     1   0.10304 312293.760000
   7921   7923     1   0.10304 312293.760000
   7921   7925     1   0.10304 312293.760000
   7926   7927     1   0.10910 283424.160000
   7926   7928     1   0.10910 283424.160000
   7929   7930     1   0.10969 276646.080000
   7929   7931     1   0.10969 276646.080000
   7932   7933     1   0.10969 276646.080000
   7932   7934     1   0.10969 276646.080000
   7935   7936     1   0.10304 312293.760000
   7935   7937     1   0.10304 312293.760000
   7935   7939     1   0.10304 312293.760000
   7940   7941     1   0.10910 283424.160000
   7940   7942     1   0.10910 283424.160000
   7943   7944     1   0.10969 276646.080000
   7943   7945     1   0.10969 276646.080000
   7946   7947     1   0.10969 276646.080000
   7946   7948     1   0.10969 276646.080000
   7949   7950     1   0.10304 312293.760000
   7949   7951     1   0.10304 312293.760000
   7949   7953     1   0.10304 312293.760000
   7954   7955     1   0.10910 283424.160000
   7954   7956     1   0.10910 283424.160000
   7957   7958     1   0.10969 276646.080000
   7957   7959     1   0.10969 276646.080000
   7960   7961     1   0.10969 276646.080000
   7960   7962     1   0.10969 276646.080000
   7963   7964     1   0.10304 312293.760000
   7963   7965     1   0.10304 312293.760000
   7963   7967     1   0.10304 312293.760000
   7968   7969     1   0.10910 283424.160000
   7968   7970     1   0.10910 283424.160000
   7971   7972     1   0.10969 276646.080000
   7971   7973     1   0.10969 276646.080000
   7974   7975     1   0.10969 276646.080000
   7974   7976     1   0.10969 276646.080000
   7977   7978     1   0.10304 312293.760000
   7977   7979     1   0.10304 312293.760000
   7977   7981     1   0.10304 312293.760000
   7982   7983     1   0.10910 283424.160000
   7982   7984     1   0.10910 283424.160000
   7985   7986     1   0.10969 276646.080000
   7985   7987     1   0.10969 276646.080000
   7988   7989     1   0.10969 276646.080000
   7988   7990     1   0.10969 276646.080000
   7991   7992     1   0.10304 312293.760000
   7991   7993     1   0.10304 312293.760000
   7991   7995     1   0.10304 312293.760000
   7996   7997     1   0.10910 283424.160000
   7996   7998     1   0.10910 283424.160000
   7999   8000     1   0.10969 276646.080000
   7999   8001     1   0.10969 276646.080000
   8002   8003     1   0.10969 276646.080000
   8002   8004     1   0.10969 276646.080000
   8005   8006     1   0.10304 312293.760000
   8005   8007     1   0.10304 312293.760000
   8005   8009     1   0.10304 312293.760000
   8010   8011     1   0.10910 283424.160000
   8010   8012     1   0.10910 283424.160000
   8013   8014     1   0.10969 276646.080000
   8013   8015     1   0.10969 276646.080000
   8016   8017     1   0.10969 276646.080000
   8016   8018     1   0.10969 276646.080000
   8019   8020     1   0.10304 312293.760000
   8019   8021     1   0.10304 312293.760000
   8019   8023     1   0.10304 312293.760000
   8024   8025     1   0.10910 283424.160000
   8024   8026     1   0.10910 283424.160000
   8027   8028     1   0.10969 276646.080000
   8027   8029     1   0.10969 276646.080000
   8030   8031     1   0.10969 276646.080000
   8030   8032     1   0.10969 276646.080000
   8033   8034     1   0.10304 312293.760000
   8033   8035     1   0.10304 312293.760000
   8033   8037     1   0.10304 312293.760000
   8038   8039     1   0.10910 283424.160000
   8038   8040     1   0.10910 283424.160000
   8041   8042     1   0.10969 276646.080000
   8041   8043     1   0.10969 276646.080000
   8044   8045     1   0.10969 276646.080000
   8044   8046     1   0.10969 276646.080000
   8047   8048     1   0.10304 312293.760000
   8047   8049     1   0.10304 312293.760000
   8047   8051     1   0.10304 312293.760000
   8052   8053     1   0.10910 283424.160000
   8052   8054     1   0.10910 283424.160000
   8055   8056     1   0.10969 276646.080000
   8055   8057     1   0.10969 276646.080000
   8058   8059     1   0.10969 276646.080000
   8058   8060     1   0.10969 276646.080000
   8061   8062     1   0.10304 312293.760000
   8061   8063     1   0.10304 312293.760000
   8061   8065     1   0.10304 312293.760000
   8066   8067     1   0.10910 283424.160000
   8066   8068     1   0.10910 283424.160000
   8069   8070     1   0.10969 276646.080000
   8069   8071     1   0.10969 276646.080000
   8072   8073     1   0.10969 276646.080000
   8072   8074     1   0.10969 276646.080000
   8075   8076     1   0.10304 312293.760000
   8075   8077     1   0.10304 312293.760000
   8075   8079     1   0.10304 312293.760000
   8080   8081     1   0.10910 283424.160000
   8080   8082     1   0.10910 283424.160000
   8083   8084     1   0.10969 276646.080000
   8083   8085     1   0.10969 276646.080000
   8086   8087     1   0.10969 276646.080000
   8086   8088     1   0.10969 276646.080000
   8089   8090     1   0.10304 312293.760000
   8089   8091     1   0.10304 312293.760000
   8089   8093     1   0.10304 312293.760000
   8094   8095     1   0.10910 283424.160000
   8094   8096     1   0.10910 283424.160000
   8097   8098     1   0.10969 276646.080000
   8097   8099     1   0.10969 276646.080000
   8100   8101     1   0.10969 276646.080000
   8100   8102     1   0.10969 276646.080000
   8103   8104     1   0.10304 312293.760000
   8103   8105     1   0.10304 312293.760000
   8103   8107     1   0.10304 312293.760000
   8108   8109     1   0.10910 283424.160000
   8108   8110     1   0.10910 283424.160000
   8111   8112     1   0.10969 276646.080000
   8111   8113     1   0.10969 276646.080000
   8114   8115     1   0.10969 276646.080000
   8114   8116     1   0.10969 276646.080000
   8117   8118     1   0.10304 312293.760000
   8117   8119     1   0.10304 312293.760000
   8117   8121     1   0.10304 312293.760000
   8122   8123     1   0.10910 283424.160000
   8122   8124     1   0.10910 283424.160000
   8125   8126     1   0.10969 276646.080000
   8125   8127     1   0.10969 276646.080000
   8128   8129     1   0.10969 276646.080000
   8128   8130     1   0.10969 276646.080000
   8131   8132     1   0.10304 312293.760000
   8131   8133     1   0.10304 312293.760000
   8131   8135     1   0.10304 312293.760000
   8136   8137     1   0.10910 283424.160000
   8136   8138     1   0.10910 283424.160000
   8139   8140     1   0.10969 276646.080000
   8139   8141     1   0.10969 276646.080000
   8142   8143     1   0.10969 276646.080000
   8142   8144     1   0.10969 276646.080000
   8145   8146     1   0.10304 312293.760000
   8145   8147     1   0.10304 312293.760000
   8145   8149     1   0.10304 312293.760000
   8150   8151     1   0.10910 283424.160000
   8150   8152     1   0.10910 283424.160000
   8153   8154     1   0.10969 276646.080000
   8153   8155     1   0.10969 276646.080000
   8156   8157     1   0.10969 276646.080000
   8156   8158     1   0.10969 276646.080000
   8159   8160     1   0.10304 312293.760000
   8159   8161     1   0.10304 312293.760000
   8159   8163     1   0.10304 312293.760000
   8164   8165     1   0.10910 283424.160000
   8164   8166     1   0.10910 283424.160000
   8167   8168     1   0.10969 276646.080000
   8167   8169     1   0.10969 276646.080000
   8170   8171     1   0.10969 276646.080000
   8170   8172     1   0.10969 276646.080000
   8173   8174     1   0.10304 312293.760000
   8173   8175     1   0.10304 312293.760000
   8173   8177     1   0.10304 312293.760000
   8178   8179     1   0.10910 283424.160000
   8178   8180     1   0.10910 283424.160000
   8181   8182     1   0.10969 276646.080000
   8181   8183     1   0.10969 276646.080000
   8184   8185     1   0.10969 276646.080000
   8184   8186     1   0.10969 276646.080000
   8187   8188     1   0.10304 312293.760000
   8187   8189     1   0.10304 312293.760000
   8187   8191     1   0.10304 312293.760000
   8192   8193     1   0.10910 283424.160000
   8192   8194     1   0.10910 283424.160000
   8195   8196     1   0.10969 276646.080000
   8195   8197     1   0.10969 276646.080000
   8198   8199     1   0.10969 276646.080000
   8198   8200     1   0.10969 276646.080000
   8201   8202     1   0.10304 312293.760000
   8201   8203     1   0.10304 312293.760000
   8201   8205     1   0.10304 312293.760000
   8206   8207     1   0.10910 283424.160000
   8206   8208     1   0.10910 283424.160000
   8209   8210     1   0.10969 276646.080000
   8209   8211     1   0.10969 276646.080000
   8212   8213     1   0.10969 276646.080000
   8212   8214     1   0.10969 276646.080000
   8215   8216     1   0.10304 312293.760000
   8215   8217     1   0.10304 312293.760000
   8215   8219     1   0.10304 312293.760000
   8220   8221     1   0.10910 283424.160000
   8220   8222     1   0.10910 283424.160000
   8223   8224     1   0.10969 276646.080000
   8223   8225     1   0.10969 276646.080000
   8226   8227     1   0.10969 276646.080000
   8226   8228     1   0.10969 276646.080000
   8229   8230     1   0.10304 312293.760000
   8229   8231     1   0.10304 312293.760000
   8229   8233     1   0.10304 312293.760000
   8234   8235     1   0.10910 283424.160000
   8234   8236     1   0.10910 283424.160000
   8237   8238     1   0.10969 276646.080000
   8237   8239     1   0.10969 276646.080000
   8240   8241     1   0.10969 276646.080000
   8240   8242     1   0.10969 276646.080000
   8243   8244     1   0.10304 312293.760000
   8243   8245     1   0.10304 312293.760000
   8243   8247     1   0.10304 312293.760000
   8248   8249     1   0.10910 283424.160000
   8248   8250     1   0.10910 283424.160000
   8251   8252     1   0.10969 276646.080000
   8251   8253     1   0.10969 276646.080000
   8254   8255     1   0.10969 276646.080000
   8254   8256     1   0.10969 276646.080000
   8257   8258     1   0.10304 312293.760000
   8257   8259     1   0.10304 312293.760000
   8257   8261     1   0.10304 312293.760000
   8262   8263     1   0.10910 283424.160000
   8262   8264     1   0.10910 283424.160000
   8265   8266     1   0.10969 276646.080000
   8265   8267     1   0.10969 276646.080000
   8268   8269     1   0.10969 276646.080000
   8268   8270     1   0.10969 276646.080000
   8271   8272     1   0.10304 312293.760000
   8271   8273     1   0.10304 312293.760000
   8271   8275     1   0.10304 312293.760000
   8276   8277     1   0.10910 283424.160000
   8276   8278     1   0.10910 283424.160000
   8279   8280     1   0.10969 276646.080000
   8279   8281     1   0.10969 276646.080000
   8282   8283     1   0.10969 276646.080000
   8282   8284     1   0.10969 276646.080000
   8285   8286     1   0.10304 312293.760000
   8285   8287     1   0.10304 312293.760000
   8285   8289     1   0.10304 312293.760000
   8290   8291     1   0.10910 283424.160000
   8290   8292     1   0.10910 283424.160000
   8293   8294     1   0.10969 276646.080000
   8293   8295     1   0.10969 276646.080000
   8296   8297     1   0.10969 276646.080000
   8296   8298     1   0.10969 276646.080000
   8299   8300     1   0.10304 312293.760000
   8299   8301     1   0.10304 312293.760000
   8299   8303     1   0.10304 312293.760000
   8304   8305     1   0.10910 283424.160000
   8304   8306     1   0.10910 283424.160000
   8307   8308     1   0.10969 276646.080000
   8307   8309     1   0.10969 276646.080000
   8310   8311     1   0.10969 276646.080000
   8310   8312     1   0.10969 276646.080000
   8313   8314     1   0.10304 312293.760000
   8313   8315     1   0.10304 312293.760000
   8313   8317     1   0.10304 312293.760000
   8318   8319     1   0.10910 283424.160000
   8318   8320     1   0.10910 283424.160000
   8321   8322     1   0.10969 276646.080000
   8321   8323     1   0.10969 276646.080000
   8324   8325     1   0.10969 276646.080000
   8324   8326     1   0.10969 276646.080000
   8327   8328     1   0.10304 312293.760000
   8327   8329     1   0.10304 312293.760000
   8327   8331     1   0.10304 312293.760000
   8332   8333     1   0.10910 283424.160000
   8332   8334     1   0.10910 283424.160000
   8335   8336     1   0.10969 276646.080000
   8335   8337     1   0.10969 276646.080000
   8338   8339     1   0.10969 276646.080000
   8338   8340     1   0.10969 276646.080000
   8341   8342     1   0.10304 312293.760000
   8341   8343     1   0.10304 312293.760000
   8341   8345     1   0.10304 312293.760000
   8346   8347     1   0.10910 283424.160000
   8346   8348     1   0.10910 283424.160000
   8349   8350     1   0.10969 276646.080000
   8349   8351     1   0.10969 276646.080000
   8352   8353     1   0.10969 276646.080000
   8352   8354     1   0.10969 276646.080000
   8355   8356     1   0.10304 312293.760000
   8355   8357     1   0.10304 312293.760000
   8355   8359     1   0.10304 312293.760000
   8360   8361     1   0.10910 283424.160000
   8360   8362     1   0.10910 283424.160000
   8363   8364     1   0.10969 276646.080000
   8363   8365     1   0.10969 276646.080000
   8366   8367     1   0.10969 276646.080000
   8366   8368     1   0.10969 276646.080000
   8369   8370     1   0.10304 312293.760000
   8369   8371     1   0.10304 312293.760000
   8369   8373     1   0.10304 312293.760000
   8374   8375     1   0.10910 283424.160000
   8374   8376     1   0.10910 283424.160000
   8377   8378     1   0.10969 276646.080000
   8377   8379     1   0.10969 276646.080000
   8380   8381     1   0.10969 276646.080000
   8380   8382     1   0.10969 276646.080000
   8383   8384     1   0.10304 312293.760000
   8383   8385     1   0.10304 312293.760000
   8383   8387     1   0.10304 312293.760000

[ pairs ]
;    ai     aj funct         c0         c1         c2         c3
      1     26     1
      1     20     1
      1     23     1
      2     17     1
      2     11     1
      2    118     1
      5     14     1
      5     11     1
      5     58     1
      8     14     1
      8     17     1
      8     88     1
     11     79     1
     14    109     1
     17     49     1
     20     40     1
     23     70     1
     26    100     1
     30     55     1
     30     52     1
     30     49     1
     31     46     1
     31     40     1
     31    178     1
     34     43     1
     34     40     1
     34    148     1
     37     43     1
     37     46     1
     37     58     1
     43    169     1
     46    139     1
     52    130     1
     55    160     1
     60     85     1
     60     82     1
     60     79     1
     61     76     1
     61     70     1
     61    238     1
     64     73     1
     64     70     1
     64    208     1
     67     73     1
     67     76     1
     67     88     1
     73    229     1
     76    199     1
     82    190     1
     85    220     1
     90    115     1
     90    112     1
     90    109     1
     91    106     1
     91    100     1
     91    298     1
     94    103     1
     94    100     1
     94    268     1
     97    103     1
     97    106     1
     97    118     1
    103    289     1
    106    259     1
    112    250     1
    115    280     1
    120    145     1
    120    142     1
    120    139     1
    121    136     1
    121    130     1
    121    358     1
    124    133     1
    124    130     1
    124    328     1
    127    133     1
    127    136     1
    127    148     1
    133    349     1
    136    319     1
    142    310     1
    145    340     1
    150    175     1
    150    172     1
    150    169     1
    151    166     1
    151    160     1
    151    418     1
    154    163     1
    154    160     1
    154    388     1
    157    163     1
    157    166     1
    157    178     1
    163    409     1
    166    379     1
    172    370     1
    175    400     1
    180    205     1
    180    202     1
    180    199     1
    181    196     1
    181    190     1
    181    478     1
    184    193     1
    184    190     1
    184    448     1
    187    193     1
    187    196     1
    187    208     1
    193    469     1
    196    439     1
    202    430     1
    205    460     1
    210    235     1
    210    232     1
    210    229     1
    211    226     1
    211    220     1
    211    538     1
    214    223     1
    214    220     1
    214    508     1
    217    223     1
    217    226     1
    217    238     1
    223    529     1
    226    499     1
    232    490     1
    235    520     1
    240    265     1
    240    262     1
    240    259     1
    241    256     1
    241    250     1
    241    598     1
    244    253     1
    244    250     1
    244    568     1
    247    253     1
    247    256     1
    247    268     1
    253    589     1
    256    559     1
    262    550     1
    265    580     1
    270    295     1
    270    292     1
    270    289     1
    271    286     1
    271    280     1
    271    658     1
    274    283     1
    274    280     1
    274    628     1
    277    283     1
    277    286     1
    277    298     1
    283    649     1
    286    619     1
    292    610     1
    295    640     1
    300    325     1
    300    322     1
    300    319     1
    301    316     1
    301    310     1
    301    718     1
    304    313     1
    304    310     1
    304    688     1
    307    313     1
    307    316     1
    307    328     1
    313    709     1
    316    679     1
    322    670     1
    325    700     1
    330    355     1
    330    352     1
    330    349     1
    331    346     1
    331    340     1
    331    778     1
    334    343     1
    334    340     1
    334    748     1
    337    343     1
    337    346     1
    337    358     1
    343    769     1
    346    739     1
    352    730     1
    355    760     1
    360    385     1
    360    382     1
    360    379     1
    361    376     1
    361    370     1
    361    838     1
    364    373     1
    364    370     1
    364    808     1
    367    373     1
    367    376     1
    367    388     1
    373    829     1
    376    799     1
    382    790     1
    385    820     1
    390    415     1
    390    412     1
    390    409     1
    391    406     1
    391    400     1
    391    898     1
    394    403     1
    394    400     1
    394    868     1
    397    403     1
    397    406     1
    397    418     1
    403    889     1
    406    859     1
    412    850     1
    415    880     1
    420    445     1
    420    442     1
    420    439     1
    421    436     1
    421    430     1
    421    958     1
    424    433     1
    424    430     1
    424    928     1
    427    433     1
    427    436     1
    427    448     1
    433    949     1
    436    919     1
    442    910     1
    445    940     1
    450    475     1
    450    472     1
    450    469     1
    451    466     1
    451    460     1
    451   1018     1
    454    463     1
    454    460     1
    454    988     1
    457    463     1
    457    466     1
    457    478     1
    463   1009     1
    466    979     1
    472    970     1
    475   1000     1
    480    505     1
    480    502     1
    480    499     1
    481    496     1
    481    490     1
    481   1078     1
    484    493     1
    484    490     1
    484   1048     1
    487    493     1
    487    496     1
    487    508     1
    493   1069     1
    496   1039     1
    502   1030     1
    505   1060     1
    510    535     1
    510    532     1
    510    529     1
    511    526     1
    511    520     1
    511   1138     1
    514    523     1
    514    520     1
    514   1108     1
    517    523     1
    517    526     1
    517    538     1
    523   1129     1
    526   1099     1
    532   1090     1
    535   1120     1
    540    565     1
    540    562     1
    540    559     1
    541    556     1
    541    550     1
    541   1198     1
    544    553     1
    544    550     1
    544   1168     1
    547    553     1
    547    556     1
    547    568     1
    553   1189     1
    556   1159     1
    562   1150     1
    565   1180     1
    570    595     1
    570    592     1
    570    589     1
    571    586     1
    571    580     1
    571   1258     1
    574    583     1
    574    580     1
    574   1228     1
    577    583     1
    577    586     1
    577    598     1
    583   1249     1
    586   1219     1
    592   1210     1
    595   1240     1
    600    625     1
    600    622     1
    600    619     1
    601    616     1
    601    610     1
    601   1318     1
    604    613     1
    604    610     1
    604   1288     1
    607    613     1
    607    616     1
    607    628     1
    613   1309     1
    616   1279     1
    622   1270     1
    625   1300     1
    630    655     1
    630    652     1
    630    649     1
    631    646     1
    631    640     1
    631   1378     1
    634    643     1
    634    640     1
    634   1348     1
    637    643     1
    637    646     1
    637    658     1
    643   1369     1
    646   1339     1
    652   1330     1
    655   1360     1
    660    685     1
    660    682     1
    660    679     1
    661    676     1
    661    670     1
    661   1438     1
    664    673     1
    664    670     1
    664   1408     1
    667    673     1
    667    676     1
    667    688     1
    673   1429     1
    676   1399     1
    682   1390     1
    685   1420     1
    690    715     1
    690    712     1
    690    709     1
    691    706     1
    691    700     1
    691   1498     1
    694    703     1
    694    700     1
    694   1468     1
    697    703     1
    697    706     1
    697    718     1
    703   1489     1
    706   1459     1
    712   1450     1
    715   1480     1
    720    745     1
    720    742     1
    720    739     1
    721    736     1
    721    730     1
    721   1558     1
    724    733     1
    724    730     1
    724   1528     1
    727    733     1
    727    736     1
    727    748     1
    733   1549     1
    736   1519     1
    742   1510     1
    745   1540     1
    750    775     1
    750    772     1
    750    769     1
    751    766     1
    751    760     1
    751   1618     1
    754    763     1
    754    760     1
    754   1588     1
    757    763     1
    757    766     1
    757    778     1
    763   1609     1
    766   1579     1
    772   1570     1
    775   1600     1
    780    805     1
    780    802     1
    780    799     1
    781    796     1
    781    790     1
    781   1678     1
    784    793     1
    784    790     1
    784   1648     1
    787    793     1
    787    796     1
    787    808     1
    793   1669     1
    796   1639     1
    802   1630     1
    805   1660     1
    810    835     1
    810    832     1
    810    829     1
    811    826     1
    811    820     1
    811   1738     1
    814    823     1
    814    820     1
    814   1708     1
    817    823     1
    817    826     1
    817    838     1
    823   1729     1
    826   1699     1
    832   1690     1
    835   1720     1
    840    865     1
    840    862     1
    840    859     1
    841    856     1
    841    850     1
    841   1798     1
    844    853     1
    844    850     1
    844   1768     1
    847    853     1
    847    856     1
    847    868     1
    853   1789     1
    856   1759     1
    862   1750     1
    865   1780     1
    870    895     1
    870    892     1
    870    889     1
    871    886     1
    871    880     1
    871   1858     1
    874    883     1
    874    880     1
    874   1828     1
    877    883     1
    877    886     1
    877    898     1
    883   1849     1
    886   1819     1
    892   1810     1
    895   1840     1
    900    925     1
    900    922     1
    900    919     1
    901    916     1
    901    910     1
    901   1918     1
    904    913     1
    904    910     1
    904   1888     1
    907    913     1
    907    916     1
    907    928     1
    913   1909     1
    916   1879     1
    922   1870     1
    925   1900     1
    930    955     1
    930    952     1
    930    949     1
    931    946     1
    931    940     1
    931   1978     1
    934    943     1
    934    940     1
    934   1948     1
    937    943     1
    937    946     1
    937    958     1
    943   1969     1
    946   1939     1
    952   1930     1
    955   1960     1
    960    985     1
    960    982     1
    960    979     1
    961    976     1
    961    970     1
    961   2038     1
    964    973     1
    964    970     1
    964   2008     1
    967    973     1
    967    976     1
    967    988     1
    973   2029     1
    976   1999     1
    982   1990     1
    985   2020     1
    990   1015     1
    990   1012     1
    990   1009     1
    991   1006     1
    991   1000     1
    991   2098     1
    994   1003     1
    994   1000     1
    994   2068     1
    997   1003     1
    997   1006     1
    997   1018     1
   1003   2089     1
   1006   2059     1
   1012   2050     1
   1015   2080     1
   1020   1045     1
   1020   1042     1
   1020   1039     1
   1021   1036     1
   1021   1030     1
   1021   2158     1
   1024   1033     1
   1024   1030     1
   1024   2128     1
   1027   1033     1
   1027   1036     1
   1027   1048     1
   1033   2149     1
   1036   2119     1
   1042   2110     1
   1045   2140     1
   1050   1075     1
   1050   1072     1
   1050   1069     1
   1051   1066     1
   1051   1060     1
   1051   2218     1
   1054   1063     1
   1054   1060     1
   1054   2188     1
   1057   1063     1
   1057   1066     1
   1057   1078     1
   1063   2209     1
   1066   2179     1
   1072   2170     1
   1075   2200     1
   1080   1105     1
   1080   1102     1
   1080   1099     1
   1081   1096     1
   1081   1090     1
   1081   2278     1
   1084   1093     1
   1084   1090     1
   1084   2248     1
   1087   1093     1
   1087   1096     1
   1087   1108     1
   1093   2269     1
   1096   2239     1
   1102   2230     1
   1105   2260     1
   1110   1135     1
   1110   1132     1
   1110   1129     1
   1111   1126     1
   1111   1120     1
   1111   2338     1
   1114   1123     1
   1114   1120     1
   1114   2308     1
   1117   1123     1
   1117   1126     1
   1117   1138     1
   1123   2329     1
   1126   2299     1
   1132   2290     1
   1135   2320     1
   1140   1165     1
   1140   1162     1
   1140   1159     1
   1141   1156     1
   1141   1150     1
   1141   2398     1
   1144   1153     1
   1144   1150     1
   1144   2368     1
   1147   1153     1
   1147   1156     1
   1147   1168     1
   1153   2389     1
   1156   2359     1
   1162   2350     1
   1165   2380     1
   1170   1195     1
   1170   1192     1
   1170   1189     1
   1171   1186     1
   1171   1180     1
   1171   2458     1
   1174   1183     1
   1174   1180     1
   1174   2428     1
   1177   1183     1
   1177   1186     1
   1177   1198     1
   1183   2449     1
   1186   2419     1
   1192   2410     1
   1195   2440     1
   1200   1225     1
   1200   1222     1
   1200   1219     1
   1201   1216     1
   1201   1210     1
   1201   2518     1
   1204   1213     1
   1204   1210     1
   1204   2488     1
   1207   1213     1
   1207   1216     1
   1207   1228     1
   1213   2509     1
   1216   2479     1
   1222   2470     1
   1225   2500     1
   1230   1255     1
   1230   1252     1
   1230   1249     1
   1231   1246     1
   1231   1240     1
   1231   2578     1
   1234   1243     1
   1234   1240     1
   1234   2548     1
   1237   1243     1
   1237   1246     1
   1237   1258     1
   1243   2569     1
   1246   2539     1
   1252   2530     1
   1255   2560     1
   1260   1285     1
   1260   1282     1
   1260   1279     1
   1261   1276     1
   1261   1270     1
   1261   2638     1
   1264   1273     1
   1264   1270     1
   1264   2608     1
   1267   1273     1
   1267   1276     1
   1267   1288     1
   1273   2629     1
   1276   2599     1
   1282   2590     1
   1285   2620     1
   1290   1315     1
   1290   1312     1
   1290   1309     1
   1291   1306     1
   1291   1300     1
   1291   2698     1
   1294   1303     1
   1294   1300     1
   1294   2668     1
   1297   1303     1
   1297   1306     1
   1297   1318     1
   1303   2689     1
   1306   2659     1
   1312   2650     1
   1315   2680     1
   1320   1345     1
   1320   1342     1
   1320   1339     1
   1321   1336     1
   1321   1330     1
   1321   2758     1
   1324   1333     1
   1324   1330     1
   1324   2728     1
   1327   1333     1
   1327   1336     1
   1327   1348     1
   1333   2749     1
   1336   2719     1
   1342   2710     1
   1345   2740     1
   1350   1375     1
   1350   1372     1
   1350   1369     1
   1351   1366     1
   1351   1360     1
   1351   2818     1
   1354   1363     1
   1354   1360     1
   1354   2788     1
   1357   1363     1
   1357   1366     1
   1357   1378     1
   1363   2809     1
   1366   2779     1
   1372   2770     1
   1375   2800     1
   1380   1405     1
   1380   1402     1
   1380   1399     1
   1381   1396     1
   1381   1390     1
   1381   2878     1
   1384   1393     1
   1384   1390     1
   1384   2848     1
   1387   1393     1
   1387   1396     1
   1387   1408     1
   1393   2869     1
   1396   2839     1
   1402   2830     1
   1405   2860     1
   1410   1435     1
   1410   1432     1
   1410   1429     1
   1411   1426     1
   1411   1420     1
   1411   2938     1
   1414   1423     1
   1414   1420     1
   1414   2908     1
   1417   1423     1
   1417   1426     1
   1417   1438     1
   1423   2929     1
   1426   2899     1
   1432   2890     1
   1435   2920     1
   1440   1465     1
   1440   1462     1
   1440   1459     1
   1441   1456     1
   1441   1450     1
   1441   2998     1
   1444   1453     1
   1444   1450     1
   1444   2968     1
   1447   1453     1
   1447   1456     1
   1447   1468     1
   1453   2989     1
   1456   2959     1
   1462   2950     1
   1465   2980     1
   1470   1495     1
   1470   1492     1
   1470   1489     1
   1471   1486     1
   1471   1480     1
   1471   3058     1
   1474   1483     1
   1474   1480     1
   1474   3028     1
   1477   1483     1
   1477   1486     1
   1477   1498     1
   1483   3049     1
   1486   3019     1
   1492   3010     1
   1495   3040     1
   1500   1525     1
   1500   1522     1
   1500   1519     1
   1501   1516     1
   1501   1510     1
   1501   3118     1
   1504   1513     1
   1504   1510     1
   1504   3088     1
   1507   1513     1
   1507   1516     1
   1507   1528     1
   1513   3109     1
   1516   3079     1
   1522   3070     1
   1525   3100     1
   1530   1555     1
   1530   1552     1
   1530   1549     1
   1531   1546     1
   1531   1540     1
   1531   3178     1
   1534   1543     1
   1534   1540     1
   1534   3148     1
   1537   1543     1
   1537   1546     1
   1537   1558     1
   1543   3169     1
   1546   3139     1
   1552   3130     1
   1555   3160     1
   1560   1585     1
   1560   1582     1
   1560   1579     1
   1561   1576     1
   1561   1570     1
   1561   3238     1
   1564   1573     1
   1564   1570     1
   1564   3208     1
   1567   1573     1
   1567   1576     1
   1567   1588     1
   1573   3229     1
   1576   3199     1
   1582   3190     1
   1585   3220     1
   1590   1615     1
   1590   1612     1
   1590   1609     1
   1591   1606     1
   1591   1600     1
   1591   3298     1
   1594   1603     1
   1594   1600     1
   1594   3268     1
   1597   1603     1
   1597   1606     1
   1597   1618     1
   1603   3289     1
   1606   3259     1
   1612   3250     1
   1615   3280     1
   1620   1645     1
   1620   1642     1
   1620   1639     1
   1621   1636     1
   1621   1630     1
   1621   3358     1
   1624   1633     1
   1624   1630     1
   1624   3328     1
   1627   1633     1
   1627   1636     1
   1627   1648     1
   1633   3349     1
   1636   3319     1
   1642   3310     1
   1645   3340     1
   1650   1675     1
   1650   1672     1
   1650   1669     1
   1651   1666     1
   1651   1660     1
   1651   3418     1
   1654   1663     1
   1654   1660     1
   1654   3388     1
   1657   1663     1
   1657   1666     1
   1657   1678     1
   1663   3409     1
   1666   3379     1
   1672   3370     1
   1675   3400     1
   1680   1705     1
   1680   1702     1
   1680   1699     1
   1681   1696     1
   1681   1690     1
   1681   3478     1
   1684   1693     1
   1684   1690     1
   1684   3448     1
   1687   1693     1
   1687   1696     1
   1687   1708     1
   1693   3469     1
   1696   3439     1
   1702   3430     1
   1705   3460     1
   1710   1735     1
   1710   1732     1
   1710   1729     1
   1711   1726     1
   1711   1720     1
   1711   3538     1
   1714   1723     1
   1714   1720     1
   1714   3508     1
   1717   1723     1
   1717   1726     1
   1717   1738     1
   1723   3529     1
   1726   3499     1
   1732   3490     1
   1735   3520     1
   1740   1765     1
   1740   1762     1
   1740   1759     1
   1741   1756     1
   1741   1750     1
   1741   3598     1
   1744   1753     1
   1744   1750     1
   1744   3568     1
   1747   1753     1
   1747   1756     1
   1747   1768     1
   1753   3589     1
   1756   3559     1
   1762   3550     1
   1765   3580     1
   1770   1795     1
   1770   1792     1
   1770   1789     1
   1771   1786     1
   1771   1780     1
   1771   3658     1
   1774   1783     1
   1774   1780     1
   1774   3628     1
   1777   1783     1
   1777   1786     1
   1777   1798     1
   1783   3649     1
   1786   3619     1
   1792   3610     1
   1795   3640     1
   1800   1825     1
   1800   1822     1
   1800   1819     1
   1801   1816     1
   1801   1810     1
   1801   3718     1
   1804   1813     1
   1804   1810     1
   1804   3688     1
   1807   1813     1
   1807   1816     1
   1807   1828     1
   1813   3709     1
   1816   3679     1
   1822   3670     1
   1825   3700     1
   1830   1855     1
   1830   1852     1
   1830   1849     1
   1831   1846     1
   1831   1840     1
   1831   3778     1
   1834   1843     1
   1834   1840     1
   1834   3748     1
   1837   1843     1
   1837   1846     1
   1837   1858     1
   1843   3769     1
   1846   3739     1
   1852   3730     1
   1855   3760     1
   1860   1885     1
   1860   1882     1
   1860   1879     1
   1861   1876     1
   1861   1870     1
   1861   3838     1
   1864   1873     1
   1864   1870     1
   1864   3808     1
   1867   1873     1
   1867   1876     1
   1867   1888     1
   1873   3829     1
   1876   3799     1
   1882   3790     1
   1885   3820     1
   1890   1915     1
   1890   1912     1
   1890   1909     1
   1891   1906     1
   1891   1900     1
   1891   3898     1
   1894   1903     1
   1894   1900     1
   1894   3868     1
   1897   1903     1
   1897   1906     1
   1897   1918     1
   1903   3889     1
   1906   3859     1
   1912   3850     1
   1915   3880     1
   1920   1945     1
   1920   1942     1
   1920   1939     1
   1921   1936     1
   1921   1930     1
   1921   3958     1
   1924   1933     1
   1924   1930     1
   1924   3928     1
   1927   1933     1
   1927   1936     1
   1927   1948     1
   1933   3949     1
   1936   3919     1
   1942   3910     1
   1945   3940     1
   1950   1975     1
   1950   1972     1
   1950   1969     1
   1951   1966     1
   1951   1960     1
   1951   4018     1
   1954   1963     1
   1954   1960     1
   1954   3988     1
   1957   1963     1
   1957   1966     1
   1957   1978     1
   1963   4009     1
   1966   3979     1
   1972   3970     1
   1975   4000     1
   1980   2005     1
   1980   2002     1
   1980   1999     1
   1981   1996     1
   1981   1990     1
   1981   4078     1
   1984   1993     1
   1984   1990     1
   1984   4048     1
   1987   1993     1
   1987   1996     1
   1987   2008     1
   1993   4069     1
   1996   4039     1
   2002   4030     1
   2005   4060     1
   2010   2035     1
   2010   2032     1
   2010   2029     1
   2011   2026     1
   2011   2020     1
   2011   4138     1
   2014   2023     1
   2014   2020     1
   2014   4108     1
   2017   2023     1
   2017   2026     1
   2017   2038     1
   2023   4129     1
   2026   4099     1
   2032   4090     1
   2035   4120     1
   2040   2065     1
   2040   2062     1
   2040   2059     1
   2041   2056     1
   2041   2050     1
   2041   4198     1
   2044   2053     1
   2044   2050     1
   2044   4168     1
   2047   2053     1
   2047   2056     1
   2047   2068     1
   2053   4189     1
   2056   4159     1
   2062   4150     1
   2065   4180     1
   2070   2095     1
   2070   2092     1
   2070   2089     1
   2071   2086     1
   2071   2080     1
   2071   4258     1
   2074   2083     1
   2074   2080     1
   2074   4228     1
   2077   2083     1
   2077   2086     1
   2077   2098     1
   2083   4249     1
   2086   4219     1
   2092   4210     1
   2095   4240     1
   2100   2125     1
   2100   2122     1
   2100   2119     1
   2101   2116     1
   2101   2110     1
   2101   4318     1
   2104   2113     1
   2104   2110     1
   2104   4288     1
   2107   2113     1
   2107   2116     1
   2107   2128     1
   2113   4309     1
   2116   4279     1
   2122   4270     1
   2125   4300     1
   2130   2155     1
   2130   2152     1
   2130   2149     1
   2131   2146     1
   2131   2140     1
   2131   4378     1
   2134   2143     1
   2134   2140     1
   2134   4348     1
   2137   2143     1
   2137   2146     1
   2137   2158     1
   2143   4369     1
   2146   4339     1
   2152   4330     1
   2155   4360     1
   2160   2185     1
   2160   2182     1
   2160   2179     1
   2161   2176     1
   2161   2170     1
   2161   4438     1
   2164   2173     1
   2164   2170     1
   2164   4408     1
   2167   2173     1
   2167   2176     1
   2167   2188     1
   2173   4429     1
   2176   4399     1
   2182   4390     1
   2185   4420     1
   2190   2215     1
   2190   2212     1
   2190   2209     1
   2191   2206     1
   2191   2200     1
   2191   4498     1
   2194   2203     1
   2194   2200     1
   2194   4468     1
   2197   2203     1
   2197   2206     1
   2197   2218     1
   2203   4489     1
   2206   4459     1
   2212   4450     1
   2215   4480     1
   2220   2245     1
   2220   2242     1
   2220   2239     1
   2221   2236     1
   2221   2230     1
   2221   4558     1
   2224   2233     1
   2224   2230     1
   2224   4528     1
   2227   2233     1
   2227   2236     1
   2227   2248     1
   2233   4549     1
   2236   4519     1
   2242   4510     1
   2245   4540     1
   2250   2275     1
   2250   2272     1
   2250   2269     1
   2251   2266     1
   2251   2260     1
   2251   4618     1
   2254   2263     1
   2254   2260     1
   2254   4588     1
   2257   2263     1
   2257   2266     1
   2257   2278     1
   2263   4609     1
   2266   4579     1
   2272   4570     1
   2275   4600     1
   2280   2305     1
   2280   2302     1
   2280   2299     1
   2281   2296     1
   2281   2290     1
   2281   4678     1
   2284   2293     1
   2284   2290     1
   2284   4648     1
   2287   2293     1
   2287   2296     1
   2287   2308     1
   2293   4669     1
   2296   4639     1
   2302   4630     1
   2305   4660     1
   2310   2335     1
   2310   2332     1
   2310   2329     1
   2311   2326     1
   2311   2320     1
   2311   4738     1
   2314   2323     1
   2314   2320     1
   2314   4708     1
   2317   2323     1
   2317   2326     1
   2317   2338     1
   2323   4729     1
   2326   4699     1
   2332   4690     1
   2335   4720     1
   2340   2365     1
   2340   2362     1
   2340   2359     1
   2341   2356     1
   2341   2350     1
   2341   4798     1
   2344   2353     1
   2344   2350     1
   2344   4768     1
   2347   2353     1
   2347   2356     1
   2347   2368     1
   2353   4789     1
   2356   4759     1
   2362   4750     1
   2365   4780     1
   2370   2395     1
   2370   2392     1
   2370   2389     1
   2371   2386     1
   2371   2380     1
   2371   4858     1
   2374   2383     1
   2374   2380     1
   2374   4828     1
   2377   2383     1
   2377   2386     1
   2377   2398     1
   2383   4849     1
   2386   4819     1
   2392   4810     1
   2395   4840     1
   2400   2425     1
   2400   2422     1
   2400   2419     1
   2401   2416     1
   2401   2410     1
   2401   4918     1
   2404   2413     1
   2404   2410     1
   2404   4888     1
   2407   2413     1
   2407   2416     1
   2407   2428     1
   2413   4909     1
   2416   4879     1
   2422   4870     1
   2425   4900     1
   2430   2455     1
   2430   2452     1
   2430   2449     1
   2431   2446     1
   2431   2440     1
   2431   4978     1
   2434   2443     1
   2434   2440     1
   2434   4948     1
   2437   2443     1
   2437   2446     1
   2437   2458     1
   2443   4969     1
   2446   4939     1
   2452   4930     1
   2455   4960     1
   2460   2485     1
   2460   2482     1
   2460   2479     1
   2461   2476     1
   2461   2470     1
   2461   5038     1
   2464   2473     1
   2464   2470     1
   2464   5008     1
   2467   2473     1
   2467   2476     1
   2467   2488     1
   2473   5029     1
   2476   4999     1
   2482   4990     1
   2485   5020     1
   2490   2515     1
   2490   2512     1
   2490   2509     1
   2491   2506     1
   2491   2500     1
   2491   5098     1
   2494   2503     1
   2494   2500     1
   2494   5068     1
   2497   2503     1
   2497   2506     1
   2497   2518     1
   2503   5089     1
   2506   5059     1
   2512   5050     1
   2515   5080     1
   2520   2545     1
   2520   2542     1
   2520   2539     1
   2521   2536     1
   2521   2530     1
   2521   5158     1
   2524   2533     1
   2524   2530     1
   2524   5128     1
   2527   2533     1
   2527   2536     1
   2527   2548     1
   2533   5149     1
   2536   5119     1
   2542   5110     1
   2545   5140     1
   2550   2575     1
   2550   2572     1
   2550   2569     1
   2551   2566     1
   2551   2560     1
   2551   5218     1
   2554   2563     1
   2554   2560     1
   2554   5188     1
   2557   2563     1
   2557   2566     1
   2557   2578     1
   2563   5209     1
   2566   5179     1
   2572   5170     1
   2575   5200     1
   2580   2605     1
   2580   2602     1
   2580   2599     1
   2581   2596     1
   2581   2590     1
   2581   5278     1
   2584   2593     1
   2584   2590     1
   2584   5248     1
   2587   2593     1
   2587   2596     1
   2587   2608     1
   2593   5269     1
   2596   5239     1
   2602   5230     1
   2605   5260     1
   2610   2635     1
   2610   2632     1
   2610   2629     1
   2611   2626     1
   2611   2620     1
   2611   5338     1
   2614   2623     1
   2614   2620     1
   2614   5308     1
   2617   2623     1
   2617   2626     1
   2617   2638     1
   2623   5329     1
   2626   5299     1
   2632   5290     1
   2635   5320     1
   2640   2665     1
   2640   2662     1
   2640   2659     1
   2641   2656     1
   2641   2650     1
   2641   5398     1
   2644   2653     1
   2644   2650     1
   2644   5368     1
   2647   2653     1
   2647   2656     1
   2647   2668     1
   2653   5389     1
   2656   5359     1
   2662   5350     1
   2665   5380     1
   2670   2695     1
   2670   2692     1
   2670   2689     1
   2671   2686     1
   2671   2680     1
   2671   5458     1
   2674   2683     1
   2674   2680     1
   2674   5428     1
   2677   2683     1
   2677   2686     1
   2677   2698     1
   2683   5449     1
   2686   5419     1
   2692   5410     1
   2695   5440     1
   2700   2725     1
   2700   2722     1
   2700   2719     1
   2701   2716     1
   2701   2710     1
   2701   5518     1
   2704   2713     1
   2704   2710     1
   2704   5488     1
   2707   2713     1
   2707   2716     1
   2707   2728     1
   2713   5509     1
   2716   5479     1
   2722   5470     1
   2725   5500     1
   2730   2755     1
   2730   2752     1
   2730   2749     1
   2731   2746     1
   2731   2740     1
   2731   5578     1
   2734   2743     1
   2734   2740     1
   2734   5548     1
   2737   2743     1
   2737   2746     1
   2737   2758     1
   2743   5569     1
   2746   5539     1
   2752   5530     1
   2755   5560     1
   2760   2785     1
   2760   2782     1
   2760   2779     1
   2761   2776     1
   2761   2770     1
   2761   5638     1
   2764   2773     1
   2764   2770     1
   2764   5608     1
   2767   2773     1
   2767   2776     1
   2767   2788     1
   2773   5629     1
   2776   5599     1
   2782   5590     1
   2785   5620     1
   2790   2815     1
   2790   2812     1
   2790   2809     1
   2791   2806     1
   2791   2800     1
   2791   5698     1
   2794   2803     1
   2794   2800     1
   2794   5668     1
   2797   2803     1
   2797   2806     1
   2797   2818     1
   2803   5689     1
   2806   5659     1
   2812   5650     1
   2815   5680     1
   2820   2845     1
   2820   2842     1
   2820   2839     1
   2821   2836     1
   2821   2830     1
   2821   5726     1
   2824   2833     1
   2824   2830     1
   2824   5712     1
   2827   2833     1
   2827   2836     1
   2827   2848     1
   2833   5720     1
   2836   5706     1
   2842   5703     1
   2845   5717     1
   2850   2875     1
   2850   2872     1
   2850   2869     1
   2851   2866     1
   2851   2860     1
   2851   5754     1
   2854   2863     1
   2854   2860     1
   2854   5740     1
   2857   2863     1
   2857   2866     1
   2857   2878     1
   2863   5748     1
   2866   5734     1
   2872   5731     1
   2875   5745     1
   2880   2905     1
   2880   2902     1
   2880   2899     1
   2881   2896     1
   2881   2890     1
   2881   5782     1
   2884   2893     1
   2884   2890     1
   2884   5768     1
   2887   2893     1
   2887   2896     1
   2887   2908     1
   2893   5776     1
   2896   5762     1
   2902   5759     1
   2905   5773     1
   2910   2935     1
   2910   2932     1
   2910   2929     1
   2911   2926     1
   2911   2920     1
   2911   5810     1
   2914   2923     1
   2914   2920     1
   2914   5796     1
   2917   2923     1
   2917   2926     1
   2917   2938     1
   2923   5804     1
   2926   5790     1
   2932   5787     1
   2935   5801     1
   2940   2965     1
   2940   2962     1
   2940   2959     1
   2941   2956     1
   2941   2950     1
   2941   5838     1
   2944   2953     1
   2944   2950     1
   2944   5824     1
   2947   2953     1
   2947   2956     1
   2947   2968     1
   2953   5832     1
   2956   5818     1
   2962   5815     1
   2965   5829     1
   2970   2995     1
   2970   2992     1
   2970   2989     1
   2971   2986     1
   2971   2980     1
   2971   5866     1
   2974   2983     1
   2974   2980     1
   2974   5852     1
   2977   2983     1
   2977   2986     1
   2977   2998     1
   2983   5860     1
   2986   5846     1
   2992   5843     1
   2995   5857     1
   3000   3025     1
   3000   3022     1
   3000   3019     1
   3001   3016     1
   3001   3010     1
   3001   5894     1
   3004   3013     1
   3004   3010     1
   3004   5880     1
   3007   3013     1
   3007   3016     1
   3007   3028     1
   3013   5888     1
   3016   5874     1
   3022   5871     1
   3025   5885     1
   3030   3055     1
   3030   3052     1
   3030   3049     1
   3031   3046     1
   3031   3040     1
   3031   5922     1
   3034   3043     1
   3034   3040     1
   3034   5908     1
   3037   3043     1
   3037   3046     1
   3037   3058     1
   3043   5916     1
   3046   5902     1
   3052   5899     1
   3055   5913     1
   3060   3085     1
   3060   3082     1
   3060   3079     1
   3061   3076     1
   3061   3070     1
   3061   5950     1
   3064   3073     1
   3064   3070     1
   3064   5936     1
   3067   3073     1
   3067   3076     1
   3067   3088     1
   3073   5944     1
   3076   5930     1
   3082   5927     1
   3085   5941     1
   3090   3115     1
   3090   3112     1
   3090   3109     1
   3091   3106     1
   3091   3100     1
   3091   5978     1
   3094   3103     1
   3094   3100     1
   3094   5964     1
   3097   3103     1
   3097   3106     1
   3097   3118     1
   3103   5972     1
   3106   5958     1
   3112   5955     1
   3115   5969     1
   3120   3145     1
   3120   3142     1
   3120   3139     1
   3121   3136     1
   3121   3130     1
   3121   6006     1
   3124   3133     1
   3124   3130     1
   3124   5992     1
   3127   3133     1
   3127   3136     1
   3127   3148     1
   3133   6000     1
   3136   5986     1
   3142   5983     1
   3145   5997     1
   3150   3175     1
   3150   3172     1
   3150   3169     1
   3151   3166     1
   3151   3160     1
   3151   6034     1
   3154   3163     1
   3154   3160     1
   3154   6020     1
   3157   3163     1
   3157   3166     1
   3157   3178     1
   3163   6028     1
   3166   6014     1
   3172   6011     1
   3175   6025     1
   3180   3205     1
   3180   3202     1
   3180   3199     1
   3181   3196     1
   3181   3190     1
   3181   6062     1
   3184   3193     1
   3184   3190     1
   3184   6048     1
   3187   3193     1
   3187   3196     1
   3187   3208     1
   3193   6056     1
   3196   6042     1
   3202   6039     1
   3205   6053     1
   3210   3235     1
   3210   3232     1
   3210   3229     1
   3211   3226     1
   3211   3220     1
   3211   6090     1
   3214   3223     1
   3214   3220     1
   3214   6076     1
   3217   3223     1
   3217   3226     1
   3217   3238     1
   3223   6084     1
   3226   6070     1
   3232   6067     1
   3235   6081     1
   3240   3265     1
   3240   3262     1
   3240   3259     1
   3241   3256     1
   3241   3250     1
   3241   6118     1
   3244   3253     1
   3244   3250     1
   3244   6104     1
   3247   3253     1
   3247   3256     1
   3247   3268     1
   3253   6112     1
   3256   6098     1
   3262   6095     1
   3265   6109     1
   3270   3295     1
   3270   3292     1
   3270   3289     1
   3271   3286     1
   3271   3280     1
   3271   6146     1
   3274   3283     1
   3274   3280     1
   3274   6132     1
   3277   3283     1
   3277   3286     1
   3277   3298     1
   3283   6140     1
   3286   6126     1
   3292   6123     1
   3295   6137     1
   3300   3325     1
   3300   3322     1
   3300   3319     1
   3301   3316     1
   3301   3310     1
   3301   6174     1
   3304   3313     1
   3304   3310     1
   3304   6160     1
   3307   3313     1
   3307   3316     1
   3307   3328     1
   3313   6168     1
   3316   6154     1
   3322   6151     1
   3325   6165     1
   3330   3355     1
   3330   3352     1
   3330   3349     1
   3331   3346     1
   3331   3340     1
   3331   6202     1
   3334   3343     1
   3334   3340     1
   3334   6188     1
   3337   3343     1
   3337   3346     1
   3337   3358     1
   3343   6196     1
   3346   6182     1
   3352   6179     1
   3355   6193     1
   3360   3385     1
   3360   3382     1
   3360   3379     1
   3361   3376     1
   3361   3370     1
   3361   6230     1
   3364   3373     1
   3364   3370     1
   3364   6216     1
   3367   3373     1
   3367   3376     1
   3367   3388     1
   3373   6224     1
   3376   6210     1
   3382   6207     1
   3385   6221     1
   3390   3415     1
   3390   3412     1
   3390   3409     1
   3391   3406     1
   3391   3400     1
   3391   6258     1
   3394   3403     1
   3394   3400     1
   3394   6244     1
   3397   3403     1
   3397   3406     1
   3397   3418     1
   3403   6252     1
   3406   6238     1
   3412   6235     1
   3415   6249     1
   3420   3445     1
   3420   3442     1
   3420   3439     1
   3421   3436     1
   3421   3430     1
   3421   6286     1
   3424   3433     1
   3424   3430     1
   3424   6272     1
   3427   3433     1
   3427   3436     1
   3427   3448     1
   3433   6280     1
   3436   6266     1
   3442   6263     1
   3445   6277     1
   3450   3475     1
   3450   3472     1
   3450   3469     1
   3451   3466     1
   3451   3460     1
   3451   6314     1
   3454   3463     1
   3454   3460     1
   3454   6300     1
   3457   3463     1
   3457   3466     1
   3457   3478     1
   3463   6308     1
   3466   6294     1
   3472   6291     1
   3475   6305     1
   3480   3505     1
   3480   3502     1
   3480   3499     1
   3481   3496     1
   3481   3490     1
   3481   6342     1
   3484   3493     1
   3484   3490     1
   3484   6328     1
   3487   3493     1
   3487   3496     1
   3487   3508     1
   3493   6336     1
   3496   6322     1
   3502   6319     1
   3505   6333     1
   3510   3535     1
   3510   3532     1
   3510   3529     1
   3511   3526     1
   3511   3520     1
   3511   6370     1
   3514   3523     1
   3514   3520     1
   3514   6356     1
   3517   3523     1
   3517   3526     1
   3517   3538     1
   3523   6364     1
   3526   6350     1
   3532   6347     1
   3535   6361     1
   3540   3565     1
   3540   3562     1
   3540   3559     1
   3541   3556     1
   3541   3550     1
   3541   6398     1
   3544   3553     1
   3544   3550     1
   3544   6384     1
   3547   3553     1
   3547   3556     1
   3547   3568     1
   3553   6392     1
   3556   6378     1
   3562   6375     1
   3565   6389     1
   3570   3595     1
   3570   3592     1
   3570   3589     1
   3571   3586     1
   3571   3580     1
   3571   6426     1
   3574   3583     1
   3574   3580     1
   3574   6412     1
   3577   3583     1
   3577   3586     1
   3577   3598     1
   3583   6420     1
   3586   6406     1
   3592   6403     1
   3595   6417     1
   3600   3625     1
   3600   3622     1
   3600   3619     1
   3601   3616     1
   3601   3610     1
   3601   6454     1
   3604   3613     1
   3604   3610     1
   3604   6440     1
   3607   3613     1
   3607   3616     1
   3607   3628     1
   3613   6448     1
   3616   6434     1
   3622   6431     1
   3625   6445     1
   3630   3655     1
   3630   3652     1
   3630   3649     1
   3631   3646     1
   3631   3640     1
   3631   6482     1
   3634   3643     1
   3634   3640     1
   3634   6468     1
   3637   3643     1
   3637   3646     1
   3637   3658     1
   3643   6476     1
   3646   6462     1
   3652   6459     1
   3655   6473     1
   3660   3685     1
   3660   3682     1
   3660   3679     1
   3661   3676     1
   3661   3670     1
   3661   6510     1
   3664   3673     1
   3664   3670     1
   3664   6496     1
   3667   3673     1
   3667   3676     1
   3667   3688     1
   3673   6504     1
   3676   6490     1
   3682   6487     1
   3685   6501     1
   3690   3715     1
   3690   3712     1
   3690   3709     1
   3691   3706     1
   3691   3700     1
   3691   6538     1
   3694   3703     1
   3694   3700     1
   3694   6524     1
   3697   3703     1
   3697   3706     1
   3697   3718     1
   3703   6532     1
   3706   6518     1
   3712   6515     1
   3715   6529     1
   3720   3745     1
   3720   3742     1
   3720   3739     1
   3721   3736     1
   3721   3730     1
   3721   6566     1
   3724   3733     1
   3724   3730     1
   3724   6552     1
   3727   3733     1
   3727   3736     1
   3727   3748     1
   3733   6560     1
   3736   6546     1
   3742   6543     1
   3745   6557     1
   3750   3775     1
   3750   3772     1
   3750   3769     1
   3751   3766     1
   3751   3760     1
   3751   6594     1
   3754   3763     1
   3754   3760     1
   3754   6580     1
   3757   3763     1
   3757   3766     1
   3757   3778     1
   3763   6588     1
   3766   6574     1
   3772   6571     1
   3775   6585     1
   3780   3805     1
   3780   3802     1
   3780   3799     1
   3781   3796     1
   3781   3790     1
   3781   6622     1
   3784   3793     1
   3784   3790     1
   3784   6608     1
   3787   3793     1
   3787   3796     1
   3787   3808     1
   3793   6616     1
   3796   6602     1
   3802   6599     1
   3805   6613     1
   3810   3835     1
   3810   3832     1
   3810   3829     1
   3811   3826     1
   3811   3820     1
   3811   6650     1
   3814   3823     1
   3814   3820     1
   3814   6636     1
   3817   3823     1
   3817   3826     1
   3817   3838     1
   3823   6644     1
   3826   6630     1
   3832   6627     1
   3835   6641     1
   3840   3865     1
   3840   3862     1
   3840   3859     1
   3841   3856     1
   3841   3850     1
   3841   6678     1
   3844   3853     1
   3844   3850     1
   3844   6664     1
   3847   3853     1
   3847   3856     1
   3847   3868     1
   3853   6672     1
   3856   6658     1
   3862   6655     1
   3865   6669     1
   3870   3895     1
   3870   3892     1
   3870   3889     1
   3871   3886     1
   3871   3880     1
   3871   6706     1
   3874   3883     1
   3874   3880     1
   3874   6692     1
   3877   3883     1
   3877   3886     1
   3877   3898     1
   3883   6700     1
   3886   6686     1
   3892   6683     1
   3895   6697     1
   3900   3925     1
   3900   3922     1
   3900   3919     1
   3901   3916     1
   3901   3910     1
   3901   6734     1
   3904   3913     1
   3904   3910     1
   3904   6720     1
   3907   3913     1
   3907   3916     1
   3907   3928     1
   3913   6728     1
   3916   6714     1
   3922   6711     1
   3925   6725     1
   3930   3955     1
   3930   3952     1
   3930   3949     1
   3931   3946     1
   3931   3940     1
   3931   6762     1
   3934   3943     1
   3934   3940     1
   3934   6748     1
   3937   3943     1
   3937   3946     1
   3937   3958     1
   3943   6756     1
   3946   6742     1
   3952   6739     1
   3955   6753     1
   3960   3985     1
   3960   3982     1
   3960   3979     1
   3961   3976     1
   3961   3970     1
   3961   6790     1
   3964   3973     1
   3964   3970     1
   3964   6776     1
   3967   3973     1
   3967   3976     1
   3967   3988     1
   3973   6784     1
   3976   6770     1
   3982   6767     1
   3985   6781     1
   3990   4015     1
   3990   4012     1
   3990   4009     1
   3991   4006     1
   3991   4000     1
   3991   6818     1
   3994   4003     1
   3994   4000     1
   3994   6804     1
   3997   4003     1
   3997   4006     1
   3997   4018     1
   4003   6812     1
   4006   6798     1
   4012   6795     1
   4015   6809     1
   4020   4045     1
   4020   4042     1
   4020   4039     1
   4021   4036     1
   4021   4030     1
   4021   6846     1
   4024   4033     1
   4024   4030     1
   4024   6832     1
   4027   4033     1
   4027   4036     1
   4027   4048     1
   4033   6840     1
   4036   6826     1
   4042   6823     1
   4045   6837     1
   4050   4075     1
   4050   4072     1
   4050   4069     1
   4051   4066     1
   4051   4060     1
   4051   6874     1
   4054   4063     1
   4054   4060     1
   4054   6860     1
   4057   4063     1
   4057   4066     1
   4057   4078     1
   4063   6868     1
   4066   6854     1
   4072   6851     1
   4075   6865     1
   4080   4105     1
   4080   4102     1
   4080   4099     1
   4081   4096     1
   4081   4090     1
   4081   6902     1
   4084   4093     1
   4084   4090     1
   4084   6888     1
   4087   4093     1
   4087   4096     1
   4087   4108     1
   4093   6896     1
   4096   6882     1
   4102   6879     1
   4105   6893     1
   4110   4135     1
   4110   4132     1
   4110   4129     1
   4111   4126     1
   4111   4120     1
   4111   6930     1
   4114   4123     1
   4114   4120     1
   4114   6916     1
   4117   4123     1
   4117   4126     1
   4117   4138     1
   4123   6924     1
   4126   6910     1
   4132   6907     1
   4135   6921     1
   4140   4165     1
   4140   4162     1
   4140   4159     1
   4141   4156     1
   4141   4150     1
   4141   6958     1
   4144   4153     1
   4144   4150     1
   4144   6944     1
   4147   4153     1
   4147   4156     1
   4147   4168     1
   4153   6952     1
   4156   6938     1
   4162   6935     1
   4165   6949     1
   4170   4195     1
   4170   4192     1
   4170   4189     1
   4171   4186     1
   4171   4180     1
   4171   6986     1
   4174   4183     1
   4174   4180     1
   4174   6972     1
   4177   4183     1
   4177   4186     1
   4177   4198     1
   4183   6980     1
   4186   6966     1
   4192   6963     1
   4195   6977     1
   4200   4225     1
   4200   4222     1
   4200   4219     1
   4201   4216     1
   4201   4210     1
   4201   7014     1
   4204   4213     1
   4204   4210     1
   4204   7000     1
   4207   4213     1
   4207   4216     1
   4207   4228     1
   4213   7008     1
   4216   6994     1
   4222   6991     1
   4225   7005     1
   4230   4255     1
   4230   4252     1
   4230   4249     1
   4231   4246     1
   4231   4240     1
   4231   7042     1
   4234   4243     1
   4234   4240     1
   4234   7028     1
   4237   4243     1
   4237   4246     1
   4237   4258     1
   4243   7036     1
   4246   7022     1
   4252   7019     1
   4255   7033     1
   4260   4285     1
   4260   4282     1
   4260   4279     1
   4261   4276     1
   4261   4270     1
   4261   7070     1
   4264   4273     1
   4264   4270     1
   4264   7056     1
   4267   4273     1
   4267   4276     1
   4267   4288     1
   4273   7064     1
   4276   7050     1
   4282   7047     1
   4285   7061     1
   4290   4315     1
   4290   4312     1
   4290   4309     1
   4291   4306     1
   4291   4300     1
   4291   7098     1
   4294   4303     1
   4294   4300     1
   4294   7084     1
   4297   4303     1
   4297   4306     1
   4297   4318     1
   4303   7092     1
   4306   7078     1
   4312   7075     1
   4315   7089     1
   4320   4345     1
   4320   4342     1
   4320   4339     1
   4321   4336     1
   4321   4330     1
   4321   7126     1
   4324   4333     1
   4324   4330     1
   4324   7112     1
   4327   4333     1
   4327   4336     1
   4327   4348     1
   4333   7120     1
   4336   7106     1
   4342   7103     1
   4345   7117     1
   4350   4375     1
   4350   4372     1
   4350   4369     1
   4351   4366     1
   4351   4360     1
   4351   7154     1
   4354   4363     1
   4354   4360     1
   4354   7140     1
   4357   4363     1
   4357   4366     1
   4357   4378     1
   4363   7148     1
   4366   7134     1
   4372   7131     1
   4375   7145     1
   4380   4405     1
   4380   4402     1
   4380   4399     1
   4381   4396     1
   4381   4390     1
   4381   7182     1
   4384   4393     1
   4384   4390     1
   4384   7168     1
   4387   4393     1
   4387   4396     1
   4387   4408     1
   4393   7176     1
   4396   7162     1
   4402   7159     1
   4405   7173     1
   4410   4435     1
   4410   4432     1
   4410   4429     1
   4411   4426     1
   4411   4420     1
   4411   7210     1
   4414   4423     1
   4414   4420     1
   4414   7196     1
   4417   4423     1
   4417   4426     1
   4417   4438     1
   4423   7204     1
   4426   7190     1
   4432   7187     1
   4435   7201     1
   4440   4465     1
   4440   4462     1
   4440   4459     1
   4441   4456     1
   4441   4450     1
   4441   7238     1
   4444   4453     1
   4444   4450     1
   4444   7224     1
   4447   4453     1
   4447   4456     1
   4447   4468     1
   4453   7232     1
   4456   7218     1
   4462   7215     1
   4465   7229     1
   4470   4495     1
   4470   4492     1
   4470   4489     1
   4471   4486     1
   4471   4480     1
   4471   7266     1
   4474   4483     1
   4474   4480     1
   4474   7252     1
   4477   4483     1
   4477   4486     1
   4477   4498     1
   4483   7260     1
   4486   7246     1
   4492   7243     1
   4495   7257     1
   4500   4525     1
   4500   4522     1
   4500   4519     1
   4501   4516     1
   4501   4510     1
   4501   7294     1
   4504   4513     1
   4504   4510     1
   4504   7280     1
   4507   4513     1
   4507   4516     1
   4507   4528     1
   4513   7288     1
   4516   7274     1
   4522   7271     1
   4525   7285     1
   4530   4555     1
   4530   4552     1
   4530   4549     1
   4531   4546     1
   4531   4540     1
   4531   7322     1
   4534   4543     1
   4534   4540     1
   4534   7308     1
   4537   4543     1
   4537   4546     1
   4537   4558     1
   4543   7316     1
   4546   7302     1
   4552   7299     1
   4555   7313     1
   4560   4585     1
   4560   4582     1
   4560   4579     1
   4561   4576     1
   4561   4570     1
   4561   7350     1
   4564   4573     1
   4564   4570     1
   4564   7336     1
   4567   4573     1
   4567   4576     1
   4567   4588     1
   4573   7344     1
   4576   7330     1
   4582   7327     1
   4585   7341     1
   4590   4615     1
   4590   4612     1
   4590   4609     1
   4591   4606     1
   4591   4600     1
   4591   7378     1
   4594   4603     1
   4594   4600     1
   4594   7364     1
   4597   4603     1
   4597   4606     1
   4597   4618     1
   4603   7372     1
   4606   7358     1
   4612   7355     1
   4615   7369     1
   4620   4645     1
   4620   4642     1
   4620   4639     1
   4621   4636     1
   4621   4630     1
   4621   7406     1
   4624   4633     1
   4624   4630     1
   4624   7392     1
   4627   4633     1
   4627   4636     1
   4627   4648     1
   4633   7400     1
   4636   7386     1
   4642   7383     1
   4645   7397     1
   4650   4675     1
   4650   4672     1
   4650   4669     1
   4651   4666     1
   4651   4660     1
   4651   7434     1
   4654   4663     1
   4654   4660     1
   4654   7420     1
   4657   4663     1
   4657   4666     1
   4657   4678     1
   4663   7428     1
   4666   7414     1
   4672   7411     1
   4675   7425     1
   4680   4705     1
   4680   4702     1
   4680   4699     1
   4681   4696     1
   4681   4690     1
   4681   7462     1
   4684   4693     1
   4684   4690     1
   4684   7448     1
   4687   4693     1
   4687   4696     1
   4687   4708     1
   4693   7456     1
   4696   7442     1
   4702   7439     1
   4705   7453     1
   4710   4735     1
   4710   4732     1
   4710   4729     1
   4711   4726     1
   4711   4720     1
   4711   7490     1
   4714   4723     1
   4714   4720     1
   4714   7476     1
   4717   4723     1
   4717   4726     1
   4717   4738     1
   4723   7484     1
   4726   7470     1
   4732   7467     1
   4735   7481     1
   4740   4765     1
   4740   4762     1
   4740   4759     1
   4741   4756     1
   4741   4750     1
   4741   7518     1
   4744   4753     1
   4744   4750     1
   4744   7504     1
   4747   4753     1
   4747   4756     1
   4747   4768     1
   4753   7512     1
   4756   7498     1
   4762   7495     1
   4765   7509     1
   4770   4795     1
   4770   4792     1
   4770   4789     1
   4771   4786     1
   4771   4780     1
   4771   7546     1
   4774   4783     1
   4774   4780     1
   4774   7532     1
   4777   4783     1
   4777   4786     1
   4777   4798     1
   4783   7540     1
   4786   7526     1
   4792   7523     1
   4795   7537     1
   4800   4825     1
   4800   4822     1
   4800   4819     1
   4801   4816     1
   4801   4810     1
   4801   7574     1
   4804   4813     1
   4804   4810     1
   4804   7560     1
   4807   4813     1
   4807   4816     1
   4807   4828     1
   4813   7568     1
   4816   7554     1
   4822   7551     1
   4825   7565     1
   4830   4855     1
   4830   4852     1
   4830   4849     1
   4831   4846     1
   4831   4840     1
   4831   7602     1
   4834   4843     1
   4834   4840     1
   4834   7588     1
   4837   4843     1
   4837   4846     1
   4837   4858     1
   4843   7596     1
   4846   7582     1
   4852   7579     1
   4855   7593     1
   4860   4885     1
   4860   4882     1
   4860   4879     1
   4861   4876     1
   4861   4870     1
   4861   7630     1
   4864   4873     1
   4864   4870     1
   4864   7616     1
   4867   4873     1
   4867   4876     1
   4867   4888     1
   4873   7624     1
   4876   7610     1
   4882   7607     1
   4885   7621     1
   4890   4915     1
   4890   4912     1
   4890   4909     1
   4891   4906     1
   4891   4900     1
   4891   7658     1
   4894   4903     1
   4894   4900     1
   4894   7644     1
   4897   4903     1
   4897   4906     1
   4897   4918     1
   4903   7652     1
   4906   7638     1
   4912   7635     1
   4915   7649     1
   4920   4945     1
   4920   4942     1
   4920   4939     1
   4921   4936     1
   4921   4930     1
   4921   7686     1
   4924   4933     1
   4924   4930     1
   4924   7672     1
   4927   4933     1
   4927   4936     1
   4927   4948     1
   4933   7680     1
   4936   7666     1
   4942   7663     1
   4945   7677     1
   4950   4975     1
   4950   4972     1
   4950   4969     1
   4951   4966     1
   4951   4960     1
   4951   7714     1
   4954   4963     1
   4954   4960     1
   4954   7700     1
   4957   4963     1
   4957   4966     1
   4957   4978     1
   4963   7708     1
   4966   7694     1
   4972   7691     1
   4975   7705     1
   4980   5005     1
   4980   5002     1
   4980   4999     1
   4981   4996     1
   4981   4990     1
   4981   7742     1
   4984   4993     1
   4984   4990     1
   4984   7728     1
   4987   4993     1
   4987   4996     1
   4987   5008     1
   4993   7736     1
   4996   7722     1
   5002   7719     1
   5005   7733     1
   5010   5035     1
   5010   5032     1
   5010   5029     1
   5011   5026     1
   5011   5020     1
   5011   7770     1
   5014   5023     1
   5014   5020     1
   5014   7756     1
   5017   5023     1
   5017   5026     1
   5017   5038     1
   5023   7764     1
   5026   7750     1
   5032   7747     1
   5035   7761     1
   5040   5065     1
   5040   5062     1
   5040   5059     1
   5041   5056     1
   5041   5050     1
   5041   7798     1
   5044   5053     1
   5044   5050     1
   5044   7784     1
   5047   5053     1
   5047   5056     1
   5047   5068     1
   5053   7792     1
   5056   7778     1
   5062   7775     1
   5065   7789     1
   5070   5095     1
   5070   5092     1
   5070   5089     1
   5071   5086     1
   5071   5080     1
   5071   7826     1
   5074   5083     1
   5074   5080     1
   5074   7812     1
   5077   5083     1
   5077   5086     1
   5077   5098     1
   5083   7820     1
   5086   7806     1
   5092   7803     1
   5095   7817     1
   5100   5125     1
   5100   5122     1
   5100   5119     1
   5101   5116     1
   5101   5110     1
   5101   7854     1
   5104   5113     1
   5104   5110     1
   5104   7840     1
   5107   5113     1
   5107   5116     1
   5107   5128     1
   5113   7848     1
   5116   7834     1
   5122   7831     1
   5125   7845     1
   5130   5155     1
   5130   5152     1
   5130   5149     1
   5131   5146     1
   5131   5140     1
   5131   7882     1
   5134   5143     1
   5134   5140     1
   5134   7868     1
   5137   5143     1
   5137   5146     1
   5137   5158     1
   5143   7876     1
   5146   7862     1
   5152   7859     1
   5155   7873     1
   5160   5185     1
   5160   5182     1
   5160   5179     1
   5161   5176     1
   5161   5170     1
   5161   7910     1
   5164   5173     1
   5164   5170     1
   5164   7896     1
   5167   5173     1
   5167   5176     1
   5167   5188     1
   5173   7904     1
   5176   7890     1
   5182   7887     1
   5185   7901     1
   5190   5215     1
   5190   5212     1
   5190   5209     1
   5191   5206     1
   5191   5200     1
   5191   7938     1
   5194   5203     1
   5194   5200     1
   5194   7924     1
   5197   5203     1
   5197   5206     1
   5197   5218     1
   5203   7932     1
   5206   7918     1
   5212   7915     1
   5215   7929     1
   5220   5245     1
   5220   5242     1
   5220   5239     1
   5221   5236     1
   5221   5230     1
   5221   7966     1
   5224   5233     1
   5224   5230     1
   5224   7952     1
   5227   5233     1
   5227   5236     1
   5227   5248     1
   5233   7960     1
   5236   7946     1
   5242   7943     1
   5245   7957     1
   5250   5275     1
   5250   5272     1
   5250   5269     1
   5251   5266     1
   5251   5260     1
   5251   7994     1
   5254   5263     1
   5254   5260     1
   5254   7980     1
   5257   5263     1
   5257   5266     1
   5257   5278     1
   5263   7988     1
   5266   7974     1
   5272   7971     1
   5275   7985     1
   5280   5305     1
   5280   5302     1
   5280   5299     1
   5281   5296     1
   5281   5290     1
   5281   8022     1
   5284   5293     1
   5284   5290     1
   5284   8008     1
   5287   5293     1
   5287   5296     1
   5287   5308     1
   5293   8016     1
   5296   8002     1
   5302   7999     1
   5305   8013     1
   5310   5335     1
   5310   5332     1
   5310   5329     1
   5311   5326     1
   5311   5320     1
   5311   8050     1
   5314   5323     1
   5314   5320     1
   5314   8036     1
   5317   5323     1
   5317   5326     1
   5317   5338     1
   5323   8044     1
   5326   8030     1
   5332   8027     1
   5335   8041     1
   5340   5365     1
   5340   5362     1
   5340   5359     1
   5341   5356     1
   5341   5350     1
   5341   8078     1
   5344   5353     1
   5344   5350     1
   5344   8064     1
   5347   5353     1
   5347   5356     1
   5347   5368     1
   5353   8072     1
   5356   8058     1
   5362   8055     1
   5365   8069     1
   5370   5395     1
   5370   5392     1
   5370   5389     1
   5371   5386     1
   5371   5380     1
   5371   8106     1
   5374   5383     1
   5374   5380     1
   5374   8092     1
   5377   5383     1
   5377   5386     1
   5377   5398     1
   5383   8100     1
   5386   8086     1
   5392   8083     1
   5395   8097     1
   5400   5425     1
   5400   5422     1
   5400   5419     1
   5401   5416     1
   5401   5410     1
   5401   8134     1
   5404   5413     1
   5404   5410     1
   5404   8120     1
   5407   5413     1
   5407   5416     1
   5407   5428     1
   5413   8128     1
   5416   8114     1
   5422   8111     1
   5425   8125     1
   5430   5455     1
   5430   5452     1
   5430   5449     1
   5431   5446     1
   5431   5440     1
   5431   8162     1
   5434   5443     1
   5434   5440     1
   5434   8148     1
   5437   5443     1
   5437   5446     1
   5437   5458     1
   5443   8156     1
   5446   8142     1
   5452   8139     1
   5455   8153     1
   5460   5485     1
   5460   5482     1
   5460   5479     1
   5461   5476     1
   5461   5470     1
   5461   8190     1
   5464   5473     1
   5464   5470     1
   5464   8176     1
   5467   5473     1
   5467   5476     1
   5467   5488     1
   5473   8184     1
   5476   8170     1
   5482   8167     1
   5485   8181     1
   5490   5515     1
   5490   5512     1
   5490   5509     1
   5491   5506     1
   5491   5500     1
   5491   8218     1
   5494   5503     1
   5494   5500     1
   5494   8204     1
   5497   5503     1
   5497   5506     1
   5497   5518     1
   5503   8212     1
   5506   8198     1
   5512   8195     1
   5515   8209     1
   5520   5545     1
   5520   5542     1
   5520   5539     1
   5521   5536     1
   5521   5530     1
   5521   8246     1
   5524   5533     1
   5524   5530     1
   5524   8232     1
   5527   5533     1
   5527   5536     1
   5527   5548     1
   5533   8240     1
   5536   8226     1
   5542   8223     1
   5545   8237     1
   5550   5575     1
   5550   5572     1
   5550   5569     1
   5551   5566     1
   5551   5560     1
   5551   8274     1
   5554   5563     1
   5554   5560     1
   5554   8260     1
   5557   5563     1
   5557   5566     1
   5557   5578     1
   5563   8268     1
   5566   8254     1
   5572   8251     1
   5575   8265     1
   5580   5605     1
   5580   5602     1
   5580   5599     1
   5581   5596     1
   5581   5590     1
   5581   8302     1
   5584   5593     1
   5584   5590     1
   5584   8288     1
   5587   5593     1
   5587   5596     1
   5587   5608     1
   5593   8296     1
   5596   8282     1
   5602   8279     1
   5605   8293     1
   5610   5635     1
   5610   5632     1
   5610   5629     1
   5611   5626     1
   5611   5620     1
   5611   8330     1
   5614   5623     1
   5614   5620     1
   5614   8316     1
   5617   5623     1
   5617   5626     1
   5617   5638     1
   5623   8324     1
   5626   8310     1
   5632   8307     1
   5635   8321     1
   5640   5665     1
   5640   5662     1
   5640   5659     1
   5641   5656     1
   5641   5650     1
   5641   8358     1
   5644   5653     1
   5644   5650     1
   5644   8344     1
   5647   5653     1
   5647   5656     1
   5647   5668     1
   5653   8352     1
   5656   8338     1
   5662   8335     1
   5665   8349     1
   5670   5695     1
   5670   5692     1
   5670   5689     1
   5671   5686     1
   5671   5680     1
   5671   8386     1
   5674   5683     1
   5674   5680     1
   5674   8372     1
   5677   5683     1
   5677   5686     1
   5677   5698     1
   5683   8380     1
   5686   8366     1
   5692   8363     1
   5695   8377     1
   5700   5712     1
   5706   5709     1
   5714   5726     1
   5720   5723     1
   5728   5740     1
   5734   5737     1
   5742   5754     1
   5748   5751     1
   5756   5768     1
   5762   5765     1
   5770   5782     1
   5776   5779     1
   5784   5796     1
   5790   5793     1
   5798   5810     1
   5804   5807     1
   5812   5824     1
   5818   5821     1
   5826   5838     1
   5832   5835     1
   5840   5852     1
   5846   5849     1
   5854   5866     1
   5860   5863     1
   5868   5880     1
   5874   5877     1
   5882   5894     1
   5888   5891     1
   5896   5908     1
   5902   5905     1
   5910   5922     1
   5916   5919     1
   5924   5936     1
   5930   5933     1
   5938   5950     1
   5944   5947     1
   5952   5964     1
   5958   5961     1
   5966   5978     1
   5972   5975     1
   5980   5992     1
   5986   5989     1
   5994   6006     1
   6000   6003     1
   6008   6020     1
   6014   6017     1
   6022   6034     1
   6028   6031     1
   6036   6048     1
   6042   6045     1
   6050   6062     1
   6056   6059     1
   6064   6076     1
   6070   6073     1
   6078   6090     1
   6084   6087     1
   6092   6104     1
   6098   6101     1
   6106   6118     1
   6112   6115     1
   6120   6132     1
   6126   6129     1
   6134   6146     1
   6140   6143     1
   6148   6160     1
   6154   6157     1
   6162   6174     1
   6168   6171     1
   6176   6188     1
   6182   6185     1
   6190   6202     1
   6196   6199     1
   6204   6216     1
   6210   6213     1
   6218   6230     1
   6224   6227     1
   6232   6244     1
   6238   6241     1
   6246   6258     1
   6252   6255     1
   6260   6272     1
   6266   6269     1
   6274   6286     1
   6280   6283     1
   6288   6300     1
   6294   6297     1
   6302   6314     1
   6308   6311     1
   6316   6328     1
   6322   6325     1
   6330   6342     1
   6336   6339     1
   6344   6356     1
   6350   6353     1
   6358   6370     1
   6364   6367     1
   6372   6384     1
   6378   6381     1
   6386   6398     1
   6392   6395     1
   6400   6412     1
   6406   6409     1
   6414   6426     1
   6420   6423     1
   6428   6440     1
   6434   6437     1
   6442   6454     1
   6448   6451     1
   6456   6468     1
   6462   6465     1
   6470   6482     1
   6476   6479     1
   6484   6496     1
   6490   6493     1
   6498   6510     1
   6504   6507     1
   6512   6524     1
   6518   6521     1
   6526   6538     1
   6532   6535     1
   6540   6552     1
   6546   6549     1
   6554   6566     1
   6560   6563     1
   6568   6580     1
   6574   6577     1
   6582   6594     1
   6588   6591     1
   6596   6608     1
   6602   6605     1
   6610   6622     1
   6616   6619     1
   6624   6636     1
   6630   6633     1
   6638   6650     1
   6644   6647     1
   6652   6664     1
   6658   6661     1
   6666   6678     1
   6672   6675     1
   6680   6692     1
   6686   6689     1
   6694   6706     1
   6700   6703     1
   6708   6720     1
   6714   6717     1
   6722   6734     1
   6728   6731     1
   6736   6748     1
   6742   6745     1
   6750   6762     1
   6756   6759     1
   6764   6776     1
   6770   6773     1
   6778   6790     1
   6784   6787     1
   6792   6804     1
   6798   6801     1
   6806   6818     1
   6812   6815     1
   6820   6832     1
   6826   6829     1
   6834   6846     1
   6840   6843     1
   6848   6860     1
   6854   6857     1
   6862   6874     1
   6868   6871     1
   6876   6888     1
   6882   6885     1
   6890   6902     1
   6896   6899     1
   6904   6916     1
   6910   6913     1
   6918   6930     1
   6924   6927     1
   6932   6944     1
   6938   6941     1
   6946   6958     1
   6952   6955     1
   6960   6972     1
   6966   6969     1
   6974   6986     1
   6980   6983     1
   6988   7000     1
   6994   6997     1
   7002   7014     1
   7008   7011     1
   7016   7028     1
   7022   7025     1
   7030   7042     1
   7036   7039     1
   7044   7056     1
   7050   7053     1
   7058   7070     1
   7064   7067     1
   7072   7084     1
   7078   7081     1
   7086   7098     1
   7092   7095     1
   7100   7112     1
   7106   7109     1
   7114   7126     1
   7120   7123     1
   7128   7140     1
   7134   7137     1
   7142   7154     1
   7148   7151     1
   7156   7168     1
   7162   7165     1
   7170   7182     1
   7176   7179     1
   7184   7196     1
   7190   7193     1
   7198   7210     1
   7204   7207     1
   7212   7224     1
   7218   7221     1
   7226   7238     1
   7232   7235     1
   7240   7252     1
   7246   7249     1
   7254   7266     1
   7260   7263     1
   7268   7280     1
   7274   7277     1
   7282   7294     1
   7288   7291     1
   7296   7308     1
   7302   7305     1
   7310   7322     1
   7316   7319     1
   7324   7336     1
   7330   7333     1
   7338   7350     1
   7344   7347     1
   7352   7364     1
   7358   7361     1
   7366   7378     1
   7372   7375     1
   7380   7392     1
   7386   7389     1
   7394   7406     1
   7400   7403     1
   7408   7420     1
   7414   7417     1
   7422   7434     1
   7428   7431     1
   7436   7448     1
   7442   7445     1
   7450   7462     1
   7456   7459     1
   7464   7476     1
   7470   7473     1
   7478   7490     1
   7484   7487     1
   7492   7504     1
   7498   7501     1
   7506   7518     1
   7512   7515     1
   7520   7532     1
   7526   7529     1
   7534   7546     1
   7540   7543     1
   7548   7560     1
   7554   7557     1
   7562   7574     1
   7568   7571     1
   7576   7588     1
   7582   7585     1
   7590   7602     1
   7596   7599     1
   7604   7616     1
   7610   7613     1
   7618   7630     1
   7624   7627     1
   7632   7644     1
   7638   7641     1
   7646   7658     1
   7652   7655     1
   7660   7672     1
   7666   7669     1
   7674   7686     1
   7680   7683     1
   7688   7700     1
   7694   7697     1
   7702   7714     1
   7708   7711     1
   7716   7728     1
   7722   7725     1
   7730   7742     1
   7736   7739     1
   7744   7756     1
   7750   7753     1
   7758   7770     1
   7764   7767     1
   7772   7784     1
   7778   7781     1
   7786   7798     1
   7792   7795     1
   7800   7812     1
   7806   7809     1
   7814   7826     1
   7820   7823     1
   7828   7840     1
   7834   7837     1
   7842   7854     1
   7848   7851     1
   7856   7868     1
   7862   7865     1
   7870   7882     1
   7876   7879     1
   7884   7896     1
   7890   7893     1
   7898   7910     1
   7904   7907     1
   7912   7924     1
   7918   7921     1
   7926   7938     1
   7932   7935     1
   7940   7952     1
   7946   7949     1
   7954   7966     1
   7960   7963     1
   7968   7980     1
   7974   7977     1
   7982   7994     1
   7988   7991     1
   7996   8008     1
   8002   8005     1
   8010   8022     1
   8016   8019     1
   8024   8036     1
   8030   8033     1
   8038   8050     1
   8044   8047     1
   8052   8064     1
   8058   8061     1
   8066   8078     1
   8072   8075     1
   8080   8092     1
   8086   8089     1
   8094   8106     1
   8100   8103     1
   8108   8120     1
   8114   8117     1
   8122   8134     1
   8128   8131     1
   8136   8148     1
   8142   8145     1
   8150   8162     1
   8156   8159     1
   8164   8176     1
   8170   8173     1
   8178   8190     1
   8184   8187     1
   8192   8204     1
   8198   8201     1
   8206   8218     1
   8212   8215     1
   8220   8232     1
   8226   8229     1
   8234   8246     1
   8240   8243     1
   8248   8260     1
   8254   8257     1
   8262   8274     1
   8268   8271     1
   8276   8288     1
   8282   8285     1
   8290   8302     1
   8296   8299     1
   8304   8316     1
   8310   8313     1
   8318   8330     1
   8324   8327     1
   8332   8344     1
   8338   8341     1
   8346   8358     1
   8352   8355     1
   8360   8372     1
   8366   8369     1
   8374   8386     1
   8380   8383     1
      1     15     1
      1     16     1
      1     18     1
      1     19     1
      1     12     1
      1     13     1
      2      6     1
      2      7     1
      2      9     1
      2     10     1
      2     27     1
      2     28     1
      5      3     1
      8      3     1
     29      3     1
      3     26     1
      3     15     1
      3     16     1
      5      4     1
      8      4     1
     29      4     1
      4     26     1
      4     15     1
      4     16     1
      5      9     1
      5     10     1
      5     21     1
      5     22     1
      8      6     1
     29      6     1
      6     20     1
      6     18     1
      6     19     1
      8      7     1
     29      7     1
      7     20     1
      7     18     1
      7     19     1
      8     24     1
      8     25     1
     29      9     1
      9     23     1
      9     12     1
      9     13     1
     29     10     1
     10     23     1
     10     12     1
     10     13     1
     29     11     1
     12     88     1
     12     24     1
     12     25     1
     13     88     1
     13     24     1
     13     25     1
     29     14     1
     15    118     1
     15     27     1
     15     28     1
     16    118     1
     16     27     1
     16     28     1
     29     17     1
     18     58     1
     18     21     1
     18     22     1
     19     58     1
     19     21     1
     19     22     1
     20     50     1
     20     51     1
     21     49     1
     22     49     1
     23     80     1
     23     81     1
     24     79     1
     25     79     1
     26    110     1
     26    111     1
     27    109     1
     28    109     1
     30     44     1
     30     45     1
     30     47     1
     30     48     1
     30     41     1
     30     42     1
     31     35     1
     31     36     1
     31     38     1
     31     39     1
     31     56     1
     31     57     1
     32     34     1
     32     37     1
     32     59     1
     32     55     1
     32     44     1
     32     45     1
     33     34     1
     33     37     1
     33     59     1
     33     55     1
     33     44     1
     33     45     1
     34     38     1
     34     39     1
     34     53     1
     34     54     1
     35     37     1
     35     59     1
     35     52     1
     35     47     1
     35     48     1
     36     37     1
     36     59     1
     36     52     1
     36     47     1
     36     48     1
     37     50     1
     37     51     1
     38     59     1
     38     49     1
     38     41     1
     38     42     1
     39     59     1
     39     49     1
     39     41     1
     39     42     1
     40     59     1
     41     58     1
     41     50     1
     41     51     1
     42     58     1
     42     50     1
     42     51     1
     43     59     1
     44    178     1
     44     56     1
     44     57     1
     45    178     1
     45     56     1
     45     57     1
     46     59     1
     47    148     1
     47     53     1
     47     54     1
     48    148     1
     48     53     1
     48     54     1
     52    140     1
     52    141     1
     53    139     1
     54    139     1
     55    170     1
     55    171     1
     56    169     1
     57    169     1
     60     74     1
     60     75     1
     60     77     1
     60     78     1
     60     71     1
     60     72     1
     61     65     1
     61     66     1
     61     68     1
     61     69     1
     61     86     1
     61     87     1
     62     64     1
     62     67     1
     62     89     1
     62     85     1
     62     74     1
     62     75     1
     63     64     1
     63     67     1
     63     89     1
     63     85     1
     63     74     1
     63     75     1
     64     68     1
     64     69     1
     64     83     1
     64     84     1
     65     67     1
     65     89     1
     65     82     1
     65     77     1
     65     78     1
     66     67     1
     66     89     1
     66     82     1
     66     77     1
     66     78     1
     67     80     1
     67     81     1
     68     89     1
     68     79     1
     68     71     1
     68     72     1
     69     89     1
     69     79     1
     69     71     1
     69     72     1
     70     89     1
     71     88     1
     71     80     1
     71     81     1
     72     88     1
     72     80     1
     72     81     1
     73     89     1
     74    238     1
     74     86     1
     74     87     1
     75    238     1
     75     86     1
     75     87     1
     76     89     1
     77    208     1
     77     83     1
     77     84     1
     78    208     1
     78     83     1
     78     84     1
     82    200     1
     82    201     1
     83    199     1
     84    199     1
     85    230     1
     85    231     1
     86    229     1
     87    229     1
     90    104     1
     90    105     1
     90    107     1
     90    108     1
     90    101     1
     90    102     1
     91     95     1
     91     96     1
     91     98     1
     91     99     1
     91    116     1
     91    117     1
     92     94     1
     92     97     1
     92    119     1
     92    115     1
     92    104     1
     92    105     1
     93     94     1
     93     97     1
     93    119     1
     93    115     1
     93    104     1
     93    105     1
     94     98     1
     94     99     1
     94    113     1
     94    114     1
     95     97     1
     95    119     1
     95    112     1
     95    107     1
     95    108     1
     96     97     1
     96    119     1
     96    112     1
     96    107     1
     96    108     1
     97    110     1
     97    111     1
     98    119     1
     98    109     1
     98    101     1
     98    102     1
     99    119     1
     99    109     1
     99    101     1
     99    102     1
    100    119     1
    101    118     1
    101    110     1
    101    111     1
    102    118     1
    102    110     1
    102    111     1
    103    119     1
    104    298     1
    104    116     1
    104    117     1
    105    298     1
    105    116     1
    105    117     1
    106    119     1
    107    268     1
    107    113     1
    107    114     1
    108    268     1
    108    113     1
    108    114     1
    112    260     1
    112    261     1
    113    259     1
    114    259     1
    115    290     1
    115    291     1
    116    289     1
    117    289     1
    120    134     1
    120    135     1
    120    137     1
    120    138     1
    120    131     1
    120    132     1
    121    125     1
    121    126     1
    121    128     1
    121    129     1
    121    146     1
    121    147     1
    122    124     1
    122    127     1
    122    149     1
    122    145     1
    122    134     1
    122    135     1
    123    124     1
    123    127     1
    123    149     1
    123    145     1
    123    134     1
    123    135     1
    124    128     1
    124    129     1
    124    143     1
    124    144     1
    125    127     1
    125    149     1
    125    142     1
    125    137     1
    125    138     1
    126    127     1
    126    149     1
    126    142     1
    126    137     1
    126    138     1
    127    140     1
    127    141     1
    128    149     1
    128    139     1
    128    131     1
    128    132     1
    129    149     1
    129    139     1
    129    131     1
    129    132     1
    130    149     1
    131    148     1
    131    140     1
    131    141     1
    132    148     1
    132    140     1
    132    141     1
    133    149     1
    134    358     1
    134    146     1
    134    147     1
    135    358     1
    135    146     1
    135    147     1
    136    149     1
    137    328     1
    137    143     1
    137    144     1
    138    328     1
    138    143     1
    138    144     1
    142    320     1
    142    321     1
    143    319     1
    144    319     1
    145    350     1
    145    351     1
    146    349     1
    147    349     1
    150    164     1
    150    165     1
    150    167     1
    150    168     1
    150    161     1
    150    162     1
    151    155     1
    151    156     1
    151    158     1
    151    159     1
    151    176     1
    151    177     1
    152    154     1
    152    157     1
    152    179     1
    152    175     1
    152    164     1
    152    165     1
    153    154     1
    153    157     1
    153    179     1
    153    175     1
    153    164     1
    153    165     1
    154    158     1
    154    159     1
    154    173     1
    154    174     1
    155    157     1
    155    179     1
    155    172     1
    155    167     1
    155    168     1
    156    157     1
    156    179     1
    156    172     1
    156    167     1
    156    168     1
    157    170     1
    157    171     1
    158    179     1
    158    169     1
    158    161     1
    158    162     1
    159    179     1
    159    169     1
    159    161     1
    159    162     1
    160    179     1
    161    178     1
    161    170     1
    161    171     1
    162    178     1
    162    170     1
    162    171     1
    163    179     1
    164    418     1
    164    176     1
    164    177     1
    165    418     1
    165    176     1
    165    177     1
    166    179     1
    167    388     1
    167    173     1
    167    174     1
    168    388     1
    168    173     1
    168    174     1
    172    380     1
    172    381     1
    173    379     1
    174    379     1
    175    410     1
    175    411     1
    176    409     1
    177    409     1
    180    194     1
    180    195     1
    180    197     1
    180    198     1
    180    191     1
    180    192     1
    181    185     1
    181    186     1
    181    188     1
    181    189     1
    181    206     1
    181    207     1
    182    184     1
    182    187     1
    182    209     1
    182    205     1
    182    194     1
    182    195     1
    183    184     1
    183    187     1
    183    209     1
    183    205     1
    183    194     1
    183    195     1
    184    188     1
    184    189     1
    184    203     1
    184    204     1
    185    187     1
    185    209     1
    185    202     1
    185    197     1
    185    198     1
    186    187     1
    186    209     1
    186    202     1
    186    197     1
    186    198     1
    187    200     1
    187    201     1
    188    209     1
    188    199     1
    188    191     1
    188    192     1
    189    209     1
    189    199     1
    189    191     1
    189    192     1
    190    209     1
    191    208     1
    191    200     1
    191    201     1
    192    208     1
    192    200     1
    192    201     1
    193    209     1
    194    478     1
    194    206     1
    194    207     1
    195    478     1
    195    206     1
    195    207     1
    196    209     1
    197    448     1
    197    203     1
    197    204     1
    198    448     1
    198    203     1
    198    204     1
    202    440     1
    202    441     1
    203    439     1
    204    439     1
    205    470     1
    205    471     1
    206    469     1
    207    469     1
    210    224     1
    210    225     1
    210    227     1
    210    228     1
    210    221     1
    210    222     1
    211    215     1
    211    216     1
    211    218     1
    211    219     1
    211    236     1
    211    237     1
    212    214     1
    212    217     1
    212    239     1
    212    235     1
    212    224     1
    212    225     1
    213    214     1
    213    217     1
    213    239     1
    213    235     1
    213    224     1
    213    225     1
    214    218     1
    214    219     1
    214    233     1
    214    234     1
    215    217     1
    215    239     1
    215    232     1
    215    227     1
    215    228     1
    216    217     1
    216    239     1
    216    232     1
    216    227     1
    216    228     1
    217    230     1
    217    231     1
    218    239     1
    218    229     1
    218    221     1
    218    222     1
    219    239     1
    219    229     1
    219    221     1
    219    222     1
    220    239     1
    221    238     1
    221    230     1
    221    231     1
    222    238     1
    222    230     1
    222    231     1
    223    239     1
    224    538     1
    224    236     1
    224    237     1
    225    538     1
    225    236     1
    225    237     1
    226    239     1
    227    508     1
    227    233     1
    227    234     1
    228    508     1
    228    233     1
    228    234     1
    232    500     1
    232    501     1
    233    499     1
    234    499     1
    235    530     1
    235    531     1
    236    529     1
    237    529     1
    240    254     1
    240    255     1
    240    257     1
    240    258     1
    240    251     1
    240    252     1
    241    245     1
    241    246     1
    241    248     1
    241    249     1
    241    266     1
    241    267     1
    242    244     1
    242    247     1
    242    269     1
    242    265     1
    242    254     1
    242    255     1
    243    244     1
    243    247     1
    243    269     1
    243    265     1
    243    254     1
    243    255     1
    244    248     1
    244    249     1
    244    263     1
    244    264     1
    245    247     1
    245    269     1
    245    262     1
    245    257     1
    245    258     1
    246    247     1
    246    269     1
    246    262     1
    246    257     1
    246    258     1
    247    260     1
    247    261     1
    248    269     1
    248    259     1
    248    251     1
    248    252     1
    249    269     1
    249    259     1
    249    251     1
    249    252     1
    250    269     1
    251    268     1
    251    260     1
    251    261     1
    252    268     1
    252    260     1
    252    261     1
    253    269     1
    254    598     1
    254    266     1
    254    267     1
    255    598     1
    255    266     1
    255    267     1
    256    269     1
    257    568     1
    257    263     1
    257    264     1
    258    568     1
    258    263     1
    258    264     1
    262    560     1
    262    561     1
    263    559     1
    264    559     1
    265    590     1
    265    591     1
    266    589     1
    267    589     1
    270    284     1
    270    285     1
    270    287     1
    270    288     1
    270    281     1
    270    282     1
    271    275     1
    271    276     1
    271    278     1
    271    279     1
    271    296     1
    271    297     1
    272    274     1
    272    277     1
    272    299     1
    272    295     1
    272    284     1
    272    285     1
    273    274     1
    273    277     1
    273    299     1
    273    295     1
    273    284     1
    273    285     1
    274    278     1
    274    279     1
    274    293     1
    274    294     1
    275    277     1
    275    299     1
    275    292     1
    275    287     1
    275    288     1
    276    277     1
    276    299     1
    276    292     1
    276    287     1
    276    288     1
    277    290     1
    277    291     1
    278    299     1
    278    289     1
    278    281     1
    278    282     1
    279    299     1
    279    289     1
    279    281     1
    279    282     1
    280    299     1
    281    298     1
    281    290     1
    281    291     1
    282    298     1
    282    290     1
    282    291     1
    283    299     1
    284    658     1
    284    296     1
    284    297     1
    285    658     1
    285    296     1
    285    297     1
    286    299     1
    287    628     1
    287    293     1
    287    294     1
    288    628     1
    288    293     1
    288    294     1
    292    620     1
    292    621     1
    293    619     1
    294    619     1
    295    650     1
    295    651     1
    296    649     1
    297    649     1
    300    314     1
    300    315     1
    300    317     1
    300    318     1
    300    311     1
    300    312     1
    301    305     1
    301    306     1
    301    308     1
    301    309     1
    301    326     1
    301    327     1
    302    304     1
    302    307     1
    302    329     1
    302    325     1
    302    314     1
    302    315     1
    303    304     1
    303    307     1
    303    329     1
    303    325     1
    303    314     1
    303    315     1
    304    308     1
    304    309     1
    304    323     1
    304    324     1
    305    307     1
    305    329     1
    305    322     1
    305    317     1
    305    318     1
    306    307     1
    306    329     1
    306    322     1
    306    317     1
    306    318     1
    307    320     1
    307    321     1
    308    329     1
    308    319     1
    308    311     1
    308    312     1
    309    329     1
    309    319     1
    309    311     1
    309    312     1
    310    329     1
    311    328     1
    311    320     1
    311    321     1
    312    328     1
    312    320     1
    312    321     1
    313    329     1
    314    718     1
    314    326     1
    314    327     1
    315    718     1
    315    326     1
    315    327     1
    316    329     1
    317    688     1
    317    323     1
    317    324     1
    318    688     1
    318    323     1
    318    324     1
    322    680     1
    322    681     1
    323    679     1
    324    679     1
    325    710     1
    325    711     1
    326    709     1
    327    709     1
    330    344     1
    330    345     1
    330    347     1
    330    348     1
    330    341     1
    330    342     1
    331    335     1
    331    336     1
    331    338     1
    331    339     1
    331    356     1
    331    357     1
    332    334     1
    332    337     1
    332    359     1
    332    355     1
    332    344     1
    332    345     1
    333    334     1
    333    337     1
    333    359     1
    333    355     1
    333    344     1
    333    345     1
    334    338     1
    334    339     1
    334    353     1
    334    354     1
    335    337     1
    335    359     1
    335    352     1
    335    347     1
    335    348     1
    336    337     1
    336    359     1
    336    352     1
    336    347     1
    336    348     1
    337    350     1
    337    351     1
    338    359     1
    338    349     1
    338    341     1
    338    342     1
    339    359     1
    339    349     1
    339    341     1
    339    342     1
    340    359     1
    341    358     1
    341    350     1
    341    351     1
    342    358     1
    342    350     1
    342    351     1
    343    359     1
    344    778     1
    344    356     1
    344    357     1
    345    778     1
    345    356     1
    345    357     1
    346    359     1
    347    748     1
    347    353     1
    347    354     1
    348    748     1
    348    353     1
    348    354     1
    352    740     1
    352    741     1
    353    739     1
    354    739     1
    355    770     1
    355    771     1
    356    769     1
    357    769     1
    360    374     1
    360    375     1
    360    377     1
    360    378     1
    360    371     1
    360    372     1
    361    365     1
    361    366     1
    361    368     1
    361    369     1
    361    386     1
    361    387     1
    362    364     1
    362    367     1
    362    389     1
    362    385     1
    362    374     1
    362    375     1
    363    364     1
    363    367     1
    363    389     1
    363    385     1
    363    374     1
    363    375     1
    364    368     1
    364    369     1
    364    383     1
    364    384     1
    365    367     1
    365    389     1
    365    382     1
    365    377     1
    365    378     1
    366    367     1
    366    389     1
    366    382     1
    366    377     1
    366    378     1
    367    380     1
    367    381     1
    368    389     1
    368    379     1
    368    371     1
    368    372     1
    369    389     1
    369    379     1
    369    371     1
    369    372     1
    370    389     1
    371    388     1
    371    380     1
    371    381     1
    372    388     1
    372    380     1
    372    381     1
    373    389     1
    374    838     1
    374    386     1
    374    387     1
    375    838     1
    375    386     1
    375    387     1
    376    389     1
    377    808     1
    377    383     1
    377    384     1
    378    808     1
    378    383     1
    378    384     1
    382    800     1
    382    801     1
    383    799     1
    384    799     1
    385    830     1
    385    831     1
    386    829     1
    387    829     1
    390    404     1
    390    405     1
    390    407     1
    390    408     1
    390    401     1
    390    402     1
    391    395     1
    391    396     1
    391    398     1
    391    399     1
    391    416     1
    391    417     1
    392    394     1
    392    397     1
    392    419     1
    392    415     1
    392    404     1
    392    405     1
    393    394     1
    393    397     1
    393    419     1
    393    415     1
    393    404     1
    393    405     1
    394    398     1
    394    399     1
    394    413     1
    394    414     1
    395    397     1
    395    419     1
    395    412     1
    395    407     1
    395    408     1
    396    397     1
    396    419     1
    396    412     1
    396    407     1
    396    408     1
    397    410     1
    397    411     1
    398    419     1
    398    409     1
    398    401     1
    398    402     1
    399    419     1
    399    409     1
    399    401     1
    399    402     1
    400    419     1
    401    418     1
    401    410     1
    401    411     1
    402    418     1
    402    410     1
    402    411     1
    403    419     1
    404    898     1
    404    416     1
    404    417     1
    405    898     1
    405    416     1
    405    417     1
    406    419     1
    407    868     1
    407    413     1
    407    414     1
    408    868     1
    408    413     1
    408    414     1
    412    860     1
    412    861     1
    413    859     1
    414    859     1
    415    890     1
    415    891     1
    416    889     1
    417    889     1
    420    434     1
    420    435     1
    420    437     1
    420    438     1
    420    431     1
    420    432     1
    421    425     1
    421    426     1
    421    428     1
    421    429     1
    421    446     1
    421    447     1
    422    424     1
    422    427     1
    422    449     1
    422    445     1
    422    434     1
    422    435     1
    423    424     1
    423    427     1
    423    449     1
    423    445     1
    423    434     1
    423    435     1
    424    428     1
    424    429     1
    424    443     1
    424    444     1
    425    427     1
    425    449     1
    425    442     1
    425    437     1
    425    438     1
    426    427     1
    426    449     1
    426    442     1
    426    437     1
    426    438     1
    427    440     1
    427    441     1
    428    449     1
    428    439     1
    428    431     1
    428    432     1
    429    449     1
    429    439     1
    429    431     1
    429    432     1
    430    449     1
    431    448     1
    431    440     1
    431    441     1
    432    448     1
    432    440     1
    432    441     1
    433    449     1
    434    958     1
    434    446     1
    434    447     1
    435    958     1
    435    446     1
    435    447     1
    436    449     1
    437    928     1
    437    443     1
    437    444     1
    438    928     1
    438    443     1
    438    444     1
    442    920     1
    442    921     1
    443    919     1
    444    919     1
    445    950     1
    445    951     1
    446    949     1
    447    949     1
    450    464     1
    450    465     1
    450    467     1
    450    468     1
    450    461     1
    450    462     1
    451    455     1
    451    456     1
    451    458     1
    451    459     1
    451    476     1
    451    477     1
    452    454     1
    452    457     1
    452    479     1
    452    475     1
    452    464     1
    452    465     1
    453    454     1
    453    457     1
    453    479     1
    453    475     1
    453    464     1
    453    465     1
    454    458     1
    454    459     1
    454    473     1
    454    474     1
    455    457     1
    455    479     1
    455    472     1
    455    467     1
    455    468     1
    456    457     1
    456    479     1
    456    472     1
    456    467     1
    456    468     1
    457    470     1
    457    471     1
    458    479     1
    458    469     1
    458    461     1
    458    462     1
    459    479     1
    459    469     1
    459    461     1
    459    462     1
    460    479     1
    461    478     1
    461    470     1
    461    471     1
    462    478     1
    462    470     1
    462    471     1
    463    479     1
    464   1018     1
    464    476     1
    464    477     1
    465   1018     1
    465    476     1
    465    477     1
    466    479     1
    467    988     1
    467    473     1
    467    474     1
    468    988     1
    468    473     1
    468    474     1
    472    980     1
    472    981     1
    473    979     1
    474    979     1
    475   1010     1
    475   1011     1
    476   1009     1
    477   1009     1
    480    494     1
    480    495     1
    480    497     1
    480    498     1
    480    491     1
    480    492     1
    481    485     1
    481    486     1
    481    488     1
    481    489     1
    481    506     1
    481    507     1
    482    484     1
    482    487     1
    482    509     1
    482    505     1
    482    494     1
    482    495     1
    483    484     1
    483    487     1
    483    509     1
    483    505     1
    483    494     1
    483    495     1
    484    488     1
    484    489     1
    484    503     1
    484    504     1
    485    487     1
    485    509     1
    485    502     1
    485    497     1
    485    498     1
    486    487     1
    486    509     1
    486    502     1
    486    497     1
    486    498     1
    487    500     1
    487    501     1
    488    509     1
    488    499     1
    488    491     1
    488    492     1
    489    509     1
    489    499     1
    489    491     1
    489    492     1
    490    509     1
    491    508     1
    491    500     1
    491    501     1
    492    508     1
    492    500     1
    492    501     1
    493    509     1
    494   1078     1
    494    506     1
    494    507     1
    495   1078     1
    495    506     1
    495    507     1
    496    509     1
    497   1048     1
    497    503     1
    497    504     1
    498   1048     1
    498    503     1
    498    504     1
    502   1040     1
    502   1041     1
    503   1039     1
    504   1039     1
    505   1070     1
    505   1071     1
    506   1069     1
    507   1069     1
    510    524     1
    510    525     1
    510    527     1
    510    528     1
    510    521     1
    510    522     1
    511    515     1
    511    516     1
    511    518     1
    511    519     1
    511    536     1
    511    537     1
    512    514     1
    512    517     1
    512    539     1
    512    535     1
    512    524     1
    512    525     1
    513    514     1
    513    517     1
    513    539     1
    513    535     1
    513    524     1
    513    525     1
    514    518     1
    514    519     1
    514    533     1
    514    534     1
    515    517     1
    515    539     1
    515    532     1
    515    527     1
    515    528     1
    516    517     1
    516    539     1
    516    532     1
    516    527     1
    516    528     1
    517    530     1
    517    531     1
    518    539     1
    518    529     1
    518    521     1
    518    522     1
    519    539     1
    519    529     1
    519    521     1
    519    522     1
    520    539     1
    521    538     1
    521    530     1
    521    531     1
    522    538     1
    522    530     1
    522    531     1
    523    539     1
    524   1138     1
    524    536     1
    524    537     1
    525   1138     1
    525    536     1
    525    537     1
    526    539     1
    527   1108     1
    527    533     1
    527    534     1
    528   1108     1
    528    533     1
    528    534     1
    532   1100     1
    532   1101     1
    533   1099     1
    534   1099     1
    535   1130     1
    535   1131     1
    536   1129     1
    537   1129     1
    540    554     1
    540    555     1
    540    557     1
    540    558     1
    540    551     1
    540    552     1
    541    545     1
    541    546     1
    541    548     1
    541    549     1
    541    566     1
    541    567     1
    542    544     1
    542    547     1
    542    569     1
    542    565     1
    542    554     1
    542    555     1
    543    544     1
    543    547     1
    543    569     1
    543    565     1
    543    554     1
    543    555     1
    544    548     1
    544    549     1
    544    563     1
    544    564     1
    545    547     1
    545    569     1
    545    562     1
    545    557     1
    545    558     1
    546    547     1
    546    569     1
    546    562     1
    546    557     1
    546    558     1
    547    560     1
    547    561     1
    548    569     1
    548    559     1
    548    551     1
    548    552     1
    549    569     1
    549    559     1
    549    551     1
    549    552     1
    550    569     1
    551    568     1
    551    560     1
    551    561     1
    552    568     1
    552    560     1
    552    561     1
    553    569     1
    554   1198     1
    554    566     1
    554    567     1
    555   1198     1
    555    566     1
    555    567     1
    556    569     1
    557   1168     1
    557    563     1
    557    564     1
    558   1168     1
    558    563     1
    558    564     1
    562   1160     1
    562   1161     1
    563   1159     1
    564   1159     1
    565   1190     1
    565   1191     1
    566   1189     1
    567   1189     1
    570    584     1
    570    585     1
    570    587     1
    570    588     1
    570    581     1
    570    582     1
    571    575     1
    571    576     1
    571    578     1
    571    579     1
    571    596     1
    571    597     1
    572    574     1
    572    577     1
    572    599     1
    572    595     1
    572    584     1
    572    585     1
    573    574     1
    573    577     1
    573    599     1
    573    595     1
    573    584     1
    573    585     1
    574    578     1
    574    579     1
    574    593     1
    574    594     1
    575    577     1
    575    599     1
    575    592     1
    575    587     1
    575    588     1
    576    577     1
    576    599     1
    576    592     1
    576    587     1
    576    588     1
    577    590     1
    577    591     1
    578    599     1
    578    589     1
    578    581     1
    578    582     1
    579    599     1
    579    589     1
    579    581     1
    579    582     1
    580    599     1
    581    598     1
    581    590     1
    581    591     1
    582    598     1
    582    590     1
    582    591     1
    583    599     1
    584   1258     1
    584    596     1
    584    597     1
    585   1258     1
    585    596     1
    585    597     1
    586    599     1
    587   1228     1
    587    593     1
    587    594     1
    588   1228     1
    588    593     1
    588    594     1
    592   1220     1
    592   1221     1
    593   1219     1
    594   1219     1
    595   1250     1
    595   1251     1
    596   1249     1
    597   1249     1
    600    614     1
    600    615     1
    600    617     1
    600    618     1
    600    611     1
    600    612     1
    601    605     1
    601    606     1
    601    608     1
    601    609     1
    601    626     1
    601    627     1
    602    604     1
    602    607     1
    602    629     1
    602    625     1
    602    614     1
    602    615     1
    603    604     1
    603    607     1
    603    629     1
    603    625     1
    603    614     1
    603    615     1
    604    608     1
    604    609     1
    604    623     1
    604    624     1
    605    607     1
    605    629     1
    605    622     1
    605    617     1
    605    618     1
    606    607     1
    606    629     1
    606    622     1
    606    617     1
    606    618     1
    607    620     1
    607    621     1
    608    629     1
    608    619     1
    608    611     1
    608    612     1
    609    629     1
    609    619     1
    609    611     1
    609    612     1
    610    629     1
    611    628     1
    611    620     1
    611    621     1
    612    628     1
    612    620     1
    612    621     1
    613    629     1
    614   1318     1
    614    626     1
    614    627     1
    615   1318     1
    615    626     1
    615    627     1
    616    629     1
    617   1288     1
    617    623     1
    617    624     1
    618   1288     1
    618    623     1
    618    624     1
    622   1280     1
    622   1281     1
    623   1279     1
    624   1279     1
    625   1310     1
    625   1311     1
    626   1309     1
    627   1309     1
    630    644     1
    630    645     1
    630    647     1
    630    648     1
    630    641     1
    630    642     1
    631    635     1
    631    636     1
    631    638     1
    631    639     1
    631    656     1
    631    657     1
    632    634     1
    632    637     1
    632    659     1
    632    655     1
    632    644     1
    632    645     1
    633    634     1
    633    637     1
    633    659     1
    633    655     1
    633    644     1
    633    645     1
    634    638     1
    634    639     1
    634    653     1
    634    654     1
    635    637     1
    635    659     1
    635    652     1
    635    647     1
    635    648     1
    636    637     1
    636    659     1
    636    652     1
    636    647     1
    636    648     1
    637    650     1
    637    651     1
    638    659     1
    638    649     1
    638    641     1
    638    642     1
    639    659     1
    639    649     1
    639    641     1
    639    642     1
    640    659     1
    641    658     1
    641    650     1
    641    651     1
    642    658     1
    642    650     1
    642    651     1
    643    659     1
    644   1378     1
    644    656     1
    644    657     1
    645   1378     1
    645    656     1
    645    657     1
    646    659     1
    647   1348     1
    647    653     1
    647    654     1
    648   1348     1
    648    653     1
    648    654     1
    652   1340     1
    652   1341     1
    653   1339     1
    654   1339     1
    655   1370     1
    655   1371     1
    656   1369     1
    657   1369     1
    660    674     1
    660    675     1
    660    677     1
    660    678     1
    660    671     1
    660    672     1
    661    665     1
    661    666     1
    661    668     1
    661    669     1
    661    686     1
    661    687     1
    662    664     1
    662    667     1
    662    689     1
    662    685     1
    662    674     1
    662    675     1
    663    664     1
    663    667     1
    663    689     1
    663    685     1
    663    674     1
    663    675     1
    664    668     1
    664    669     1
    664    683     1
    664    684     1
    665    667     1
    665    689     1
    665    682     1
    665    677     1
    665    678     1
    666    667     1
    666    689     1
    666    682     1
    666    677     1
    666    678     1
    667    680     1
    667    681     1
    668    689     1
    668    679     1
    668    671     1
    668    672     1
    669    689     1
    669    679     1
    669    671     1
    669    672     1
    670    689     1
    671    688     1
    671    680     1
    671    681     1
    672    688     1
    672    680     1
    672    681     1
    673    689     1
    674   1438     1
    674    686     1
    674    687     1
    675   1438     1
    675    686     1
    675    687     1
    676    689     1
    677   1408     1
    677    683     1
    677    684     1
    678   1408     1
    678    683     1
    678    684     1
    682   1400     1
    682   1401     1
    683   1399     1
    684   1399     1
    685   1430     1
    685   1431     1
    686   1429     1
    687   1429     1
    690    704     1
    690    705     1
    690    707     1
    690    708     1
    690    701     1
    690    702     1
    691    695     1
    691    696     1
    691    698     1
    691    699     1
    691    716     1
    691    717     1
    692    694     1
    692    697     1
    692    719     1
    692    715     1
    692    704     1
    692    705     1
    693    694     1
    693    697     1
    693    719     1
    693    715     1
    693    704     1
    693    705     1
    694    698     1
    694    699     1
    694    713     1
    694    714     1
    695    697     1
    695    719     1
    695    712     1
    695    707     1
    695    708     1
    696    697     1
    696    719     1
    696    712     1
    696    707     1
    696    708     1
    697    710     1
    697    711     1
    698    719     1
    698    709     1
    698    701     1
    698    702     1
    699    719     1
    699    709     1
    699    701     1
    699    702     1
    700    719     1
    701    718     1
    701    710     1
    701    711     1
    702    718     1
    702    710     1
    702    711     1
    703    719     1
    704   1498     1
    704    716     1
    704    717     1
    705   1498     1
    705    716     1
    705    717     1
    706    719     1
    707   1468     1
    707    713     1
    707    714     1
    708   1468     1
    708    713     1
    708    714     1
    712   1460     1
    712   1461     1
    713   1459     1
    714   1459     1
    715   1490     1
    715   1491     1
    716   1489     1
    717   1489     1
    720    734     1
    720    735     1
    720    737     1
    720    738     1
    720    731     1
    720    732     1
    721    725     1
    721    726     1
    721    728     1
    721    729     1
    721    746     1
    721    747     1
    722    724     1
    722    727     1
    722    749     1
    722    745     1
    722    734     1
    722    735     1
    723    724     1
    723    727     1
    723    749     1
    723    745     1
    723    734     1
    723    735     1
    724    728     1
    724    729     1
    724    743     1
    724    744     1
    725    727     1
    725    749     1
    725    742     1
    725    737     1
    725    738     1
    726    727     1
    726    749     1
    726    742     1
    726    737     1
    726    738     1
    727    740     1
    727    741     1
    728    749     1
    728    739     1
    728    731     1
    728    732     1
    729    749     1
    729    739     1
    729    731     1
    729    732     1
    730    749     1
    731    748     1
    731    740     1
    731    741     1
    732    748     1
    732    740     1
    732    741     1
    733    749     1
    734   1558     1
    734    746     1
    734    747     1
    735   1558     1
    735    746     1
    735    747     1
    736    749     1
    737   1528     1
    737    743     1
    737    744     1
    738   1528     1
    738    743     1
    738    744     1
    742   1520     1
    742   1521     1
    743   1519     1
    744   1519     1
    745   1550     1
    745   1551     1
    746   1549     1
    747   1549     1
    750    764     1
    750    765     1
    750    767     1
    750    768     1
    750    761     1
    750    762     1
    751    755     1
    751    756     1
    751    758     1
    751    759     1
    751    776     1
    751    777     1
    752    754     1
    752    757     1
    752    779     1
    752    775     1
    752    764     1
    752    765     1
    753    754     1
    753    757     1
    753    779     1
    753    775     1
    753    764     1
    753    765     1
    754    758     1
    754    759     1
    754    773     1
    754    774     1
    755    757     1
    755    779     1
    755    772     1
    755    767     1
    755    768     1
    756    757     1
    756    779     1
    756    772     1
    756    767     1
    756    768     1
    757    770     1
    757    771     1
    758    779     1
    758    769     1
    758    761     1
    758    762     1
    759    779     1
    759    769     1
    759    761     1
    759    762     1
    760    779     1
    761    778     1
    761    770     1
    761    771     1
    762    778     1
    762    770     1
    762    771     1
    763    779     1
    764   1618     1
    764    776     1
    764    777     1
    765   1618     1
    765    776     1
    765    777     1
    766    779     1
    767   1588     1
    767    773     1
    767    774     1
    768   1588     1
    768    773     1
    768    774     1
    772   1580     1
    772   1581     1
    773   1579     1
    774   1579     1
    775   1610     1
    775   1611     1
    776   1609     1
    777   1609     1
    780    794     1
    780    795     1
    780    797     1
    780    798     1
    780    791     1
    780    792     1
    781    785     1
    781    786     1
    781    788     1
    781    789     1
    781    806     1
    781    807     1
    782    784     1
    782    787     1
    782    809     1
    782    805     1
    782    794     1
    782    795     1
    783    784     1
    783    787     1
    783    809     1
    783    805     1
    783    794     1
    783    795     1
    784    788     1
    784    789     1
    784    803     1
    784    804     1
    785    787     1
    785    809     1
    785    802     1
    785    797     1
    785    798     1
    786    787     1
    786    809     1
    786    802     1
    786    797     1
    786    798     1
    787    800     1
    787    801     1
    788    809     1
    788    799     1
    788    791     1
    788    792     1
    789    809     1
    789    799     1
    789    791     1
    789    792     1
    790    809     1
    791    808     1
    791    800     1
    791    801     1
    792    808     1
    792    800     1
    792    801     1
    793    809     1
    794   1678     1
    794    806     1
    794    807     1
    795   1678     1
    795    806     1
    795    807     1
    796    809     1
    797   1648     1
    797    803     1
    797    804     1
    798   1648     1
    798    803     1
    798    804     1
    802   1640     1
    802   1641     1
    803   1639     1
    804   1639     1
    805   1670     1
    805   1671     1
    806   1669     1
    807   1669     1
    810    824     1
    810    825     1
    810    827     1
    810    828     1
    810    821     1
    810    822     1
    811    815     1
    811    816     1
    811    818     1
    811    819     1
    811    836     1
    811    837     1
    812    814     1
    812    817     1
    812    839     1
    812    835     1
    812    824     1
    812    825     1
    813    814     1
    813    817     1
    813    839     1
    813    835     1
    813    824     1
    813    825     1
    814    818     1
    814    819     1
    814    833     1
    814    834     1
    815    817     1
    815    839     1
    815    832     1
    815    827     1
    815    828     1
    816    817     1
    816    839     1
    816    832     1
    816    827     1
    816    828     1
    817    830     1
    817    831     1
    818    839     1
    818    829     1
    818    821     1
    818    822     1
    819    839     1
    819    829     1
    819    821     1
    819    822     1
    820    839     1
    821    838     1
    821    830     1
    821    831     1
    822    838     1
    822    830     1
    822    831     1
    823    839     1
    824   1738     1
    824    836     1
    824    837     1
    825   1738     1
    825    836     1
    825    837     1
    826    839     1
    827   1708     1
    827    833     1
    827    834     1
    828   1708     1
    828    833     1
    828    834     1
    832   1700     1
    832   1701     1
    833   1699     1
    834   1699     1
    835   1730     1
    835   1731     1
    836   1729     1
    837   1729     1
    840    854     1
    840    855     1
    840    857     1
    840    858     1
    840    851     1
    840    852     1
    841    845     1
    841    846     1
    841    848     1
    841    849     1
    841    866     1
    841    867     1
    842    844     1
    842    847     1
    842    869     1
    842    865     1
    842    854     1
    842    855     1
    843    844     1
    843    847     1
    843    869     1
    843    865     1
    843    854     1
    843    855     1
    844    848     1
    844    849     1
    844    863     1
    844    864     1
    845    847     1
    845    869     1
    845    862     1
    845    857     1
    845    858     1
    846    847     1
    846    869     1
    846    862     1
    846    857     1
    846    858     1
    847    860     1
    847    861     1
    848    869     1
    848    859     1
    848    851     1
    848    852     1
    849    869     1
    849    859     1
    849    851     1
    849    852     1
    850    869     1
    851    868     1
    851    860     1
    851    861     1
    852    868     1
    852    860     1
    852    861     1
    853    869     1
    854   1798     1
    854    866     1
    854    867     1
    855   1798     1
    855    866     1
    855    867     1
    856    869     1
    857   1768     1
    857    863     1
    857    864     1
    858   1768     1
    858    863     1
    858    864     1
    862   1760     1
    862   1761     1
    863   1759     1
    864   1759     1
    865   1790     1
    865   1791     1
    866   1789     1
    867   1789     1
    870    884     1
    870    885     1
    870    887     1
    870    888     1
    870    881     1
    870    882     1
    871    875     1
    871    876     1
    871    878     1
    871    879     1
    871    896     1
    871    897     1
    872    874     1
    872    877     1
    872    899     1
    872    895     1
    872    884     1
    872    885     1
    873    874     1
    873    877     1
    873    899     1
    873    895     1
    873    884     1
    873    885     1
    874    878     1
    874    879     1
    874    893     1
    874    894     1
    875    877     1
    875    899     1
    875    892     1
    875    887     1
    875    888     1
    876    877     1
    876    899     1
    876    892     1
    876    887     1
    876    888     1
    877    890     1
    877    891     1
    878    899     1
    878    889     1
    878    881     1
    878    882     1
    879    899     1
    879    889     1
    879    881     1
    879    882     1
    880    899     1
    881    898     1
    881    890     1
    881    891     1
    882    898     1
    882    890     1
    882    891     1
    883    899     1
    884   1858     1
    884    896     1
    884    897     1
    885   1858     1
    885    896     1
    885    897     1
    886    899     1
    887   1828     1
    887    893     1
    887    894     1
    888   1828     1
    888    893     1
    888    894     1
    892   1820     1
    892   1821     1
    893   1819     1
    894   1819     1
    895   1850     1
    895   1851     1
    896   1849     1
    897   1849     1
    900    914     1
    900    915     1
    900    917     1
    900    918     1
    900    911     1
    900    912     1
    901    905     1
    901    906     1
    901    908     1
    901    909     1
    901    926     1
    901    927     1
    902    904     1
    902    907     1
    902    929     1
    902    925     1
    902    914     1
    902    915     1
    903    904     1
    903    907     1
    903    929     1
    903    925     1
    903    914     1
    903    915     1
    904    908     1
    904    909     1
    904    923     1
    904    924     1
    905    907     1
    905    929     1
    905    922     1
    905    917     1
    905    918     1
    906    907     1
    906    929     1
    906    922     1
    906    917     1
    906    918     1
    907    920     1
    907    921     1
    908    929     1
    908    919     1
    908    911     1
    908    912     1
    909    929     1
    909    919     1
    909    911     1
    909    912     1
    910    929     1
    911    928     1
    911    920     1
    911    921     1
    912    928     1
    912    920     1
    912    921     1
    913    929     1
    914   1918     1
    914    926     1
    914    927     1
    915   1918     1
    915    926     1
    915    927     1
    916    929     1
    917   1888     1
    917    923     1
    917    924     1
    918   1888     1
    918    923     1
    918    924     1
    922   1880     1
    922   1881     1
    923   1879     1
    924   1879     1
    925   1910     1
    925   1911     1
    926   1909     1
    927   1909     1
    930    944     1
    930    945     1
    930    947     1
    930    948     1
    930    941     1
    930    942     1
    931    935     1
    931    936     1
    931    938     1
    931    939     1
    931    956     1
    931    957     1
    932    934     1
    932    937     1
    932    959     1
    932    955     1
    932    944     1
    932    945     1
    933    934     1
    933    937     1
    933    959     1
    933    955     1
    933    944     1
    933    945     1
    934    938     1
    934    939     1
    934    953     1
    934    954     1
    935    937     1
    935    959     1
    935    952     1
    935    947     1
    935    948     1
    936    937     1
    936    959     1
    936    952     1
    936    947     1
    936    948     1
    937    950     1
    937    951     1
    938    959     1
    938    949     1
    938    941     1
    938    942     1
    939    959     1
    939    949     1
    939    941     1
    939    942     1
    940    959     1
    941    958     1
    941    950     1
    941    951     1
    942    958     1
    942    950     1
    942    951     1
    943    959     1
    944   1978     1
    944    956     1
    944    957     1
    945   1978     1
    945    956     1
    945    957     1
    946    959     1
    947   1948     1
    947    953     1
    947    954     1
    948   1948     1
    948    953     1
    948    954     1
    952   1940     1
    952   1941     1
    953   1939     1
    954   1939     1
    955   1970     1
    955   1971     1
    956   1969     1
    957   1969     1
    960    974     1
    960    975     1
    960    977     1
    960    978     1
    960    971     1
    960    972     1
    961    965     1
    961    966     1
    961    968     1
    961    969     1
    961    986     1
    961    987     1
    962    964     1
    962    967     1
    962    989     1
    962    985     1
    962    974     1
    962    975     1
    963    964     1
    963    967     1
    963    989     1
    963    985     1
    963    974     1
    963    975     1
    964    968     1
    964    969     1
    964    983     1
    964    984     1
    965    967     1
    965    989     1
    965    982     1
    965    977     1
    965    978     1
    966    967     1
    966    989     1
    966    982     1
    966    977     1
    966    978     1
    967    980     1
    967    981     1
    968    989     1
    968    979     1
    968    971     1
    968    972     1
    969    989     1
    969    979     1
    969    971     1
    969    972     1
    970    989     1
    971    988     1
    971    980     1
    971    981     1
    972    988     1
    972    980     1
    972    981     1
    973    989     1
    974   2038     1
    974    986     1
    974    987     1
    975   2038     1
    975    986     1
    975    987     1
    976    989     1
    977   2008     1
    977    983     1
    977    984     1
    978   2008     1
    978    983     1
    978    984     1
    982   2000     1
    982   2001     1
    983   1999     1
    984   1999     1
    985   2030     1
    985   2031     1
    986   2029     1
    987   2029     1
    990   1004     1
    990   1005     1
    990   1007     1
    990   1008     1
    990   1001     1
    990   1002     1
    991    995     1
    991    996     1
    991    998     1
    991    999     1
    991   1016     1
    991   1017     1
    992    994     1
    992    997     1
    992   1019     1
    992   1015     1
    992   1004     1
    992   1005     1
    993    994     1
    993    997     1
    993   1019     1
    993   1015     1
    993   1004     1
    993   1005     1
    994    998     1
    994    999     1
    994   1013     1
    994   1014     1
    995    997     1
    995   1019     1
    995   1012     1
    995   1007     1
    995   1008     1
    996    997     1
    996   1019     1
    996   1012     1
    996   1007     1
    996   1008     1
    997   1010     1
    997   1011     1
    998   1019     1
    998   1009     1
    998   1001     1
    998   1002     1
    999   1019     1
    999   1009     1
    999   1001     1
    999   1002     1
   1000   1019     1
   1001   1018     1
   1001   1010     1
   1001   1011     1
   1002   1018     1
   1002   1010     1
   1002   1011     1
   1003   1019     1
   1004   2098     1
   1004   1016     1
   1004   1017     1
   1005   2098     1
   1005   1016     1
   1005   1017     1
   1006   1019     1
   1007   2068     1
   1007   1013     1
   1007   1014     1
   1008   2068     1
   1008   1013     1
   1008   1014     1
   1012   2060     1
   1012   2061     1
   1013   2059     1
   1014   2059     1
   1015   2090     1
   1015   2091     1
   1016   2089     1
   1017   2089     1
   1020   1034     1
   1020   1035     1
   1020   1037     1
   1020   1038     1
   1020   1031     1
   1020   1032     1
   1021   1025     1
   1021   1026     1
   1021   1028     1
   1021   1029     1
   1021   1046     1
   1021   1047     1
   1022   1024     1
   1022   1027     1
   1022   1049     1
   1022   1045     1
   1022   1034     1
   1022   1035     1
   1023   1024     1
   1023   1027     1
   1023   1049     1
   1023   1045     1
   1023   1034     1
   1023   1035     1
   1024   1028     1
   1024   1029     1
   1024   1043     1
   1024   1044     1
   1025   1027     1
   1025   1049     1
   1025   1042     1
   1025   1037     1
   1025   1038     1
   1026   1027     1
   1026   1049     1
   1026   1042     1
   1026   1037     1
   1026   1038     1
   1027   1040     1
   1027   1041     1
   1028   1049     1
   1028   1039     1
   1028   1031     1
   1028   1032     1
   1029   1049     1
   1029   1039     1
   1029   1031     1
   1029   1032     1
   1030   1049     1
   1031   1048     1
   1031   1040     1
   1031   1041     1
   1032   1048     1
   1032   1040     1
   1032   1041     1
   1033   1049     1
   1034   2158     1
   1034   1046     1
   1034   1047     1
   1035   2158     1
   1035   1046     1
   1035   1047     1
   1036   1049     1
   1037   2128     1
   1037   1043     1
   1037   1044     1
   1038   2128     1
   1038   1043     1
   1038   1044     1
   1042   2120     1
   1042   2121     1
   1043   2119     1
   1044   2119     1
   1045   2150     1
   1045   2151     1
   1046   2149     1
   1047   2149     1
   1050   1064     1
   1050   1065     1
   1050   1067     1
   1050   1068     1
   1050   1061     1
   1050   1062     1
   1051   1055     1
   1051   1056     1
   1051   1058     1
   1051   1059     1
   1051   1076     1
   1051   1077     1
   1052   1054     1
   1052   1057     1
   1052   1079     1
   1052   1075     1
   1052   1064     1
   1052   1065     1
   1053   1054     1
   1053   1057     1
   1053   1079     1
   1053   1075     1
   1053   1064     1
   1053   1065     1
   1054   1058     1
   1054   1059     1
   1054   1073     1
   1054   1074     1
   1055   1057     1
   1055   1079     1
   1055   1072     1
   1055   1067     1
   1055   1068     1
   1056   1057     1
   1056   1079     1
   1056   1072     1
   1056   1067     1
   1056   1068     1
   1057   1070     1
   1057   1071     1
   1058   1079     1
   1058   1069     1
   1058   1061     1
   1058   1062     1
   1059   1079     1
   1059   1069     1
   1059   1061     1
   1059   1062     1
   1060   1079     1
   1061   1078     1
   1061   1070     1
   1061   1071     1
   1062   1078     1
   1062   1070     1
   1062   1071     1
   1063   1079     1
   1064   2218     1
   1064   1076     1
   1064   1077     1
   1065   2218     1
   1065   1076     1
   1065   1077     1
   1066   1079     1
   1067   2188     1
   1067   1073     1
   1067   1074     1
   1068   2188     1
   1068   1073     1
   1068   1074     1
   1072   2180     1
   1072   2181     1
   1073   2179     1
   1074   2179     1
   1075   2210     1
   1075   2211     1
   1076   2209     1
   1077   2209     1
   1080   1094     1
   1080   1095     1
   1080   1097     1
   1080   1098     1
   1080   1091     1
   1080   1092     1
   1081   1085     1
   1081   1086     1
   1081   1088     1
   1081   1089     1
   1081   1106     1
   1081   1107     1
   1082   1084     1
   1082   1087     1
   1082   1109     1
   1082   1105     1
   1082   1094     1
   1082   1095     1
   1083   1084     1
   1083   1087     1
   1083   1109     1
   1083   1105     1
   1083   1094     1
   1083   1095     1
   1084   1088     1
   1084   1089     1
   1084   1103     1
   1084   1104     1
   1085   1087     1
   1085   1109     1
   1085   1102     1
   1085   1097     1
   1085   1098     1
   1086   1087     1
   1086   1109     1
   1086   1102     1
   1086   1097     1
   1086   1098     1
   1087   1100     1
   1087   1101     1
   1088   1109     1
   1088   1099     1
   1088   1091     1
   1088   1092     1
   1089   1109     1
   1089   1099     1
   1089   1091     1
   1089   1092     1
   1090   1109     1
   1091   1108     1
   1091   1100     1
   1091   1101     1
   1092   1108     1
   1092   1100     1
   1092   1101     1
   1093   1109     1
   1094   2278     1
   1094   1106     1
   1094   1107     1
   1095   2278     1
   1095   1106     1
   1095   1107     1
   1096   1109     1
   1097   2248     1
   1097   1103     1
   1097   1104     1
   1098   2248     1
   1098   1103     1
   1098   1104     1
   1102   2240     1
   1102   2241     1
   1103   2239     1
   1104   2239     1
   1105   2270     1
   1105   2271     1
   1106   2269     1
   1107   2269     1
   1110   1124     1
   1110   1125     1
   1110   1127     1
   1110   1128     1
   1110   1121     1
   1110   1122     1
   1111   1115     1
   1111   1116     1
   1111   1118     1
   1111   1119     1
   1111   1136     1
   1111   1137     1
   1112   1114     1
   1112   1117     1
   1112   1139     1
   1112   1135     1
   1112   1124     1
   1112   1125     1
   1113   1114     1
   1113   1117     1
   1113   1139     1
   1113   1135     1
   1113   1124     1
   1113   1125     1
   1114   1118     1
   1114   1119     1
   1114   1133     1
   1114   1134     1
   1115   1117     1
   1115   1139     1
   1115   1132     1
   1115   1127     1
   1115   1128     1
   1116   1117     1
   1116   1139     1
   1116   1132     1
   1116   1127     1
   1116   1128     1
   1117   1130     1
   1117   1131     1
   1118   1139     1
   1118   1129     1
   1118   1121     1
   1118   1122     1
   1119   1139     1
   1119   1129     1
   1119   1121     1
   1119   1122     1
   1120   1139     1
   1121   1138     1
   1121   1130     1
   1121   1131     1
   1122   1138     1
   1122   1130     1
   1122   1131     1
   1123   1139     1
   1124   2338     1
   1124   1136     1
   1124   1137     1
   1125   2338     1
   1125   1136     1
   1125   1137     1
   1126   1139     1
   1127   2308     1
   1127   1133     1
   1127   1134     1
   1128   2308     1
   1128   1133     1
   1128   1134     1
   1132   2300     1
   1132   2301     1
   1133   2299     1
   1134   2299     1
   1135   2330     1
   1135   2331     1
   1136   2329     1
   1137   2329     1
   1140   1154     1
   1140   1155     1
   1140   1157     1
   1140   1158     1
   1140   1151     1
   1140   1152     1
   1141   1145     1
   1141   1146     1
   1141   1148     1
   1141   1149     1
   1141   1166     1
   1141   1167     1
   1142   1144     1
   1142   1147     1
   1142   1169     1
   1142   1165     1
   1142   1154     1
   1142   1155     1
   1143   1144     1
   1143   1147     1
   1143   1169     1
   1143   1165     1
   1143   1154     1
   1143   1155     1
   1144   1148     1
   1144   1149     1
   1144   1163     1
   1144   1164     1
   1145   1147     1
   1145   1169     1
   1145   1162     1
   1145   1157     1
   1145   1158     1
   1146   1147     1
   1146   1169     1
   1146   1162     1
   1146   1157     1
   1146   1158     1
   1147   1160     1
   1147   1161     1
   1148   1169     1
   1148   1159     1
   1148   1151     1
   1148   1152     1
   1149   1169     1
   1149   1159     1
   1149   1151     1
   1149   1152     1
   1150   1169     1
   1151   1168     1
   1151   1160     1
   1151   1161     1
   1152   1168     1
   1152   1160     1
   1152   1161     1
   1153   1169     1
   1154   2398     1
   1154   1166     1
   1154   1167     1
   1155   2398     1
   1155   1166     1
   1155   1167     1
   1156   1169     1
   1157   2368     1
   1157   1163     1
   1157   1164     1
   1158   2368     1
   1158   1163     1
   1158   1164     1
   1162   2360     1
   1162   2361     1
   1163   2359     1
   1164   2359     1
   1165   2390     1
   1165   2391     1
   1166   2389     1
   1167   2389     1
   1170   1184     1
   1170   1185     1
   1170   1187     1
   1170   1188     1
   1170   1181     1
   1170   1182     1
   1171   1175     1
   1171   1176     1
   1171   1178     1
   1171   1179     1
   1171   1196     1
   1171   1197     1
   1172   1174     1
   1172   1177     1
   1172   1199     1
   1172   1195     1
   1172   1184     1
   1172   1185     1
   1173   1174     1
   1173   1177     1
   1173   1199     1
   1173   1195     1
   1173   1184     1
   1173   1185     1
   1174   1178     1
   1174   1179     1
   1174   1193     1
   1174   1194     1
   1175   1177     1
   1175   1199     1
   1175   1192     1
   1175   1187     1
   1175   1188     1
   1176   1177     1
   1176   1199     1
   1176   1192     1
   1176   1187     1
   1176   1188     1
   1177   1190     1
   1177   1191     1
   1178   1199     1
   1178   1189     1
   1178   1181     1
   1178   1182     1
   1179   1199     1
   1179   1189     1
   1179   1181     1
   1179   1182     1
   1180   1199     1
   1181   1198     1
   1181   1190     1
   1181   1191     1
   1182   1198     1
   1182   1190     1
   1182   1191     1
   1183   1199     1
   1184   2458     1
   1184   1196     1
   1184   1197     1
   1185   2458     1
   1185   1196     1
   1185   1197     1
   1186   1199     1
   1187   2428     1
   1187   1193     1
   1187   1194     1
   1188   2428     1
   1188   1193     1
   1188   1194     1
   1192   2420     1
   1192   2421     1
   1193   2419     1
   1194   2419     1
   1195   2450     1
   1195   2451     1
   1196   2449     1
   1197   2449     1
   1200   1214     1
   1200   1215     1
   1200   1217     1
   1200   1218     1
   1200   1211     1
   1200   1212     1
   1201   1205     1
   1201   1206     1
   1201   1208     1
   1201   1209     1
   1201   1226     1
   1201   1227     1
   1202   1204     1
   1202   1207     1
   1202   1229     1
   1202   1225     1
   1202   1214     1
   1202   1215     1
   1203   1204     1
   1203   1207     1
   1203   1229     1
   1203   1225     1
   1203   1214     1
   1203   1215     1
   1204   1208     1
   1204   1209     1
   1204   1223     1
   1204   1224     1
   1205   1207     1
   1205   1229     1
   1205   1222     1
   1205   1217     1
   1205   1218     1
   1206   1207     1
   1206   1229     1
   1206   1222     1
   1206   1217     1
   1206   1218     1
   1207   1220     1
   1207   1221     1
   1208   1229     1
   1208   1219     1
   1208   1211     1
   1208   1212     1
   1209   1229     1
   1209   1219     1
   1209   1211     1
   1209   1212     1
   1210   1229     1
   1211   1228     1
   1211   1220     1
   1211   1221     1
   1212   1228     1
   1212   1220     1
   1212   1221     1
   1213   1229     1
   1214   2518     1
   1214   1226     1
   1214   1227     1
   1215   2518     1
   1215   1226     1
   1215   1227     1
   1216   1229     1
   1217   2488     1
   1217   1223     1
   1217   1224     1
   1218   2488     1
   1218   1223     1
   1218   1224     1
   1222   2480     1
   1222   2481     1
   1223   2479     1
   1224   2479     1
   1225   2510     1
   1225   2511     1
   1226   2509     1
   1227   2509     1
   1230   1244     1
   1230   1245     1
   1230   1247     1
   1230   1248     1
   1230   1241     1
   1230   1242     1
   1231   1235     1
   1231   1236     1
   1231   1238     1
   1231   1239     1
   1231   1256     1
   1231   1257     1
   1232   1234     1
   1232   1237     1
   1232   1259     1
   1232   1255     1
   1232   1244     1
   1232   1245     1
   1233   1234     1
   1233   1237     1
   1233   1259     1
   1233   1255     1
   1233   1244     1
   1233   1245     1
   1234   1238     1
   1234   1239     1
   1234   1253     1
   1234   1254     1
   1235   1237     1
   1235   1259     1
   1235   1252     1
   1235   1247     1
   1235   1248     1
   1236   1237     1
   1236   1259     1
   1236   1252     1
   1236   1247     1
   1236   1248     1
   1237   1250     1
   1237   1251     1
   1238   1259     1
   1238   1249     1
   1238   1241     1
   1238   1242     1
   1239   1259     1
   1239   1249     1
   1239   1241     1
   1239   1242     1
   1240   1259     1
   1241   1258     1
   1241   1250     1
   1241   1251     1
   1242   1258     1
   1242   1250     1
   1242   1251     1
   1243   1259     1
   1244   2578     1
   1244   1256     1
   1244   1257     1
   1245   2578     1
   1245   1256     1
   1245   1257     1
   1246   1259     1
   1247   2548     1
   1247   1253     1
   1247   1254     1
   1248   2548     1
   1248   1253     1
   1248   1254     1
   1252   2540     1
   1252   2541     1
   1253   2539     1
   1254   2539     1
   1255   2570     1
   1255   2571     1
   1256   2569     1
   1257   2569     1
   1260   1274     1
   1260   1275     1
   1260   1277     1
   1260   1278     1
   1260   1271     1
   1260   1272     1
   1261   1265     1
   1261   1266     1
   1261   1268     1
   1261   1269     1
   1261   1286     1
   1261   1287     1
   1262   1264     1
   1262   1267     1
   1262   1289     1
   1262   1285     1
   1262   1274     1
   1262   1275     1
   1263   1264     1
   1263   1267     1
   1263   1289     1
   1263   1285     1
   1263   1274     1
   1263   1275     1
   1264   1268     1
   1264   1269     1
   1264   1283     1
   1264   1284     1
   1265   1267     1
   1265   1289     1
   1265   1282     1
   1265   1277     1
   1265   1278     1
   1266   1267     1
   1266   1289     1
   1266   1282     1
   1266   1277     1
   1266   1278     1
   1267   1280     1
   1267   1281     1
   1268   1289     1
   1268   1279     1
   1268   1271     1
   1268   1272     1
   1269   1289     1
   1269   1279     1
   1269   1271     1
   1269   1272     1
   1270   1289     1
   1271   1288     1
   1271   1280     1
   1271   1281     1
   1272   1288     1
   1272   1280     1
   1272   1281     1
   1273   1289     1
   1274   2638     1
   1274   1286     1
   1274   1287     1
   1275   2638     1
   1275   1286     1
   1275   1287     1
   1276   1289     1
   1277   2608     1
   1277   1283     1
   1277   1284     1
   1278   2608     1
   1278   1283     1
   1278   1284     1
   1282   2600     1
   1282   2601     1
   1283   2599     1
   1284   2599     1
   1285   2630     1
   1285   2631     1
   1286   2629     1
   1287   2629     1
   1290   1304     1
   1290   1305     1
   1290   1307     1
   1290   1308     1
   1290   1301     1
   1290   1302     1
   1291   1295     1
   1291   1296     1
   1291   1298     1
   1291   1299     1
   1291   1316     1
   1291   1317     1
   1292   1294     1
   1292   1297     1
   1292   1319     1
   1292   1315     1
   1292   1304     1
   1292   1305     1
   1293   1294     1
   1293   1297     1
   1293   1319     1
   1293   1315     1
   1293   1304     1
   1293   1305     1
   1294   1298     1
   1294   1299     1
   1294   1313     1
   1294   1314     1
   1295   1297     1
   1295   1319     1
   1295   1312     1
   1295   1307     1
   1295   1308     1
   1296   1297     1
   1296   1319     1
   1296   1312     1
   1296   1307     1
   1296   1308     1
   1297   1310     1
   1297   1311     1
   1298   1319     1
   1298   1309     1
   1298   1301     1
   1298   1302     1
   1299   1319     1
   1299   1309     1
   1299   1301     1
   1299   1302     1
   1300   1319     1
   1301   1318     1
   1301   1310     1
   1301   1311     1
   1302   1318     1
   1302   1310     1
   1302   1311     1
   1303   1319     1
   1304   2698     1
   1304   1316     1
   1304   1317     1
   1305   2698     1
   1305   1316     1
   1305   1317     1
   1306   1319     1
   1307   2668     1
   1307   1313     1
   1307   1314     1
   1308   2668     1
   1308   1313     1
   1308   1314     1
   1312   2660     1
   1312   2661     1
   1313   2659     1
   1314   2659     1
   1315   2690     1
   1315   2691     1
   1316   2689     1
   1317   2689     1
   1320   1334     1
   1320   1335     1
   1320   1337     1
   1320   1338     1
   1320   1331     1
   1320   1332     1
   1321   1325     1
   1321   1326     1
   1321   1328     1
   1321   1329     1
   1321   1346     1
   1321   1347     1
   1322   1324     1
   1322   1327     1
   1322   1349     1
   1322   1345     1
   1322   1334     1
   1322   1335     1
   1323   1324     1
   1323   1327     1
   1323   1349     1
   1323   1345     1
   1323   1334     1
   1323   1335     1
   1324   1328     1
   1324   1329     1
   1324   1343     1
   1324   1344     1
   1325   1327     1
   1325   1349     1
   1325   1342     1
   1325   1337     1
   1325   1338     1
   1326   1327     1
   1326   1349     1
   1326   1342     1
   1326   1337     1
   1326   1338     1
   1327   1340     1
   1327   1341     1
   1328   1349     1
   1328   1339     1
   1328   1331     1
   1328   1332     1
   1329   1349     1
   1329   1339     1
   1329   1331     1
   1329   1332     1
   1330   1349     1
   1331   1348     1
   1331   1340     1
   1331   1341     1
   1332   1348     1
   1332   1340     1
   1332   1341     1
   1333   1349     1
   1334   2758     1
   1334   1346     1
   1334   1347     1
   1335   2758     1
   1335   1346     1
   1335   1347     1
   1336   1349     1
   1337   2728     1
   1337   1343     1
   1337   1344     1
   1338   2728     1
   1338   1343     1
   1338   1344     1
   1342   2720     1
   1342   2721     1
   1343   2719     1
   1344   2719     1
   1345   2750     1
   1345   2751     1
   1346   2749     1
   1347   2749     1
   1350   1364     1
   1350   1365     1
   1350   1367     1
   1350   1368     1
   1350   1361     1
   1350   1362     1
   1351   1355     1
   1351   1356     1
   1351   1358     1
   1351   1359     1
   1351   1376     1
   1351   1377     1
   1352   1354     1
   1352   1357     1
   1352   1379     1
   1352   1375     1
   1352   1364     1
   1352   1365     1
   1353   1354     1
   1353   1357     1
   1353   1379     1
   1353   1375     1
   1353   1364     1
   1353   1365     1
   1354   1358     1
   1354   1359     1
   1354   1373     1
   1354   1374     1
   1355   1357     1
   1355   1379     1
   1355   1372     1
   1355   1367     1
   1355   1368     1
   1356   1357     1
   1356   1379     1
   1356   1372     1
   1356   1367     1
   1356   1368     1
   1357   1370     1
   1357   1371     1
   1358   1379     1
   1358   1369     1
   1358   1361     1
   1358   1362     1
   1359   1379     1
   1359   1369     1
   1359   1361     1
   1359   1362     1
   1360   1379     1
   1361   1378     1
   1361   1370     1
   1361   1371     1
   1362   1378     1
   1362   1370     1
   1362   1371     1
   1363   1379     1
   1364   2818     1
   1364   1376     1
   1364   1377     1
   1365   2818     1
   1365   1376     1
   1365   1377     1
   1366   1379     1
   1367   2788     1
   1367   1373     1
   1367   1374     1
   1368   2788     1
   1368   1373     1
   1368   1374     1
   1372   2780     1
   1372   2781     1
   1373   2779     1
   1374   2779     1
   1375   2810     1
   1375   2811     1
   1376   2809     1
   1377   2809     1
   1380   1394     1
   1380   1395     1
   1380   1397     1
   1380   1398     1
   1380   1391     1
   1380   1392     1
   1381   1385     1
   1381   1386     1
   1381   1388     1
   1381   1389     1
   1381   1406     1
   1381   1407     1
   1382   1384     1
   1382   1387     1
   1382   1409     1
   1382   1405     1
   1382   1394     1
   1382   1395     1
   1383   1384     1
   1383   1387     1
   1383   1409     1
   1383   1405     1
   1383   1394     1
   1383   1395     1
   1384   1388     1
   1384   1389     1
   1384   1403     1
   1384   1404     1
   1385   1387     1
   1385   1409     1
   1385   1402     1
   1385   1397     1
   1385   1398     1
   1386   1387     1
   1386   1409     1
   1386   1402     1
   1386   1397     1
   1386   1398     1
   1387   1400     1
   1387   1401     1
   1388   1409     1
   1388   1399     1
   1388   1391     1
   1388   1392     1
   1389   1409     1
   1389   1399     1
   1389   1391     1
   1389   1392     1
   1390   1409     1
   1391   1408     1
   1391   1400     1
   1391   1401     1
   1392   1408     1
   1392   1400     1
   1392   1401     1
   1393   1409     1
   1394   2878     1
   1394   1406     1
   1394   1407     1
   1395   2878     1
   1395   1406     1
   1395   1407     1
   1396   1409     1
   1397   2848     1
   1397   1403     1
   1397   1404     1
   1398   2848     1
   1398   1403     1
   1398   1404     1
   1402   2840     1
   1402   2841     1
   1403   2839     1
   1404   2839     1
   1405   2870     1
   1405   2871     1
   1406   2869     1
   1407   2869     1
   1410   1424     1
   1410   1425     1
   1410   1427     1
   1410   1428     1
   1410   1421     1
   1410   1422     1
   1411   1415     1
   1411   1416     1
   1411   1418     1
   1411   1419     1
   1411   1436     1
   1411   1437     1
   1412   1414     1
   1412   1417     1
   1412   1439     1
   1412   1435     1
   1412   1424     1
   1412   1425     1
   1413   1414     1
   1413   1417     1
   1413   1439     1
   1413   1435     1
   1413   1424     1
   1413   1425     1
   1414   1418     1
   1414   1419     1
   1414   1433     1
   1414   1434     1
   1415   1417     1
   1415   1439     1
   1415   1432     1
   1415   1427     1
   1415   1428     1
   1416   1417     1
   1416   1439     1
   1416   1432     1
   1416   1427     1
   1416   1428     1
   1417   1430     1
   1417   1431     1
   1418   1439     1
   1418   1429     1
   1418   1421     1
   1418   1422     1
   1419   1439     1
   1419   1429     1
   1419   1421     1
   1419   1422     1
   1420   1439     1
   1421   1438     1
   1421   1430     1
   1421   1431     1
   1422   1438     1
   1422   1430     1
   1422   1431     1
   1423   1439     1
   1424   2938     1
   1424   1436     1
   1424   1437     1
   1425   2938     1
   1425   1436     1
   1425   1437     1
   1426   1439     1
   1427   2908     1
   1427   1433     1
   1427   1434     1
   1428   2908     1
   1428   1433     1
   1428   1434     1
   1432   2900     1
   1432   2901     1
   1433   2899     1
   1434   2899     1
   1435   2930     1
   1435   2931     1
   1436   2929     1
   1437   2929     1
   1440   1454     1
   1440   1455     1
   1440   1457     1
   1440   1458     1
   1440   1451     1
   1440   1452     1
   1441   1445     1
   1441   1446     1
   1441   1448     1
   1441   1449     1
   1441   1466     1
   1441   1467     1
   1442   1444     1
   1442   1447     1
   1442   1469     1
   1442   1465     1
   1442   1454     1
   1442   1455     1
   1443   1444     1
   1443   1447     1
   1443   1469     1
   1443   1465     1
   1443   1454     1
   1443   1455     1
   1444   1448     1
   1444   1449     1
   1444   1463     1
   1444   1464     1
   1445   1447     1
   1445   1469     1
   1445   1462     1
   1445   1457     1
   1445   1458     1
   1446   1447     1
   1446   1469     1
   1446   1462     1
   1446   1457     1
   1446   1458     1
   1447   1460     1
   1447   1461     1
   1448   1469     1
   1448   1459     1
   1448   1451     1
   1448   1452     1
   1449   1469     1
   1449   1459     1
   1449   1451     1
   1449   1452     1
   1450   1469     1
   1451   1468     1
   1451   1460     1
   1451   1461     1
   1452   1468     1
   1452   1460     1
   1452   1461     1
   1453   1469     1
   1454   2998     1
   1454   1466     1
   1454   1467     1
   1455   2998     1
   1455   1466     1
   1455   1467     1
   1456   1469     1
   1457   2968     1
   1457   1463     1
   1457   1464     1
   1458   2968     1
   1458   1463     1
   1458   1464     1
   1462   2960     1
   1462   2961     1
   1463   2959     1
   1464   2959     1
   1465   2990     1
   1465   2991     1
   1466   2989     1
   1467   2989     1
   1470   1484     1
   1470   1485     1
   1470   1487     1
   1470   1488     1
   1470   1481     1
   1470   1482     1
   1471   1475     1
   1471   1476     1
   1471   1478     1
   1471   1479     1
   1471   1496     1
   1471   1497     1
   1472   1474     1
   1472   1477     1
   1472   1499     1
   1472   1495     1
   1472   1484     1
   1472   1485     1
   1473   1474     1
   1473   1477     1
   1473   1499     1
   1473   1495     1
   1473   1484     1
   1473   1485     1
   1474   1478     1
   1474   1479     1
   1474   1493     1
   1474   1494     1
   1475   1477     1
   1475   1499     1
   1475   1492     1
   1475   1487     1
   1475   1488     1
   1476   1477     1
   1476   1499     1
   1476   1492     1
   1476   1487     1
   1476   1488     1
   1477   1490     1
   1477   1491     1
   1478   1499     1
   1478   1489     1
   1478   1481     1
   1478   1482     1
   1479   1499     1
   1479   1489     1
   1479   1481     1
   1479   1482     1
   1480   1499     1
   1481   1498     1
   1481   1490     1
   1481   1491     1
   1482   1498     1
   1482   1490     1
   1482   1491     1
   1483   1499     1
   1484   3058     1
   1484   1496     1
   1484   1497     1
   1485   3058     1
   1485   1496     1
   1485   1497     1
   1486   1499     1
   1487   3028     1
   1487   1493     1
   1487   1494     1
   1488   3028     1
   1488   1493     1
   1488   1494     1
   1492   3020     1
   1492   3021     1
   1493   3019     1
   1494   3019     1
   1495   3050     1
   1495   3051     1
   1496   3049     1
   1497   3049     1
   1500   1514     1
   1500   1515     1
   1500   1517     1
   1500   1518     1
   1500   1511     1
   1500   1512     1
   1501   1505     1
   1501   1506     1
   1501   1508     1
   1501   1509     1
   1501   1526     1
   1501   1527     1
   1502   1504     1
   1502   1507     1
   1502   1529     1
   1502   1525     1
   1502   1514     1
   1502   1515     1
   1503   1504     1
   1503   1507     1
   1503   1529     1
   1503   1525     1
   1503   1514     1
   1503   1515     1
   1504   1508     1
   1504   1509     1
   1504   1523     1
   1504   1524     1
   1505   1507     1
   1505   1529     1
   1505   1522     1
   1505   1517     1
   1505   1518     1
   1506   1507     1
   1506   1529     1
   1506   1522     1
   1506   1517     1
   1506   1518     1
   1507   1520     1
   1507   1521     1
   1508   1529     1
   1508   1519     1
   1508   1511     1
   1508   1512     1
   1509   1529     1
   1509   1519     1
   1509   1511     1
   1509   1512     1
   1510   1529     1
   1511   1528     1
   1511   1520     1
   1511   1521     1
   1512   1528     1
   1512   1520     1
   1512   1521     1
   1513   1529     1
   1514   3118     1
   1514   1526     1
   1514   1527     1
   1515   3118     1
   1515   1526     1
   1515   1527     1
   1516   1529     1
   1517   3088     1
   1517   1523     1
   1517   1524     1
   1518   3088     1
   1518   1523     1
   1518   1524     1
   1522   3080     1
   1522   3081     1
   1523   3079     1
   1524   3079     1
   1525   3110     1
   1525   3111     1
   1526   3109     1
   1527   3109     1
   1530   1544     1
   1530   1545     1
   1530   1547     1
   1530   1548     1
   1530   1541     1
   1530   1542     1
   1531   1535     1
   1531   1536     1
   1531   1538     1
   1531   1539     1
   1531   1556     1
   1531   1557     1
   1532   1534     1
   1532   1537     1
   1532   1559     1
   1532   1555     1
   1532   1544     1
   1532   1545     1
   1533   1534     1
   1533   1537     1
   1533   1559     1
   1533   1555     1
   1533   1544     1
   1533   1545     1
   1534   1538     1
   1534   1539     1
   1534   1553     1
   1534   1554     1
   1535   1537     1
   1535   1559     1
   1535   1552     1
   1535   1547     1
   1535   1548     1
   1536   1537     1
   1536   1559     1
   1536   1552     1
   1536   1547     1
   1536   1548     1
   1537   1550     1
   1537   1551     1
   1538   1559     1
   1538   1549     1
   1538   1541     1
   1538   1542     1
   1539   1559     1
   1539   1549     1
   1539   1541     1
   1539   1542     1
   1540   1559     1
   1541   1558     1
   1541   1550     1
   1541   1551     1
   1542   1558     1
   1542   1550     1
   1542   1551     1
   1543   1559     1
   1544   3178     1
   1544   1556     1
   1544   1557     1
   1545   3178     1
   1545   1556     1
   1545   1557     1
   1546   1559     1
   1547   3148     1
   1547   1553     1
   1547   1554     1
   1548   3148     1
   1548   1553     1
   1548   1554     1
   1552   3140     1
   1552   3141     1
   1553   3139     1
   1554   3139     1
   1555   3170     1
   1555   3171     1
   1556   3169     1
   1557   3169     1
   1560   1574     1
   1560   1575     1
   1560   1577     1
   1560   1578     1
   1560   1571     1
   1560   1572     1
   1561   1565     1
   1561   1566     1
   1561   1568     1
   1561   1569     1
   1561   1586     1
   1561   1587     1
   1562   1564     1
   1562   1567     1
   1562   1589     1
   1562   1585     1
   1562   1574     1
   1562   1575     1
   1563   1564     1
   1563   1567     1
   1563   1589     1
   1563   1585     1
   1563   1574     1
   1563   1575     1
   1564   1568     1
   1564   1569     1
   1564   1583     1
   1564   1584     1
   1565   1567     1
   1565   1589     1
   1565   1582     1
   1565   1577     1
   1565   1578     1
   1566   1567     1
   1566   1589     1
   1566   1582     1
   1566   1577     1
   1566   1578     1
   1567   1580     1
   1567   1581     1
   1568   1589     1
   1568   1579     1
   1568   1571     1
   1568   1572     1
   1569   1589     1
   1569   1579     1
   1569   1571     1
   1569   1572     1
   1570   1589     1
   1571   1588     1
   1571   1580     1
   1571   1581     1
   1572   1588     1
   1572   1580     1
   1572   1581     1
   1573   1589     1
   1574   3238     1
   1574   1586     1
   1574   1587     1
   1575   3238     1
   1575   1586     1
   1575   1587     1
   1576   1589     1
   1577   3208     1
   1577   1583     1
   1577   1584     1
   1578   3208     1
   1578   1583     1
   1578   1584     1
   1582   3200     1
   1582   3201     1
   1583   3199     1
   1584   3199     1
   1585   3230     1
   1585   3231     1
   1586   3229     1
   1587   3229     1
   1590   1604     1
   1590   1605     1
   1590   1607     1
   1590   1608     1
   1590   1601     1
   1590   1602     1
   1591   1595     1
   1591   1596     1
   1591   1598     1
   1591   1599     1
   1591   1616     1
   1591   1617     1
   1592   1594     1
   1592   1597     1
   1592   1619     1
   1592   1615     1
   1592   1604     1
   1592   1605     1
   1593   1594     1
   1593   1597     1
   1593   1619     1
   1593   1615     1
   1593   1604     1
   1593   1605     1
   1594   1598     1
   1594   1599     1
   1594   1613     1
   1594   1614     1
   1595   1597     1
   1595   1619     1
   1595   1612     1
   1595   1607     1
   1595   1608     1
   1596   1597     1
   1596   1619     1
   1596   1612     1
   1596   1607     1
   1596   1608     1
   1597   1610     1
   1597   1611     1
   1598   1619     1
   1598   1609     1
   1598   1601     1
   1598   1602     1
   1599   1619     1
   1599   1609     1
   1599   1601     1
   1599   1602     1
   1600   1619     1
   1601   1618     1
   1601   1610     1
   1601   1611     1
   1602   1618     1
   1602   1610     1
   1602   1611     1
   1603   1619     1
   1604   3298     1
   1604   1616     1
   1604   1617     1
   1605   3298     1
   1605   1616     1
   1605   1617     1
   1606   1619     1
   1607   3268     1
   1607   1613     1
   1607   1614     1
   1608   3268     1
   1608   1613     1
   1608   1614     1
   1612   3260     1
   1612   3261     1
   1613   3259     1
   1614   3259     1
   1615   3290     1
   1615   3291     1
   1616   3289     1
   1617   3289     1
   1620   1634     1
   1620   1635     1
   1620   1637     1
   1620   1638     1
   1620   1631     1
   1620   1632     1
   1621   1625     1
   1621   1626     1
   1621   1628     1
   1621   1629     1
   1621   1646     1
   1621   1647     1
   1622   1624     1
   1622   1627     1
   1622   1649     1
   1622   1645     1
   1622   1634     1
   1622   1635     1
   1623   1624     1
   1623   1627     1
   1623   1649     1
   1623   1645     1
   1623   1634     1
   1623   1635     1
   1624   1628     1
   1624   1629     1
   1624   1643     1
   1624   1644     1
   1625   1627     1
   1625   1649     1
   1625   1642     1
   1625   1637     1
   1625   1638     1
   1626   1627     1
   1626   1649     1
   1626   1642     1
   1626   1637     1
   1626   1638     1
   1627   1640     1
   1627   1641     1
   1628   1649     1
   1628   1639     1
   1628   1631     1
   1628   1632     1
   1629   1649     1
   1629   1639     1
   1629   1631     1
   1629   1632     1
   1630   1649     1
   1631   1648     1
   1631   1640     1
   1631   1641     1
   1632   1648     1
   1632   1640     1
   1632   1641     1
   1633   1649     1
   1634   3358     1
   1634   1646     1
   1634   1647     1
   1635   3358     1
   1635   1646     1
   1635   1647     1
   1636   1649     1
   1637   3328     1
   1637   1643     1
   1637   1644     1
   1638   3328     1
   1638   1643     1
   1638   1644     1
   1642   3320     1
   1642   3321     1
   1643   3319     1
   1644   3319     1
   1645   3350     1
   1645   3351     1
   1646   3349     1
   1647   3349     1
   1650   1664     1
   1650   1665     1
   1650   1667     1
   1650   1668     1
   1650   1661     1
   1650   1662     1
   1651   1655     1
   1651   1656     1
   1651   1658     1
   1651   1659     1
   1651   1676     1
   1651   1677     1
   1652   1654     1
   1652   1657     1
   1652   1679     1
   1652   1675     1
   1652   1664     1
   1652   1665     1
   1653   1654     1
   1653   1657     1
   1653   1679     1
   1653   1675     1
   1653   1664     1
   1653   1665     1
   1654   1658     1
   1654   1659     1
   1654   1673     1
   1654   1674     1
   1655   1657     1
   1655   1679     1
   1655   1672     1
   1655   1667     1
   1655   1668     1
   1656   1657     1
   1656   1679     1
   1656   1672     1
   1656   1667     1
   1656   1668     1
   1657   1670     1
   1657   1671     1
   1658   1679     1
   1658   1669     1
   1658   1661     1
   1658   1662     1
   1659   1679     1
   1659   1669     1
   1659   1661     1
   1659   1662     1
   1660   1679     1
   1661   1678     1
   1661   1670     1
   1661   1671     1
   1662   1678     1
   1662   1670     1
   1662   1671     1
   1663   1679     1
   1664   3418     1
   1664   1676     1
   1664   1677     1
   1665   3418     1
   1665   1676     1
   1665   1677     1
   1666   1679     1
   1667   3388     1
   1667   1673     1
   1667   1674     1
   1668   3388     1
   1668   1673     1
   1668   1674     1
   1672   3380     1
   1672   3381     1
   1673   3379     1
   1674   3379     1
   1675   3410     1
   1675   3411     1
   1676   3409     1
   1677   3409     1
   1680   1694     1
   1680   1695     1
   1680   1697     1
   1680   1698     1
   1680   1691     1
   1680   1692     1
   1681   1685     1
   1681   1686     1
   1681   1688     1
   1681   1689     1
   1681   1706     1
   1681   1707     1
   1682   1684     1
   1682   1687     1
   1682   1709     1
   1682   1705     1
   1682   1694     1
   1682   1695     1
   1683   1684     1
   1683   1687     1
   1683   1709     1
   1683   1705     1
   1683   1694     1
   1683   1695     1
   1684   1688     1
   1684   1689     1
   1684   1703     1
   1684   1704     1
   1685   1687     1
   1685   1709     1
   1685   1702     1
   1685   1697     1
   1685   1698     1
   1686   1687     1
   1686   1709     1
   1686   1702     1
   1686   1697     1
   1686   1698     1
   1687   1700     1
   1687   1701     1
   1688   1709     1
   1688   1699     1
   1688   1691     1
   1688   1692     1
   1689   1709     1
   1689   1699     1
   1689   1691     1
   1689   1692     1
   1690   1709     1
   1691   1708     1
   1691   1700     1
   1691   1701     1
   1692   1708     1
   1692   1700     1
   1692   1701     1
   1693   1709     1
   1694   3478     1
   1694   1706     1
   1694   1707     1
   1695   3478     1
   1695   1706     1
   1695   1707     1
   1696   1709     1
   1697   3448     1
   1697   1703     1
   1697   1704     1
   1698   3448     1
   1698   1703     1
   1698   1704     1
   1702   3440     1
   1702   3441     1
   1703   3439     1
   1704   3439     1
   1705   3470     1
   1705   3471     1
   1706   3469     1
   1707   3469     1
   1710   1724     1
   1710   1725     1
   1710   1727     1
   1710   1728     1
   1710   1721     1
   1710   1722     1
   1711   1715     1
   1711   1716     1
   1711   1718     1
   1711   1719     1
   1711   1736     1
   1711   1737     1
   1712   1714     1
   1712   1717     1
   1712   1739     1
   1712   1735     1
   1712   1724     1
   1712   1725     1
   1713   1714     1
   1713   1717     1
   1713   1739     1
   1713   1735     1
   1713   1724     1
   1713   1725     1
   1714   1718     1
   1714   1719     1
   1714   1733     1
   1714   1734     1
   1715   1717     1
   1715   1739     1
   1715   1732     1
   1715   1727     1
   1715   1728     1
   1716   1717     1
   1716   1739     1
   1716   1732     1
   1716   1727     1
   1716   1728     1
   1717   1730     1
   1717   1731     1
   1718   1739     1
   1718   1729     1
   1718   1721     1
   1718   1722     1
   1719   1739     1
   1719   1729     1
   1719   1721     1
   1719   1722     1
   1720   1739     1
   1721   1738     1
   1721   1730     1
   1721   1731     1
   1722   1738     1
   1722   1730     1
   1722   1731     1
   1723   1739     1
   1724   3538     1
   1724   1736     1
   1724   1737     1
   1725   3538     1
   1725   1736     1
   1725   1737     1
   1726   1739     1
   1727   3508     1
   1727   1733     1
   1727   1734     1
   1728   3508     1
   1728   1733     1
   1728   1734     1
   1732   3500     1
   1732   3501     1
   1733   3499     1
   1734   3499     1
   1735   3530     1
   1735   3531     1
   1736   3529     1
   1737   3529     1
   1740   1754     1
   1740   1755     1
   1740   1757     1
   1740   1758     1
   1740   1751     1
   1740   1752     1
   1741   1745     1
   1741   1746     1
   1741   1748     1
   1741   1749     1
   1741   1766     1
   1741   1767     1
   1742   1744     1
   1742   1747     1
   1742   1769     1
   1742   1765     1
   1742   1754     1
   1742   1755     1
   1743   1744     1
   1743   1747     1
   1743   1769     1
   1743   1765     1
   1743   1754     1
   1743   1755     1
   1744   1748     1
   1744   1749     1
   1744   1763     1
   1744   1764     1
   1745   1747     1
   1745   1769     1
   1745   1762     1
   1745   1757     1
   1745   1758     1
   1746   1747     1
   1746   1769     1
   1746   1762     1
   1746   1757     1
   1746   1758     1
   1747   1760     1
   1747   1761     1
   1748   1769     1
   1748   1759     1
   1748   1751     1
   1748   1752     1
   1749   1769     1
   1749   1759     1
   1749   1751     1
   1749   1752     1
   1750   1769     1
   1751   1768     1
   1751   1760     1
   1751   1761     1
   1752   1768     1
   1752   1760     1
   1752   1761     1
   1753   1769     1
   1754   3598     1
   1754   1766     1
   1754   1767     1
   1755   3598     1
   1755   1766     1
   1755   1767     1
   1756   1769     1
   1757   3568     1
   1757   1763     1
   1757   1764     1
   1758   3568     1
   1758   1763     1
   1758   1764     1
   1762   3560     1
   1762   3561     1
   1763   3559     1
   1764   3559     1
   1765   3590     1
   1765   3591     1
   1766   3589     1
   1767   3589     1
   1770   1784     1
   1770   1785     1
   1770   1787     1
   1770   1788     1
   1770   1781     1
   1770   1782     1
   1771   1775     1
   1771   1776     1
   1771   1778     1
   1771   1779     1
   1771   1796     1
   1771   1797     1
   1772   1774     1
   1772   1777     1
   1772   1799     1
   1772   1795     1
   1772   1784     1
   1772   1785     1
   1773   1774     1
   1773   1777     1
   1773   1799     1
   1773   1795     1
   1773   1784     1
   1773   1785     1
   1774   1778     1
   1774   1779     1
   1774   1793     1
   1774   1794     1
   1775   1777     1
   1775   1799     1
   1775   1792     1
   1775   1787     1
   1775   1788     1
   1776   1777     1
   1776   1799     1
   1776   1792     1
   1776   1787     1
   1776   1788     1
   1777   1790     1
   1777   1791     1
   1778   1799     1
   1778   1789     1
   1778   1781     1
   1778   1782     1
   1779   1799     1
   1779   1789     1
   1779   1781     1
   1779   1782     1
   1780   1799     1
   1781   1798     1
   1781   1790     1
   1781   1791     1
   1782   1798     1
   1782   1790     1
   1782   1791     1
   1783   1799     1
   1784   3658     1
   1784   1796     1
   1784   1797     1
   1785   3658     1
   1785   1796     1
   1785   1797     1
   1786   1799     1
   1787   3628     1
   1787   1793     1
   1787   1794     1
   1788   3628     1
   1788   1793     1
   1788   1794     1
   1792   3620     1
   1792   3621     1
   1793   3619     1
   1794   3619     1
   1795   3650     1
   1795   3651     1
   1796   3649     1
   1797   3649     1
   1800   1814     1
   1800   1815     1
   1800   1817     1
   1800   1818     1
   1800   1811     1
   1800   1812     1
   1801   1805     1
   1801   1806     1
   1801   1808     1
   1801   1809     1
   1801   1826     1
   1801   1827     1
   1802   1804     1
   1802   1807     1
   1802   1829     1
   1802   1825     1
   1802   1814     1
   1802   1815     1
   1803   1804     1
   1803   1807     1
   1803   1829     1
   1803   1825     1
   1803   1814     1
   1803   1815     1
   1804   1808     1
   1804   1809     1
   1804   1823     1
   1804   1824     1
   1805   1807     1
   1805   1829     1
   1805   1822     1
   1805   1817     1
   1805   1818     1
   1806   1807     1
   1806   1829     1
   1806   1822     1
   1806   1817     1
   1806   1818     1
   1807   1820     1
   1807   1821     1
   1808   1829     1
   1808   1819     1
   1808   1811     1
   1808   1812     1
   1809   1829     1
   1809   1819     1
   1809   1811     1
   1809   1812     1
   1810   1829     1
   1811   1828     1
   1811   1820     1
   1811   1821     1
   1812   1828     1
   1812   1820     1
   1812   1821     1
   1813   1829     1
   1814   3718     1
   1814   1826     1
   1814   1827     1
   1815   3718     1
   1815   1826     1
   1815   1827     1
   1816   1829     1
   1817   3688     1
   1817   1823     1
   1817   1824     1
   1818   3688     1
   1818   1823     1
   1818   1824     1
   1822   3680     1
   1822   3681     1
   1823   3679     1
   1824   3679     1
   1825   3710     1
   1825   3711     1
   1826   3709     1
   1827   3709     1
   1830   1844     1
   1830   1845     1
   1830   1847     1
   1830   1848     1
   1830   1841     1
   1830   1842     1
   1831   1835     1
   1831   1836     1
   1831   1838     1
   1831   1839     1
   1831   1856     1
   1831   1857     1
   1832   1834     1
   1832   1837     1
   1832   1859     1
   1832   1855     1
   1832   1844     1
   1832   1845     1
   1833   1834     1
   1833   1837     1
   1833   1859     1
   1833   1855     1
   1833   1844     1
   1833   1845     1
   1834   1838     1
   1834   1839     1
   1834   1853     1
   1834   1854     1
   1835   1837     1
   1835   1859     1
   1835   1852     1
   1835   1847     1
   1835   1848     1
   1836   1837     1
   1836   1859     1
   1836   1852     1
   1836   1847     1
   1836   1848     1
   1837   1850     1
   1837   1851     1
   1838   1859     1
   1838   1849     1
   1838   1841     1
   1838   1842     1
   1839   1859     1
   1839   1849     1
   1839   1841     1
   1839   1842     1
   1840   1859     1
   1841   1858     1
   1841   1850     1
   1841   1851     1
   1842   1858     1
   1842   1850     1
   1842   1851     1
   1843   1859     1
   1844   3778     1
   1844   1856     1
   1844   1857     1
   1845   3778     1
   1845   1856     1
   1845   1857     1
   1846   1859     1
   1847   3748     1
   1847   1853     1
   1847   1854     1
   1848   3748     1
   1848   1853     1
   1848   1854     1
   1852   3740     1
   1852   3741     1
   1853   3739     1
   1854   3739     1
   1855   3770     1
   1855   3771     1
   1856   3769     1
   1857   3769     1
   1860   1874     1
   1860   1875     1
   1860   1877     1
   1860   1878     1
   1860   1871     1
   1860   1872     1
   1861   1865     1
   1861   1866     1
   1861   1868     1
   1861   1869     1
   1861   1886     1
   1861   1887     1
   1862   1864     1
   1862   1867     1
   1862   1889     1
   1862   1885     1
   1862   1874     1
   1862   1875     1
   1863   1864     1
   1863   1867     1
   1863   1889     1
   1863   1885     1
   1863   1874     1
   1863   1875     1
   1864   1868     1
   1864   1869     1
   1864   1883     1
   1864   1884     1
   1865   1867     1
   1865   1889     1
   1865   1882     1
   1865   1877     1
   1865   1878     1
   1866   1867     1
   1866   1889     1
   1866   1882     1
   1866   1877     1
   1866   1878     1
   1867   1880     1
   1867   1881     1
   1868   1889     1
   1868   1879     1
   1868   1871     1
   1868   1872     1
   1869   1889     1
   1869   1879     1
   1869   1871     1
   1869   1872     1
   1870   1889     1
   1871   1888     1
   1871   1880     1
   1871   1881     1
   1872   1888     1
   1872   1880     1
   1872   1881     1
   1873   1889     1
   1874   3838     1
   1874   1886     1
   1874   1887     1
   1875   3838     1
   1875   1886     1
   1875   1887     1
   1876   1889     1
   1877   3808     1
   1877   1883     1
   1877   1884     1
   1878   3808     1
   1878   1883     1
   1878   1884     1
   1882   3800     1
   1882   3801     1
   1883   3799     1
   1884   3799     1
   1885   3830     1
   1885   3831     1
   1886   3829     1
   1887   3829     1
   1890   1904     1
   1890   1905     1
   1890   1907     1
   1890   1908     1
   1890   1901     1
   1890   1902     1
   1891   1895     1
   1891   1896     1
   1891   1898     1
   1891   1899     1
   1891   1916     1
   1891   1917     1
   1892   1894     1
   1892   1897     1
   1892   1919     1
   1892   1915     1
   1892   1904     1
   1892   1905     1
   1893   1894     1
   1893   1897     1
   1893   1919     1
   1893   1915     1
   1893   1904     1
   1893   1905     1
   1894   1898     1
   1894   1899     1
   1894   1913     1
   1894   1914     1
   1895   1897     1
   1895   1919     1
   1895   1912     1
   1895   1907     1
   1895   1908     1
   1896   1897     1
   1896   1919     1
   1896   1912     1
   1896   1907     1
   1896   1908     1
   1897   1910     1
   1897   1911     1
   1898   1919     1
   1898   1909     1
   1898   1901     1
   1898   1902     1
   1899   1919     1
   1899   1909     1
   1899   1901     1
   1899   1902     1
   1900   1919     1
   1901   1918     1
   1901   1910     1
   1901   1911     1
   1902   1918     1
   1902   1910     1
   1902   1911     1
   1903   1919     1
   1904   3898     1
   1904   1916     1
   1904   1917     1
   1905   3898     1
   1905   1916     1
   1905   1917     1
   1906   1919     1
   1907   3868     1
   1907   1913     1
   1907   1914     1
   1908   3868     1
   1908   1913     1
   1908   1914     1
   1912   3860     1
   1912   3861     1
   1913   3859     1
   1914   3859     1
   1915   3890     1
   1915   3891     1
   1916   3889     1
   1917   3889     1
   1920   1934     1
   1920   1935     1
   1920   1937     1
   1920   1938     1
   1920   1931     1
   1920   1932     1
   1921   1925     1
   1921   1926     1
   1921   1928     1
   1921   1929     1
   1921   1946     1
   1921   1947     1
   1922   1924     1
   1922   1927     1
   1922   1949     1
   1922   1945     1
   1922   1934     1
   1922   1935     1
   1923   1924     1
   1923   1927     1
   1923   1949     1
   1923   1945     1
   1923   1934     1
   1923   1935     1
   1924   1928     1
   1924   1929     1
   1924   1943     1
   1924   1944     1
   1925   1927     1
   1925   1949     1
   1925   1942     1
   1925   1937     1
   1925   1938     1
   1926   1927     1
   1926   1949     1
   1926   1942     1
   1926   1937     1
   1926   1938     1
   1927   1940     1
   1927   1941     1
   1928   1949     1
   1928   1939     1
   1928   1931     1
   1928   1932     1
   1929   1949     1
   1929   1939     1
   1929   1931     1
   1929   1932     1
   1930   1949     1
   1931   1948     1
   1931   1940     1
   1931   1941     1
   1932   1948     1
   1932   1940     1
   1932   1941     1
   1933   1949     1
   1934   3958     1
   1934   1946     1
   1934   1947     1
   1935   3958     1
   1935   1946     1
   1935   1947     1
   1936   1949     1
   1937   3928     1
   1937   1943     1
   1937   1944     1
   1938   3928     1
   1938   1943     1
   1938   1944     1
   1942   3920     1
   1942   3921     1
   1943   3919     1
   1944   3919     1
   1945   3950     1
   1945   3951     1
   1946   3949     1
   1947   3949     1
   1950   1964     1
   1950   1965     1
   1950   1967     1
   1950   1968     1
   1950   1961     1
   1950   1962     1
   1951   1955     1
   1951   1956     1
   1951   1958     1
   1951   1959     1
   1951   1976     1
   1951   1977     1
   1952   1954     1
   1952   1957     1
   1952   1979     1
   1952   1975     1
   1952   1964     1
   1952   1965     1
   1953   1954     1
   1953   1957     1
   1953   1979     1
   1953   1975     1
   1953   1964     1
   1953   1965     1
   1954   1958     1
   1954   1959     1
   1954   1973     1
   1954   1974     1
   1955   1957     1
   1955   1979     1
   1955   1972     1
   1955   1967     1
   1955   1968     1
   1956   1957     1
   1956   1979     1
   1956   1972     1
   1956   1967     1
   1956   1968     1
   1957   1970     1
   1957   1971     1
   1958   1979     1
   1958   1969     1
   1958   1961     1
   1958   1962     1
   1959   1979     1
   1959   1969     1
   1959   1961     1
   1959   1962     1
   1960   1979     1
   1961   1978     1
   1961   1970     1
   1961   1971     1
   1962   1978     1
   1962   1970     1
   1962   1971     1
   1963   1979     1
   1964   4018     1
   1964   1976     1
   1964   1977     1
   1965   4018     1
   1965   1976     1
   1965   1977     1
   1966   1979     1
   1967   3988     1
   1967   1973     1
   1967   1974     1
   1968   3988     1
   1968   1973     1
   1968   1974     1
   1972   3980     1
   1972   3981     1
   1973   3979     1
   1974   3979     1
   1975   4010     1
   1975   4011     1
   1976   4009     1
   1977   4009     1
   1980   1994     1
   1980   1995     1
   1980   1997     1
   1980   1998     1
   1980   1991     1
   1980   1992     1
   1981   1985     1
   1981   1986     1
   1981   1988     1
   1981   1989     1
   1981   2006     1
   1981   2007     1
   1982   1984     1
   1982   1987     1
   1982   2009     1
   1982   2005     1
   1982   1994     1
   1982   1995     1
   1983   1984     1
   1983   1987     1
   1983   2009     1
   1983   2005     1
   1983   1994     1
   1983   1995     1
   1984   1988     1
   1984   1989     1
   1984   2003     1
   1984   2004     1
   1985   1987     1
   1985   2009     1
   1985   2002     1
   1985   1997     1
   1985   1998     1
   1986   1987     1
   1986   2009     1
   1986   2002     1
   1986   1997     1
   1986   1998     1
   1987   2000     1
   1987   2001     1
   1988   2009     1
   1988   1999     1
   1988   1991     1
   1988   1992     1
   1989   2009     1
   1989   1999     1
   1989   1991     1
   1989   1992     1
   1990   2009     1
   1991   2008     1
   1991   2000     1
   1991   2001     1
   1992   2008     1
   1992   2000     1
   1992   2001     1
   1993   2009     1
   1994   4078     1
   1994   2006     1
   1994   2007     1
   1995   4078     1
   1995   2006     1
   1995   2007     1
   1996   2009     1
   1997   4048     1
   1997   2003     1
   1997   2004     1
   1998   4048     1
   1998   2003     1
   1998   2004     1
   2002   4040     1
   2002   4041     1
   2003   4039     1
   2004   4039     1
   2005   4070     1
   2005   4071     1
   2006   4069     1
   2007   4069     1
   2010   2024     1
   2010   2025     1
   2010   2027     1
   2010   2028     1
   2010   2021     1
   2010   2022     1
   2011   2015     1
   2011   2016     1
   2011   2018     1
   2011   2019     1
   2011   2036     1
   2011   2037     1
   2012   2014     1
   2012   2017     1
   2012   2039     1
   2012   2035     1
   2012   2024     1
   2012   2025     1
   2013   2014     1
   2013   2017     1
   2013   2039     1
   2013   2035     1
   2013   2024     1
   2013   2025     1
   2014   2018     1
   2014   2019     1
   2014   2033     1
   2014   2034     1
   2015   2017     1
   2015   2039     1
   2015   2032     1
   2015   2027     1
   2015   2028     1
   2016   2017     1
   2016   2039     1
   2016   2032     1
   2016   2027     1
   2016   2028     1
   2017   2030     1
   2017   2031     1
   2018   2039     1
   2018   2029     1
   2018   2021     1
   2018   2022     1
   2019   2039     1
   2019   2029     1
   2019   2021     1
   2019   2022     1
   2020   2039     1
   2021   2038     1
   2021   2030     1
   2021   2031     1
   2022   2038     1
   2022   2030     1
   2022   2031     1
   2023   2039     1
   2024   4138     1
   2024   2036     1
   2024   2037     1
   2025   4138     1
   2025   2036     1
   2025   2037     1
   2026   2039     1
   2027   4108     1
   2027   2033     1
   2027   2034     1
   2028   4108     1
   2028   2033     1
   2028   2034     1
   2032   4100     1
   2032   4101     1
   2033   4099     1
   2034   4099     1
   2035   4130     1
   2035   4131     1
   2036   4129     1
   2037   4129     1
   2040   2054     1
   2040   2055     1
   2040   2057     1
   2040   2058     1
   2040   2051     1
   2040   2052     1
   2041   2045     1
   2041   2046     1
   2041   2048     1
   2041   2049     1
   2041   2066     1
   2041   2067     1
   2042   2044     1
   2042   2047     1
   2042   2069     1
   2042   2065     1
   2042   2054     1
   2042   2055     1
   2043   2044     1
   2043   2047     1
   2043   2069     1
   2043   2065     1
   2043   2054     1
   2043   2055     1
   2044   2048     1
   2044   2049     1
   2044   2063     1
   2044   2064     1
   2045   2047     1
   2045   2069     1
   2045   2062     1
   2045   2057     1
   2045   2058     1
   2046   2047     1
   2046   2069     1
   2046   2062     1
   2046   2057     1
   2046   2058     1
   2047   2060     1
   2047   2061     1
   2048   2069     1
   2048   2059     1
   2048   2051     1
   2048   2052     1
   2049   2069     1
   2049   2059     1
   2049   2051     1
   2049   2052     1
   2050   2069     1
   2051   2068     1
   2051   2060     1
   2051   2061     1
   2052   2068     1
   2052   2060     1
   2052   2061     1
   2053   2069     1
   2054   4198     1
   2054   2066     1
   2054   2067     1
   2055   4198     1
   2055   2066     1
   2055   2067     1
   2056   2069     1
   2057   4168     1
   2057   2063     1
   2057   2064     1
   2058   4168     1
   2058   2063     1
   2058   2064     1
   2062   4160     1
   2062   4161     1
   2063   4159     1
   2064   4159     1
   2065   4190     1
   2065   4191     1
   2066   4189     1
   2067   4189     1
   2070   2084     1
   2070   2085     1
   2070   2087     1
   2070   2088     1
   2070   2081     1
   2070   2082     1
   2071   2075     1
   2071   2076     1
   2071   2078     1
   2071   2079     1
   2071   2096     1
   2071   2097     1
   2072   2074     1
   2072   2077     1
   2072   2099     1
   2072   2095     1
   2072   2084     1
   2072   2085     1
   2073   2074     1
   2073   2077     1
   2073   2099     1
   2073   2095     1
   2073   2084     1
   2073   2085     1
   2074   2078     1
   2074   2079     1
   2074   2093     1
   2074   2094     1
   2075   2077     1
   2075   2099     1
   2075   2092     1
   2075   2087     1
   2075   2088     1
   2076   2077     1
   2076   2099     1
   2076   2092     1
   2076   2087     1
   2076   2088     1
   2077   2090     1
   2077   2091     1
   2078   2099     1
   2078   2089     1
   2078   2081     1
   2078   2082     1
   2079   2099     1
   2079   2089     1
   2079   2081     1
   2079   2082     1
   2080   2099     1
   2081   2098     1
   2081   2090     1
   2081   2091     1
   2082   2098     1
   2082   2090     1
   2082   2091     1
   2083   2099     1
   2084   4258     1
   2084   2096     1
   2084   2097     1
   2085   4258     1
   2085   2096     1
   2085   2097     1
   2086   2099     1
   2087   4228     1
   2087   2093     1
   2087   2094     1
   2088   4228     1
   2088   2093     1
   2088   2094     1
   2092   4220     1
   2092   4221     1
   2093   4219     1
   2094   4219     1
   2095   4250     1
   2095   4251     1
   2096   4249     1
   2097   4249     1
   2100   2114     1
   2100   2115     1
   2100   2117     1
   2100   2118     1
   2100   2111     1
   2100   2112     1
   2101   2105     1
   2101   2106     1
   2101   2108     1
   2101   2109     1
   2101   2126     1
   2101   2127     1
   2102   2104     1
   2102   2107     1
   2102   2129     1
   2102   2125     1
   2102   2114     1
   2102   2115     1
   2103   2104     1
   2103   2107     1
   2103   2129     1
   2103   2125     1
   2103   2114     1
   2103   2115     1
   2104   2108     1
   2104   2109     1
   2104   2123     1
   2104   2124     1
   2105   2107     1
   2105   2129     1
   2105   2122     1
   2105   2117     1
   2105   2118     1
   2106   2107     1
   2106   2129     1
   2106   2122     1
   2106   2117     1
   2106   2118     1
   2107   2120     1
   2107   2121     1
   2108   2129     1
   2108   2119     1
   2108   2111     1
   2108   2112     1
   2109   2129     1
   2109   2119     1
   2109   2111     1
   2109   2112     1
   2110   2129     1
   2111   2128     1
   2111   2120     1
   2111   2121     1
   2112   2128     1
   2112   2120     1
   2112   2121     1
   2113   2129     1
   2114   4318     1
   2114   2126     1
   2114   2127     1
   2115   4318     1
   2115   2126     1
   2115   2127     1
   2116   2129     1
   2117   4288     1
   2117   2123     1
   2117   2124     1
   2118   4288     1
   2118   2123     1
   2118   2124     1
   2122   4280     1
   2122   4281     1
   2123   4279     1
   2124   4279     1
   2125   4310     1
   2125   4311     1
   2126   4309     1
   2127   4309     1
   2130   2144     1
   2130   2145     1
   2130   2147     1
   2130   2148     1
   2130   2141     1
   2130   2142     1
   2131   2135     1
   2131   2136     1
   2131   2138     1
   2131   2139     1
   2131   2156     1
   2131   2157     1
   2132   2134     1
   2132   2137     1
   2132   2159     1
   2132   2155     1
   2132   2144     1
   2132   2145     1
   2133   2134     1
   2133   2137     1
   2133   2159     1
   2133   2155     1
   2133   2144     1
   2133   2145     1
   2134   2138     1
   2134   2139     1
   2134   2153     1
   2134   2154     1
   2135   2137     1
   2135   2159     1
   2135   2152     1
   2135   2147     1
   2135   2148     1
   2136   2137     1
   2136   2159     1
   2136   2152     1
   2136   2147     1
   2136   2148     1
   2137   2150     1
   2137   2151     1
   2138   2159     1
   2138   2149     1
   2138   2141     1
   2138   2142     1
   2139   2159     1
   2139   2149     1
   2139   2141     1
   2139   2142     1
   2140   2159     1
   2141   2158     1
   2141   2150     1
   2141   2151     1
   2142   2158     1
   2142   2150     1
   2142   2151     1
   2143   2159     1
   2144   4378     1
   2144   2156     1
   2144   2157     1
   2145   4378     1
   2145   2156     1
   2145   2157     1
   2146   2159     1
   2147   4348     1
   2147   2153     1
   2147   2154     1
   2148   4348     1
   2148   2153     1
   2148   2154     1
   2152   4340     1
   2152   4341     1
   2153   4339     1
   2154   4339     1
   2155   4370     1
   2155   4371     1
   2156   4369     1
   2157   4369     1
   2160   2174     1
   2160   2175     1
   2160   2177     1
   2160   2178     1
   2160   2171     1
   2160   2172     1
   2161   2165     1
   2161   2166     1
   2161   2168     1
   2161   2169     1
   2161   2186     1
   2161   2187     1
   2162   2164     1
   2162   2167     1
   2162   2189     1
   2162   2185     1
   2162   2174     1
   2162   2175     1
   2163   2164     1
   2163   2167     1
   2163   2189     1
   2163   2185     1
   2163   2174     1
   2163   2175     1
   2164   2168     1
   2164   2169     1
   2164   2183     1
   2164   2184     1
   2165   2167     1
   2165   2189     1
   2165   2182     1
   2165   2177     1
   2165   2178     1
   2166   2167     1
   2166   2189     1
   2166   2182     1
   2166   2177     1
   2166   2178     1
   2167   2180     1
   2167   2181     1
   2168   2189     1
   2168   2179     1
   2168   2171     1
   2168   2172     1
   2169   2189     1
   2169   2179     1
   2169   2171     1
   2169   2172     1
   2170   2189     1
   2171   2188     1
   2171   2180     1
   2171   2181     1
   2172   2188     1
   2172   2180     1
   2172   2181     1
   2173   2189     1
   2174   4438     1
   2174   2186     1
   2174   2187     1
   2175   4438     1
   2175   2186     1
   2175   2187     1
   2176   2189     1
   2177   4408     1
   2177   2183     1
   2177   2184     1
   2178   4408     1
   2178   2183     1
   2178   2184     1
   2182   4400     1
   2182   4401     1
   2183   4399     1
   2184   4399     1
   2185   4430     1
   2185   4431     1
   2186   4429     1
   2187   4429     1
   2190   2204     1
   2190   2205     1
   2190   2207     1
   2190   2208     1
   2190   2201     1
   2190   2202     1
   2191   2195     1
   2191   2196     1
   2191   2198     1
   2191   2199     1
   2191   2216     1
   2191   2217     1
   2192   2194     1
   2192   2197     1
   2192   2219     1
   2192   2215     1
   2192   2204     1
   2192   2205     1
   2193   2194     1
   2193   2197     1
   2193   2219     1
   2193   2215     1
   2193   2204     1
   2193   2205     1
   2194   2198     1
   2194   2199     1
   2194   2213     1
   2194   2214     1
   2195   2197     1
   2195   2219     1
   2195   2212     1
   2195   2207     1
   2195   2208     1
   2196   2197     1
   2196   2219     1
   2196   2212     1
   2196   2207     1
   2196   2208     1
   2197   2210     1
   2197   2211     1
   2198   2219     1
   2198   2209     1
   2198   2201     1
   2198   2202     1
   2199   2219     1
   2199   2209     1
   2199   2201     1
   2199   2202     1
   2200   2219     1
   2201   2218     1
   2201   2210     1
   2201   2211     1
   2202   2218     1
   2202   2210     1
   2202   2211     1
   2203   2219     1
   2204   4498     1
   2204   2216     1
   2204   2217     1
   2205   4498     1
   2205   2216     1
   2205   2217     1
   2206   2219     1
   2207   4468     1
   2207   2213     1
   2207   2214     1
   2208   4468     1
   2208   2213     1
   2208   2214     1
   2212   4460     1
   2212   4461     1
   2213   4459     1
   2214   4459     1
   2215   4490     1
   2215   4491     1
   2216   4489     1
   2217   4489     1
   2220   2234     1
   2220   2235     1
   2220   2237     1
   2220   2238     1
   2220   2231     1
   2220   2232     1
   2221   2225     1
   2221   2226     1
   2221   2228     1
   2221   2229     1
   2221   2246     1
   2221   2247     1
   2222   2224     1
   2222   2227     1
   2222   2249     1
   2222   2245     1
   2222   2234     1
   2222   2235     1
   2223   2224     1
   2223   2227     1
   2223   2249     1
   2223   2245     1
   2223   2234     1
   2223   2235     1
   2224   2228     1
   2224   2229     1
   2224   2243     1
   2224   2244     1
   2225   2227     1
   2225   2249     1
   2225   2242     1
   2225   2237     1
   2225   2238     1
   2226   2227     1
   2226   2249     1
   2226   2242     1
   2226   2237     1
   2226   2238     1
   2227   2240     1
   2227   2241     1
   2228   2249     1
   2228   2239     1
   2228   2231     1
   2228   2232     1
   2229   2249     1
   2229   2239     1
   2229   2231     1
   2229   2232     1
   2230   2249     1
   2231   2248     1
   2231   2240     1
   2231   2241     1
   2232   2248     1
   2232   2240     1
   2232   2241     1
   2233   2249     1
   2234   4558     1
   2234   2246     1
   2234   2247     1
   2235   4558     1
   2235   2246     1
   2235   2247     1
   2236   2249     1
   2237   4528     1
   2237   2243     1
   2237   2244     1
   2238   4528     1
   2238   2243     1
   2238   2244     1
   2242   4520     1
   2242   4521     1
   2243   4519     1
   2244   4519     1
   2245   4550     1
   2245   4551     1
   2246   4549     1
   2247   4549     1
   2250   2264     1
   2250   2265     1
   2250   2267     1
   2250   2268     1
   2250   2261     1
   2250   2262     1
   2251   2255     1
   2251   2256     1
   2251   2258     1
   2251   2259     1
   2251   2276     1
   2251   2277     1
   2252   2254     1
   2252   2257     1
   2252   2279     1
   2252   2275     1
   2252   2264     1
   2252   2265     1
   2253   2254     1
   2253   2257     1
   2253   2279     1
   2253   2275     1
   2253   2264     1
   2253   2265     1
   2254   2258     1
   2254   2259     1
   2254   2273     1
   2254   2274     1
   2255   2257     1
   2255   2279     1
   2255   2272     1
   2255   2267     1
   2255   2268     1
   2256   2257     1
   2256   2279     1
   2256   2272     1
   2256   2267     1
   2256   2268     1
   2257   2270     1
   2257   2271     1
   2258   2279     1
   2258   2269     1
   2258   2261     1
   2258   2262     1
   2259   2279     1
   2259   2269     1
   2259   2261     1
   2259   2262     1
   2260   2279     1
   2261   2278     1
   2261   2270     1
   2261   2271     1
   2262   2278     1
   2262   2270     1
   2262   2271     1
   2263   2279     1
   2264   4618     1
   2264   2276     1
   2264   2277     1
   2265   4618     1
   2265   2276     1
   2265   2277     1
   2266   2279     1
   2267   4588     1
   2267   2273     1
   2267   2274     1
   2268   4588     1
   2268   2273     1
   2268   2274     1
   2272   4580     1
   2272   4581     1
   2273   4579     1
   2274   4579     1
   2275   4610     1
   2275   4611     1
   2276   4609     1
   2277   4609     1
   2280   2294     1
   2280   2295     1
   2280   2297     1
   2280   2298     1
   2280   2291     1
   2280   2292     1
   2281   2285     1
   2281   2286     1
   2281   2288     1
   2281   2289     1
   2281   2306     1
   2281   2307     1
   2282   2284     1
   2282   2287     1
   2282   2309     1
   2282   2305     1
   2282   2294     1
   2282   2295     1
   2283   2284     1
   2283   2287     1
   2283   2309     1
   2283   2305     1
   2283   2294     1
   2283   2295     1
   2284   2288     1
   2284   2289     1
   2284   2303     1
   2284   2304     1
   2285   2287     1
   2285   2309     1
   2285   2302     1
   2285   2297     1
   2285   2298     1
   2286   2287     1
   2286   2309     1
   2286   2302     1
   2286   2297     1
   2286   2298     1
   2287   2300     1
   2287   2301     1
   2288   2309     1
   2288   2299     1
   2288   2291     1
   2288   2292     1
   2289   2309     1
   2289   2299     1
   2289   2291     1
   2289   2292     1
   2290   2309     1
   2291   2308     1
   2291   2300     1
   2291   2301     1
   2292   2308     1
   2292   2300     1
   2292   2301     1
   2293   2309     1
   2294   4678     1
   2294   2306     1
   2294   2307     1
   2295   4678     1
   2295   2306     1
   2295   2307     1
   2296   2309     1
   2297   4648     1
   2297   2303     1
   2297   2304     1
   2298   4648     1
   2298   2303     1
   2298   2304     1
   2302   4640     1
   2302   4641     1
   2303   4639     1
   2304   4639     1
   2305   4670     1
   2305   4671     1
   2306   4669     1
   2307   4669     1
   2310   2324     1
   2310   2325     1
   2310   2327     1
   2310   2328     1
   2310   2321     1
   2310   2322     1
   2311   2315     1
   2311   2316     1
   2311   2318     1
   2311   2319     1
   2311   2336     1
   2311   2337     1
   2312   2314     1
   2312   2317     1
   2312   2339     1
   2312   2335     1
   2312   2324     1
   2312   2325     1
   2313   2314     1
   2313   2317     1
   2313   2339     1
   2313   2335     1
   2313   2324     1
   2313   2325     1
   2314   2318     1
   2314   2319     1
   2314   2333     1
   2314   2334     1
   2315   2317     1
   2315   2339     1
   2315   2332     1
   2315   2327     1
   2315   2328     1
   2316   2317     1
   2316   2339     1
   2316   2332     1
   2316   2327     1
   2316   2328     1
   2317   2330     1
   2317   2331     1
   2318   2339     1
   2318   2329     1
   2318   2321     1
   2318   2322     1
   2319   2339     1
   2319   2329     1
   2319   2321     1
   2319   2322     1
   2320   2339     1
   2321   2338     1
   2321   2330     1
   2321   2331     1
   2322   2338     1
   2322   2330     1
   2322   2331     1
   2323   2339     1
   2324   4738     1
   2324   2336     1
   2324   2337     1
   2325   4738     1
   2325   2336     1
   2325   2337     1
   2326   2339     1
   2327   4708     1
   2327   2333     1
   2327   2334     1
   2328   4708     1
   2328   2333     1
   2328   2334     1
   2332   4700     1
   2332   4701     1
   2333   4699     1
   2334   4699     1
   2335   4730     1
   2335   4731     1
   2336   4729     1
   2337   4729     1
   2340   2354     1
   2340   2355     1
   2340   2357     1
   2340   2358     1
   2340   2351     1
   2340   2352     1
   2341   2345     1
   2341   2346     1
   2341   2348     1
   2341   2349     1
   2341   2366     1
   2341   2367     1
   2342   2344     1
   2342   2347     1
   2342   2369     1
   2342   2365     1
   2342   2354     1
   2342   2355     1
   2343   2344     1
   2343   2347     1
   2343   2369     1
   2343   2365     1
   2343   2354     1
   2343   2355     1
   2344   2348     1
   2344   2349     1
   2344   2363     1
   2344   2364     1
   2345   2347     1
   2345   2369     1
   2345   2362     1
   2345   2357     1
   2345   2358     1
   2346   2347     1
   2346   2369     1
   2346   2362     1
   2346   2357     1
   2346   2358     1
   2347   2360     1
   2347   2361     1
   2348   2369     1
   2348   2359     1
   2348   2351     1
   2348   2352     1
   2349   2369     1
   2349   2359     1
   2349   2351     1
   2349   2352     1
   2350   2369     1
   2351   2368     1
   2351   2360     1
   2351   2361     1
   2352   2368     1
   2352   2360     1
   2352   2361     1
   2353   2369     1
   2354   4798     1
   2354   2366     1
   2354   2367     1
   2355   4798     1
   2355   2366     1
   2355   2367     1
   2356   2369     1
   2357   4768     1
   2357   2363     1
   2357   2364     1
   2358   4768     1
   2358   2363     1
   2358   2364     1
   2362   4760     1
   2362   4761     1
   2363   4759     1
   2364   4759     1
   2365   4790     1
   2365   4791     1
   2366   4789     1
   2367   4789     1
   2370   2384     1
   2370   2385     1
   2370   2387     1
   2370   2388     1
   2370   2381     1
   2370   2382     1
   2371   2375     1
   2371   2376     1
   2371   2378     1
   2371   2379     1
   2371   2396     1
   2371   2397     1
   2372   2374     1
   2372   2377     1
   2372   2399     1
   2372   2395     1
   2372   2384     1
   2372   2385     1
   2373   2374     1
   2373   2377     1
   2373   2399     1
   2373   2395     1
   2373   2384     1
   2373   2385     1
   2374   2378     1
   2374   2379     1
   2374   2393     1
   2374   2394     1
   2375   2377     1
   2375   2399     1
   2375   2392     1
   2375   2387     1
   2375   2388     1
   2376   2377     1
   2376   2399     1
   2376   2392     1
   2376   2387     1
   2376   2388     1
   2377   2390     1
   2377   2391     1
   2378   2399     1
   2378   2389     1
   2378   2381     1
   2378   2382     1
   2379   2399     1
   2379   2389     1
   2379   2381     1
   2379   2382     1
   2380   2399     1
   2381   2398     1
   2381   2390     1
   2381   2391     1
   2382   2398     1
   2382   2390     1
   2382   2391     1
   2383   2399     1
   2384   4858     1
   2384   2396     1
   2384   2397     1
   2385   4858     1
   2385   2396     1
   2385   2397     1
   2386   2399     1
   2387   4828     1
   2387   2393     1
   2387   2394     1
   2388   4828     1
   2388   2393     1
   2388   2394     1
   2392   4820     1
   2392   4821     1
   2393   4819     1
   2394   4819     1
   2395   4850     1
   2395   4851     1
   2396   4849     1
   2397   4849     1
   2400   2414     1
   2400   2415     1
   2400   2417     1
   2400   2418     1
   2400   2411     1
   2400   2412     1
   2401   2405     1
   2401   2406     1
   2401   2408     1
   2401   2409     1
   2401   2426     1
   2401   2427     1
   2402   2404     1
   2402   2407     1
   2402   2429     1
   2402   2425     1
   2402   2414     1
   2402   2415     1
   2403   2404     1
   2403   2407     1
   2403   2429     1
   2403   2425     1
   2403   2414     1
   2403   2415     1
   2404   2408     1
   2404   2409     1
   2404   2423     1
   2404   2424     1
   2405   2407     1
   2405   2429     1
   2405   2422     1
   2405   2417     1
   2405   2418     1
   2406   2407     1
   2406   2429     1
   2406   2422     1
   2406   2417     1
   2406   2418     1
   2407   2420     1
   2407   2421     1
   2408   2429     1
   2408   2419     1
   2408   2411     1
   2408   2412     1
   2409   2429     1
   2409   2419     1
   2409   2411     1
   2409   2412     1
   2410   2429     1
   2411   2428     1
   2411   2420     1
   2411   2421     1
   2412   2428     1
   2412   2420     1
   2412   2421     1
   2413   2429     1
   2414   4918     1
   2414   2426     1
   2414   2427     1
   2415   4918     1
   2415   2426     1
   2415   2427     1
   2416   2429     1
   2417   4888     1
   2417   2423     1
   2417   2424     1
   2418   4888     1
   2418   2423     1
   2418   2424     1
   2422   4880     1
   2422   4881     1
   2423   4879     1
   2424   4879     1
   2425   4910     1
   2425   4911     1
   2426   4909     1
   2427   4909     1
   2430   2444     1
   2430   2445     1
   2430   2447     1
   2430   2448     1
   2430   2441     1
   2430   2442     1
   2431   2435     1
   2431   2436     1
   2431   2438     1
   2431   2439     1
   2431   2456     1
   2431   2457     1
   2432   2434     1
   2432   2437     1
   2432   2459     1
   2432   2455     1
   2432   2444     1
   2432   2445     1
   2433   2434     1
   2433   2437     1
   2433   2459     1
   2433   2455     1
   2433   2444     1
   2433   2445     1
   2434   2438     1
   2434   2439     1
   2434   2453     1
   2434   2454     1
   2435   2437     1
   2435   2459     1
   2435   2452     1
   2435   2447     1
   2435   2448     1
   2436   2437     1
   2436   2459     1
   2436   2452     1
   2436   2447     1
   2436   2448     1
   2437   2450     1
   2437   2451     1
   2438   2459     1
   2438   2449     1
   2438   2441     1
   2438   2442     1
   2439   2459     1
   2439   2449     1
   2439   2441     1
   2439   2442     1
   2440   2459     1
   2441   2458     1
   2441   2450     1
   2441   2451     1
   2442   2458     1
   2442   2450     1
   2442   2451     1
   2443   2459     1
   2444   4978     1
   2444   2456     1
   2444   2457     1
   2445   4978     1
   2445   2456     1
   2445   2457     1
   2446   2459     1
   2447   4948     1
   2447   2453     1
   2447   2454     1
   2448   4948     1
   2448   2453     1
   2448   2454     1
   2452   4940     1
   2452   4941     1
   2453   4939     1
   2454   4939     1
   2455   4970     1
   2455   4971     1
   2456   4969     1
   2457   4969     1
   2460   2474     1
   2460   2475     1
   2460   2477     1
   2460   2478     1
   2460   2471     1
   2460   2472     1
   2461   2465     1
   2461   2466     1
   2461   2468     1
   2461   2469     1
   2461   2486     1
   2461   2487     1
   2462   2464     1
   2462   2467     1
   2462   2489     1
   2462   2485     1
   2462   2474     1
   2462   2475     1
   2463   2464     1
   2463   2467     1
   2463   2489     1
   2463   2485     1
   2463   2474     1
   2463   2475     1
   2464   2468     1
   2464   2469     1
   2464   2483     1
   2464   2484     1
   2465   2467     1
   2465   2489     1
   2465   2482     1
   2465   2477     1
   2465   2478     1
   2466   2467     1
   2466   2489     1
   2466   2482     1
   2466   2477     1
   2466   2478     1
   2467   2480     1
   2467   2481     1
   2468   2489     1
   2468   2479     1
   2468   2471     1
   2468   2472     1
   2469   2489     1
   2469   2479     1
   2469   2471     1
   2469   2472     1
   2470   2489     1
   2471   2488     1
   2471   2480     1
   2471   2481     1
   2472   2488     1
   2472   2480     1
   2472   2481     1
   2473   2489     1
   2474   5038     1
   2474   2486     1
   2474   2487     1
   2475   5038     1
   2475   2486     1
   2475   2487     1
   2476   2489     1
   2477   5008     1
   2477   2483     1
   2477   2484     1
   2478   5008     1
   2478   2483     1
   2478   2484     1
   2482   5000     1
   2482   5001     1
   2483   4999     1
   2484   4999     1
   2485   5030     1
   2485   5031     1
   2486   5029     1
   2487   5029     1
   2490   2504     1
   2490   2505     1
   2490   2507     1
   2490   2508     1
   2490   2501     1
   2490   2502     1
   2491   2495     1
   2491   2496     1
   2491   2498     1
   2491   2499     1
   2491   2516     1
   2491   2517     1
   2492   2494     1
   2492   2497     1
   2492   2519     1
   2492   2515     1
   2492   2504     1
   2492   2505     1
   2493   2494     1
   2493   2497     1
   2493   2519     1
   2493   2515     1
   2493   2504     1
   2493   2505     1
   2494   2498     1
   2494   2499     1
   2494   2513     1
   2494   2514     1
   2495   2497     1
   2495   2519     1
   2495   2512     1
   2495   2507     1
   2495   2508     1
   2496   2497     1
   2496   2519     1
   2496   2512     1
   2496   2507     1
   2496   2508     1
   2497   2510     1
   2497   2511     1
   2498   2519     1
   2498   2509     1
   2498   2501     1
   2498   2502     1
   2499   2519     1
   2499   2509     1
   2499   2501     1
   2499   2502     1
   2500   2519     1
   2501   2518     1
   2501   2510     1
   2501   2511     1
   2502   2518     1
   2502   2510     1
   2502   2511     1
   2503   2519     1
   2504   5098     1
   2504   2516     1
   2504   2517     1
   2505   5098     1
   2505   2516     1
   2505   2517     1
   2506   2519     1
   2507   5068     1
   2507   2513     1
   2507   2514     1
   2508   5068     1
   2508   2513     1
   2508   2514     1
   2512   5060     1
   2512   5061     1
   2513   5059     1
   2514   5059     1
   2515   5090     1
   2515   5091     1
   2516   5089     1
   2517   5089     1
   2520   2534     1
   2520   2535     1
   2520   2537     1
   2520   2538     1
   2520   2531     1
   2520   2532     1
   2521   2525     1
   2521   2526     1
   2521   2528     1
   2521   2529     1
   2521   2546     1
   2521   2547     1
   2522   2524     1
   2522   2527     1
   2522   2549     1
   2522   2545     1
   2522   2534     1
   2522   2535     1
   2523   2524     1
   2523   2527     1
   2523   2549     1
   2523   2545     1
   2523   2534     1
   2523   2535     1
   2524   2528     1
   2524   2529     1
   2524   2543     1
   2524   2544     1
   2525   2527     1
   2525   2549     1
   2525   2542     1
   2525   2537     1
   2525   2538     1
   2526   2527     1
   2526   2549     1
   2526   2542     1
   2526   2537     1
   2526   2538     1
   2527   2540     1
   2527   2541     1
   2528   2549     1
   2528   2539     1
   2528   2531     1
   2528   2532     1
   2529   2549     1
   2529   2539     1
   2529   2531     1
   2529   2532     1
   2530   2549     1
   2531   2548     1
   2531   2540     1
   2531   2541     1
   2532   2548     1
   2532   2540     1
   2532   2541     1
   2533   2549     1
   2534   5158     1
   2534   2546     1
   2534   2547     1
   2535   5158     1
   2535   2546     1
   2535   2547     1
   2536   2549     1
   2537   5128     1
   2537   2543     1
   2537   2544     1
   2538   5128     1
   2538   2543     1
   2538   2544     1
   2542   5120     1
   2542   5121     1
   2543   5119     1
   2544   5119     1
   2545   5150     1
   2545   5151     1
   2546   5149     1
   2547   5149     1
   2550   2564     1
   2550   2565     1
   2550   2567     1
   2550   2568     1
   2550   2561     1
   2550   2562     1
   2551   2555     1
   2551   2556     1
   2551   2558     1
   2551   2559     1
   2551   2576     1
   2551   2577     1
   2552   2554     1
   2552   2557     1
   2552   2579     1
   2552   2575     1
   2552   2564     1
   2552   2565     1
   2553   2554     1
   2553   2557     1
   2553   2579     1
   2553   2575     1
   2553   2564     1
   2553   2565     1
   2554   2558     1
   2554   2559     1
   2554   2573     1
   2554   2574     1
   2555   2557     1
   2555   2579     1
   2555   2572     1
   2555   2567     1
   2555   2568     1
   2556   2557     1
   2556   2579     1
   2556   2572     1
   2556   2567     1
   2556   2568     1
   2557   2570     1
   2557   2571     1
   2558   2579     1
   2558   2569     1
   2558   2561     1
   2558   2562     1
   2559   2579     1
   2559   2569     1
   2559   2561     1
   2559   2562     1
   2560   2579     1
   2561   2578     1
   2561   2570     1
   2561   2571     1
   2562   2578     1
   2562   2570     1
   2562   2571     1
   2563   2579     1
   2564   5218     1
   2564   2576     1
   2564   2577     1
   2565   5218     1
   2565   2576     1
   2565   2577     1
   2566   2579     1
   2567   5188     1
   2567   2573     1
   2567   2574     1
   2568   5188     1
   2568   2573     1
   2568   2574     1
   2572   5180     1
   2572   5181     1
   2573   5179     1
   2574   5179     1
   2575   5210     1
   2575   5211     1
   2576   5209     1
   2577   5209     1
   2580   2594     1
   2580   2595     1
   2580   2597     1
   2580   2598     1
   2580   2591     1
   2580   2592     1
   2581   2585     1
   2581   2586     1
   2581   2588     1
   2581   2589     1
   2581   2606     1
   2581   2607     1
   2582   2584     1
   2582   2587     1
   2582   2609     1
   2582   2605     1
   2582   2594     1
   2582   2595     1
   2583   2584     1
   2583   2587     1
   2583   2609     1
   2583   2605     1
   2583   2594     1
   2583   2595     1
   2584   2588     1
   2584   2589     1
   2584   2603     1
   2584   2604     1
   2585   2587     1
   2585   2609     1
   2585   2602     1
   2585   2597     1
   2585   2598     1
   2586   2587     1
   2586   2609     1
   2586   2602     1
   2586   2597     1
   2586   2598     1
   2587   2600     1
   2587   2601     1
   2588   2609     1
   2588   2599     1
   2588   2591     1
   2588   2592     1
   2589   2609     1
   2589   2599     1
   2589   2591     1
   2589   2592     1
   2590   2609     1
   2591   2608     1
   2591   2600     1
   2591   2601     1
   2592   2608     1
   2592   2600     1
   2592   2601     1
   2593   2609     1
   2594   5278     1
   2594   2606     1
   2594   2607     1
   2595   5278     1
   2595   2606     1
   2595   2607     1
   2596   2609     1
   2597   5248     1
   2597   2603     1
   2597   2604     1
   2598   5248     1
   2598   2603     1
   2598   2604     1
   2602   5240     1
   2602   5241     1
   2603   5239     1
   2604   5239     1
   2605   5270     1
   2605   5271     1
   2606   5269     1
   2607   5269     1
   2610   2624     1
   2610   2625     1
   2610   2627     1
   2610   2628     1
   2610   2621     1
   2610   2622     1
   2611   2615     1
   2611   2616     1
   2611   2618     1
   2611   2619     1
   2611   2636     1
   2611   2637     1
   2612   2614     1
   2612   2617     1
   2612   2639     1
   2612   2635     1
   2612   2624     1
   2612   2625     1
   2613   2614     1
   2613   2617     1
   2613   2639     1
   2613   2635     1
   2613   2624     1
   2613   2625     1
   2614   2618     1
   2614   2619     1
   2614   2633     1
   2614   2634     1
   2615   2617     1
   2615   2639     1
   2615   2632     1
   2615   2627     1
   2615   2628     1
   2616   2617     1
   2616   2639     1
   2616   2632     1
   2616   2627     1
   2616   2628     1
   2617   2630     1
   2617   2631     1
   2618   2639     1
   2618   2629     1
   2618   2621     1
   2618   2622     1
   2619   2639     1
   2619   2629     1
   2619   2621     1
   2619   2622     1
   2620   2639     1
   2621   2638     1
   2621   2630     1
   2621   2631     1
   2622   2638     1
   2622   2630     1
   2622   2631     1
   2623   2639     1
   2624   5338     1
   2624   2636     1
   2624   2637     1
   2625   5338     1
   2625   2636     1
   2625   2637     1
   2626   2639     1
   2627   5308     1
   2627   2633     1
   2627   2634     1
   2628   5308     1
   2628   2633     1
   2628   2634     1
   2632   5300     1
   2632   5301     1
   2633   5299     1
   2634   5299     1
   2635   5330     1
   2635   5331     1
   2636   5329     1
   2637   5329     1
   2640   2654     1
   2640   2655     1
   2640   2657     1
   2640   2658     1
   2640   2651     1
   2640   2652     1
   2641   2645     1
   2641   2646     1
   2641   2648     1
   2641   2649     1
   2641   2666     1
   2641   2667     1
   2642   2644     1
   2642   2647     1
   2642   2669     1
   2642   2665     1
   2642   2654     1
   2642   2655     1
   2643   2644     1
   2643   2647     1
   2643   2669     1
   2643   2665     1
   2643   2654     1
   2643   2655     1
   2644   2648     1
   2644   2649     1
   2644   2663     1
   2644   2664     1
   2645   2647     1
   2645   2669     1
   2645   2662     1
   2645   2657     1
   2645   2658     1
   2646   2647     1
   2646   2669     1
   2646   2662     1
   2646   2657     1
   2646   2658     1
   2647   2660     1
   2647   2661     1
   2648   2669     1
   2648   2659     1
   2648   2651     1
   2648   2652     1
   2649   2669     1
   2649   2659     1
   2649   2651     1
   2649   2652     1
   2650   2669     1
   2651   2668     1
   2651   2660     1
   2651   2661     1
   2652   2668     1
   2652   2660     1
   2652   2661     1
   2653   2669     1
   2654   5398     1
   2654   2666     1
   2654   2667     1
   2655   5398     1
   2655   2666     1
   2655   2667     1
   2656   2669     1
   2657   5368     1
   2657   2663     1
   2657   2664     1
   2658   5368     1
   2658   2663     1
   2658   2664     1
   2662   5360     1
   2662   5361     1
   2663   5359     1
   2664   5359     1
   2665   5390     1
   2665   5391     1
   2666   5389     1
   2667   5389     1
   2670   2684     1
   2670   2685     1
   2670   2687     1
   2670   2688     1
   2670   2681     1
   2670   2682     1
   2671   2675     1
   2671   2676     1
   2671   2678     1
   2671   2679     1
   2671   2696     1
   2671   2697     1
   2672   2674     1
   2672   2677     1
   2672   2699     1
   2672   2695     1
   2672   2684     1
   2672   2685     1
   2673   2674     1
   2673   2677     1
   2673   2699     1
   2673   2695     1
   2673   2684     1
   2673   2685     1
   2674   2678     1
   2674   2679     1
   2674   2693     1
   2674   2694     1
   2675   2677     1
   2675   2699     1
   2675   2692     1
   2675   2687     1
   2675   2688     1
   2676   2677     1
   2676   2699     1
   2676   2692     1
   2676   2687     1
   2676   2688     1
   2677   2690     1
   2677   2691     1
   2678   2699     1
   2678   2689     1
   2678   2681     1
   2678   2682     1
   2679   2699     1
   2679   2689     1
   2679   2681     1
   2679   2682     1
   2680   2699     1
   2681   2698     1
   2681   2690     1
   2681   2691     1
   2682   2698     1
   2682   2690     1
   2682   2691     1
   2683   2699     1
   2684   5458     1
   2684   2696     1
   2684   2697     1
   2685   5458     1
   2685   2696     1
   2685   2697     1
   2686   2699     1
   2687   5428     1
   2687   2693     1
   2687   2694     1
   2688   5428     1
   2688   2693     1
   2688   2694     1
   2692   5420     1
   2692   5421     1
   2693   5419     1
   2694   5419     1
   2695   5450     1
   2695   5451     1
   2696   5449     1
   2697   5449     1
   2700   2714     1
   2700   2715     1
   2700   2717     1
   2700   2718     1
   2700   2711     1
   2700   2712     1
   2701   2705     1
   2701   2706     1
   2701   2708     1
   2701   2709     1
   2701   2726     1
   2701   2727     1
   2702   2704     1
   2702   2707     1
   2702   2729     1
   2702   2725     1
   2702   2714     1
   2702   2715     1
   2703   2704     1
   2703   2707     1
   2703   2729     1
   2703   2725     1
   2703   2714     1
   2703   2715     1
   2704   2708     1
   2704   2709     1
   2704   2723     1
   2704   2724     1
   2705   2707     1
   2705   2729     1
   2705   2722     1
   2705   2717     1
   2705   2718     1
   2706   2707     1
   2706   2729     1
   2706   2722     1
   2706   2717     1
   2706   2718     1
   2707   2720     1
   2707   2721     1
   2708   2729     1
   2708   2719     1
   2708   2711     1
   2708   2712     1
   2709   2729     1
   2709   2719     1
   2709   2711     1
   2709   2712     1
   2710   2729     1
   2711   2728     1
   2711   2720     1
   2711   2721     1
   2712   2728     1
   2712   2720     1
   2712   2721     1
   2713   2729     1
   2714   5518     1
   2714   2726     1
   2714   2727     1
   2715   5518     1
   2715   2726     1
   2715   2727     1
   2716   2729     1
   2717   5488     1
   2717   2723     1
   2717   2724     1
   2718   5488     1
   2718   2723     1
   2718   2724     1
   2722   5480     1
   2722   5481     1
   2723   5479     1
   2724   5479     1
   2725   5510     1
   2725   5511     1
   2726   5509     1
   2727   5509     1
   2730   2744     1
   2730   2745     1
   2730   2747     1
   2730   2748     1
   2730   2741     1
   2730   2742     1
   2731   2735     1
   2731   2736     1
   2731   2738     1
   2731   2739     1
   2731   2756     1
   2731   2757     1
   2732   2734     1
   2732   2737     1
   2732   2759     1
   2732   2755     1
   2732   2744     1
   2732   2745     1
   2733   2734     1
   2733   2737     1
   2733   2759     1
   2733   2755     1
   2733   2744     1
   2733   2745     1
   2734   2738     1
   2734   2739     1
   2734   2753     1
   2734   2754     1
   2735   2737     1
   2735   2759     1
   2735   2752     1
   2735   2747     1
   2735   2748     1
   2736   2737     1
   2736   2759     1
   2736   2752     1
   2736   2747     1
   2736   2748     1
   2737   2750     1
   2737   2751     1
   2738   2759     1
   2738   2749     1
   2738   2741     1
   2738   2742     1
   2739   2759     1
   2739   2749     1
   2739   2741     1
   2739   2742     1
   2740   2759     1
   2741   2758     1
   2741   2750     1
   2741   2751     1
   2742   2758     1
   2742   2750     1
   2742   2751     1
   2743   2759     1
   2744   5578     1
   2744   2756     1
   2744   2757     1
   2745   5578     1
   2745   2756     1
   2745   2757     1
   2746   2759     1
   2747   5548     1
   2747   2753     1
   2747   2754     1
   2748   5548     1
   2748   2753     1
   2748   2754     1
   2752   5540     1
   2752   5541     1
   2753   5539     1
   2754   5539     1
   2755   5570     1
   2755   5571     1
   2756   5569     1
   2757   5569     1
   2760   2774     1
   2760   2775     1
   2760   2777     1
   2760   2778     1
   2760   2771     1
   2760   2772     1
   2761   2765     1
   2761   2766     1
   2761   2768     1
   2761   2769     1
   2761   2786     1
   2761   2787     1
   2762   2764     1
   2762   2767     1
   2762   2789     1
   2762   2785     1
   2762   2774     1
   2762   2775     1
   2763   2764     1
   2763   2767     1
   2763   2789     1
   2763   2785     1
   2763   2774     1
   2763   2775     1
   2764   2768     1
   2764   2769     1
   2764   2783     1
   2764   2784     1
   2765   2767     1
   2765   2789     1
   2765   2782     1
   2765   2777     1
   2765   2778     1
   2766   2767     1
   2766   2789     1
   2766   2782     1
   2766   2777     1
   2766   2778     1
   2767   2780     1
   2767   2781     1
   2768   2789     1
   2768   2779     1
   2768   2771     1
   2768   2772     1
   2769   2789     1
   2769   2779     1
   2769   2771     1
   2769   2772     1
   2770   2789     1
   2771   2788     1
   2771   2780     1
   2771   2781     1
   2772   2788     1
   2772   2780     1
   2772   2781     1
   2773   2789     1
   2774   5638     1
   2774   2786     1
   2774   2787     1
   2775   5638     1
   2775   2786     1
   2775   2787     1
   2776   2789     1
   2777   5608     1
   2777   2783     1
   2777   2784     1
   2778   5608     1
   2778   2783     1
   2778   2784     1
   2782   5600     1
   2782   5601     1
   2783   5599     1
   2784   5599     1
   2785   5630     1
   2785   5631     1
   2786   5629     1
   2787   5629     1
   2790   2804     1
   2790   2805     1
   2790   2807     1
   2790   2808     1
   2790   2801     1
   2790   2802     1
   2791   2795     1
   2791   2796     1
   2791   2798     1
   2791   2799     1
   2791   2816     1
   2791   2817     1
   2792   2794     1
   2792   2797     1
   2792   2819     1
   2792   2815     1
   2792   2804     1
   2792   2805     1
   2793   2794     1
   2793   2797     1
   2793   2819     1
   2793   2815     1
   2793   2804     1
   2793   2805     1
   2794   2798     1
   2794   2799     1
   2794   2813     1
   2794   2814     1
   2795   2797     1
   2795   2819     1
   2795   2812     1
   2795   2807     1
   2795   2808     1
   2796   2797     1
   2796   2819     1
   2796   2812     1
   2796   2807     1
   2796   2808     1
   2797   2810     1
   2797   2811     1
   2798   2819     1
   2798   2809     1
   2798   2801     1
   2798   2802     1
   2799   2819     1
   2799   2809     1
   2799   2801     1
   2799   2802     1
   2800   2819     1
   2801   2818     1
   2801   2810     1
   2801   2811     1
   2802   2818     1
   2802   2810     1
   2802   2811     1
   2803   2819     1
   2804   5698     1
   2804   2816     1
   2804   2817     1
   2805   5698     1
   2805   2816     1
   2805   2817     1
   2806   2819     1
   2807   5668     1
   2807   2813     1
   2807   2814     1
   2808   5668     1
   2808   2813     1
   2808   2814     1
   2812   5660     1
   2812   5661     1
   2813   5659     1
   2814   5659     1
   2815   5690     1
   2815   5691     1
   2816   5689     1
   2817   5689     1
   2820   2834     1
   2820   2835     1
   2820   2837     1
   2820   2838     1
   2820   2831     1
   2820   2832     1
   2821   2825     1
   2821   2826     1
   2821   2828     1
   2821   2829     1
   2821   2846     1
   2821   2847     1
   2822   2824     1
   2822   2827     1
   2822   2849     1
   2822   2845     1
   2822   2834     1
   2822   2835     1
   2823   2824     1
   2823   2827     1
   2823   2849     1
   2823   2845     1
   2823   2834     1
   2823   2835     1
   2824   2828     1
   2824   2829     1
   2824   2843     1
   2824   2844     1
   2825   2827     1
   2825   2849     1
   2825   2842     1
   2825   2837     1
   2825   2838     1
   2826   2827     1
   2826   2849     1
   2826   2842     1
   2826   2837     1
   2826   2838     1
   2827   2840     1
   2827   2841     1
   2828   2849     1
   2828   2839     1
   2828   2831     1
   2828   2832     1
   2829   2849     1
   2829   2839     1
   2829   2831     1
   2829   2832     1
   2830   2849     1
   2831   2848     1
   2831   2840     1
   2831   2841     1
   2832   2848     1
   2832   2840     1
   2832   2841     1
   2833   2849     1
   2834   5726     1
   2834   2846     1
   2834   2847     1
   2835   5726     1
   2835   2846     1
   2835   2847     1
   2836   2849     1
   2837   5712     1
   2837   2843     1
   2837   2844     1
   2838   5712     1
   2838   2843     1
   2838   2844     1
   2842   5707     1
   2842   5708     1
   2843   5706     1
   2844   5706     1
   2845   5721     1
   2845   5722     1
   2846   5720     1
   2847   5720     1
   2850   2864     1
   2850   2865     1
   2850   2867     1
   2850   2868     1
   2850   2861     1
   2850   2862     1
   2851   2855     1
   2851   2856     1
   2851   2858     1
   2851   2859     1
   2851   2876     1
   2851   2877     1
   2852   2854     1
   2852   2857     1
   2852   2879     1
   2852   2875     1
   2852   2864     1
   2852   2865     1
   2853   2854     1
   2853   2857     1
   2853   2879     1
   2853   2875     1
   2853   2864     1
   2853   2865     1
   2854   2858     1
   2854   2859     1
   2854   2873     1
   2854   2874     1
   2855   2857     1
   2855   2879     1
   2855   2872     1
   2855   2867     1
   2855   2868     1
   2856   2857     1
   2856   2879     1
   2856   2872     1
   2856   2867     1
   2856   2868     1
   2857   2870     1
   2857   2871     1
   2858   2879     1
   2858   2869     1
   2858   2861     1
   2858   2862     1
   2859   2879     1
   2859   2869     1
   2859   2861     1
   2859   2862     1
   2860   2879     1
   2861   2878     1
   2861   2870     1
   2861   2871     1
   2862   2878     1
   2862   2870     1
   2862   2871     1
   2863   2879     1
   2864   5754     1
   2864   2876     1
   2864   2877     1
   2865   5754     1
   2865   2876     1
   2865   2877     1
   2866   2879     1
   2867   5740     1
   2867   2873     1
   2867   2874     1
   2868   5740     1
   2868   2873     1
   2868   2874     1
   2872   5735     1
   2872   5736     1
   2873   5734     1
   2874   5734     1
   2875   5749     1
   2875   5750     1
   2876   5748     1
   2877   5748     1
   2880   2894     1
   2880   2895     1
   2880   2897     1
   2880   2898     1
   2880   2891     1
   2880   2892     1
   2881   2885     1
   2881   2886     1
   2881   2888     1
   2881   2889     1
   2881   2906     1
   2881   2907     1
   2882   2884     1
   2882   2887     1
   2882   2909     1
   2882   2905     1
   2882   2894     1
   2882   2895     1
   2883   2884     1
   2883   2887     1
   2883   2909     1
   2883   2905     1
   2883   2894     1
   2883   2895     1
   2884   2888     1
   2884   2889     1
   2884   2903     1
   2884   2904     1
   2885   2887     1
   2885   2909     1
   2885   2902     1
   2885   2897     1
   2885   2898     1
   2886   2887     1
   2886   2909     1
   2886   2902     1
   2886   2897     1
   2886   2898     1
   2887   2900     1
   2887   2901     1
   2888   2909     1
   2888   2899     1
   2888   2891     1
   2888   2892     1
   2889   2909     1
   2889   2899     1
   2889   2891     1
   2889   2892     1
   2890   2909     1
   2891   2908     1
   2891   2900     1
   2891   2901     1
   2892   2908     1
   2892   2900     1
   2892   2901     1
   2893   2909     1
   2894   5782     1
   2894   2906     1
   2894   2907     1
   2895   5782     1
   2895   2906     1
   2895   2907     1
   2896   2909     1
   2897   5768     1
   2897   2903     1
   2897   2904     1
   2898   5768     1
   2898   2903     1
   2898   2904     1
   2902   5763     1
   2902   5764     1
   2903   5762     1
   2904   5762     1
   2905   5777     1
   2905   5778     1
   2906   5776     1
   2907   5776     1
   2910   2924     1
   2910   2925     1
   2910   2927     1
   2910   2928     1
   2910   2921     1
   2910   2922     1
   2911   2915     1
   2911   2916     1
   2911   2918     1
   2911   2919     1
   2911   2936     1
   2911   2937     1
   2912   2914     1
   2912   2917     1
   2912   2939     1
   2912   2935     1
   2912   2924     1
   2912   2925     1
   2913   2914     1
   2913   2917     1
   2913   2939     1
   2913   2935     1
   2913   2924     1
   2913   2925     1
   2914   2918     1
   2914   2919     1
   2914   2933     1
   2914   2934     1
   2915   2917     1
   2915   2939     1
   2915   2932     1
   2915   2927     1
   2915   2928     1
   2916   2917     1
   2916   2939     1
   2916   2932     1
   2916   2927     1
   2916   2928     1
   2917   2930     1
   2917   2931     1
   2918   2939     1
   2918   2929     1
   2918   2921     1
   2918   2922     1
   2919   2939     1
   2919   2929     1
   2919   2921     1
   2919   2922     1
   2920   2939     1
   2921   2938     1
   2921   2930     1
   2921   2931     1
   2922   2938     1
   2922   2930     1
   2922   2931     1
   2923   2939     1
   2924   5810     1
   2924   2936     1
   2924   2937     1
   2925   5810     1
   2925   2936     1
   2925   2937     1
   2926   2939     1
   2927   5796     1
   2927   2933     1
   2927   2934     1
   2928   5796     1
   2928   2933     1
   2928   2934     1
   2932   5791     1
   2932   5792     1
   2933   5790     1
   2934   5790     1
   2935   5805     1
   2935   5806     1
   2936   5804     1
   2937   5804     1
   2940   2954     1
   2940   2955     1
   2940   2957     1
   2940   2958     1
   2940   2951     1
   2940   2952     1
   2941   2945     1
   2941   2946     1
   2941   2948     1
   2941   2949     1
   2941   2966     1
   2941   2967     1
   2942   2944     1
   2942   2947     1
   2942   2969     1
   2942   2965     1
   2942   2954     1
   2942   2955     1
   2943   2944     1
   2943   2947     1
   2943   2969     1
   2943   2965     1
   2943   2954     1
   2943   2955     1
   2944   2948     1
   2944   2949     1
   2944   2963     1
   2944   2964     1
   2945   2947     1
   2945   2969     1
   2945   2962     1
   2945   2957     1
   2945   2958     1
   2946   2947     1
   2946   2969     1
   2946   2962     1
   2946   2957     1
   2946   2958     1
   2947   2960     1
   2947   2961     1
   2948   2969     1
   2948   2959     1
   2948   2951     1
   2948   2952     1
   2949   2969     1
   2949   2959     1
   2949   2951     1
   2949   2952     1
   2950   2969     1
   2951   2968     1
   2951   2960     1
   2951   2961     1
   2952   2968     1
   2952   2960     1
   2952   2961     1
   2953   2969     1
   2954   5838     1
   2954   2966     1
   2954   2967     1
   2955   5838     1
   2955   2966     1
   2955   2967     1
   2956   2969     1
   2957   5824     1
   2957   2963     1
   2957   2964     1
   2958   5824     1
   2958   2963     1
   2958   2964     1
   2962   5819     1
   2962   5820     1
   2963   5818     1
   2964   5818     1
   2965   5833     1
   2965   5834     1
   2966   5832     1
   2967   5832     1
   2970   2984     1
   2970   2985     1
   2970   2987     1
   2970   2988     1
   2970   2981     1
   2970   2982     1
   2971   2975     1
   2971   2976     1
   2971   2978     1
   2971   2979     1
   2971   2996     1
   2971   2997     1
   2972   2974     1
   2972   2977     1
   2972   2999     1
   2972   2995     1
   2972   2984     1
   2972   2985     1
   2973   2974     1
   2973   2977     1
   2973   2999     1
   2973   2995     1
   2973   2984     1
   2973   2985     1
   2974   2978     1
   2974   2979     1
   2974   2993     1
   2974   2994     1
   2975   2977     1
   2975   2999     1
   2975   2992     1
   2975   2987     1
   2975   2988     1
   2976   2977     1
   2976   2999     1
   2976   2992     1
   2976   2987     1
   2976   2988     1
   2977   2990     1
   2977   2991     1
   2978   2999     1
   2978   2989     1
   2978   2981     1
   2978   2982     1
   2979   2999     1
   2979   2989     1
   2979   2981     1
   2979   2982     1
   2980   2999     1
   2981   2998     1
   2981   2990     1
   2981   2991     1
   2982   2998     1
   2982   2990     1
   2982   2991     1
   2983   2999     1
   2984   5866     1
   2984   2996     1
   2984   2997     1
   2985   5866     1
   2985   2996     1
   2985   2997     1
   2986   2999     1
   2987   5852     1
   2987   2993     1
   2987   2994     1
   2988   5852     1
   2988   2993     1
   2988   2994     1
   2992   5847     1
   2992   5848     1
   2993   5846     1
   2994   5846     1
   2995   5861     1
   2995   5862     1
   2996   5860     1
   2997   5860     1
   3000   3014     1
   3000   3015     1
   3000   3017     1
   3000   3018     1
   3000   3011     1
   3000   3012     1
   3001   3005     1
   3001   3006     1
   3001   3008     1
   3001   3009     1
   3001   3026     1
   3001   3027     1
   3002   3004     1
   3002   3007     1
   3002   3029     1
   3002   3025     1
   3002   3014     1
   3002   3015     1
   3003   3004     1
   3003   3007     1
   3003   3029     1
   3003   3025     1
   3003   3014     1
   3003   3015     1
   3004   3008     1
   3004   3009     1
   3004   3023     1
   3004   3024     1
   3005   3007     1
   3005   3029     1
   3005   3022     1
   3005   3017     1
   3005   3018     1
   3006   3007     1
   3006   3029     1
   3006   3022     1
   3006   3017     1
   3006   3018     1
   3007   3020     1
   3007   3021     1
   3008   3029     1
   3008   3019     1
   3008   3011     1
   3008   3012     1
   3009   3029     1
   3009   3019     1
   3009   3011     1
   3009   3012     1
   3010   3029     1
   3011   3028     1
   3011   3020     1
   3011   3021     1
   3012   3028     1
   3012   3020     1
   3012   3021     1
   3013   3029     1
   3014   5894     1
   3014   3026     1
   3014   3027     1
   3015   5894     1
   3015   3026     1
   3015   3027     1
   3016   3029     1
   3017   5880     1
   3017   3023     1
   3017   3024     1
   3018   5880     1
   3018   3023     1
   3018   3024     1
   3022   5875     1
   3022   5876     1
   3023   5874     1
   3024   5874     1
   3025   5889     1
   3025   5890     1
   3026   5888     1
   3027   5888     1
   3030   3044     1
   3030   3045     1
   3030   3047     1
   3030   3048     1
   3030   3041     1
   3030   3042     1
   3031   3035     1
   3031   3036     1
   3031   3038     1
   3031   3039     1
   3031   3056     1
   3031   3057     1
   3032   3034     1
   3032   3037     1
   3032   3059     1
   3032   3055     1
   3032   3044     1
   3032   3045     1
   3033   3034     1
   3033   3037     1
   3033   3059     1
   3033   3055     1
   3033   3044     1
   3033   3045     1
   3034   3038     1
   3034   3039     1
   3034   3053     1
   3034   3054     1
   3035   3037     1
   3035   3059     1
   3035   3052     1
   3035   3047     1
   3035   3048     1
   3036   3037     1
   3036   3059     1
   3036   3052     1
   3036   3047     1
   3036   3048     1
   3037   3050     1
   3037   3051     1
   3038   3059     1
   3038   3049     1
   3038   3041     1
   3038   3042     1
   3039   3059     1
   3039   3049     1
   3039   3041     1
   3039   3042     1
   3040   3059     1
   3041   3058     1
   3041   3050     1
   3041   3051     1
   3042   3058     1
   3042   3050     1
   3042   3051     1
   3043   3059     1
   3044   5922     1
   3044   3056     1
   3044   3057     1
   3045   5922     1
   3045   3056     1
   3045   3057     1
   3046   3059     1
   3047   5908     1
   3047   3053     1
   3047   3054     1
   3048   5908     1
   3048   3053     1
   3048   3054     1
   3052   5903     1
   3052   5904     1
   3053   5902     1
   3054   5902     1
   3055   5917     1
   3055   5918     1
   3056   5916     1
   3057   5916     1
   3060   3074     1
   3060   3075     1
   3060   3077     1
   3060   3078     1
   3060   3071     1
   3060   3072     1
   3061   3065     1
   3061   3066     1
   3061   3068     1
   3061   3069     1
   3061   3086     1
   3061   3087     1
   3062   3064     1
   3062   3067     1
   3062   3089     1
   3062   3085     1
   3062   3074     1
   3062   3075     1
   3063   3064     1
   3063   3067     1
   3063   3089     1
   3063   3085     1
   3063   3074     1
   3063   3075     1
   3064   3068     1
   3064   3069     1
   3064   3083     1
   3064   3084     1
   3065   3067     1
   3065   3089     1
   3065   3082     1
   3065   3077     1
   3065   3078     1
   3066   3067     1
   3066   3089     1
   3066   3082     1
   3066   3077     1
   3066   3078     1
   3067   3080     1
   3067   3081     1
   3068   3089     1
   3068   3079     1
   3068   3071     1
   3068   3072     1
   3069   3089     1
   3069   3079     1
   3069   3071     1
   3069   3072     1
   3070   3089     1
   3071   3088     1
   3071   3080     1
   3071   3081     1
   3072   3088     1
   3072   3080     1
   3072   3081     1
   3073   3089     1
   3074   5950     1
   3074   3086     1
   3074   3087     1
   3075   5950     1
   3075   3086     1
   3075   3087     1
   3076   3089     1
   3077   5936     1
   3077   3083     1
   3077   3084     1
   3078   5936     1
   3078   3083     1
   3078   3084     1
   3082   5931     1
   3082   5932     1
   3083   5930     1
   3084   5930     1
   3085   5945     1
   3085   5946     1
   3086   5944     1
   3087   5944     1
   3090   3104     1
   3090   3105     1
   3090   3107     1
   3090   3108     1
   3090   3101     1
   3090   3102     1
   3091   3095     1
   3091   3096     1
   3091   3098     1
   3091   3099     1
   3091   3116     1
   3091   3117     1
   3092   3094     1
   3092   3097     1
   3092   3119     1
   3092   3115     1
   3092   3104     1
   3092   3105     1
   3093   3094     1
   3093   3097     1
   3093   3119     1
   3093   3115     1
   3093   3104     1
   3093   3105     1
   3094   3098     1
   3094   3099     1
   3094   3113     1
   3094   3114     1
   3095   3097     1
   3095   3119     1
   3095   3112     1
   3095   3107     1
   3095   3108     1
   3096   3097     1
   3096   3119     1
   3096   3112     1
   3096   3107     1
   3096   3108     1
   3097   3110     1
   3097   3111     1
   3098   3119     1
   3098   3109     1
   3098   3101     1
   3098   3102     1
   3099   3119     1
   3099   3109     1
   3099   3101     1
   3099   3102     1
   3100   3119     1
   3101   3118     1
   3101   3110     1
   3101   3111     1
   3102   3118     1
   3102   3110     1
   3102   3111     1
   3103   3119     1
   3104   5978     1
   3104   3116     1
   3104   3117     1
   3105   5978     1
   3105   3116     1
   3105   3117     1
   3106   3119     1
   3107   5964     1
   3107   3113     1
   3107   3114     1
   3108   5964     1
   3108   3113     1
   3108   3114     1
   3112   5959     1
   3112   5960     1
   3113   5958     1
   3114   5958     1
   3115   5973     1
   3115   5974     1
   3116   5972     1
   3117   5972     1
   3120   3134     1
   3120   3135     1
   3120   3137     1
   3120   3138     1
   3120   3131     1
   3120   3132     1
   3121   3125     1
   3121   3126     1
   3121   3128     1
   3121   3129     1
   3121   3146     1
   3121   3147     1
   3122   3124     1
   3122   3127     1
   3122   3149     1
   3122   3145     1
   3122   3134     1
   3122   3135     1
   3123   3124     1
   3123   3127     1
   3123   3149     1
   3123   3145     1
   3123   3134     1
   3123   3135     1
   3124   3128     1
   3124   3129     1
   3124   3143     1
   3124   3144     1
   3125   3127     1
   3125   3149     1
   3125   3142     1
   3125   3137     1
   3125   3138     1
   3126   3127     1
   3126   3149     1
   3126   3142     1
   3126   3137     1
   3126   3138     1
   3127   3140     1
   3127   3141     1
   3128   3149     1
   3128   3139     1
   3128   3131     1
   3128   3132     1
   3129   3149     1
   3129   3139     1
   3129   3131     1
   3129   3132     1
   3130   3149     1
   3131   3148     1
   3131   3140     1
   3131   3141     1
   3132   3148     1
   3132   3140     1
   3132   3141     1
   3133   3149     1
   3134   6006     1
   3134   3146     1
   3134   3147     1
   3135   6006     1
   3135   3146     1
   3135   3147     1
   3136   3149     1
   3137   5992     1
   3137   3143     1
   3137   3144     1
   3138   5992     1
   3138   3143     1
   3138   3144     1
   3142   5987     1
   3142   5988     1
   3143   5986     1
   3144   5986     1
   3145   6001     1
   3145   6002     1
   3146   6000     1
   3147   6000     1
   3150   3164     1
   3150   3165     1
   3150   3167     1
   3150   3168     1
   3150   3161     1
   3150   3162     1
   3151   3155     1
   3151   3156     1
   3151   3158     1
   3151   3159     1
   3151   3176     1
   3151   3177     1
   3152   3154     1
   3152   3157     1
   3152   3179     1
   3152   3175     1
   3152   3164     1
   3152   3165     1
   3153   3154     1
   3153   3157     1
   3153   3179     1
   3153   3175     1
   3153   3164     1
   3153   3165     1
   3154   3158     1
   3154   3159     1
   3154   3173     1
   3154   3174     1
   3155   3157     1
   3155   3179     1
   3155   3172     1
   3155   3167     1
   3155   3168     1
   3156   3157     1
   3156   3179     1
   3156   3172     1
   3156   3167     1
   3156   3168     1
   3157   3170     1
   3157   3171     1
   3158   3179     1
   3158   3169     1
   3158   3161     1
   3158   3162     1
   3159   3179     1
   3159   3169     1
   3159   3161     1
   3159   3162     1
   3160   3179     1
   3161   3178     1
   3161   3170     1
   3161   3171     1
   3162   3178     1
   3162   3170     1
   3162   3171     1
   3163   3179     1
   3164   6034     1
   3164   3176     1
   3164   3177     1
   3165   6034     1
   3165   3176     1
   3165   3177     1
   3166   3179     1
   3167   6020     1
   3167   3173     1
   3167   3174     1
   3168   6020     1
   3168   3173     1
   3168   3174     1
   3172   6015     1
   3172   6016     1
   3173   6014     1
   3174   6014     1
   3175   6029     1
   3175   6030     1
   3176   6028     1
   3177   6028     1
   3180   3194     1
   3180   3195     1
   3180   3197     1
   3180   3198     1
   3180   3191     1
   3180   3192     1
   3181   3185     1
   3181   3186     1
   3181   3188     1
   3181   3189     1
   3181   3206     1
   3181   3207     1
   3182   3184     1
   3182   3187     1
   3182   3209     1
   3182   3205     1
   3182   3194     1
   3182   3195     1
   3183   3184     1
   3183   3187     1
   3183   3209     1
   3183   3205     1
   3183   3194     1
   3183   3195     1
   3184   3188     1
   3184   3189     1
   3184   3203     1
   3184   3204     1
   3185   3187     1
   3185   3209     1
   3185   3202     1
   3185   3197     1
   3185   3198     1
   3186   3187     1
   3186   3209     1
   3186   3202     1
   3186   3197     1
   3186   3198     1
   3187   3200     1
   3187   3201     1
   3188   3209     1
   3188   3199     1
   3188   3191     1
   3188   3192     1
   3189   3209     1
   3189   3199     1
   3189   3191     1
   3189   3192     1
   3190   3209     1
   3191   3208     1
   3191   3200     1
   3191   3201     1
   3192   3208     1
   3192   3200     1
   3192   3201     1
   3193   3209     1
   3194   6062     1
   3194   3206     1
   3194   3207     1
   3195   6062     1
   3195   3206     1
   3195   3207     1
   3196   3209     1
   3197   6048     1
   3197   3203     1
   3197   3204     1
   3198   6048     1
   3198   3203     1
   3198   3204     1
   3202   6043     1
   3202   6044     1
   3203   6042     1
   3204   6042     1
   3205   6057     1
   3205   6058     1
   3206   6056     1
   3207   6056     1
   3210   3224     1
   3210   3225     1
   3210   3227     1
   3210   3228     1
   3210   3221     1
   3210   3222     1
   3211   3215     1
   3211   3216     1
   3211   3218     1
   3211   3219     1
   3211   3236     1
   3211   3237     1
   3212   3214     1
   3212   3217     1
   3212   3239     1
   3212   3235     1
   3212   3224     1
   3212   3225     1
   3213   3214     1
   3213   3217     1
   3213   3239     1
   3213   3235     1
   3213   3224     1
   3213   3225     1
   3214   3218     1
   3214   3219     1
   3214   3233     1
   3214   3234     1
   3215   3217     1
   3215   3239     1
   3215   3232     1
   3215   3227     1
   3215   3228     1
   3216   3217     1
   3216   3239     1
   3216   3232     1
   3216   3227     1
   3216   3228     1
   3217   3230     1
   3217   3231     1
   3218   3239     1
   3218   3229     1
   3218   3221     1
   3218   3222     1
   3219   3239     1
   3219   3229     1
   3219   3221     1
   3219   3222     1
   3220   3239     1
   3221   3238     1
   3221   3230     1
   3221   3231     1
   3222   3238     1
   3222   3230     1
   3222   3231     1
   3223   3239     1
   3224   6090     1
   3224   3236     1
   3224   3237     1
   3225   6090     1
   3225   3236     1
   3225   3237     1
   3226   3239     1
   3227   6076     1
   3227   3233     1
   3227   3234     1
   3228   6076     1
   3228   3233     1
   3228   3234     1
   3232   6071     1
   3232   6072     1
   3233   6070     1
   3234   6070     1
   3235   6085     1
   3235   6086     1
   3236   6084     1
   3237   6084     1
   3240   3254     1
   3240   3255     1
   3240   3257     1
   3240   3258     1
   3240   3251     1
   3240   3252     1
   3241   3245     1
   3241   3246     1
   3241   3248     1
   3241   3249     1
   3241   3266     1
   3241   3267     1
   3242   3244     1
   3242   3247     1
   3242   3269     1
   3242   3265     1
   3242   3254     1
   3242   3255     1
   3243   3244     1
   3243   3247     1
   3243   3269     1
   3243   3265     1
   3243   3254     1
   3243   3255     1
   3244   3248     1
   3244   3249     1
   3244   3263     1
   3244   3264     1
   3245   3247     1
   3245   3269     1
   3245   3262     1
   3245   3257     1
   3245   3258     1
   3246   3247     1
   3246   3269     1
   3246   3262     1
   3246   3257     1
   3246   3258     1
   3247   3260     1
   3247   3261     1
   3248   3269     1
   3248   3259     1
   3248   3251     1
   3248   3252     1
   3249   3269     1
   3249   3259     1
   3249   3251     1
   3249   3252     1
   3250   3269     1
   3251   3268     1
   3251   3260     1
   3251   3261     1
   3252   3268     1
   3252   3260     1
   3252   3261     1
   3253   3269     1
   3254   6118     1
   3254   3266     1
   3254   3267     1
   3255   6118     1
   3255   3266     1
   3255   3267     1
   3256   3269     1
   3257   6104     1
   3257   3263     1
   3257   3264     1
   3258   6104     1
   3258   3263     1
   3258   3264     1
   3262   6099     1
   3262   6100     1
   3263   6098     1
   3264   6098     1
   3265   6113     1
   3265   6114     1
   3266   6112     1
   3267   6112     1
   3270   3284     1
   3270   3285     1
   3270   3287     1
   3270   3288     1
   3270   3281     1
   3270   3282     1
   3271   3275     1
   3271   3276     1
   3271   3278     1
   3271   3279     1
   3271   3296     1
   3271   3297     1
   3272   3274     1
   3272   3277     1
   3272   3299     1
   3272   3295     1
   3272   3284     1
   3272   3285     1
   3273   3274     1
   3273   3277     1
   3273   3299     1
   3273   3295     1
   3273   3284     1
   3273   3285     1
   3274   3278     1
   3274   3279     1
   3274   3293     1
   3274   3294     1
   3275   3277     1
   3275   3299     1
   3275   3292     1
   3275   3287     1
   3275   3288     1
   3276   3277     1
   3276   3299     1
   3276   3292     1
   3276   3287     1
   3276   3288     1
   3277   3290     1
   3277   3291     1
   3278   3299     1
   3278   3289     1
   3278   3281     1
   3278   3282     1
   3279   3299     1
   3279   3289     1
   3279   3281     1
   3279   3282     1
   3280   3299     1
   3281   3298     1
   3281   3290     1
   3281   3291     1
   3282   3298     1
   3282   3290     1
   3282   3291     1
   3283   3299     1
   3284   6146     1
   3284   3296     1
   3284   3297     1
   3285   6146     1
   3285   3296     1
   3285   3297     1
   3286   3299     1
   3287   6132     1
   3287   3293     1
   3287   3294     1
   3288   6132     1
   3288   3293     1
   3288   3294     1
   3292   6127     1
   3292   6128     1
   3293   6126     1
   3294   6126     1
   3295   6141     1
   3295   6142     1
   3296   6140     1
   3297   6140     1
   3300   3314     1
   3300   3315     1
   3300   3317     1
   3300   3318     1
   3300   3311     1
   3300   3312     1
   3301   3305     1
   3301   3306     1
   3301   3308     1
   3301   3309     1
   3301   3326     1
   3301   3327     1
   3302   3304     1
   3302   3307     1
   3302   3329     1
   3302   3325     1
   3302   3314     1
   3302   3315     1
   3303   3304     1
   3303   3307     1
   3303   3329     1
   3303   3325     1
   3303   3314     1
   3303   3315     1
   3304   3308     1
   3304   3309     1
   3304   3323     1
   3304   3324     1
   3305   3307     1
   3305   3329     1
   3305   3322     1
   3305   3317     1
   3305   3318     1
   3306   3307     1
   3306   3329     1
   3306   3322     1
   3306   3317     1
   3306   3318     1
   3307   3320     1
   3307   3321     1
   3308   3329     1
   3308   3319     1
   3308   3311     1
   3308   3312     1
   3309   3329     1
   3309   3319     1
   3309   3311     1
   3309   3312     1
   3310   3329     1
   3311   3328     1
   3311   3320     1
   3311   3321     1
   3312   3328     1
   3312   3320     1
   3312   3321     1
   3313   3329     1
   3314   6174     1
   3314   3326     1
   3314   3327     1
   3315   6174     1
   3315   3326     1
   3315   3327     1
   3316   3329     1
   3317   6160     1
   3317   3323     1
   3317   3324     1
   3318   6160     1
   3318   3323     1
   3318   3324     1
   3322   6155     1
   3322   6156     1
   3323   6154     1
   3324   6154     1
   3325   6169     1
   3325   6170     1
   3326   6168     1
   3327   6168     1
   3330   3344     1
   3330   3345     1
   3330   3347     1
   3330   3348     1
   3330   3341     1
   3330   3342     1
   3331   3335     1
   3331   3336     1
   3331   3338     1
   3331   3339     1
   3331   3356     1
   3331   3357     1
   3332   3334     1
   3332   3337     1
   3332   3359     1
   3332   3355     1
   3332   3344     1
   3332   3345     1
   3333   3334     1
   3333   3337     1
   3333   3359     1
   3333   3355     1
   3333   3344     1
   3333   3345     1
   3334   3338     1
   3334   3339     1
   3334   3353     1
   3334   3354     1
   3335   3337     1
   3335   3359     1
   3335   3352     1
   3335   3347     1
   3335   3348     1
   3336   3337     1
   3336   3359     1
   3336   3352     1
   3336   3347     1
   3336   3348     1
   3337   3350     1
   3337   3351     1
   3338   3359     1
   3338   3349     1
   3338   3341     1
   3338   3342     1
   3339   3359     1
   3339   3349     1
   3339   3341     1
   3339   3342     1
   3340   3359     1
   3341   3358     1
   3341   3350     1
   3341   3351     1
   3342   3358     1
   3342   3350     1
   3342   3351     1
   3343   3359     1
   3344   6202     1
   3344   3356     1
   3344   3357     1
   3345   6202     1
   3345   3356     1
   3345   3357     1
   3346   3359     1
   3347   6188     1
   3347   3353     1
   3347   3354     1
   3348   6188     1
   3348   3353     1
   3348   3354     1
   3352   6183     1
   3352   6184     1
   3353   6182     1
   3354   6182     1
   3355   6197     1
   3355   6198     1
   3356   6196     1
   3357   6196     1
   3360   3374     1
   3360   3375     1
   3360   3377     1
   3360   3378     1
   3360   3371     1
   3360   3372     1
   3361   3365     1
   3361   3366     1
   3361   3368     1
   3361   3369     1
   3361   3386     1
   3361   3387     1
   3362   3364     1
   3362   3367     1
   3362   3389     1
   3362   3385     1
   3362   3374     1
   3362   3375     1
   3363   3364     1
   3363   3367     1
   3363   3389     1
   3363   3385     1
   3363   3374     1
   3363   3375     1
   3364   3368     1
   3364   3369     1
   3364   3383     1
   3364   3384     1
   3365   3367     1
   3365   3389     1
   3365   3382     1
   3365   3377     1
   3365   3378     1
   3366   3367     1
   3366   3389     1
   3366   3382     1
   3366   3377     1
   3366   3378     1
   3367   3380     1
   3367   3381     1
   3368   3389     1
   3368   3379     1
   3368   3371     1
   3368   3372     1
   3369   3389     1
   3369   3379     1
   3369   3371     1
   3369   3372     1
   3370   3389     1
   3371   3388     1
   3371   3380     1
   3371   3381     1
   3372   3388     1
   3372   3380     1
   3372   3381     1
   3373   3389     1
   3374   6230     1
   3374   3386     1
   3374   3387     1
   3375   6230     1
   3375   3386     1
   3375   3387     1
   3376   3389     1
   3377   6216     1
   3377   3383     1
   3377   3384     1
   3378   6216     1
   3378   3383     1
   3378   3384     1
   3382   6211     1
   3382   6212     1
   3383   6210     1
   3384   6210     1
   3385   6225     1
   3385   6226     1
   3386   6224     1
   3387   6224     1
   3390   3404     1
   3390   3405     1
   3390   3407     1
   3390   3408     1
   3390   3401     1
   3390   3402     1
   3391   3395     1
   3391   3396     1
   3391   3398     1
   3391   3399     1
   3391   3416     1
   3391   3417     1
   3392   3394     1
   3392   3397     1
   3392   3419     1
   3392   3415     1
   3392   3404     1
   3392   3405     1
   3393   3394     1
   3393   3397     1
   3393   3419     1
   3393   3415     1
   3393   3404     1
   3393   3405     1
   3394   3398     1
   3394   3399     1
   3394   3413     1
   3394   3414     1
   3395   3397     1
   3395   3419     1
   3395   3412     1
   3395   3407     1
   3395   3408     1
   3396   3397     1
   3396   3419     1
   3396   3412     1
   3396   3407     1
   3396   3408     1
   3397   3410     1
   3397   3411     1
   3398   3419     1
   3398   3409     1
   3398   3401     1
   3398   3402     1
   3399   3419     1
   3399   3409     1
   3399   3401     1
   3399   3402     1
   3400   3419     1
   3401   3418     1
   3401   3410     1
   3401   3411     1
   3402   3418     1
   3402   3410     1
   3402   3411     1
   3403   3419     1
   3404   6258     1
   3404   3416     1
   3404   3417     1
   3405   6258     1
   3405   3416     1
   3405   3417     1
   3406   3419     1
   3407   6244     1
   3407   3413     1
   3407   3414     1
   3408   6244     1
   3408   3413     1
   3408   3414     1
   3412   6239     1
   3412   6240     1
   3413   6238     1
   3414   6238     1
   3415   6253     1
   3415   6254     1
   3416   6252     1
   3417   6252     1
   3420   3434     1
   3420   3435     1
   3420   3437     1
   3420   3438     1
   3420   3431     1
   3420   3432     1
   3421   3425     1
   3421   3426     1
   3421   3428     1
   3421   3429     1
   3421   3446     1
   3421   3447     1
   3422   3424     1
   3422   3427     1
   3422   3449     1
   3422   3445     1
   3422   3434     1
   3422   3435     1
   3423   3424     1
   3423   3427     1
   3423   3449     1
   3423   3445     1
   3423   3434     1
   3423   3435     1
   3424   3428     1
   3424   3429     1
   3424   3443     1
   3424   3444     1
   3425   3427     1
   3425   3449     1
   3425   3442     1
   3425   3437     1
   3425   3438     1
   3426   3427     1
   3426   3449     1
   3426   3442     1
   3426   3437     1
   3426   3438     1
   3427   3440     1
   3427   3441     1
   3428   3449     1
   3428   3439     1
   3428   3431     1
   3428   3432     1
   3429   3449     1
   3429   3439     1
   3429   3431     1
   3429   3432     1
   3430   3449     1
   3431   3448     1
   3431   3440     1
   3431   3441     1
   3432   3448     1
   3432   3440     1
   3432   3441     1
   3433   3449     1
   3434   6286     1
   3434   3446     1
   3434   3447     1
   3435   6286     1
   3435   3446     1
   3435   3447     1
   3436   3449     1
   3437   6272     1
   3437   3443     1
   3437   3444     1
   3438   6272     1
   3438   3443     1
   3438   3444     1
   3442   6267     1
   3442   6268     1
   3443   6266     1
   3444   6266     1
   3445   6281     1
   3445   6282     1
   3446   6280     1
   3447   6280     1
   3450   3464     1
   3450   3465     1
   3450   3467     1
   3450   3468     1
   3450   3461     1
   3450   3462     1
   3451   3455     1
   3451   3456     1
   3451   3458     1
   3451   3459     1
   3451   3476     1
   3451   3477     1
   3452   3454     1
   3452   3457     1
   3452   3479     1
   3452   3475     1
   3452   3464     1
   3452   3465     1
   3453   3454     1
   3453   3457     1
   3453   3479     1
   3453   3475     1
   3453   3464     1
   3453   3465     1
   3454   3458     1
   3454   3459     1
   3454   3473     1
   3454   3474     1
   3455   3457     1
   3455   3479     1
   3455   3472     1
   3455   3467     1
   3455   3468     1
   3456   3457     1
   3456   3479     1
   3456   3472     1
   3456   3467     1
   3456   3468     1
   3457   3470     1
   3457   3471     1
   3458   3479     1
   3458   3469     1
   3458   3461     1
   3458   3462     1
   3459   3479     1
   3459   3469     1
   3459   3461     1
   3459   3462     1
   3460   3479     1
   3461   3478     1
   3461   3470     1
   3461   3471     1
   3462   3478     1
   3462   3470     1
   3462   3471     1
   3463   3479     1
   3464   6314     1
   3464   3476     1
   3464   3477     1
   3465   6314     1
   3465   3476     1
   3465   3477     1
   3466   3479     1
   3467   6300     1
   3467   3473     1
   3467   3474     1
   3468   6300     1
   3468   3473     1
   3468   3474     1
   3472   6295     1
   3472   6296     1
   3473   6294     1
   3474   6294     1
   3475   6309     1
   3475   6310     1
   3476   6308     1
   3477   6308     1
   3480   3494     1
   3480   3495     1
   3480   3497     1
   3480   3498     1
   3480   3491     1
   3480   3492     1
   3481   3485     1
   3481   3486     1
   3481   3488     1
   3481   3489     1
   3481   3506     1
   3481   3507     1
   3482   3484     1
   3482   3487     1
   3482   3509     1
   3482   3505     1
   3482   3494     1
   3482   3495     1
   3483   3484     1
   3483   3487     1
   3483   3509     1
   3483   3505     1
   3483   3494     1
   3483   3495     1
   3484   3488     1
   3484   3489     1
   3484   3503     1
   3484   3504     1
   3485   3487     1
   3485   3509     1
   3485   3502     1
   3485   3497     1
   3485   3498     1
   3486   3487     1
   3486   3509     1
   3486   3502     1
   3486   3497     1
   3486   3498     1
   3487   3500     1
   3487   3501     1
   3488   3509     1
   3488   3499     1
   3488   3491     1
   3488   3492     1
   3489   3509     1
   3489   3499     1
   3489   3491     1
   3489   3492     1
   3490   3509     1
   3491   3508     1
   3491   3500     1
   3491   3501     1
   3492   3508     1
   3492   3500     1
   3492   3501     1
   3493   3509     1
   3494   6342     1
   3494   3506     1
   3494   3507     1
   3495   6342     1
   3495   3506     1
   3495   3507     1
   3496   3509     1
   3497   6328     1
   3497   3503     1
   3497   3504     1
   3498   6328     1
   3498   3503     1
   3498   3504     1
   3502   6323     1
   3502   6324     1
   3503   6322     1
   3504   6322     1
   3505   6337     1
   3505   6338     1
   3506   6336     1
   3507   6336     1
   3510   3524     1
   3510   3525     1
   3510   3527     1
   3510   3528     1
   3510   3521     1
   3510   3522     1
   3511   3515     1
   3511   3516     1
   3511   3518     1
   3511   3519     1
   3511   3536     1
   3511   3537     1
   3512   3514     1
   3512   3517     1
   3512   3539     1
   3512   3535     1
   3512   3524     1
   3512   3525     1
   3513   3514     1
   3513   3517     1
   3513   3539     1
   3513   3535     1
   3513   3524     1
   3513   3525     1
   3514   3518     1
   3514   3519     1
   3514   3533     1
   3514   3534     1
   3515   3517     1
   3515   3539     1
   3515   3532     1
   3515   3527     1
   3515   3528     1
   3516   3517     1
   3516   3539     1
   3516   3532     1
   3516   3527     1
   3516   3528     1
   3517   3530     1
   3517   3531     1
   3518   3539     1
   3518   3529     1
   3518   3521     1
   3518   3522     1
   3519   3539     1
   3519   3529     1
   3519   3521     1
   3519   3522     1
   3520   3539     1
   3521   3538     1
   3521   3530     1
   3521   3531     1
   3522   3538     1
   3522   3530     1
   3522   3531     1
   3523   3539     1
   3524   6370     1
   3524   3536     1
   3524   3537     1
   3525   6370     1
   3525   3536     1
   3525   3537     1
   3526   3539     1
   3527   6356     1
   3527   3533     1
   3527   3534     1
   3528   6356     1
   3528   3533     1
   3528   3534     1
   3532   6351     1
   3532   6352     1
   3533   6350     1
   3534   6350     1
   3535   6365     1
   3535   6366     1
   3536   6364     1
   3537   6364     1
   3540   3554     1
   3540   3555     1
   3540   3557     1
   3540   3558     1
   3540   3551     1
   3540   3552     1
   3541   3545     1
   3541   3546     1
   3541   3548     1
   3541   3549     1
   3541   3566     1
   3541   3567     1
   3542   3544     1
   3542   3547     1
   3542   3569     1
   3542   3565     1
   3542   3554     1
   3542   3555     1
   3543   3544     1
   3543   3547     1
   3543   3569     1
   3543   3565     1
   3543   3554     1
   3543   3555     1
   3544   3548     1
   3544   3549     1
   3544   3563     1
   3544   3564     1
   3545   3547     1
   3545   3569     1
   3545   3562     1
   3545   3557     1
   3545   3558     1
   3546   3547     1
   3546   3569     1
   3546   3562     1
   3546   3557     1
   3546   3558     1
   3547   3560     1
   3547   3561     1
   3548   3569     1
   3548   3559     1
   3548   3551     1
   3548   3552     1
   3549   3569     1
   3549   3559     1
   3549   3551     1
   3549   3552     1
   3550   3569     1
   3551   3568     1
   3551   3560     1
   3551   3561     1
   3552   3568     1
   3552   3560     1
   3552   3561     1
   3553   3569     1
   3554   6398     1
   3554   3566     1
   3554   3567     1
   3555   6398     1
   3555   3566     1
   3555   3567     1
   3556   3569     1
   3557   6384     1
   3557   3563     1
   3557   3564     1
   3558   6384     1
   3558   3563     1
   3558   3564     1
   3562   6379     1
   3562   6380     1
   3563   6378     1
   3564   6378     1
   3565   6393     1
   3565   6394     1
   3566   6392     1
   3567   6392     1
   3570   3584     1
   3570   3585     1
   3570   3587     1
   3570   3588     1
   3570   3581     1
   3570   3582     1
   3571   3575     1
   3571   3576     1
   3571   3578     1
   3571   3579     1
   3571   3596     1
   3571   3597     1
   3572   3574     1
   3572   3577     1
   3572   3599     1
   3572   3595     1
   3572   3584     1
   3572   3585     1
   3573   3574     1
   3573   3577     1
   3573   3599     1
   3573   3595     1
   3573   3584     1
   3573   3585     1
   3574   3578     1
   3574   3579     1
   3574   3593     1
   3574   3594     1
   3575   3577     1
   3575   3599     1
   3575   3592     1
   3575   3587     1
   3575   3588     1
   3576   3577     1
   3576   3599     1
   3576   3592     1
   3576   3587     1
   3576   3588     1
   3577   3590     1
   3577   3591     1
   3578   3599     1
   3578   3589     1
   3578   3581     1
   3578   3582     1
   3579   3599     1
   3579   3589     1
   3579   3581     1
   3579   3582     1
   3580   3599     1
   3581   3598     1
   3581   3590     1
   3581   3591     1
   3582   3598     1
   3582   3590     1
   3582   3591     1
   3583   3599     1
   3584   6426     1
   3584   3596     1
   3584   3597     1
   3585   6426     1
   3585   3596     1
   3585   3597     1
   3586   3599     1
   3587   6412     1
   3587   3593     1
   3587   3594     1
   3588   6412     1
   3588   3593     1
   3588   3594     1
   3592   6407     1
   3592   6408     1
   3593   6406     1
   3594   6406     1
   3595   6421     1
   3595   6422     1
   3596   6420     1
   3597   6420     1
   3600   3614     1
   3600   3615     1
   3600   3617     1
   3600   3618     1
   3600   3611     1
   3600   3612     1
   3601   3605     1
   3601   3606     1
   3601   3608     1
   3601   3609     1
   3601   3626     1
   3601   3627     1
   3602   3604     1
   3602   3607     1
   3602   3629     1
   3602   3625     1
   3602   3614     1
   3602   3615     1
   3603   3604     1
   3603   3607     1
   3603   3629     1
   3603   3625     1
   3603   3614     1
   3603   3615     1
   3604   3608     1
   3604   3609     1
   3604   3623     1
   3604   3624     1
   3605   3607     1
   3605   3629     1
   3605   3622     1
   3605   3617     1
   3605   3618     1
   3606   3607     1
   3606   3629     1
   3606   3622     1
   3606   3617     1
   3606   3618     1
   3607   3620     1
   3607   3621     1
   3608   3629     1
   3608   3619     1
   3608   3611     1
   3608   3612     1
   3609   3629     1
   3609   3619     1
   3609   3611     1
   3609   3612     1
   3610   3629     1
   3611   3628     1
   3611   3620     1
   3611   3621     1
   3612   3628     1
   3612   3620     1
   3612   3621     1
   3613   3629     1
   3614   6454     1
   3614   3626     1
   3614   3627     1
   3615   6454     1
   3615   3626     1
   3615   3627     1
   3616   3629     1
   3617   6440     1
   3617   3623     1
   3617   3624     1
   3618   6440     1
   3618   3623     1
   3618   3624     1
   3622   6435     1
   3622   6436     1
   3623   6434     1
   3624   6434     1
   3625   6449     1
   3625   6450     1
   3626   6448     1
   3627   6448     1
   3630   3644     1
   3630   3645     1
   3630   3647     1
   3630   3648     1
   3630   3641     1
   3630   3642     1
   3631   3635     1
   3631   3636     1
   3631   3638     1
   3631   3639     1
   3631   3656     1
   3631   3657     1
   3632   3634     1
   3632   3637     1
   3632   3659     1
   3632   3655     1
   3632   3644     1
   3632   3645     1
   3633   3634     1
   3633   3637     1
   3633   3659     1
   3633   3655     1
   3633   3644     1
   3633   3645     1
   3634   3638     1
   3634   3639     1
   3634   3653     1
   3634   3654     1
   3635   3637     1
   3635   3659     1
   3635   3652     1
   3635   3647     1
   3635   3648     1
   3636   3637     1
   3636   3659     1
   3636   3652     1
   3636   3647     1
   3636   3648     1
   3637   3650     1
   3637   3651     1
   3638   3659     1
   3638   3649     1
   3638   3641     1
   3638   3642     1
   3639   3659     1
   3639   3649     1
   3639   3641     1
   3639   3642     1
   3640   3659     1
   3641   3658     1
   3641   3650     1
   3641   3651     1
   3642   3658     1
   3642   3650     1
   3642   3651     1
   3643   3659     1
   3644   6482     1
   3644   3656     1
   3644   3657     1
   3645   6482     1
   3645   3656     1
   3645   3657     1
   3646   3659     1
   3647   6468     1
   3647   3653     1
   3647   3654     1
   3648   6468     1
   3648   3653     1
   3648   3654     1
   3652   6463     1
   3652   6464     1
   3653   6462     1
   3654   6462     1
   3655   6477     1
   3655   6478     1
   3656   6476     1
   3657   6476     1
   3660   3674     1
   3660   3675     1
   3660   3677     1
   3660   3678     1
   3660   3671     1
   3660   3672     1
   3661   3665     1
   3661   3666     1
   3661   3668     1
   3661   3669     1
   3661   3686     1
   3661   3687     1
   3662   3664     1
   3662   3667     1
   3662   3689     1
   3662   3685     1
   3662   3674     1
   3662   3675     1
   3663   3664     1
   3663   3667     1
   3663   3689     1
   3663   3685     1
   3663   3674     1
   3663   3675     1
   3664   3668     1
   3664   3669     1
   3664   3683     1
   3664   3684     1
   3665   3667     1
   3665   3689     1
   3665   3682     1
   3665   3677     1
   3665   3678     1
   3666   3667     1
   3666   3689     1
   3666   3682     1
   3666   3677     1
   3666   3678     1
   3667   3680     1
   3667   3681     1
   3668   3689     1
   3668   3679     1
   3668   3671     1
   3668   3672     1
   3669   3689     1
   3669   3679     1
   3669   3671     1
   3669   3672     1
   3670   3689     1
   3671   3688     1
   3671   3680     1
   3671   3681     1
   3672   3688     1
   3672   3680     1
   3672   3681     1
   3673   3689     1
   3674   6510     1
   3674   3686     1
   3674   3687     1
   3675   6510     1
   3675   3686     1
   3675   3687     1
   3676   3689     1
   3677   6496     1
   3677   3683     1
   3677   3684     1
   3678   6496     1
   3678   3683     1
   3678   3684     1
   3682   6491     1
   3682   6492     1
   3683   6490     1
   3684   6490     1
   3685   6505     1
   3685   6506     1
   3686   6504     1
   3687   6504     1
   3690   3704     1
   3690   3705     1
   3690   3707     1
   3690   3708     1
   3690   3701     1
   3690   3702     1
   3691   3695     1
   3691   3696     1
   3691   3698     1
   3691   3699     1
   3691   3716     1
   3691   3717     1
   3692   3694     1
   3692   3697     1
   3692   3719     1
   3692   3715     1
   3692   3704     1
   3692   3705     1
   3693   3694     1
   3693   3697     1
   3693   3719     1
   3693   3715     1
   3693   3704     1
   3693   3705     1
   3694   3698     1
   3694   3699     1
   3694   3713     1
   3694   3714     1
   3695   3697     1
   3695   3719     1
   3695   3712     1
   3695   3707     1
   3695   3708     1
   3696   3697     1
   3696   3719     1
   3696   3712     1
   3696   3707     1
   3696   3708     1
   3697   3710     1
   3697   3711     1
   3698   3719     1
   3698   3709     1
   3698   3701     1
   3698   3702     1
   3699   3719     1
   3699   3709     1
   3699   3701     1
   3699   3702     1
   3700   3719     1
   3701   3718     1
   3701   3710     1
   3701   3711     1
   3702   3718     1
   3702   3710     1
   3702   3711     1
   3703   3719     1
   3704   6538     1
   3704   3716     1
   3704   3717     1
   3705   6538     1
   3705   3716     1
   3705   3717     1
   3706   3719     1
   3707   6524     1
   3707   3713     1
   3707   3714     1
   3708   6524     1
   3708   3713     1
   3708   3714     1
   3712   6519     1
   3712   6520     1
   3713   6518     1
   3714   6518     1
   3715   6533     1
   3715   6534     1
   3716   6532     1
   3717   6532     1
   3720   3734     1
   3720   3735     1
   3720   3737     1
   3720   3738     1
   3720   3731     1
   3720   3732     1
   3721   3725     1
   3721   3726     1
   3721   3728     1
   3721   3729     1
   3721   3746     1
   3721   3747     1
   3722   3724     1
   3722   3727     1
   3722   3749     1
   3722   3745     1
   3722   3734     1
   3722   3735     1
   3723   3724     1
   3723   3727     1
   3723   3749     1
   3723   3745     1
   3723   3734     1
   3723   3735     1
   3724   3728     1
   3724   3729     1
   3724   3743     1
   3724   3744     1
   3725   3727     1
   3725   3749     1
   3725   3742     1
   3725   3737     1
   3725   3738     1
   3726   3727     1
   3726   3749     1
   3726   3742     1
   3726   3737     1
   3726   3738     1
   3727   3740     1
   3727   3741     1
   3728   3749     1
   3728   3739     1
   3728   3731     1
   3728   3732     1
   3729   3749     1
   3729   3739     1
   3729   3731     1
   3729   3732     1
   3730   3749     1
   3731   3748     1
   3731   3740     1
   3731   3741     1
   3732   3748     1
   3732   3740     1
   3732   3741     1
   3733   3749     1
   3734   6566     1
   3734   3746     1
   3734   3747     1
   3735   6566     1
   3735   3746     1
   3735   3747     1
   3736   3749     1
   3737   6552     1
   3737   3743     1
   3737   3744     1
   3738   6552     1
   3738   3743     1
   3738   3744     1
   3742   6547     1
   3742   6548     1
   3743   6546     1
   3744   6546     1
   3745   6561     1
   3745   6562     1
   3746   6560     1
   3747   6560     1
   3750   3764     1
   3750   3765     1
   3750   3767     1
   3750   3768     1
   3750   3761     1
   3750   3762     1
   3751   3755     1
   3751   3756     1
   3751   3758     1
   3751   3759     1
   3751   3776     1
   3751   3777     1
   3752   3754     1
   3752   3757     1
   3752   3779     1
   3752   3775     1
   3752   3764     1
   3752   3765     1
   3753   3754     1
   3753   3757     1
   3753   3779     1
   3753   3775     1
   3753   3764     1
   3753   3765     1
   3754   3758     1
   3754   3759     1
   3754   3773     1
   3754   3774     1
   3755   3757     1
   3755   3779     1
   3755   3772     1
   3755   3767     1
   3755   3768     1
   3756   3757     1
   3756   3779     1
   3756   3772     1
   3756   3767     1
   3756   3768     1
   3757   3770     1
   3757   3771     1
   3758   3779     1
   3758   3769     1
   3758   3761     1
   3758   3762     1
   3759   3779     1
   3759   3769     1
   3759   3761     1
   3759   3762     1
   3760   3779     1
   3761   3778     1
   3761   3770     1
   3761   3771     1
   3762   3778     1
   3762   3770     1
   3762   3771     1
   3763   3779     1
   3764   6594     1
   3764   3776     1
   3764   3777     1
   3765   6594     1
   3765   3776     1
   3765   3777     1
   3766   3779     1
   3767   6580     1
   3767   3773     1
   3767   3774     1
   3768   6580     1
   3768   3773     1
   3768   3774     1
   3772   6575     1
   3772   6576     1
   3773   6574     1
   3774   6574     1
   3775   6589     1
   3775   6590     1
   3776   6588     1
   3777   6588     1
   3780   3794     1
   3780   3795     1
   3780   3797     1
   3780   3798     1
   3780   3791     1
   3780   3792     1
   3781   3785     1
   3781   3786     1
   3781   3788     1
   3781   3789     1
   3781   3806     1
   3781   3807     1
   3782   3784     1
   3782   3787     1
   3782   3809     1
   3782   3805     1
   3782   3794     1
   3782   3795     1
   3783   3784     1
   3783   3787     1
   3783   3809     1
   3783   3805     1
   3783   3794     1
   3783   3795     1
   3784   3788     1
   3784   3789     1
   3784   3803     1
   3784   3804     1
   3785   3787     1
   3785   3809     1
   3785   3802     1
   3785   3797     1
   3785   3798     1
   3786   3787     1
   3786   3809     1
   3786   3802     1
   3786   3797     1
   3786   3798     1
   3787   3800     1
   3787   3801     1
   3788   3809     1
   3788   3799     1
   3788   3791     1
   3788   3792     1
   3789   3809     1
   3789   3799     1
   3789   3791     1
   3789   3792     1
   3790   3809     1
   3791   3808     1
   3791   3800     1
   3791   3801     1
   3792   3808     1
   3792   3800     1
   3792   3801     1
   3793   3809     1
   3794   6622     1
   3794   3806     1
   3794   3807     1
   3795   6622     1
   3795   3806     1
   3795   3807     1
   3796   3809     1
   3797   6608     1
   3797   3803     1
   3797   3804     1
   3798   6608     1
   3798   3803     1
   3798   3804     1
   3802   6603     1
   3802   6604     1
   3803   6602     1
   3804   6602     1
   3805   6617     1
   3805   6618     1
   3806   6616     1
   3807   6616     1
   3810   3824     1
   3810   3825     1
   3810   3827     1
   3810   3828     1
   3810   3821     1
   3810   3822     1
   3811   3815     1
   3811   3816     1
   3811   3818     1
   3811   3819     1
   3811   3836     1
   3811   3837     1
   3812   3814     1
   3812   3817     1
   3812   3839     1
   3812   3835     1
   3812   3824     1
   3812   3825     1
   3813   3814     1
   3813   3817     1
   3813   3839     1
   3813   3835     1
   3813   3824     1
   3813   3825     1
   3814   3818     1
   3814   3819     1
   3814   3833     1
   3814   3834     1
   3815   3817     1
   3815   3839     1
   3815   3832     1
   3815   3827     1
   3815   3828     1
   3816   3817     1
   3816   3839     1
   3816   3832     1
   3816   3827     1
   3816   3828     1
   3817   3830     1
   3817   3831     1
   3818   3839     1
   3818   3829     1
   3818   3821     1
   3818   3822     1
   3819   3839     1
   3819   3829     1
   3819   3821     1
   3819   3822     1
   3820   3839     1
   3821   3838     1
   3821   3830     1
   3821   3831     1
   3822   3838     1
   3822   3830     1
   3822   3831     1
   3823   3839     1
   3824   6650     1
   3824   3836     1
   3824   3837     1
   3825   6650     1
   3825   3836     1
   3825   3837     1
   3826   3839     1
   3827   6636     1
   3827   3833     1
   3827   3834     1
   3828   6636     1
   3828   3833     1
   3828   3834     1
   3832   6631     1
   3832   6632     1
   3833   6630     1
   3834   6630     1
   3835   6645     1
   3835   6646     1
   3836   6644     1
   3837   6644     1
   3840   3854     1
   3840   3855     1
   3840   3857     1
   3840   3858     1
   3840   3851     1
   3840   3852     1
   3841   3845     1
   3841   3846     1
   3841   3848     1
   3841   3849     1
   3841   3866     1
   3841   3867     1
   3842   3844     1
   3842   3847     1
   3842   3869     1
   3842   3865     1
   3842   3854     1
   3842   3855     1
   3843   3844     1
   3843   3847     1
   3843   3869     1
   3843   3865     1
   3843   3854     1
   3843   3855     1
   3844   3848     1
   3844   3849     1
   3844   3863     1
   3844   3864     1
   3845   3847     1
   3845   3869     1
   3845   3862     1
   3845   3857     1
   3845   3858     1
   3846   3847     1
   3846   3869     1
   3846   3862     1
   3846   3857     1
   3846   3858     1
   3847   3860     1
   3847   3861     1
   3848   3869     1
   3848   3859     1
   3848   3851     1
   3848   3852     1
   3849   3869     1
   3849   3859     1
   3849   3851     1
   3849   3852     1
   3850   3869     1
   3851   3868     1
   3851   3860     1
   3851   3861     1
   3852   3868     1
   3852   3860     1
   3852   3861     1
   3853   3869     1
   3854   6678     1
   3854   3866     1
   3854   3867     1
   3855   6678     1
   3855   3866     1
   3855   3867     1
   3856   3869     1
   3857   6664     1
   3857   3863     1
   3857   3864     1
   3858   6664     1
   3858   3863     1
   3858   3864     1
   3862   6659     1
   3862   6660     1
   3863   6658     1
   3864   6658     1
   3865   6673     1
   3865   6674     1
   3866   6672     1
   3867   6672     1
   3870   3884     1
   3870   3885     1
   3870   3887     1
   3870   3888     1
   3870   3881     1
   3870   3882     1
   3871   3875     1
   3871   3876     1
   3871   3878     1
   3871   3879     1
   3871   3896     1
   3871   3897     1
   3872   3874     1
   3872   3877     1
   3872   3899     1
   3872   3895     1
   3872   3884     1
   3872   3885     1
   3873   3874     1
   3873   3877     1
   3873   3899     1
   3873   3895     1
   3873   3884     1
   3873   3885     1
   3874   3878     1
   3874   3879     1
   3874   3893     1
   3874   3894     1
   3875   3877     1
   3875   3899     1
   3875   3892     1
   3875   3887     1
   3875   3888     1
   3876   3877     1
   3876   3899     1
   3876   3892     1
   3876   3887     1
   3876   3888     1
   3877   3890     1
   3877   3891     1
   3878   3899     1
   3878   3889     1
   3878   3881     1
   3878   3882     1
   3879   3899     1
   3879   3889     1
   3879   3881     1
   3879   3882     1
   3880   3899     1
   3881   3898     1
   3881   3890     1
   3881   3891     1
   3882   3898     1
   3882   3890     1
   3882   3891     1
   3883   3899     1
   3884   6706     1
   3884   3896     1
   3884   3897     1
   3885   6706     1
   3885   3896     1
   3885   3897     1
   3886   3899     1
   3887   6692     1
   3887   3893     1
   3887   3894     1
   3888   6692     1
   3888   3893     1
   3888   3894     1
   3892   6687     1
   3892   6688     1
   3893   6686     1
   3894   6686     1
   3895   6701     1
   3895   6702     1
   3896   6700     1
   3897   6700     1
   3900   3914     1
   3900   3915     1
   3900   3917     1
   3900   3918     1
   3900   3911     1
   3900   3912     1
   3901   3905     1
   3901   3906     1
   3901   3908     1
   3901   3909     1
   3901   3926     1
   3901   3927     1
   3902   3904     1
   3902   3907     1
   3902   3929     1
   3902   3925     1
   3902   3914     1
   3902   3915     1
   3903   3904     1
   3903   3907     1
   3903   3929     1
   3903   3925     1
   3903   3914     1
   3903   3915     1
   3904   3908     1
   3904   3909     1
   3904   3923     1
   3904   3924     1
   3905   3907     1
   3905   3929     1
   3905   3922     1
   3905   3917     1
   3905   3918     1
   3906   3907     1
   3906   3929     1
   3906   3922     1
   3906   3917     1
   3906   3918     1
   3907   3920     1
   3907   3921     1
   3908   3929     1
   3908   3919     1
   3908   3911     1
   3908   3912     1
   3909   3929     1
   3909   3919     1
   3909   3911     1
   3909   3912     1
   3910   3929     1
   3911   3928     1
   3911   3920     1
   3911   3921     1
   3912   3928     1
   3912   3920     1
   3912   3921     1
   3913   3929     1
   3914   6734     1
   3914   3926     1
   3914   3927     1
   3915   6734     1
   3915   3926     1
   3915   3927     1
   3916   3929     1
   3917   6720     1
   3917   3923     1
   3917   3924     1
   3918   6720     1
   3918   3923     1
   3918   3924     1
   3922   6715     1
   3922   6716     1
   3923   6714     1
   3924   6714     1
   3925   6729     1
   3925   6730     1
   3926   6728     1
   3927   6728     1
   3930   3944     1
   3930   3945     1
   3930   3947     1
   3930   3948     1
   3930   3941     1
   3930   3942     1
   3931   3935     1
   3931   3936     1
   3931   3938     1
   3931   3939     1
   3931   3956     1
   3931   3957     1
   3932   3934     1
   3932   3937     1
   3932   3959     1
   3932   3955     1
   3932   3944     1
   3932   3945     1
   3933   3934     1
   3933   3937     1
   3933   3959     1
   3933   3955     1
   3933   3944     1
   3933   3945     1
   3934   3938     1
   3934   3939     1
   3934   3953     1
   3934   3954     1
   3935   3937     1
   3935   3959     1
   3935   3952     1
   3935   3947     1
   3935   3948     1
   3936   3937     1
   3936   3959     1
   3936   3952     1
   3936   3947     1
   3936   3948     1
   3937   3950     1
   3937   3951     1
   3938   3959     1
   3938   3949     1
   3938   3941     1
   3938   3942     1
   3939   3959     1
   3939   3949     1
   3939   3941     1
   3939   3942     1
   3940   3959     1
   3941   3958     1
   3941   3950     1
   3941   3951     1
   3942   3958     1
   3942   3950     1
   3942   3951     1
   3943   3959     1
   3944   6762     1
   3944   3956     1
   3944   3957     1
   3945   6762     1
   3945   3956     1
   3945   3957     1
   3946   3959     1
   3947   6748     1
   3947   3953     1
   3947   3954     1
   3948   6748     1
   3948   3953     1
   3948   3954     1
   3952   6743     1
   3952   6744     1
   3953   6742     1
   3954   6742     1
   3955   6757     1
   3955   6758     1
   3956   6756     1
   3957   6756     1
   3960   3974     1
   3960   3975     1
   3960   3977     1
   3960   3978     1
   3960   3971     1
   3960   3972     1
   3961   3965     1
   3961   3966     1
   3961   3968     1
   3961   3969     1
   3961   3986     1
   3961   3987     1
   3962   3964     1
   3962   3967     1
   3962   3989     1
   3962   3985     1
   3962   3974     1
   3962   3975     1
   3963   3964     1
   3963   3967     1
   3963   3989     1
   3963   3985     1
   3963   3974     1
   3963   3975     1
   3964   3968     1
   3964   3969     1
   3964   3983     1
   3964   3984     1
   3965   3967     1
   3965   3989     1
   3965   3982     1
   3965   3977     1
   3965   3978     1
   3966   3967     1
   3966   3989     1
   3966   3982     1
   3966   3977     1
   3966   3978     1
   3967   3980     1
   3967   3981     1
   3968   3989     1
   3968   3979     1
   3968   3971     1
   3968   3972     1
   3969   3989     1
   3969   3979     1
   3969   3971     1
   3969   3972     1
   3970   3989     1
   3971   3988     1
   3971   3980     1
   3971   3981     1
   3972   3988     1
   3972   3980     1
   3972   3981     1
   3973   3989     1
   3974   6790     1
   3974   3986     1
   3974   3987     1
   3975   6790     1
   3975   3986     1
   3975   3987     1
   3976   3989     1
   3977   6776     1
   3977   3983     1
   3977   3984     1
   3978   6776     1
   3978   3983     1
   3978   3984     1
   3982   6771     1
   3982   6772     1
   3983   6770     1
   3984   6770     1
   3985   6785     1
   3985   6786     1
   3986   6784     1
   3987   6784     1
   3990   4004     1
   3990   4005     1
   3990   4007     1
   3990   4008     1
   3990   4001     1
   3990   4002     1
   3991   3995     1
   3991   3996     1
   3991   3998     1
   3991   3999     1
   3991   4016     1
   3991   4017     1
   3992   3994     1
   3992   3997     1
   3992   4019     1
   3992   4015     1
   3992   4004     1
   3992   4005     1
   3993   3994     1
   3993   3997     1
   3993   4019     1
   3993   4015     1
   3993   4004     1
   3993   4005     1
   3994   3998     1
   3994   3999     1
   3994   4013     1
   3994   4014     1
   3995   3997     1
   3995   4019     1
   3995   4012     1
   3995   4007     1
   3995   4008     1
   3996   3997     1
   3996   4019     1
   3996   4012     1
   3996   4007     1
   3996   4008     1
   3997   4010     1
   3997   4011     1
   3998   4019     1
   3998   4009     1
   3998   4001     1
   3998   4002     1
   3999   4019     1
   3999   4009     1
   3999   4001     1
   3999   4002     1
   4000   4019     1
   4001   4018     1
   4001   4010     1
   4001   4011     1
   4002   4018     1
   4002   4010     1
   4002   4011     1
   4003   4019     1
   4004   6818     1
   4004   4016     1
   4004   4017     1
   4005   6818     1
   4005   4016     1
   4005   4017     1
   4006   4019     1
   4007   6804     1
   4007   4013     1
   4007   4014     1
   4008   6804     1
   4008   4013     1
   4008   4014     1
   4012   6799     1
   4012   6800     1
   4013   6798     1
   4014   6798     1
   4015   6813     1
   4015   6814     1
   4016   6812     1
   4017   6812     1
   4020   4034     1
   4020   4035     1
   4020   4037     1
   4020   4038     1
   4020   4031     1
   4020   4032     1
   4021   4025     1
   4021   4026     1
   4021   4028     1
   4021   4029     1
   4021   4046     1
   4021   4047     1
   4022   4024     1
   4022   4027     1
   4022   4049     1
   4022   4045     1
   4022   4034     1
   4022   4035     1
   4023   4024     1
   4023   4027     1
   4023   4049     1
   4023   4045     1
   4023   4034     1
   4023   4035     1
   4024   4028     1
   4024   4029     1
   4024   4043     1
   4024   4044     1
   4025   4027     1
   4025   4049     1
   4025   4042     1
   4025   4037     1
   4025   4038     1
   4026   4027     1
   4026   4049     1
   4026   4042     1
   4026   4037     1
   4026   4038     1
   4027   4040     1
   4027   4041     1
   4028   4049     1
   4028   4039     1
   4028   4031     1
   4028   4032     1
   4029   4049     1
   4029   4039     1
   4029   4031     1
   4029   4032     1
   4030   4049     1
   4031   4048     1
   4031   4040     1
   4031   4041     1
   4032   4048     1
   4032   4040     1
   4032   4041     1
   4033   4049     1
   4034   6846     1
   4034   4046     1
   4034   4047     1
   4035   6846     1
   4035   4046     1
   4035   4047     1
   4036   4049     1
   4037   6832     1
   4037   4043     1
   4037   4044     1
   4038   6832     1
   4038   4043     1
   4038   4044     1
   4042   6827     1
   4042   6828     1
   4043   6826     1
   4044   6826     1
   4045   6841     1
   4045   6842     1
   4046   6840     1
   4047   6840     1
   4050   4064     1
   4050   4065     1
   4050   4067     1
   4050   4068     1
   4050   4061     1
   4050   4062     1
   4051   4055     1
   4051   4056     1
   4051   4058     1
   4051   4059     1
   4051   4076     1
   4051   4077     1
   4052   4054     1
   4052   4057     1
   4052   4079     1
   4052   4075     1
   4052   4064     1
   4052   4065     1
   4053   4054     1
   4053   4057     1
   4053   4079     1
   4053   4075     1
   4053   4064     1
   4053   4065     1
   4054   4058     1
   4054   4059     1
   4054   4073     1
   4054   4074     1
   4055   4057     1
   4055   4079     1
   4055   4072     1
   4055   4067     1
   4055   4068     1
   4056   4057     1
   4056   4079     1
   4056   4072     1
   4056   4067     1
   4056   4068     1
   4057   4070     1
   4057   4071     1
   4058   4079     1
   4058   4069     1
   4058   4061     1
   4058   4062     1
   4059   4079     1
   4059   4069     1
   4059   4061     1
   4059   4062     1
   4060   4079     1
   4061   4078     1
   4061   4070     1
   4061   4071     1
   4062   4078     1
   4062   4070     1
   4062   4071     1
   4063   4079     1
   4064   6874     1
   4064   4076     1
   4064   4077     1
   4065   6874     1
   4065   4076     1
   4065   4077     1
   4066   4079     1
   4067   6860     1
   4067   4073     1
   4067   4074     1
   4068   6860     1
   4068   4073     1
   4068   4074     1
   4072   6855     1
   4072   6856     1
   4073   6854     1
   4074   6854     1
   4075   6869     1
   4075   6870     1
   4076   6868     1
   4077   6868     1
   4080   4094     1
   4080   4095     1
   4080   4097     1
   4080   4098     1
   4080   4091     1
   4080   4092     1
   4081   4085     1
   4081   4086     1
   4081   4088     1
   4081   4089     1
   4081   4106     1
   4081   4107     1
   4082   4084     1
   4082   4087     1
   4082   4109     1
   4082   4105     1
   4082   4094     1
   4082   4095     1
   4083   4084     1
   4083   4087     1
   4083   4109     1
   4083   4105     1
   4083   4094     1
   4083   4095     1
   4084   4088     1
   4084   4089     1
   4084   4103     1
   4084   4104     1
   4085   4087     1
   4085   4109     1
   4085   4102     1
   4085   4097     1
   4085   4098     1
   4086   4087     1
   4086   4109     1
   4086   4102     1
   4086   4097     1
   4086   4098     1
   4087   4100     1
   4087   4101     1
   4088   4109     1
   4088   4099     1
   4088   4091     1
   4088   4092     1
   4089   4109     1
   4089   4099     1
   4089   4091     1
   4089   4092     1
   4090   4109     1
   4091   4108     1
   4091   4100     1
   4091   4101     1
   4092   4108     1
   4092   4100     1
   4092   4101     1
   4093   4109     1
   4094   6902     1
   4094   4106     1
   4094   4107     1
   4095   6902     1
   4095   4106     1
   4095   4107     1
   4096   4109     1
   4097   6888     1
   4097   4103     1
   4097   4104     1
   4098   6888     1
   4098   4103     1
   4098   4104     1
   4102   6883     1
   4102   6884     1
   4103   6882     1
   4104   6882     1
   4105   6897     1
   4105   6898     1
   4106   6896     1
   4107   6896     1
   4110   4124     1
   4110   4125     1
   4110   4127     1
   4110   4128     1
   4110   4121     1
   4110   4122     1
   4111   4115     1
   4111   4116     1
   4111   4118     1
   4111   4119     1
   4111   4136     1
   4111   4137     1
   4112   4114     1
   4112   4117     1
   4112   4139     1
   4112   4135     1
   4112   4124     1
   4112   4125     1
   4113   4114     1
   4113   4117     1
   4113   4139     1
   4113   4135     1
   4113   4124     1
   4113   4125     1
   4114   4118     1
   4114   4119     1
   4114   4133     1
   4114   4134     1
   4115   4117     1
   4115   4139     1
   4115   4132     1
   4115   4127     1
   4115   4128     1
   4116   4117     1
   4116   4139     1
   4116   4132     1
   4116   4127     1
   4116   4128     1
   4117   4130     1
   4117   4131     1
   4118   4139     1
   4118   4129     1
   4118   4121     1
   4118   4122     1
   4119   4139     1
   4119   4129     1
   4119   4121     1
   4119   4122     1
   4120   4139     1
   4121   4138     1
   4121   4130     1
   4121   4131     1
   4122   4138     1
   4122   4130     1
   4122   4131     1
   4123   4139     1
   4124   6930     1
   4124   4136     1
   4124   4137     1
   4125   6930     1
   4125   4136     1
   4125   4137     1
   4126   4139     1
   4127   6916     1
   4127   4133     1
   4127   4134     1
   4128   6916     1
   4128   4133     1
   4128   4134     1
   4132   6911     1
   4132   6912     1
   4133   6910     1
   4134   6910     1
   4135   6925     1
   4135   6926     1
   4136   6924     1
   4137   6924     1
   4140   4154     1
   4140   4155     1
   4140   4157     1
   4140   4158     1
   4140   4151     1
   4140   4152     1
   4141   4145     1
   4141   4146     1
   4141   4148     1
   4141   4149     1
   4141   4166     1
   4141   4167     1
   4142   4144     1
   4142   4147     1
   4142   4169     1
   4142   4165     1
   4142   4154     1
   4142   4155     1
   4143   4144     1
   4143   4147     1
   4143   4169     1
   4143   4165     1
   4143   4154     1
   4143   4155     1
   4144   4148     1
   4144   4149     1
   4144   4163     1
   4144   4164     1
   4145   4147     1
   4145   4169     1
   4145   4162     1
   4145   4157     1
   4145   4158     1
   4146   4147     1
   4146   4169     1
   4146   4162     1
   4146   4157     1
   4146   4158     1
   4147   4160     1
   4147   4161     1
   4148   4169     1
   4148   4159     1
   4148   4151     1
   4148   4152     1
   4149   4169     1
   4149   4159     1
   4149   4151     1
   4149   4152     1
   4150   4169     1
   4151   4168     1
   4151   4160     1
   4151   4161     1
   4152   4168     1
   4152   4160     1
   4152   4161     1
   4153   4169     1
   4154   6958     1
   4154   4166     1
   4154   4167     1
   4155   6958     1
   4155   4166     1
   4155   4167     1
   4156   4169     1
   4157   6944     1
   4157   4163     1
   4157   4164     1
   4158   6944     1
   4158   4163     1
   4158   4164     1
   4162   6939     1
   4162   6940     1
   4163   6938     1
   4164   6938     1
   4165   6953     1
   4165   6954     1
   4166   6952     1
   4167   6952     1
   4170   4184     1
   4170   4185     1
   4170   4187     1
   4170   4188     1
   4170   4181     1
   4170   4182     1
   4171   4175     1
   4171   4176     1
   4171   4178     1
   4171   4179     1
   4171   4196     1
   4171   4197     1
   4172   4174     1
   4172   4177     1
   4172   4199     1
   4172   4195     1
   4172   4184     1
   4172   4185     1
   4173   4174     1
   4173   4177     1
   4173   4199     1
   4173   4195     1
   4173   4184     1
   4173   4185     1
   4174   4178     1
   4174   4179     1
   4174   4193     1
   4174   4194     1
   4175   4177     1
   4175   4199     1
   4175   4192     1
   4175   4187     1
   4175   4188     1
   4176   4177     1
   4176   4199     1
   4176   4192     1
   4176   4187     1
   4176   4188     1
   4177   4190     1
   4177   4191     1
   4178   4199     1
   4178   4189     1
   4178   4181     1
   4178   4182     1
   4179   4199     1
   4179   4189     1
   4179   4181     1
   4179   4182     1
   4180   4199     1
   4181   4198     1
   4181   4190     1
   4181   4191     1
   4182   4198     1
   4182   4190     1
   4182   4191     1
   4183   4199     1
   4184   6986     1
   4184   4196     1
   4184   4197     1
   4185   6986     1
   4185   4196     1
   4185   4197     1
   4186   4199     1
   4187   6972     1
   4187   4193     1
   4187   4194     1
   4188   6972     1
   4188   4193     1
   4188   4194     1
   4192   6967     1
   4192   6968     1
   4193   6966     1
   4194   6966     1
   4195   6981     1
   4195   6982     1
   4196   6980     1
   4197   6980     1
   4200   4214     1
   4200   4215     1
   4200   4217     1
   4200   4218     1
   4200   4211     1
   4200   4212     1
   4201   4205     1
   4201   4206     1
   4201   4208     1
   4201   4209     1
   4201   4226     1
   4201   4227     1
   4202   4204     1
   4202   4207     1
   4202   4229     1
   4202   4225     1
   4202   4214     1
   4202   4215     1
   4203   4204     1
   4203   4207     1
   4203   4229     1
   4203   4225     1
   4203   4214     1
   4203   4215     1
   4204   4208     1
   4204   4209     1
   4204   4223     1
   4204   4224     1
   4205   4207     1
   4205   4229     1
   4205   4222     1
   4205   4217     1
   4205   4218     1
   4206   4207     1
   4206   4229     1
   4206   4222     1
   4206   4217     1
   4206   4218     1
   4207   4220     1
   4207   4221     1
   4208   4229     1
   4208   4219     1
   4208   4211     1
   4208   4212     1
   4209   4229     1
   4209   4219     1
   4209   4211     1
   4209   4212     1
   4210   4229     1
   4211   4228     1
   4211   4220     1
   4211   4221     1
   4212   4228     1
   4212   4220     1
   4212   4221     1
   4213   4229     1
   4214   7014     1
   4214   4226     1
   4214   4227     1
   4215   7014     1
   4215   4226     1
   4215   4227     1
   4216   4229     1
   4217   7000     1
   4217   4223     1
   4217   4224     1
   4218   7000     1
   4218   4223     1
   4218   4224     1
   4222   6995     1
   4222   6996     1
   4223   6994     1
   4224   6994     1
   4225   7009     1
   4225   7010     1
   4226   7008     1
   4227   7008     1
   4230   4244     1
   4230   4245     1
   4230   4247     1
   4230   4248     1
   4230   4241     1
   4230   4242     1
   4231   4235     1
   4231   4236     1
   4231   4238     1
   4231   4239     1
   4231   4256     1
   4231   4257     1
   4232   4234     1
   4232   4237     1
   4232   4259     1
   4232   4255     1
   4232   4244     1
   4232   4245     1
   4233   4234     1
   4233   4237     1
   4233   4259     1
   4233   4255     1
   4233   4244     1
   4233   4245     1
   4234   4238     1
   4234   4239     1
   4234   4253     1
   4234   4254     1
   4235   4237     1
   4235   4259     1
   4235   4252     1
   4235   4247     1
   4235   4248     1
   4236   4237     1
   4236   4259     1
   4236   4252     1
   4236   4247     1
   4236   4248     1
   4237   4250     1
   4237   4251     1
   4238   4259     1
   4238   4249     1
   4238   4241     1
   4238   4242     1
   4239   4259     1
   4239   4249     1
   4239   4241     1
   4239   4242     1
   4240   4259     1
   4241   4258     1
   4241   4250     1
   4241   4251     1
   4242   4258     1
   4242   4250     1
   4242   4251     1
   4243   4259     1
   4244   7042     1
   4244   4256     1
   4244   4257     1
   4245   7042     1
   4245   4256     1
   4245   4257     1
   4246   4259     1
   4247   7028     1
   4247   4253     1
   4247   4254     1
   4248   7028     1
   4248   4253     1
   4248   4254     1
   4252   7023     1
   4252   7024     1
   4253   7022     1
   4254   7022     1
   4255   7037     1
   4255   7038     1
   4256   7036     1
   4257   7036     1
   4260   4274     1
   4260   4275     1
   4260   4277     1
   4260   4278     1
   4260   4271     1
   4260   4272     1
   4261   4265     1
   4261   4266     1
   4261   4268     1
   4261   4269     1
   4261   4286     1
   4261   4287     1
   4262   4264     1
   4262   4267     1
   4262   4289     1
   4262   4285     1
   4262   4274     1
   4262   4275     1
   4263   4264     1
   4263   4267     1
   4263   4289     1
   4263   4285     1
   4263   4274     1
   4263   4275     1
   4264   4268     1
   4264   4269     1
   4264   4283     1
   4264   4284     1
   4265   4267     1
   4265   4289     1
   4265   4282     1
   4265   4277     1
   4265   4278     1
   4266   4267     1
   4266   4289     1
   4266   4282     1
   4266   4277     1
   4266   4278     1
   4267   4280     1
   4267   4281     1
   4268   4289     1
   4268   4279     1
   4268   4271     1
   4268   4272     1
   4269   4289     1
   4269   4279     1
   4269   4271     1
   4269   4272     1
   4270   4289     1
   4271   4288     1
   4271   4280     1
   4271   4281     1
   4272   4288     1
   4272   4280     1
   4272   4281     1
   4273   4289     1
   4274   7070     1
   4274   4286     1
   4274   4287     1
   4275   7070     1
   4275   4286     1
   4275   4287     1
   4276   4289     1
   4277   7056     1
   4277   4283     1
   4277   4284     1
   4278   7056     1
   4278   4283     1
   4278   4284     1
   4282   7051     1
   4282   7052     1
   4283   7050     1
   4284   7050     1
   4285   7065     1
   4285   7066     1
   4286   7064     1
   4287   7064     1
   4290   4304     1
   4290   4305     1
   4290   4307     1
   4290   4308     1
   4290   4301     1
   4290   4302     1
   4291   4295     1
   4291   4296     1
   4291   4298     1
   4291   4299     1
   4291   4316     1
   4291   4317     1
   4292   4294     1
   4292   4297     1
   4292   4319     1
   4292   4315     1
   4292   4304     1
   4292   4305     1
   4293   4294     1
   4293   4297     1
   4293   4319     1
   4293   4315     1
   4293   4304     1
   4293   4305     1
   4294   4298     1
   4294   4299     1
   4294   4313     1
   4294   4314     1
   4295   4297     1
   4295   4319     1
   4295   4312     1
   4295   4307     1
   4295   4308     1
   4296   4297     1
   4296   4319     1
   4296   4312     1
   4296   4307     1
   4296   4308     1
   4297   4310     1
   4297   4311     1
   4298   4319     1
   4298   4309     1
   4298   4301     1
   4298   4302     1
   4299   4319     1
   4299   4309     1
   4299   4301     1
   4299   4302     1
   4300   4319     1
   4301   4318     1
   4301   4310     1
   4301   4311     1
   4302   4318     1
   4302   4310     1
   4302   4311     1
   4303   4319     1
   4304   7098     1
   4304   4316     1
   4304   4317     1
   4305   7098     1
   4305   4316     1
   4305   4317     1
   4306   4319     1
   4307   7084     1
   4307   4313     1
   4307   4314     1
   4308   7084     1
   4308   4313     1
   4308   4314     1
   4312   7079     1
   4312   7080     1
   4313   7078     1
   4314   7078     1
   4315   7093     1
   4315   7094     1
   4316   7092     1
   4317   7092     1
   4320   4334     1
   4320   4335     1
   4320   4337     1
   4320   4338     1
   4320   4331     1
   4320   4332     1
   4321   4325     1
   4321   4326     1
   4321   4328     1
   4321   4329     1
   4321   4346     1
   4321   4347     1
   4322   4324     1
   4322   4327     1
   4322   4349     1
   4322   4345     1
   4322   4334     1
   4322   4335     1
   4323   4324     1
   4323   4327     1
   4323   4349     1
   4323   4345     1
   4323   4334     1
   4323   4335     1
   4324   4328     1
   4324   4329     1
   4324   4343     1
   4324   4344     1
   4325   4327     1
   4325   4349     1
   4325   4342     1
   4325   4337     1
   4325   4338     1
   4326   4327     1
   4326   4349     1
   4326   4342     1
   4326   4337     1
   4326   4338     1
   4327   4340     1
   4327   4341     1
   4328   4349     1
   4328   4339     1
   4328   4331     1
   4328   4332     1
   4329   4349     1
   4329   4339     1
   4329   4331     1
   4329   4332     1
   4330   4349     1
   4331   4348     1
   4331   4340     1
   4331   4341     1
   4332   4348     1
   4332   4340     1
   4332   4341     1
   4333   4349     1
   4334   7126     1
   4334   4346     1
   4334   4347     1
   4335   7126     1
   4335   4346     1
   4335   4347     1
   4336   4349     1
   4337   7112     1
   4337   4343     1
   4337   4344     1
   4338   7112     1
   4338   4343     1
   4338   4344     1
   4342   7107     1
   4342   7108     1
   4343   7106     1
   4344   7106     1
   4345   7121     1
   4345   7122     1
   4346   7120     1
   4347   7120     1
   4350   4364     1
   4350   4365     1
   4350   4367     1
   4350   4368     1
   4350   4361     1
   4350   4362     1
   4351   4355     1
   4351   4356     1
   4351   4358     1
   4351   4359     1
   4351   4376     1
   4351   4377     1
   4352   4354     1
   4352   4357     1
   4352   4379     1
   4352   4375     1
   4352   4364     1
   4352   4365     1
   4353   4354     1
   4353   4357     1
   4353   4379     1
   4353   4375     1
   4353   4364     1
   4353   4365     1
   4354   4358     1
   4354   4359     1
   4354   4373     1
   4354   4374     1
   4355   4357     1
   4355   4379     1
   4355   4372     1
   4355   4367     1
   4355   4368     1
   4356   4357     1
   4356   4379     1
   4356   4372     1
   4356   4367     1
   4356   4368     1
   4357   4370     1
   4357   4371     1
   4358   4379     1
   4358   4369     1
   4358   4361     1
   4358   4362     1
   4359   4379     1
   4359   4369     1
   4359   4361     1
   4359   4362     1
   4360   4379     1
   4361   4378     1
   4361   4370     1
   4361   4371     1
   4362   4378     1
   4362   4370     1
   4362   4371     1
   4363   4379     1
   4364   7154     1
   4364   4376     1
   4364   4377     1
   4365   7154     1
   4365   4376     1
   4365   4377     1
   4366   4379     1
   4367   7140     1
   4367   4373     1
   4367   4374     1
   4368   7140     1
   4368   4373     1
   4368   4374     1
   4372   7135     1
   4372   7136     1
   4373   7134     1
   4374   7134     1
   4375   7149     1
   4375   7150     1
   4376   7148     1
   4377   7148     1
   4380   4394     1
   4380   4395     1
   4380   4397     1
   4380   4398     1
   4380   4391     1
   4380   4392     1
   4381   4385     1
   4381   4386     1
   4381   4388     1
   4381   4389     1
   4381   4406     1
   4381   4407     1
   4382   4384     1
   4382   4387     1
   4382   4409     1
   4382   4405     1
   4382   4394     1
   4382   4395     1
   4383   4384     1
   4383   4387     1
   4383   4409     1
   4383   4405     1
   4383   4394     1
   4383   4395     1
   4384   4388     1
   4384   4389     1
   4384   4403     1
   4384   4404     1
   4385   4387     1
   4385   4409     1
   4385   4402     1
   4385   4397     1
   4385   4398     1
   4386   4387     1
   4386   4409     1
   4386   4402     1
   4386   4397     1
   4386   4398     1
   4387   4400     1
   4387   4401     1
   4388   4409     1
   4388   4399     1
   4388   4391     1
   4388   4392     1
   4389   4409     1
   4389   4399     1
   4389   4391     1
   4389   4392     1
   4390   4409     1
   4391   4408     1
   4391   4400     1
   4391   4401     1
   4392   4408     1
   4392   4400     1
   4392   4401     1
   4393   4409     1
   4394   7182     1
   4394   4406     1
   4394   4407     1
   4395   7182     1
   4395   4406     1
   4395   4407     1
   4396   4409     1
   4397   7168     1
   4397   4403     1
   4397   4404     1
   4398   7168     1
   4398   4403     1
   4398   4404     1
   4402   7163     1
   4402   7164     1
   4403   7162     1
   4404   7162     1
   4405   7177     1
   4405   7178     1
   4406   7176     1
   4407   7176     1
   4410   4424     1
   4410   4425     1
   4410   4427     1
   4410   4428     1
   4410   4421     1
   4410   4422     1
   4411   4415     1
   4411   4416     1
   4411   4418     1
   4411   4419     1
   4411   4436     1
   4411   4437     1
   4412   4414     1
   4412   4417     1
   4412   4439     1
   4412   4435     1
   4412   4424     1
   4412   4425     1
   4413   4414     1
   4413   4417     1
   4413   4439     1
   4413   4435     1
   4413   4424     1
   4413   4425     1
   4414   4418     1
   4414   4419     1
   4414   4433     1
   4414   4434     1
   4415   4417     1
   4415   4439     1
   4415   4432     1
   4415   4427     1
   4415   4428     1
   4416   4417     1
   4416   4439     1
   4416   4432     1
   4416   4427     1
   4416   4428     1
   4417   4430     1
   4417   4431     1
   4418   4439     1
   4418   4429     1
   4418   4421     1
   4418   4422     1
   4419   4439     1
   4419   4429     1
   4419   4421     1
   4419   4422     1
   4420   4439     1
   4421   4438     1
   4421   4430     1
   4421   4431     1
   4422   4438     1
   4422   4430     1
   4422   4431     1
   4423   4439     1
   4424   7210     1
   4424   4436     1
   4424   4437     1
   4425   7210     1
   4425   4436     1
   4425   4437     1
   4426   4439     1
   4427   7196     1
   4427   4433     1
   4427   4434     1
   4428   7196     1
   4428   4433     1
   4428   4434     1
   4432   7191     1
   4432   7192     1
   4433   7190     1
   4434   7190     1
   4435   7205     1
   4435   7206     1
   4436   7204     1
   4437   7204     1
   4440   4454     1
   4440   4455     1
   4440   4457     1
   4440   4458     1
   4440   4451     1
   4440   4452     1
   4441   4445     1
   4441   4446     1
   4441   4448     1
   4441   4449     1
   4441   4466     1
   4441   4467     1
   4442   4444     1
   4442   4447     1
   4442   4469     1
   4442   4465     1
   4442   4454     1
   4442   4455     1
   4443   4444     1
   4443   4447     1
   4443   4469     1
   4443   4465     1
   4443   4454     1
   4443   4455     1
   4444   4448     1
   4444   4449     1
   4444   4463     1
   4444   4464     1
   4445   4447     1
   4445   4469     1
   4445   4462     1
   4445   4457     1
   4445   4458     1
   4446   4447     1
   4446   4469     1
   4446   4462     1
   4446   4457     1
   4446   4458     1
   4447   4460     1
   4447   4461     1
   4448   4469     1
   4448   4459     1
   4448   4451     1
   4448   4452     1
   4449   4469     1
   4449   4459     1
   4449   4451     1
   4449   4452     1
   4450   4469     1
   4451   4468     1
   4451   4460     1
   4451   4461     1
   4452   4468     1
   4452   4460     1
   4452   4461     1
   4453   4469     1
   4454   7238     1
   4454   4466     1
   4454   4467     1
   4455   7238     1
   4455   4466     1
   4455   4467     1
   4456   4469     1
   4457   7224     1
   4457   4463     1
   4457   4464     1
   4458   7224     1
   4458   4463     1
   4458   4464     1
   4462   7219     1
   4462   7220     1
   4463   7218     1
   4464   7218     1
   4465   7233     1
   4465   7234     1
   4466   7232     1
   4467   7232     1
   4470   4484     1
   4470   4485     1
   4470   4487     1
   4470   4488     1
   4470   4481     1
   4470   4482     1
   4471   4475     1
   4471   4476     1
   4471   4478     1
   4471   4479     1
   4471   4496     1
   4471   4497     1
   4472   4474     1
   4472   4477     1
   4472   4499     1
   4472   4495     1
   4472   4484     1
   4472   4485     1
   4473   4474     1
   4473   4477     1
   4473   4499     1
   4473   4495     1
   4473   4484     1
   4473   4485     1
   4474   4478     1
   4474   4479     1
   4474   4493     1
   4474   4494     1
   4475   4477     1
   4475   4499     1
   4475   4492     1
   4475   4487     1
   4475   4488     1
   4476   4477     1
   4476   4499     1
   4476   4492     1
   4476   4487     1
   4476   4488     1
   4477   4490     1
   4477   4491     1
   4478   4499     1
   4478   4489     1
   4478   4481     1
   4478   4482     1
   4479   4499     1
   4479   4489     1
   4479   4481     1
   4479   4482     1
   4480   4499     1
   4481   4498     1
   4481   4490     1
   4481   4491     1
   4482   4498     1
   4482   4490     1
   4482   4491     1
   4483   4499     1
   4484   7266     1
   4484   4496     1
   4484   4497     1
   4485   7266     1
   4485   4496     1
   4485   4497     1
   4486   4499     1
   4487   7252     1
   4487   4493     1
   4487   4494     1
   4488   7252     1
   4488   4493     1
   4488   4494     1
   4492   7247     1
   4492   7248     1
   4493   7246     1
   4494   7246     1
   4495   7261     1
   4495   7262     1
   4496   7260     1
   4497   7260     1
   4500   4514     1
   4500   4515     1
   4500   4517     1
   4500   4518     1
   4500   4511     1
   4500   4512     1
   4501   4505     1
   4501   4506     1
   4501   4508     1
   4501   4509     1
   4501   4526     1
   4501   4527     1
   4502   4504     1
   4502   4507     1
   4502   4529     1
   4502   4525     1
   4502   4514     1
   4502   4515     1
   4503   4504     1
   4503   4507     1
   4503   4529     1
   4503   4525     1
   4503   4514     1
   4503   4515     1
   4504   4508     1
   4504   4509     1
   4504   4523     1
   4504   4524     1
   4505   4507     1
   4505   4529     1
   4505   4522     1
   4505   4517     1
   4505   4518     1
   4506   4507     1
   4506   4529     1
   4506   4522     1
   4506   4517     1
   4506   4518     1
   4507   4520     1
   4507   4521     1
   4508   4529     1
   4508   4519     1
   4508   4511     1
   4508   4512     1
   4509   4529     1
   4509   4519     1
   4509   4511     1
   4509   4512     1
   4510   4529     1
   4511   4528     1
   4511   4520     1
   4511   4521     1
   4512   4528     1
   4512   4520     1
   4512   4521     1
   4513   4529     1
   4514   7294     1
   4514   4526     1
   4514   4527     1
   4515   7294     1
   4515   4526     1
   4515   4527     1
   4516   4529     1
   4517   7280     1
   4517   4523     1
   4517   4524     1
   4518   7280     1
   4518   4523     1
   4518   4524     1
   4522   7275     1
   4522   7276     1
   4523   7274     1
   4524   7274     1
   4525   7289     1
   4525   7290     1
   4526   7288     1
   4527   7288     1
   4530   4544     1
   4530   4545     1
   4530   4547     1
   4530   4548     1
   4530   4541     1
   4530   4542     1
   4531   4535     1
   4531   4536     1
   4531   4538     1
   4531   4539     1
   4531   4556     1
   4531   4557     1
   4532   4534     1
   4532   4537     1
   4532   4559     1
   4532   4555     1
   4532   4544     1
   4532   4545     1
   4533   4534     1
   4533   4537     1
   4533   4559     1
   4533   4555     1
   4533   4544     1
   4533   4545     1
   4534   4538     1
   4534   4539     1
   4534   4553     1
   4534   4554     1
   4535   4537     1
   4535   4559     1
   4535   4552     1
   4535   4547     1
   4535   4548     1
   4536   4537     1
   4536   4559     1
   4536   4552     1
   4536   4547     1
   4536   4548     1
   4537   4550     1
   4537   4551     1
   4538   4559     1
   4538   4549     1
   4538   4541     1
   4538   4542     1
   4539   4559     1
   4539   4549     1
   4539   4541     1
   4539   4542     1
   4540   4559     1
   4541   4558     1
   4541   4550     1
   4541   4551     1
   4542   4558     1
   4542   4550     1
   4542   4551     1
   4543   4559     1
   4544   7322     1
   4544   4556     1
   4544   4557     1
   4545   7322     1
   4545   4556     1
   4545   4557     1
   4546   4559     1
   4547   7308     1
   4547   4553     1
   4547   4554     1
   4548   7308     1
   4548   4553     1
   4548   4554     1
   4552   7303     1
   4552   7304     1
   4553   7302     1
   4554   7302     1
   4555   7317     1
   4555   7318     1
   4556   7316     1
   4557   7316     1
   4560   4574     1
   4560   4575     1
   4560   4577     1
   4560   4578     1
   4560   4571     1
   4560   4572     1
   4561   4565     1
   4561   4566     1
   4561   4568     1
   4561   4569     1
   4561   4586     1
   4561   4587     1
   4562   4564     1
   4562   4567     1
   4562   4589     1
   4562   4585     1
   4562   4574     1
   4562   4575     1
   4563   4564     1
   4563   4567     1
   4563   4589     1
   4563   4585     1
   4563   4574     1
   4563   4575     1
   4564   4568     1
   4564   4569     1
   4564   4583     1
   4564   4584     1
   4565   4567     1
   4565   4589     1
   4565   4582     1
   4565   4577     1
   4565   4578     1
   4566   4567     1
   4566   4589     1
   4566   4582     1
   4566   4577     1
   4566   4578     1
   4567   4580     1
   4567   4581     1
   4568   4589     1
   4568   4579     1
   4568   4571     1
   4568   4572     1
   4569   4589     1
   4569   4579     1
   4569   4571     1
   4569   4572     1
   4570   4589     1
   4571   4588     1
   4571   4580     1
   4571   4581     1
   4572   4588     1
   4572   4580     1
   4572   4581     1
   4573   4589     1
   4574   7350     1
   4574   4586     1
   4574   4587     1
   4575   7350     1
   4575   4586     1
   4575   4587     1
   4576   4589     1
   4577   7336     1
   4577   4583     1
   4577   4584     1
   4578   7336     1
   4578   4583     1
   4578   4584     1
   4582   7331     1
   4582   7332     1
   4583   7330     1
   4584   7330     1
   4585   7345     1
   4585   7346     1
   4586   7344     1
   4587   7344     1
   4590   4604     1
   4590   4605     1
   4590   4607     1
   4590   4608     1
   4590   4601     1
   4590   4602     1
   4591   4595     1
   4591   4596     1
   4591   4598     1
   4591   4599     1
   4591   4616     1
   4591   4617     1
   4592   4594     1
   4592   4597     1
   4592   4619     1
   4592   4615     1
   4592   4604     1
   4592   4605     1
   4593   4594     1
   4593   4597     1
   4593   4619     1
   4593   4615     1
   4593   4604     1
   4593   4605     1
   4594   4598     1
   4594   4599     1
   4594   4613     1
   4594   4614     1
   4595   4597     1
   4595   4619     1
   4595   4612     1
   4595   4607     1
   4595   4608     1
   4596   4597     1
   4596   4619     1
   4596   4612     1
   4596   4607     1
   4596   4608     1
   4597   4610     1
   4597   4611     1
   4598   4619     1
   4598   4609     1
   4598   4601     1
   4598   4602     1
   4599   4619     1
   4599   4609     1
   4599   4601     1
   4599   4602     1
   4600   4619     1
   4601   4618     1
   4601   4610     1
   4601   4611     1
   4602   4618     1
   4602   4610     1
   4602   4611     1
   4603   4619     1
   4604   7378     1
   4604   4616     1
   4604   4617     1
   4605   7378     1
   4605   4616     1
   4605   4617     1
   4606   4619     1
   4607   7364     1
   4607   4613     1
   4607   4614     1
   4608   7364     1
   4608   4613     1
   4608   4614     1
   4612   7359     1
   4612   7360     1
   4613   7358     1
   4614   7358     1
   4615   7373     1
   4615   7374     1
   4616   7372     1
   4617   7372     1
   4620   4634     1
   4620   4635     1
   4620   4637     1
   4620   4638     1
   4620   4631     1
   4620   4632     1
   4621   4625     1
   4621   4626     1
   4621   4628     1
   4621   4629     1
   4621   4646     1
   4621   4647     1
   4622   4624     1
   4622   4627     1
   4622   4649     1
   4622   4645     1
   4622   4634     1
   4622   4635     1
   4623   4624     1
   4623   4627     1
   4623   4649     1
   4623   4645     1
   4623   4634     1
   4623   4635     1
   4624   4628     1
   4624   4629     1
   4624   4643     1
   4624   4644     1
   4625   4627     1
   4625   4649     1
   4625   4642     1
   4625   4637     1
   4625   4638     1
   4626   4627     1
   4626   4649     1
   4626   4642     1
   4626   4637     1
   4626   4638     1
   4627   4640     1
   4627   4641     1
   4628   4649     1
   4628   4639     1
   4628   4631     1
   4628   4632     1
   4629   4649     1
   4629   4639     1
   4629   4631     1
   4629   4632     1
   4630   4649     1
   4631   4648     1
   4631   4640     1
   4631   4641     1
   4632   4648     1
   4632   4640     1
   4632   4641     1
   4633   4649     1
   4634   7406     1
   4634   4646     1
   4634   4647     1
   4635   7406     1
   4635   4646     1
   4635   4647     1
   4636   4649     1
   4637   7392     1
   4637   4643     1
   4637   4644     1
   4638   7392     1
   4638   4643     1
   4638   4644     1
   4642   7387     1
   4642   7388     1
   4643   7386     1
   4644   7386     1
   4645   7401     1
   4645   7402     1
   4646   7400     1
   4647   7400     1
   4650   4664     1
   4650   4665     1
   4650   4667     1
   4650   4668     1
   4650   4661     1
   4650   4662     1
   4651   4655     1
   4651   4656     1
   4651   4658     1
   4651   4659     1
   4651   4676     1
   4651   4677     1
   4652   4654     1
   4652   4657     1
   4652   4679     1
   4652   4675     1
   4652   4664     1
   4652   4665     1
   4653   4654     1
   4653   4657     1
   4653   4679     1
   4653   4675     1
   4653   4664     1
   4653   4665     1
   4654   4658     1
   4654   4659     1
   4654   4673     1
   4654   4674     1
   4655   4657     1
   4655   4679     1
   4655   4672     1
   4655   4667     1
   4655   4668     1
   4656   4657     1
   4656   4679     1
   4656   4672     1
   4656   4667     1
   4656   4668     1
   4657   4670     1
   4657   4671     1
   4658   4679     1
   4658   4669     1
   4658   4661     1
   4658   4662     1
   4659   4679     1
   4659   4669     1
   4659   4661     1
   4659   4662     1
   4660   4679     1
   4661   4678     1
   4661   4670     1
   4661   4671     1
   4662   4678     1
   4662   4670     1
   4662   4671     1
   4663   4679     1
   4664   7434     1
   4664   4676     1
   4664   4677     1
   4665   7434     1
   4665   4676     1
   4665   4677     1
   4666   4679     1
   4667   7420     1
   4667   4673     1
   4667   4674     1
   4668   7420     1
   4668   4673     1
   4668   4674     1
   4672   7415     1
   4672   7416     1
   4673   7414     1
   4674   7414     1
   4675   7429     1
   4675   7430     1
   4676   7428     1
   4677   7428     1
   4680   4694     1
   4680   4695     1
   4680   4697     1
   4680   4698     1
   4680   4691     1
   4680   4692     1
   4681   4685     1
   4681   4686     1
   4681   4688     1
   4681   4689     1
   4681   4706     1
   4681   4707     1
   4682   4684     1
   4682   4687     1
   4682   4709     1
   4682   4705     1
   4682   4694     1
   4682   4695     1
   4683   4684     1
   4683   4687     1
   4683   4709     1
   4683   4705     1
   4683   4694     1
   4683   4695     1
   4684   4688     1
   4684   4689     1
   4684   4703     1
   4684   4704     1
   4685   4687     1
   4685   4709     1
   4685   4702     1
   4685   4697     1
   4685   4698     1
   4686   4687     1
   4686   4709     1
   4686   4702     1
   4686   4697     1
   4686   4698     1
   4687   4700     1
   4687   4701     1
   4688   4709     1
   4688   4699     1
   4688   4691     1
   4688   4692     1
   4689   4709     1
   4689   4699     1
   4689   4691     1
   4689   4692     1
   4690   4709     1
   4691   4708     1
   4691   4700     1
   4691   4701     1
   4692   4708     1
   4692   4700     1
   4692   4701     1
   4693   4709     1
   4694   7462     1
   4694   4706     1
   4694   4707     1
   4695   7462     1
   4695   4706     1
   4695   4707     1
   4696   4709     1
   4697   7448     1
   4697   4703     1
   4697   4704     1
   4698   7448     1
   4698   4703     1
   4698   4704     1
   4702   7443     1
   4702   7444     1
   4703   7442     1
   4704   7442     1
   4705   7457     1
   4705   7458     1
   4706   7456     1
   4707   7456     1
   4710   4724     1
   4710   4725     1
   4710   4727     1
   4710   4728     1
   4710   4721     1
   4710   4722     1
   4711   4715     1
   4711   4716     1
   4711   4718     1
   4711   4719     1
   4711   4736     1
   4711   4737     1
   4712   4714     1
   4712   4717     1
   4712   4739     1
   4712   4735     1
   4712   4724     1
   4712   4725     1
   4713   4714     1
   4713   4717     1
   4713   4739     1
   4713   4735     1
   4713   4724     1
   4713   4725     1
   4714   4718     1
   4714   4719     1
   4714   4733     1
   4714   4734     1
   4715   4717     1
   4715   4739     1
   4715   4732     1
   4715   4727     1
   4715   4728     1
   4716   4717     1
   4716   4739     1
   4716   4732     1
   4716   4727     1
   4716   4728     1
   4717   4730     1
   4717   4731     1
   4718   4739     1
   4718   4729     1
   4718   4721     1
   4718   4722     1
   4719   4739     1
   4719   4729     1
   4719   4721     1
   4719   4722     1
   4720   4739     1
   4721   4738     1
   4721   4730     1
   4721   4731     1
   4722   4738     1
   4722   4730     1
   4722   4731     1
   4723   4739     1
   4724   7490     1
   4724   4736     1
   4724   4737     1
   4725   7490     1
   4725   4736     1
   4725   4737     1
   4726   4739     1
   4727   7476     1
   4727   4733     1
   4727   4734     1
   4728   7476     1
   4728   4733     1
   4728   4734     1
   4732   7471     1
   4732   7472     1
   4733   7470     1
   4734   7470     1
   4735   7485     1
   4735   7486     1
   4736   7484     1
   4737   7484     1
   4740   4754     1
   4740   4755     1
   4740   4757     1
   4740   4758     1
   4740   4751     1
   4740   4752     1
   4741   4745     1
   4741   4746     1
   4741   4748     1
   4741   4749     1
   4741   4766     1
   4741   4767     1
   4742   4744     1
   4742   4747     1
   4742   4769     1
   4742   4765     1
   4742   4754     1
   4742   4755     1
   4743   4744     1
   4743   4747     1
   4743   4769     1
   4743   4765     1
   4743   4754     1
   4743   4755     1
   4744   4748     1
   4744   4749     1
   4744   4763     1
   4744   4764     1
   4745   4747     1
   4745   4769     1
   4745   4762     1
   4745   4757     1
   4745   4758     1
   4746   4747     1
   4746   4769     1
   4746   4762     1
   4746   4757     1
   4746   4758     1
   4747   4760     1
   4747   4761     1
   4748   4769     1
   4748   4759     1
   4748   4751     1
   4748   4752     1
   4749   4769     1
   4749   4759     1
   4749   4751     1
   4749   4752     1
   4750   4769     1
   4751   4768     1
   4751   4760     1
   4751   4761     1
   4752   4768     1
   4752   4760     1
   4752   4761     1
   4753   4769     1
   4754   7518     1
   4754   4766     1
   4754   4767     1
   4755   7518     1
   4755   4766     1
   4755   4767     1
   4756   4769     1
   4757   7504     1
   4757   4763     1
   4757   4764     1
   4758   7504     1
   4758   4763     1
   4758   4764     1
   4762   7499     1
   4762   7500     1
   4763   7498     1
   4764   7498     1
   4765   7513     1
   4765   7514     1
   4766   7512     1
   4767   7512     1
   4770   4784     1
   4770   4785     1
   4770   4787     1
   4770   4788     1
   4770   4781     1
   4770   4782     1
   4771   4775     1
   4771   4776     1
   4771   4778     1
   4771   4779     1
   4771   4796     1
   4771   4797     1
   4772   4774     1
   4772   4777     1
   4772   4799     1
   4772   4795     1
   4772   4784     1
   4772   4785     1
   4773   4774     1
   4773   4777     1
   4773   4799     1
   4773   4795     1
   4773   4784     1
   4773   4785     1
   4774   4778     1
   4774   4779     1
   4774   4793     1
   4774   4794     1
   4775   4777     1
   4775   4799     1
   4775   4792     1
   4775   4787     1
   4775   4788     1
   4776   4777     1
   4776   4799     1
   4776   4792     1
   4776   4787     1
   4776   4788     1
   4777   4790     1
   4777   4791     1
   4778   4799     1
   4778   4789     1
   4778   4781     1
   4778   4782     1
   4779   4799     1
   4779   4789     1
   4779   4781     1
   4779   4782     1
   4780   4799     1
   4781   4798     1
   4781   4790     1
   4781   4791     1
   4782   4798     1
   4782   4790     1
   4782   4791     1
   4783   4799     1
   4784   7546     1
   4784   4796     1
   4784   4797     1
   4785   7546     1
   4785   4796     1
   4785   4797     1
   4786   4799     1
   4787   7532     1
   4787   4793     1
   4787   4794     1
   4788   7532     1
   4788   4793     1
   4788   4794     1
   4792   7527     1
   4792   7528     1
   4793   7526     1
   4794   7526     1
   4795   7541     1
   4795   7542     1
   4796   7540     1
   4797   7540     1
   4800   4814     1
   4800   4815     1
   4800   4817     1
   4800   4818     1
   4800   4811     1
   4800   4812     1
   4801   4805     1
   4801   4806     1
   4801   4808     1
   4801   4809     1
   4801   4826     1
   4801   4827     1
   4802   4804     1
   4802   4807     1
   4802   4829     1
   4802   4825     1
   4802   4814     1
   4802   4815     1
   4803   4804     1
   4803   4807     1
   4803   4829     1
   4803   4825     1
   4803   4814     1
   4803   4815     1
   4804   4808     1
   4804   4809     1
   4804   4823     1
   4804   4824     1
   4805   4807     1
   4805   4829     1
   4805   4822     1
   4805   4817     1
   4805   4818     1
   4806   4807     1
   4806   4829     1
   4806   4822     1
   4806   4817     1
   4806   4818     1
   4807   4820     1
   4807   4821     1
   4808   4829     1
   4808   4819     1
   4808   4811     1
   4808   4812     1
   4809   4829     1
   4809   4819     1
   4809   4811     1
   4809   4812     1
   4810   4829     1
   4811   4828     1
   4811   4820     1
   4811   4821     1
   4812   4828     1
   4812   4820     1
   4812   4821     1
   4813   4829     1
   4814   7574     1
   4814   4826     1
   4814   4827     1
   4815   7574     1
   4815   4826     1
   4815   4827     1
   4816   4829     1
   4817   7560     1
   4817   4823     1
   4817   4824     1
   4818   7560     1
   4818   4823     1
   4818   4824     1
   4822   7555     1
   4822   7556     1
   4823   7554     1
   4824   7554     1
   4825   7569     1
   4825   7570     1
   4826   7568     1
   4827   7568     1
   4830   4844     1
   4830   4845     1
   4830   4847     1
   4830   4848     1
   4830   4841     1
   4830   4842     1
   4831   4835     1
   4831   4836     1
   4831   4838     1
   4831   4839     1
   4831   4856     1
   4831   4857     1
   4832   4834     1
   4832   4837     1
   4832   4859     1
   4832   4855     1
   4832   4844     1
   4832   4845     1
   4833   4834     1
   4833   4837     1
   4833   4859     1
   4833   4855     1
   4833   4844     1
   4833   4845     1
   4834   4838     1
   4834   4839     1
   4834   4853     1
   4834   4854     1
   4835   4837     1
   4835   4859     1
   4835   4852     1
   4835   4847     1
   4835   4848     1
   4836   4837     1
   4836   4859     1
   4836   4852     1
   4836   4847     1
   4836   4848     1
   4837   4850     1
   4837   4851     1
   4838   4859     1
   4838   4849     1
   4838   4841     1
   4838   4842     1
   4839   4859     1
   4839   4849     1
   4839   4841     1
   4839   4842     1
   4840   4859     1
   4841   4858     1
   4841   4850     1
   4841   4851     1
   4842   4858     1
   4842   4850     1
   4842   4851     1
   4843   4859     1
   4844   7602     1
   4844   4856     1
   4844   4857     1
   4845   7602     1
   4845   4856     1
   4845   4857     1
   4846   4859     1
   4847   7588     1
   4847   4853     1
   4847   4854     1
   4848   7588     1
   4848   4853     1
   4848   4854     1
   4852   7583     1
   4852   7584     1
   4853   7582     1
   4854   7582     1
   4855   7597     1
   4855   7598     1
   4856   7596     1
   4857   7596     1
   4860   4874     1
   4860   4875     1
   4860   4877     1
   4860   4878     1
   4860   4871     1
   4860   4872     1
   4861   4865     1
   4861   4866     1
   4861   4868     1
   4861   4869     1
   4861   4886     1
   4861   4887     1
   4862   4864     1
   4862   4867     1
   4862   4889     1
   4862   4885     1
   4862   4874     1
   4862   4875     1
   4863   4864     1
   4863   4867     1
   4863   4889     1
   4863   4885     1
   4863   4874     1
   4863   4875     1
   4864   4868     1
   4864   4869     1
   4864   4883     1
   4864   4884     1
   4865   4867     1
   4865   4889     1
   4865   4882     1
   4865   4877     1
   4865   4878     1
   4866   4867     1
   4866   4889     1
   4866   4882     1
   4866   4877     1
   4866   4878     1
   4867   4880     1
   4867   4881     1
   4868   4889     1
   4868   4879     1
   4868   4871     1
   4868   4872     1
   4869   4889     1
   4869   4879     1
   4869   4871     1
   4869   4872     1
   4870   4889     1
   4871   4888     1
   4871   4880     1
   4871   4881     1
   4872   4888     1
   4872   4880     1
   4872   4881     1
   4873   4889     1
   4874   7630     1
   4874   4886     1
   4874   4887     1
   4875   7630     1
   4875   4886     1
   4875   4887     1
   4876   4889     1
   4877   7616     1
   4877   4883     1
   4877   4884     1
   4878   7616     1
   4878   4883     1
   4878   4884     1
   4882   7611     1
   4882   7612     1
   4883   7610     1
   4884   7610     1
   4885   7625     1
   4885   7626     1
   4886   7624     1
   4887   7624     1
   4890   4904     1
   4890   4905     1
   4890   4907     1
   4890   4908     1
   4890   4901     1
   4890   4902     1
   4891   4895     1
   4891   4896     1
   4891   4898     1
   4891   4899     1
   4891   4916     1
   4891   4917     1
   4892   4894     1
   4892   4897     1
   4892   4919     1
   4892   4915     1
   4892   4904     1
   4892   4905     1
   4893   4894     1
   4893   4897     1
   4893   4919     1
   4893   4915     1
   4893   4904     1
   4893   4905     1
   4894   4898     1
   4894   4899     1
   4894   4913     1
   4894   4914     1
   4895   4897     1
   4895   4919     1
   4895   4912     1
   4895   4907     1
   4895   4908     1
   4896   4897     1
   4896   4919     1
   4896   4912     1
   4896   4907     1
   4896   4908     1
   4897   4910     1
   4897   4911     1
   4898   4919     1
   4898   4909     1
   4898   4901     1
   4898   4902     1
   4899   4919     1
   4899   4909     1
   4899   4901     1
   4899   4902     1
   4900   4919     1
   4901   4918     1
   4901   4910     1
   4901   4911     1
   4902   4918     1
   4902   4910     1
   4902   4911     1
   4903   4919     1
   4904   7658     1
   4904   4916     1
   4904   4917     1
   4905   7658     1
   4905   4916     1
   4905   4917     1
   4906   4919     1
   4907   7644     1
   4907   4913     1
   4907   4914     1
   4908   7644     1
   4908   4913     1
   4908   4914     1
   4912   7639     1
   4912   7640     1
   4913   7638     1
   4914   7638     1
   4915   7653     1
   4915   7654     1
   4916   7652     1
   4917   7652     1
   4920   4934     1
   4920   4935     1
   4920   4937     1
   4920   4938     1
   4920   4931     1
   4920   4932     1
   4921   4925     1
   4921   4926     1
   4921   4928     1
   4921   4929     1
   4921   4946     1
   4921   4947     1
   4922   4924     1
   4922   4927     1
   4922   4949     1
   4922   4945     1
   4922   4934     1
   4922   4935     1
   4923   4924     1
   4923   4927     1
   4923   4949     1
   4923   4945     1
   4923   4934     1
   4923   4935     1
   4924   4928     1
   4924   4929     1
   4924   4943     1
   4924   4944     1
   4925   4927     1
   4925   4949     1
   4925   4942     1
   4925   4937     1
   4925   4938     1
   4926   4927     1
   4926   4949     1
   4926   4942     1
   4926   4937     1
   4926   4938     1
   4927   4940     1
   4927   4941     1
   4928   4949     1
   4928   4939     1
   4928   4931     1
   4928   4932     1
   4929   4949     1
   4929   4939     1
   4929   4931     1
   4929   4932     1
   4930   4949     1
   4931   4948     1
   4931   4940     1
   4931   4941     1
   4932   4948     1
   4932   4940     1
   4932   4941     1
   4933   4949     1
   4934   7686     1
   4934   4946     1
   4934   4947     1
   4935   7686     1
   4935   4946     1
   4935   4947     1
   4936   4949     1
   4937   7672     1
   4937   4943     1
   4937   4944     1
   4938   7672     1
   4938   4943     1
   4938   4944     1
   4942   7667     1
   4942   7668     1
   4943   7666     1
   4944   7666     1
   4945   7681     1
   4945   7682     1
   4946   7680     1
   4947   7680     1
   4950   4964     1
   4950   4965     1
   4950   4967     1
   4950   4968     1
   4950   4961     1
   4950   4962     1
   4951   4955     1
   4951   4956     1
   4951   4958     1
   4951   4959     1
   4951   4976     1
   4951   4977     1
   4952   4954     1
   4952   4957     1
   4952   4979     1
   4952   4975     1
   4952   4964     1
   4952   4965     1
   4953   4954     1
   4953   4957     1
   4953   4979     1
   4953   4975     1
   4953   4964     1
   4953   4965     1
   4954   4958     1
   4954   4959     1
   4954   4973     1
   4954   4974     1
   4955   4957     1
   4955   4979     1
   4955   4972     1
   4955   4967     1
   4955   4968     1
   4956   4957     1
   4956   4979     1
   4956   4972     1
   4956   4967     1
   4956   4968     1
   4957   4970     1
   4957   4971     1
   4958   4979     1
   4958   4969     1
   4958   4961     1
   4958   4962     1
   4959   4979     1
   4959   4969     1
   4959   4961     1
   4959   4962     1
   4960   4979     1
   4961   4978     1
   4961   4970     1
   4961   4971     1
   4962   4978     1
   4962   4970     1
   4962   4971     1
   4963   4979     1
   4964   7714     1
   4964   4976     1
   4964   4977     1
   4965   7714     1
   4965   4976     1
   4965   4977     1
   4966   4979     1
   4967   7700     1
   4967   4973     1
   4967   4974     1
   4968   7700     1
   4968   4973     1
   4968   4974     1
   4972   7695     1
   4972   7696     1
   4973   7694     1
   4974   7694     1
   4975   7709     1
   4975   7710     1
   4976   7708     1
   4977   7708     1
   4980   4994     1
   4980   4995     1
   4980   4997     1
   4980   4998     1
   4980   4991     1
   4980   4992     1
   4981   4985     1
   4981   4986     1
   4981   4988     1
   4981   4989     1
   4981   5006     1
   4981   5007     1
   4982   4984     1
   4982   4987     1
   4982   5009     1
   4982   5005     1
   4982   4994     1
   4982   4995     1
   4983   4984     1
   4983   4987     1
   4983   5009     1
   4983   5005     1
   4983   4994     1
   4983   4995     1
   4984   4988     1
   4984   4989     1
   4984   5003     1
   4984   5004     1
   4985   4987     1
   4985   5009     1
   4985   5002     1
   4985   4997     1
   4985   4998     1
   4986   4987     1
   4986   5009     1
   4986   5002     1
   4986   4997     1
   4986   4998     1
   4987   5000     1
   4987   5001     1
   4988   5009     1
   4988   4999     1
   4988   4991     1
   4988   4992     1
   4989   5009     1
   4989   4999     1
   4989   4991     1
   4989   4992     1
   4990   5009     1
   4991   5008     1
   4991   5000     1
   4991   5001     1
   4992   5008     1
   4992   5000     1
   4992   5001     1
   4993   5009     1
   4994   7742     1
   4994   5006     1
   4994   5007     1
   4995   7742     1
   4995   5006     1
   4995   5007     1
   4996   5009     1
   4997   7728     1
   4997   5003     1
   4997   5004     1
   4998   7728     1
   4998   5003     1
   4998   5004     1
   5002   7723     1
   5002   7724     1
   5003   7722     1
   5004   7722     1
   5005   7737     1
   5005   7738     1
   5006   7736     1
   5007   7736     1
   5010   5024     1
   5010   5025     1
   5010   5027     1
   5010   5028     1
   5010   5021     1
   5010   5022     1
   5011   5015     1
   5011   5016     1
   5011   5018     1
   5011   5019     1
   5011   5036     1
   5011   5037     1
   5012   5014     1
   5012   5017     1
   5012   5039     1
   5012   5035     1
   5012   5024     1
   5012   5025     1
   5013   5014     1
   5013   5017     1
   5013   5039     1
   5013   5035     1
   5013   5024     1
   5013   5025     1
   5014   5018     1
   5014   5019     1
   5014   5033     1
   5014   5034     1
   5015   5017     1
   5015   5039     1
   5015   5032     1
   5015   5027     1
   5015   5028     1
   5016   5017     1
   5016   5039     1
   5016   5032     1
   5016   5027     1
   5016   5028     1
   5017   5030     1
   5017   5031     1
   5018   5039     1
   5018   5029     1
   5018   5021     1
   5018   5022     1
   5019   5039     1
   5019   5029     1
   5019   5021     1
   5019   5022     1
   5020   5039     1
   5021   5038     1
   5021   5030     1
   5021   5031     1
   5022   5038     1
   5022   5030     1
   5022   5031     1
   5023   5039     1
   5024   7770     1
   5024   5036     1
   5024   5037     1
   5025   7770     1
   5025   5036     1
   5025   5037     1
   5026   5039     1
   5027   7756     1
   5027   5033     1
   5027   5034     1
   5028   7756     1
   5028   5033     1
   5028   5034     1
   5032   7751     1
   5032   7752     1
   5033   7750     1
   5034   7750     1
   5035   7765     1
   5035   7766     1
   5036   7764     1
   5037   7764     1
   5040   5054     1
   5040   5055     1
   5040   5057     1
   5040   5058     1
   5040   5051     1
   5040   5052     1
   5041   5045     1
   5041   5046     1
   5041   5048     1
   5041   5049     1
   5041   5066     1
   5041   5067     1
   5042   5044     1
   5042   5047     1
   5042   5069     1
   5042   5065     1
   5042   5054     1
   5042   5055     1
   5043   5044     1
   5043   5047     1
   5043   5069     1
   5043   5065     1
   5043   5054     1
   5043   5055     1
   5044   5048     1
   5044   5049     1
   5044   5063     1
   5044   5064     1
   5045   5047     1
   5045   5069     1
   5045   5062     1
   5045   5057     1
   5045   5058     1
   5046   5047     1
   5046   5069     1
   5046   5062     1
   5046   5057     1
   5046   5058     1
   5047   5060     1
   5047   5061     1
   5048   5069     1
   5048   5059     1
   5048   5051     1
   5048   5052     1
   5049   5069     1
   5049   5059     1
   5049   5051     1
   5049   5052     1
   5050   5069     1
   5051   5068     1
   5051   5060     1
   5051   5061     1
   5052   5068     1
   5052   5060     1
   5052   5061     1
   5053   5069     1
   5054   7798     1
   5054   5066     1
   5054   5067     1
   5055   7798     1
   5055   5066     1
   5055   5067     1
   5056   5069     1
   5057   7784     1
   5057   5063     1
   5057   5064     1
   5058   7784     1
   5058   5063     1
   5058   5064     1
   5062   7779     1
   5062   7780     1
   5063   7778     1
   5064   7778     1
   5065   7793     1
   5065   7794     1
   5066   7792     1
   5067   7792     1
   5070   5084     1
   5070   5085     1
   5070   5087     1
   5070   5088     1
   5070   5081     1
   5070   5082     1
   5071   5075     1
   5071   5076     1
   5071   5078     1
   5071   5079     1
   5071   5096     1
   5071   5097     1
   5072   5074     1
   5072   5077     1
   5072   5099     1
   5072   5095     1
   5072   5084     1
   5072   5085     1
   5073   5074     1
   5073   5077     1
   5073   5099     1
   5073   5095     1
   5073   5084     1
   5073   5085     1
   5074   5078     1
   5074   5079     1
   5074   5093     1
   5074   5094     1
   5075   5077     1
   5075   5099     1
   5075   5092     1
   5075   5087     1
   5075   5088     1
   5076   5077     1
   5076   5099     1
   5076   5092     1
   5076   5087     1
   5076   5088     1
   5077   5090     1
   5077   5091     1
   5078   5099     1
   5078   5089     1
   5078   5081     1
   5078   5082     1
   5079   5099     1
   5079   5089     1
   5079   5081     1
   5079   5082     1
   5080   5099     1
   5081   5098     1
   5081   5090     1
   5081   5091     1
   5082   5098     1
   5082   5090     1
   5082   5091     1
   5083   5099     1
   5084   7826     1
   5084   5096     1
   5084   5097     1
   5085   7826     1
   5085   5096     1
   5085   5097     1
   5086   5099     1
   5087   7812     1
   5087   5093     1
   5087   5094     1
   5088   7812     1
   5088   5093     1
   5088   5094     1
   5092   7807     1
   5092   7808     1
   5093   7806     1
   5094   7806     1
   5095   7821     1
   5095   7822     1
   5096   7820     1
   5097   7820     1
   5100   5114     1
   5100   5115     1
   5100   5117     1
   5100   5118     1
   5100   5111     1
   5100   5112     1
   5101   5105     1
   5101   5106     1
   5101   5108     1
   5101   5109     1
   5101   5126     1
   5101   5127     1
   5102   5104     1
   5102   5107     1
   5102   5129     1
   5102   5125     1
   5102   5114     1
   5102   5115     1
   5103   5104     1
   5103   5107     1
   5103   5129     1
   5103   5125     1
   5103   5114     1
   5103   5115     1
   5104   5108     1
   5104   5109     1
   5104   5123     1
   5104   5124     1
   5105   5107     1
   5105   5129     1
   5105   5122     1
   5105   5117     1
   5105   5118     1
   5106   5107     1
   5106   5129     1
   5106   5122     1
   5106   5117     1
   5106   5118     1
   5107   5120     1
   5107   5121     1
   5108   5129     1
   5108   5119     1
   5108   5111     1
   5108   5112     1
   5109   5129     1
   5109   5119     1
   5109   5111     1
   5109   5112     1
   5110   5129     1
   5111   5128     1
   5111   5120     1
   5111   5121     1
   5112   5128     1
   5112   5120     1
   5112   5121     1
   5113   5129     1
   5114   7854     1
   5114   5126     1
   5114   5127     1
   5115   7854     1
   5115   5126     1
   5115   5127     1
   5116   5129     1
   5117   7840     1
   5117   5123     1
   5117   5124     1
   5118   7840     1
   5118   5123     1
   5118   5124     1
   5122   7835     1
   5122   7836     1
   5123   7834     1
   5124   7834     1
   5125   7849     1
   5125   7850     1
   5126   7848     1
   5127   7848     1
   5130   5144     1
   5130   5145     1
   5130   5147     1
   5130   5148     1
   5130   5141     1
   5130   5142     1
   5131   5135     1
   5131   5136     1
   5131   5138     1
   5131   5139     1
   5131   5156     1
   5131   5157     1
   5132   5134     1
   5132   5137     1
   5132   5159     1
   5132   5155     1
   5132   5144     1
   5132   5145     1
   5133   5134     1
   5133   5137     1
   5133   5159     1
   5133   5155     1
   5133   5144     1
   5133   5145     1
   5134   5138     1
   5134   5139     1
   5134   5153     1
   5134   5154     1
   5135   5137     1
   5135   5159     1
   5135   5152     1
   5135   5147     1
   5135   5148     1
   5136   5137     1
   5136   5159     1
   5136   5152     1
   5136   5147     1
   5136   5148     1
   5137   5150     1
   5137   5151     1
   5138   5159     1
   5138   5149     1
   5138   5141     1
   5138   5142     1
   5139   5159     1
   5139   5149     1
   5139   5141     1
   5139   5142     1
   5140   5159     1
   5141   5158     1
   5141   5150     1
   5141   5151     1
   5142   5158     1
   5142   5150     1
   5142   5151     1
   5143   5159     1
   5144   7882     1
   5144   5156     1
   5144   5157     1
   5145   7882     1
   5145   5156     1
   5145   5157     1
   5146   5159     1
   5147   7868     1
   5147   5153     1
   5147   5154     1
   5148   7868     1
   5148   5153     1
   5148   5154     1
   5152   7863     1
   5152   7864     1
   5153   7862     1
   5154   7862     1
   5155   7877     1
   5155   7878     1
   5156   7876     1
   5157   7876     1
   5160   5174     1
   5160   5175     1
   5160   5177     1
   5160   5178     1
   5160   5171     1
   5160   5172     1
   5161   5165     1
   5161   5166     1
   5161   5168     1
   5161   5169     1
   5161   5186     1
   5161   5187     1
   5162   5164     1
   5162   5167     1
   5162   5189     1
   5162   5185     1
   5162   5174     1
   5162   5175     1
   5163   5164     1
   5163   5167     1
   5163   5189     1
   5163   5185     1
   5163   5174     1
   5163   5175     1
   5164   5168     1
   5164   5169     1
   5164   5183     1
   5164   5184     1
   5165   5167     1
   5165   5189     1
   5165   5182     1
   5165   5177     1
   5165   5178     1
   5166   5167     1
   5166   5189     1
   5166   5182     1
   5166   5177     1
   5166   5178     1
   5167   5180     1
   5167   5181     1
   5168   5189     1
   5168   5179     1
   5168   5171     1
   5168   5172     1
   5169   5189     1
   5169   5179     1
   5169   5171     1
   5169   5172     1
   5170   5189     1
   5171   5188     1
   5171   5180     1
   5171   5181     1
   5172   5188     1
   5172   5180     1
   5172   5181     1
   5173   5189     1
   5174   7910     1
   5174   5186     1
   5174   5187     1
   5175   7910     1
   5175   5186     1
   5175   5187     1
   5176   5189     1
   5177   7896     1
   5177   5183     1
   5177   5184     1
   5178   7896     1
   5178   5183     1
   5178   5184     1
   5182   7891     1
   5182   7892     1
   5183   7890     1
   5184   7890     1
   5185   7905     1
   5185   7906     1
   5186   7904     1
   5187   7904     1
   5190   5204     1
   5190   5205     1
   5190   5207     1
   5190   5208     1
   5190   5201     1
   5190   5202     1
   5191   5195     1
   5191   5196     1
   5191   5198     1
   5191   5199     1
   5191   5216     1
   5191   5217     1
   5192   5194     1
   5192   5197     1
   5192   5219     1
   5192   5215     1
   5192   5204     1
   5192   5205     1
   5193   5194     1
   5193   5197     1
   5193   5219     1
   5193   5215     1
   5193   5204     1
   5193   5205     1
   5194   5198     1
   5194   5199     1
   5194   5213     1
   5194   5214     1
   5195   5197     1
   5195   5219     1
   5195   5212     1
   5195   5207     1
   5195   5208     1
   5196   5197     1
   5196   5219     1
   5196   5212     1
   5196   5207     1
   5196   5208     1
   5197   5210     1
   5197   5211     1
   5198   5219     1
   5198   5209     1
   5198   5201     1
   5198   5202     1
   5199   5219     1
   5199   5209     1
   5199   5201     1
   5199   5202     1
   5200   5219     1
   5201   5218     1
   5201   5210     1
   5201   5211     1
   5202   5218     1
   5202   5210     1
   5202   5211     1
   5203   5219     1
   5204   7938     1
   5204   5216     1
   5204   5217     1
   5205   7938     1
   5205   5216     1
   5205   5217     1
   5206   5219     1
   5207   7924     1
   5207   5213     1
   5207   5214     1
   5208   7924     1
   5208   5213     1
   5208   5214     1
   5212   7919     1
   5212   7920     1
   5213   7918     1
   5214   7918     1
   5215   7933     1
   5215   7934     1
   5216   7932     1
   5217   7932     1
   5220   5234     1
   5220   5235     1
   5220   5237     1
   5220   5238     1
   5220   5231     1
   5220   5232     1
   5221   5225     1
   5221   5226     1
   5221   5228     1
   5221   5229     1
   5221   5246     1
   5221   5247     1
   5222   5224     1
   5222   5227     1
   5222   5249     1
   5222   5245     1
   5222   5234     1
   5222   5235     1
   5223   5224     1
   5223   5227     1
   5223   5249     1
   5223   5245     1
   5223   5234     1
   5223   5235     1
   5224   5228     1
   5224   5229     1
   5224   5243     1
   5224   5244     1
   5225   5227     1
   5225   5249     1
   5225   5242     1
   5225   5237     1
   5225   5238     1
   5226   5227     1
   5226   5249     1
   5226   5242     1
   5226   5237     1
   5226   5238     1
   5227   5240     1
   5227   5241     1
   5228   5249     1
   5228   5239     1
   5228   5231     1
   5228   5232     1
   5229   5249     1
   5229   5239     1
   5229   5231     1
   5229   5232     1
   5230   5249     1
   5231   5248     1
   5231   5240     1
   5231   5241     1
   5232   5248     1
   5232   5240     1
   5232   5241     1
   5233   5249     1
   5234   7966     1
   5234   5246     1
   5234   5247     1
   5235   7966     1
   5235   5246     1
   5235   5247     1
   5236   5249     1
   5237   7952     1
   5237   5243     1
   5237   5244     1
   5238   7952     1
   5238   5243     1
   5238   5244     1
   5242   7947     1
   5242   7948     1
   5243   7946     1
   5244   7946     1
   5245   7961     1
   5245   7962     1
   5246   7960     1
   5247   7960     1
   5250   5264     1
   5250   5265     1
   5250   5267     1
   5250   5268     1
   5250   5261     1
   5250   5262     1
   5251   5255     1
   5251   5256     1
   5251   5258     1
   5251   5259     1
   5251   5276     1
   5251   5277     1
   5252   5254     1
   5252   5257     1
   5252   5279     1
   5252   5275     1
   5252   5264     1
   5252   5265     1
   5253   5254     1
   5253   5257     1
   5253   5279     1
   5253   5275     1
   5253   5264     1
   5253   5265     1
   5254   5258     1
   5254   5259     1
   5254   5273     1
   5254   5274     1
   5255   5257     1
   5255   5279     1
   5255   5272     1
   5255   5267     1
   5255   5268     1
   5256   5257     1
   5256   5279     1
   5256   5272     1
   5256   5267     1
   5256   5268     1
   5257   5270     1
   5257   5271     1
   5258   5279     1
   5258   5269     1
   5258   5261     1
   5258   5262     1
   5259   5279     1
   5259   5269     1
   5259   5261     1
   5259   5262     1
   5260   5279     1
   5261   5278     1
   5261   5270     1
   5261   5271     1
   5262   5278     1
   5262   5270     1
   5262   5271     1
   5263   5279     1
   5264   7994     1
   5264   5276     1
   5264   5277     1
   5265   7994     1
   5265   5276     1
   5265   5277     1
   5266   5279     1
   5267   7980     1
   5267   5273     1
   5267   5274     1
   5268   7980     1
   5268   5273     1
   5268   5274     1
   5272   7975     1
   5272   7976     1
   5273   7974     1
   5274   7974     1
   5275   7989     1
   5275   7990     1
   5276   7988     1
   5277   7988     1
   5280   5294     1
   5280   5295     1
   5280   5297     1
   5280   5298     1
   5280   5291     1
   5280   5292     1
   5281   5285     1
   5281   5286     1
   5281   5288     1
   5281   5289     1
   5281   5306     1
   5281   5307     1
   5282   5284     1
   5282   5287     1
   5282   5309     1
   5282   5305     1
   5282   5294     1
   5282   5295     1
   5283   5284     1
   5283   5287     1
   5283   5309     1
   5283   5305     1
   5283   5294     1
   5283   5295     1
   5284   5288     1
   5284   5289     1
   5284   5303     1
   5284   5304     1
   5285   5287     1
   5285   5309     1
   5285   5302     1
   5285   5297     1
   5285   5298     1
   5286   5287     1
   5286   5309     1
   5286   5302     1
   5286   5297     1
   5286   5298     1
   5287   5300     1
   5287   5301     1
   5288   5309     1
   5288   5299     1
   5288   5291     1
   5288   5292     1
   5289   5309     1
   5289   5299     1
   5289   5291     1
   5289   5292     1
   5290   5309     1
   5291   5308     1
   5291   5300     1
   5291   5301     1
   5292   5308     1
   5292   5300     1
   5292   5301     1
   5293   5309     1
   5294   8022     1
   5294   5306     1
   5294   5307     1
   5295   8022     1
   5295   5306     1
   5295   5307     1
   5296   5309     1
   5297   8008     1
   5297   5303     1
   5297   5304     1
   5298   8008     1
   5298   5303     1
   5298   5304     1
   5302   8003     1
   5302   8004     1
   5303   8002     1
   5304   8002     1
   5305   8017     1
   5305   8018     1
   5306   8016     1
   5307   8016     1
   5310   5324     1
   5310   5325     1
   5310   5327     1
   5310   5328     1
   5310   5321     1
   5310   5322     1
   5311   5315     1
   5311   5316     1
   5311   5318     1
   5311   5319     1
   5311   5336     1
   5311   5337     1
   5312   5314     1
   5312   5317     1
   5312   5339     1
   5312   5335     1
   5312   5324     1
   5312   5325     1
   5313   5314     1
   5313   5317     1
   5313   5339     1
   5313   5335     1
   5313   5324     1
   5313   5325     1
   5314   5318     1
   5314   5319     1
   5314   5333     1
   5314   5334     1
   5315   5317     1
   5315   5339     1
   5315   5332     1
   5315   5327     1
   5315   5328     1
   5316   5317     1
   5316   5339     1
   5316   5332     1
   5316   5327     1
   5316   5328     1
   5317   5330     1
   5317   5331     1
   5318   5339     1
   5318   5329     1
   5318   5321     1
   5318   5322     1
   5319   5339     1
   5319   5329     1
   5319   5321     1
   5319   5322     1
   5320   5339     1
   5321   5338     1
   5321   5330     1
   5321   5331     1
   5322   5338     1
   5322   5330     1
   5322   5331     1
   5323   5339     1
   5324   8050     1
   5324   5336     1
   5324   5337     1
   5325   8050     1
   5325   5336     1
   5325   5337     1
   5326   5339     1
   5327   8036     1
   5327   5333     1
   5327   5334     1
   5328   8036     1
   5328   5333     1
   5328   5334     1
   5332   8031     1
   5332   8032     1
   5333   8030     1
   5334   8030     1
   5335   8045     1
   5335   8046     1
   5336   8044     1
   5337   8044     1
   5340   5354     1
   5340   5355     1
   5340   5357     1
   5340   5358     1
   5340   5351     1
   5340   5352     1
   5341   5345     1
   5341   5346     1
   5341   5348     1
   5341   5349     1
   5341   5366     1
   5341   5367     1
   5342   5344     1
   5342   5347     1
   5342   5369     1
   5342   5365     1
   5342   5354     1
   5342   5355     1
   5343   5344     1
   5343   5347     1
   5343   5369     1
   5343   5365     1
   5343   5354     1
   5343   5355     1
   5344   5348     1
   5344   5349     1
   5344   5363     1
   5344   5364     1
   5345   5347     1
   5345   5369     1
   5345   5362     1
   5345   5357     1
   5345   5358     1
   5346   5347     1
   5346   5369     1
   5346   5362     1
   5346   5357     1
   5346   5358     1
   5347   5360     1
   5347   5361     1
   5348   5369     1
   5348   5359     1
   5348   5351     1
   5348   5352     1
   5349   5369     1
   5349   5359     1
   5349   5351     1
   5349   5352     1
   5350   5369     1
   5351   5368     1
   5351   5360     1
   5351   5361     1
   5352   5368     1
   5352   5360     1
   5352   5361     1
   5353   5369     1
   5354   8078     1
   5354   5366     1
   5354   5367     1
   5355   8078     1
   5355   5366     1
   5355   5367     1
   5356   5369     1
   5357   8064     1
   5357   5363     1
   5357   5364     1
   5358   8064     1
   5358   5363     1
   5358   5364     1
   5362   8059     1
   5362   8060     1
   5363   8058     1
   5364   8058     1
   5365   8073     1
   5365   8074     1
   5366   8072     1
   5367   8072     1
   5370   5384     1
   5370   5385     1
   5370   5387     1
   5370   5388     1
   5370   5381     1
   5370   5382     1
   5371   5375     1
   5371   5376     1
   5371   5378     1
   5371   5379     1
   5371   5396     1
   5371   5397     1
   5372   5374     1
   5372   5377     1
   5372   5399     1
   5372   5395     1
   5372   5384     1
   5372   5385     1
   5373   5374     1
   5373   5377     1
   5373   5399     1
   5373   5395     1
   5373   5384     1
   5373   5385     1
   5374   5378     1
   5374   5379     1
   5374   5393     1
   5374   5394     1
   5375   5377     1
   5375   5399     1
   5375   5392     1
   5375   5387     1
   5375   5388     1
   5376   5377     1
   5376   5399     1
   5376   5392     1
   5376   5387     1
   5376   5388     1
   5377   5390     1
   5377   5391     1
   5378   5399     1
   5378   5389     1
   5378   5381     1
   5378   5382     1
   5379   5399     1
   5379   5389     1
   5379   5381     1
   5379   5382     1
   5380   5399     1
   5381   5398     1
   5381   5390     1
   5381   5391     1
   5382   5398     1
   5382   5390     1
   5382   5391     1
   5383   5399     1
   5384   8106     1
   5384   5396     1
   5384   5397     1
   5385   8106     1
   5385   5396     1
   5385   5397     1
   5386   5399     1
   5387   8092     1
   5387   5393     1
   5387   5394     1
   5388   8092     1
   5388   5393     1
   5388   5394     1
   5392   8087     1
   5392   8088     1
   5393   8086     1
   5394   8086     1
   5395   8101     1
   5395   8102     1
   5396   8100     1
   5397   8100     1
   5400   5414     1
   5400   5415     1
   5400   5417     1
   5400   5418     1
   5400   5411     1
   5400   5412     1
   5401   5405     1
   5401   5406     1
   5401   5408     1
   5401   5409     1
   5401   5426     1
   5401   5427     1
   5402   5404     1
   5402   5407     1
   5402   5429     1
   5402   5425     1
   5402   5414     1
   5402   5415     1
   5403   5404     1
   5403   5407     1
   5403   5429     1
   5403   5425     1
   5403   5414     1
   5403   5415     1
   5404   5408     1
   5404   5409     1
   5404   5423     1
   5404   5424     1
   5405   5407     1
   5405   5429     1
   5405   5422     1
   5405   5417     1
   5405   5418     1
   5406   5407     1
   5406   5429     1
   5406   5422     1
   5406   5417     1
   5406   5418     1
   5407   5420     1
   5407   5421     1
   5408   5429     1
   5408   5419     1
   5408   5411     1
   5408   5412     1
   5409   5429     1
   5409   5419     1
   5409   5411     1
   5409   5412     1
   5410   5429     1
   5411   5428     1
   5411   5420     1
   5411   5421     1
   5412   5428     1
   5412   5420     1
   5412   5421     1
   5413   5429     1
   5414   8134     1
   5414   5426     1
   5414   5427     1
   5415   8134     1
   5415   5426     1
   5415   5427     1
   5416   5429     1
   5417   8120     1
   5417   5423     1
   5417   5424     1
   5418   8120     1
   5418   5423     1
   5418   5424     1
   5422   8115     1
   5422   8116     1
   5423   8114     1
   5424   8114     1
   5425   8129     1
   5425   8130     1
   5426   8128     1
   5427   8128     1
   5430   5444     1
   5430   5445     1
   5430   5447     1
   5430   5448     1
   5430   5441     1
   5430   5442     1
   5431   5435     1
   5431   5436     1
   5431   5438     1
   5431   5439     1
   5431   5456     1
   5431   5457     1
   5432   5434     1
   5432   5437     1
   5432   5459     1
   5432   5455     1
   5432   5444     1
   5432   5445     1
   5433   5434     1
   5433   5437     1
   5433   5459     1
   5433   5455     1
   5433   5444     1
   5433   5445     1
   5434   5438     1
   5434   5439     1
   5434   5453     1
   5434   5454     1
   5435   5437     1
   5435   5459     1
   5435   5452     1
   5435   5447     1
   5435   5448     1
   5436   5437     1
   5436   5459     1
   5436   5452     1
   5436   5447     1
   5436   5448     1
   5437   5450     1
   5437   5451     1
   5438   5459     1
   5438   5449     1
   5438   5441     1
   5438   5442     1
   5439   5459     1
   5439   5449     1
   5439   5441     1
   5439   5442     1
   5440   5459     1
   5441   5458     1
   5441   5450     1
   5441   5451     1
   5442   5458     1
   5442   5450     1
   5442   5451     1
   5443   5459     1
   5444   8162     1
   5444   5456     1
   5444   5457     1
   5445   8162     1
   5445   5456     1
   5445   5457     1
   5446   5459     1
   5447   8148     1
   5447   5453     1
   5447   5454     1
   5448   8148     1
   5448   5453     1
   5448   5454     1
   5452   8143     1
   5452   8144     1
   5453   8142     1
   5454   8142     1
   5455   8157     1
   5455   8158     1
   5456   8156     1
   5457   8156     1
   5460   5474     1
   5460   5475     1
   5460   5477     1
   5460   5478     1
   5460   5471     1
   5460   5472     1
   5461   5465     1
   5461   5466     1
   5461   5468     1
   5461   5469     1
   5461   5486     1
   5461   5487     1
   5462   5464     1
   5462   5467     1
   5462   5489     1
   5462   5485     1
   5462   5474     1
   5462   5475     1
   5463   5464     1
   5463   5467     1
   5463   5489     1
   5463   5485     1
   5463   5474     1
   5463   5475     1
   5464   5468     1
   5464   5469     1
   5464   5483     1
   5464   5484     1
   5465   5467     1
   5465   5489     1
   5465   5482     1
   5465   5477     1
   5465   5478     1
   5466   5467     1
   5466   5489     1
   5466   5482     1
   5466   5477     1
   5466   5478     1
   5467   5480     1
   5467   5481     1
   5468   5489     1
   5468   5479     1
   5468   5471     1
   5468   5472     1
   5469   5489     1
   5469   5479     1
   5469   5471     1
   5469   5472     1
   5470   5489     1
   5471   5488     1
   5471   5480     1
   5471   5481     1
   5472   5488     1
   5472   5480     1
   5472   5481     1
   5473   5489     1
   5474   8190     1
   5474   5486     1
   5474   5487     1
   5475   8190     1
   5475   5486     1
   5475   5487     1
   5476   5489     1
   5477   8176     1
   5477   5483     1
   5477   5484     1
   5478   8176     1
   5478   5483     1
   5478   5484     1
   5482   8171     1
   5482   8172     1
   5483   8170     1
   5484   8170     1
   5485   8185     1
   5485   8186     1
   5486   8184     1
   5487   8184     1
   5490   5504     1
   5490   5505     1
   5490   5507     1
   5490   5508     1
   5490   5501     1
   5490   5502     1
   5491   5495     1
   5491   5496     1
   5491   5498     1
   5491   5499     1
   5491   5516     1
   5491   5517     1
   5492   5494     1
   5492   5497     1
   5492   5519     1
   5492   5515     1
   5492   5504     1
   5492   5505     1
   5493   5494     1
   5493   5497     1
   5493   5519     1
   5493   5515     1
   5493   5504     1
   5493   5505     1
   5494   5498     1
   5494   5499     1
   5494   5513     1
   5494   5514     1
   5495   5497     1
   5495   5519     1
   5495   5512     1
   5495   5507     1
   5495   5508     1
   5496   5497     1
   5496   5519     1
   5496   5512     1
   5496   5507     1
   5496   5508     1
   5497   5510     1
   5497   5511     1
   5498   5519     1
   5498   5509     1
   5498   5501     1
   5498   5502     1
   5499   5519     1
   5499   5509     1
   5499   5501     1
   5499   5502     1
   5500   5519     1
   5501   5518     1
   5501   5510     1
   5501   5511     1
   5502   5518     1
   5502   5510     1
   5502   5511     1
   5503   5519     1
   5504   8218     1
   5504   5516     1
   5504   5517     1
   5505   8218     1
   5505   5516     1
   5505   5517     1
   5506   5519     1
   5507   8204     1
   5507   5513     1
   5507   5514     1
   5508   8204     1
   5508   5513     1
   5508   5514     1
   5512   8199     1
   5512   8200     1
   5513   8198     1
   5514   8198     1
   5515   8213     1
   5515   8214     1
   5516   8212     1
   5517   8212     1
   5520   5534     1
   5520   5535     1
   5520   5537     1
   5520   5538     1
   5520   5531     1
   5520   5532     1
   5521   5525     1
   5521   5526     1
   5521   5528     1
   5521   5529     1
   5521   5546     1
   5521   5547     1
   5522   5524     1
   5522   5527     1
   5522   5549     1
   5522   5545     1
   5522   5534     1
   5522   5535     1
   5523   5524     1
   5523   5527     1
   5523   5549     1
   5523   5545     1
   5523   5534     1
   5523   5535     1
   5524   5528     1
   5524   5529     1
   5524   5543     1
   5524   5544     1
   5525   5527     1
   5525   5549     1
   5525   5542     1
   5525   5537     1
   5525   5538     1
   5526   5527     1
   5526   5549     1
   5526   5542     1
   5526   5537     1
   5526   5538     1
   5527   5540     1
   5527   5541     1
   5528   5549     1
   5528   5539     1
   5528   5531     1
   5528   5532     1
   5529   5549     1
   5529   5539     1
   5529   5531     1
   5529   5532     1
   5530   5549     1
   5531   5548     1
   5531   5540     1
   5531   5541     1
   5532   5548     1
   5532   5540     1
   5532   5541     1
   5533   5549     1
   5534   8246     1
   5534   5546     1
   5534   5547     1
   5535   8246     1
   5535   5546     1
   5535   5547     1
   5536   5549     1
   5537   8232     1
   5537   5543     1
   5537   5544     1
   5538   8232     1
   5538   5543     1
   5538   5544     1
   5542   8227     1
   5542   8228     1
   5543   8226     1
   5544   8226     1
   5545   8241     1
   5545   8242     1
   5546   8240     1
   5547   8240     1
   5550   5564     1
   5550   5565     1
   5550   5567     1
   5550   5568     1
   5550   5561     1
   5550   5562     1
   5551   5555     1
   5551   5556     1
   5551   5558     1
   5551   5559     1
   5551   5576     1
   5551   5577     1
   5552   5554     1
   5552   5557     1
   5552   5579     1
   5552   5575     1
   5552   5564     1
   5552   5565     1
   5553   5554     1
   5553   5557     1
   5553   5579     1
   5553   5575     1
   5553   5564     1
   5553   5565     1
   5554   5558     1
   5554   5559     1
   5554   5573     1
   5554   5574     1
   5555   5557     1
   5555   5579     1
   5555   5572     1
   5555   5567     1
   5555   5568     1
   5556   5557     1
   5556   5579     1
   5556   5572     1
   5556   5567     1
   5556   5568     1
   5557   5570     1
   5557   5571     1
   5558   5579     1
   5558   5569     1
   5558   5561     1
   5558   5562     1
   5559   5579     1
   5559   5569     1
   5559   5561     1
   5559   5562     1
   5560   5579     1
   5561   5578     1
   5561   5570     1
   5561   5571     1
   5562   5578     1
   5562   5570     1
   5562   5571     1
   5563   5579     1
   5564   8274     1
   5564   5576     1
   5564   5577     1
   5565   8274     1
   5565   5576     1
   5565   5577     1
   5566   5579     1
   5567   8260     1
   5567   5573     1
   5567   5574     1
   5568   8260     1
   5568   5573     1
   5568   5574     1
   5572   8255     1
   5572   8256     1
   5573   8254     1
   5574   8254     1
   5575   8269     1
   5575   8270     1
   5576   8268     1
   5577   8268     1
   5580   5594     1
   5580   5595     1
   5580   5597     1
   5580   5598     1
   5580   5591     1
   5580   5592     1
   5581   5585     1
   5581   5586     1
   5581   5588     1
   5581   5589     1
   5581   5606     1
   5581   5607     1
   5582   5584     1
   5582   5587     1
   5582   5609     1
   5582   5605     1
   5582   5594     1
   5582   5595     1
   5583   5584     1
   5583   5587     1
   5583   5609     1
   5583   5605     1
   5583   5594     1
   5583   5595     1
   5584   5588     1
   5584   5589     1
   5584   5603     1
   5584   5604     1
   5585   5587     1
   5585   5609     1
   5585   5602     1
   5585   5597     1
   5585   5598     1
   5586   5587     1
   5586   5609     1
   5586   5602     1
   5586   5597     1
   5586   5598     1
   5587   5600     1
   5587   5601     1
   5588   5609     1
   5588   5599     1
   5588   5591     1
   5588   5592     1
   5589   5609     1
   5589   5599     1
   5589   5591     1
   5589   5592     1
   5590   5609     1
   5591   5608     1
   5591   5600     1
   5591   5601     1
   5592   5608     1
   5592   5600     1
   5592   5601     1
   5593   5609     1
   5594   8302     1
   5594   5606     1
   5594   5607     1
   5595   8302     1
   5595   5606     1
   5595   5607     1
   5596   5609     1
   5597   8288     1
   5597   5603     1
   5597   5604     1
   5598   8288     1
   5598   5603     1
   5598   5604     1
   5602   8283     1
   5602   8284     1
   5603   8282     1
   5604   8282     1
   5605   8297     1
   5605   8298     1
   5606   8296     1
   5607   8296     1
   5610   5624     1
   5610   5625     1
   5610   5627     1
   5610   5628     1
   5610   5621     1
   5610   5622     1
   5611   5615     1
   5611   5616     1
   5611   5618     1
   5611   5619     1
   5611   5636     1
   5611   5637     1
   5612   5614     1
   5612   5617     1
   5612   5639     1
   5612   5635     1
   5612   5624     1
   5612   5625     1
   5613   5614     1
   5613   5617     1
   5613   5639     1
   5613   5635     1
   5613   5624     1
   5613   5625     1
   5614   5618     1
   5614   5619     1
   5614   5633     1
   5614   5634     1
   5615   5617     1
   5615   5639     1
   5615   5632     1
   5615   5627     1
   5615   5628     1
   5616   5617     1
   5616   5639     1
   5616   5632     1
   5616   5627     1
   5616   5628     1
   5617   5630     1
   5617   5631     1
   5618   5639     1
   5618   5629     1
   5618   5621     1
   5618   5622     1
   5619   5639     1
   5619   5629     1
   5619   5621     1
   5619   5622     1
   5620   5639     1
   5621   5638     1
   5621   5630     1
   5621   5631     1
   5622   5638     1
   5622   5630     1
   5622   5631     1
   5623   5639     1
   5624   8330     1
   5624   5636     1
   5624   5637     1
   5625   8330     1
   5625   5636     1
   5625   5637     1
   5626   5639     1
   5627   8316     1
   5627   5633     1
   5627   5634     1
   5628   8316     1
   5628   5633     1
   5628   5634     1
   5632   8311     1
   5632   8312     1
   5633   8310     1
   5634   8310     1
   5635   8325     1
   5635   8326     1
   5636   8324     1
   5637   8324     1
   5640   5654     1
   5640   5655     1
   5640   5657     1
   5640   5658     1
   5640   5651     1
   5640   5652     1
   5641   5645     1
   5641   5646     1
   5641   5648     1
   5641   5649     1
   5641   5666     1
   5641   5667     1
   5642   5644     1
   5642   5647     1
   5642   5669     1
   5642   5665     1
   5642   5654     1
   5642   5655     1
   5643   5644     1
   5643   5647     1
   5643   5669     1
   5643   5665     1
   5643   5654     1
   5643   5655     1
   5644   5648     1
   5644   5649     1
   5644   5663     1
   5644   5664     1
   5645   5647     1
   5645   5669     1
   5645   5662     1
   5645   5657     1
   5645   5658     1
   5646   5647     1
   5646   5669     1
   5646   5662     1
   5646   5657     1
   5646   5658     1
   5647   5660     1
   5647   5661     1
   5648   5669     1
   5648   5659     1
   5648   5651     1
   5648   5652     1
   5649   5669     1
   5649   5659     1
   5649   5651     1
   5649   5652     1
   5650   5669     1
   5651   5668     1
   5651   5660     1
   5651   5661     1
   5652   5668     1
   5652   5660     1
   5652   5661     1
   5653   5669     1
   5654   8358     1
   5654   5666     1
   5654   5667     1
   5655   8358     1
   5655   5666     1
   5655   5667     1
   5656   5669     1
   5657   8344     1
   5657   5663     1
   5657   5664     1
   5658   8344     1
   5658   5663     1
   5658   5664     1
   5662   8339     1
   5662   8340     1
   5663   8338     1
   5664   8338     1
   5665   8353     1
   5665   8354     1
   5666   8352     1
   5667   8352     1
   5670   5684     1
   5670   5685     1
   5670   5687     1
   5670   5688     1
   5670   5681     1
   5670   5682     1
   5671   5675     1
   5671   5676     1
   5671   5678     1
   5671   5679     1
   5671   5696     1
   5671   5697     1
   5672   5674     1
   5672   5677     1
   5672   5699     1
   5672   5695     1
   5672   5684     1
   5672   5685     1
   5673   5674     1
   5673   5677     1
   5673   5699     1
   5673   5695     1
   5673   5684     1
   5673   5685     1
   5674   5678     1
   5674   5679     1
   5674   5693     1
   5674   5694     1
   5675   5677     1
   5675   5699     1
   5675   5692     1
   5675   5687     1
   5675   5688     1
   5676   5677     1
   5676   5699     1
   5676   5692     1
   5676   5687     1
   5676   5688     1
   5677   5690     1
   5677   5691     1
   5678   5699     1
   5678   5689     1
   5678   5681     1
   5678   5682     1
   5679   5699     1
   5679   5689     1
   5679   5681     1
   5679   5682     1
   5680   5699     1
   5681   5698     1
   5681   5690     1
   5681   5691     1
   5682   5698     1
   5682   5690     1
   5682   5691     1
   5683   5699     1
   5684   8386     1
   5684   5696     1
   5684   5697     1
   5685   8386     1
   5685   5696     1
   5685   5697     1
   5686   5699     1
   5687   8372     1
   5687   5693     1
   5687   5694     1
   5688   8372     1
   5688   5693     1
   5688   5694     1
   5692   8367     1
   5692   8368     1
   5693   8366     1
   5694   8366     1
   5695   8381     1
   5695   8382     1
   5696   8380     1
   5697   8380     1
   5700   5707     1
   5700   5708     1
   5701   5706     1
   5701   5704     1
   5701   5705     1
   5701   5710     1
   5701   5711     1
   5701   5713     1
   5702   5706     1
   5702   5704     1
   5702   5705     1
   5702   5710     1
   5702   5711     1
   5702   5713     1
   5703   5710     1
   5703   5711     1
   5703   5713     1
   5704   5709     1
   5704   5712     1
   5704   5707     1
   5704   5708     1
   5705   5709     1
   5705   5712     1
   5705   5707     1
   5705   5708     1
   5714   5721     1
   5714   5722     1
   5715   5720     1
   5715   5718     1
   5715   5719     1
   5715   5724     1
   5715   5725     1
   5715   5727     1
   5716   5720     1
   5716   5718     1
   5716   5719     1
   5716   5724     1
   5716   5725     1
   5716   5727     1
   5717   5724     1
   5717   5725     1
   5717   5727     1
   5718   5726     1
   5718   5721     1
   5718   5722     1
   5718   5723     1
   5719   5726     1
   5719   5721     1
   5719   5722     1
   5719   5723     1
   5728   5735     1
   5728   5736     1
   5729   5734     1
   5729   5732     1
   5729   5733     1
   5729   5738     1
   5729   5739     1
   5729   5741     1
   5730   5734     1
   5730   5732     1
   5730   5733     1
   5730   5738     1
   5730   5739     1
   5730   5741     1
   5731   5738     1
   5731   5739     1
   5731   5741     1
   5732   5737     1
   5732   5740     1
   5732   5735     1
   5732   5736     1
   5733   5737     1
   5733   5740     1
   5733   5735     1
   5733   5736     1
   5742   5749     1
   5742   5750     1
   5743   5748     1
   5743   5746     1
   5743   5747     1
   5743   5752     1
   5743   5753     1
   5743   5755     1
   5744   5748     1
   5744   5746     1
   5744   5747     1
   5744   5752     1
   5744   5753     1
   5744   5755     1
   5745   5752     1
   5745   5753     1
   5745   5755     1
   5746   5754     1
   5746   5749     1
   5746   5750     1
   5746   5751     1
   5747   5754     1
   5747   5749     1
   5747   5750     1
   5747   5751     1
   5756   5763     1
   5756   5764     1
   5757   5762     1
   5757   5760     1
   5757   5761     1
   5757   5766     1
   5757   5767     1
   5757   5769     1
   5758   5762     1
   5758   5760     1
   5758   5761     1
   5758   5766     1
   5758   5767     1
   5758   5769     1
   5759   5766     1
   5759   5767     1
   5759   5769     1
   5760   5765     1
   5760   5768     1
   5760   5763     1
   5760   5764     1
   5761   5765     1
   5761   5768     1
   5761   5763     1
   5761   5764     1
   5770   5777     1
   5770   5778     1
   5771   5776     1
   5771   5774     1
   5771   5775     1
   5771   5780     1
   5771   5781     1
   5771   5783     1
   5772   5776     1
   5772   5774     1
   5772   5775     1
   5772   5780     1
   5772   5781     1
   5772   5783     1
   5773   5780     1
   5773   5781     1
   5773   5783     1
   5774   5782     1
   5774   5777     1
   5774   5778     1
   5774   5779     1
   5775   5782     1
   5775   5777     1
   5775   5778     1
   5775   5779     1
   5784   5791     1
   5784   5792     1
   5785   5790     1
   5785   5788     1
   5785   5789     1
   5785   5794     1
   5785   5795     1
   5785   5797     1
   5786   5790     1
   5786   5788     1
   5786   5789     1
   5786   5794     1
   5786   5795     1
   5786   5797     1
   5787   5794     1
   5787   5795     1
   5787   5797     1
   5788   5793     1
   5788   5796     1
   5788   5791     1
   5788   5792     1
   5789   5793     1
   5789   5796     1
   5789   5791     1
   5789   5792     1
   5798   5805     1
   5798   5806     1
   5799   5804     1
   5799   5802     1
   5799   5803     1
   5799   5808     1
   5799   5809     1
   5799   5811     1
   5800   5804     1
   5800   5802     1
   5800   5803     1
   5800   5808     1
   5800   5809     1
   5800   5811     1
   5801   5808     1
   5801   5809     1
   5801   5811     1
   5802   5810     1
   5802   5805     1
   5802   5806     1
   5802   5807     1
   5803   5810     1
   5803   5805     1
   5803   5806     1
   5803   5807     1
   5812   5819     1
   5812   5820     1
   5813   5818     1
   5813   5816     1
   5813   5817     1
   5813   5822     1
   5813   5823     1
   5813   5825     1
   5814   5818     1
   5814   5816     1
   5814   5817     1
   5814   5822     1
   5814   5823     1
   5814   5825     1
   5815   5822     1
   5815   5823     1
   5815   5825     1
   5816   5821     1
   5816   5824     1
   5816   5819     1
   5816   5820     1
   5817   5821     1
   5817   5824     1
   5817   5819     1
   5817   5820     1
   5826   5833     1
   5826   5834     1
   5827   5832     1
   5827   5830     1
   5827   5831     1
   5827   5836     1
   5827   5837     1
   5827   5839     1
   5828   5832     1
   5828   5830     1
   5828   5831     1
   5828   5836     1
   5828   5837     1
   5828   5839     1
   5829   5836     1
   5829   5837     1
   5829   5839     1
   5830   5838     1
   5830   5833     1
   5830   5834     1
   5830   5835     1
   5831   5838     1
   5831   5833     1
   5831   5834     1
   5831   5835     1
   5840   5847     1
   5840   5848     1
   5841   5846     1
   5841   5844     1
   5841   5845     1
   5841   5850     1
   5841   5851     1
   5841   5853     1
   5842   5846     1
   5842   5844     1
   5842   5845     1
   5842   5850     1
   5842   5851     1
   5842   5853     1
   5843   5850     1
   5843   5851     1
   5843   5853     1
   5844   5849     1
   5844   5852     1
   5844   5847     1
   5844   5848     1
   5845   5849     1
   5845   5852     1
   5845   5847     1
   5845   5848     1
   5854   5861     1
   5854   5862     1
   5855   5860     1
   5855   5858     1
   5855   5859     1
   5855   5864     1
   5855   5865     1
   5855   5867     1
   5856   5860     1
   5856   5858     1
   5856   5859     1
   5856   5864     1
   5856   5865     1
   5856   5867     1
   5857   5864     1
   5857   5865     1
   5857   5867     1
   5858   5866     1
   5858   5861     1
   5858   5862     1
   5858   5863     1
   5859   5866     1
   5859   5861     1
   5859   5862     1
   5859   5863     1
   5868   5875     1
   5868   5876     1
   5869   5874     1
   5869   5872     1
   5869   5873     1
   5869   5878     1
   5869   5879     1
   5869   5881     1
   5870   5874     1
   5870   5872     1
   5870   5873     1
   5870   5878     1
   5870   5879     1
   5870   5881     1
   5871   5878     1
   5871   5879     1
   5871   5881     1
   5872   5877     1
   5872   5880     1
   5872   5875     1
   5872   5876     1
   5873   5877     1
   5873   5880     1
   5873   5875     1
   5873   5876     1
   5882   5889     1
   5882   5890     1
   5883   5888     1
   5883   5886     1
   5883   5887     1
   5883   5892     1
   5883   5893     1
   5883   5895     1
   5884   5888     1
   5884   5886     1
   5884   5887     1
   5884   5892     1
   5884   5893     1
   5884   5895     1
   5885   5892     1
   5885   5893     1
   5885   5895     1
   5886   5894     1
   5886   5889     1
   5886   5890     1
   5886   5891     1
   5887   5894     1
   5887   5889     1
   5887   5890     1
   5887   5891     1
   5896   5903     1
   5896   5904     1
   5897   5902     1
   5897   5900     1
   5897   5901     1
   5897   5906     1
   5897   5907     1
   5897   5909     1
   5898   5902     1
   5898   5900     1
   5898   5901     1
   5898   5906     1
   5898   5907     1
   5898   5909     1
   5899   5906     1
   5899   5907     1
   5899   5909     1
   5900   5905     1
   5900   5908     1
   5900   5903     1
   5900   5904     1
   5901   5905     1
   5901   5908     1
   5901   5903     1
   5901   5904     1
   5910   5917     1
   5910   5918     1
   5911   5916     1
   5911   5914     1
   5911   5915     1
   5911   5920     1
   5911   5921     1
   5911   5923     1
   5912   5916     1
   5912   5914     1
   5912   5915     1
   5912   5920     1
   5912   5921     1
   5912   5923     1
   5913   5920     1
   5913   5921     1
   5913   5923     1
   5914   5922     1
   5914   5917     1
   5914   5918     1
   5914   5919     1
   5915   5922     1
   5915   5917     1
   5915   5918     1
   5915   5919     1
   5924   5931     1
   5924   5932     1
   5925   5930     1
   5925   5928     1
   5925   5929     1
   5925   5934     1
   5925   5935     1
   5925   5937     1
   5926   5930     1
   5926   5928     1
   5926   5929     1
   5926   5934     1
   5926   5935     1
   5926   5937     1
   5927   5934     1
   5927   5935     1
   5927   5937     1
   5928   5933     1
   5928   5936     1
   5928   5931     1
   5928   5932     1
   5929   5933     1
   5929   5936     1
   5929   5931     1
   5929   5932     1
   5938   5945     1
   5938   5946     1
   5939   5944     1
   5939   5942     1
   5939   5943     1
   5939   5948     1
   5939   5949     1
   5939   5951     1
   5940   5944     1
   5940   5942     1
   5940   5943     1
   5940   5948     1
   5940   5949     1
   5940   5951     1
   5941   5948     1
   5941   5949     1
   5941   5951     1
   5942   5950     1
   5942   5945     1
   5942   5946     1
   5942   5947     1
   5943   5950     1
   5943   5945     1
   5943   5946     1
   5943   5947     1
   5952   5959     1
   5952   5960     1
   5953   5958     1
   5953   5956     1
   5953   5957     1
   5953   5962     1
   5953   5963     1
   5953   5965     1
   5954   5958     1
   5954   5956     1
   5954   5957     1
   5954   5962     1
   5954   5963     1
   5954   5965     1
   5955   5962     1
   5955   5963     1
   5955   5965     1
   5956   5961     1
   5956   5964     1
   5956   5959     1
   5956   5960     1
   5957   5961     1
   5957   5964     1
   5957   5959     1
   5957   5960     1
   5966   5973     1
   5966   5974     1
   5967   5972     1
   5967   5970     1
   5967   5971     1
   5967   5976     1
   5967   5977     1
   5967   5979     1
   5968   5972     1
   5968   5970     1
   5968   5971     1
   5968   5976     1
   5968   5977     1
   5968   5979     1
   5969   5976     1
   5969   5977     1
   5969   5979     1
   5970   5978     1
   5970   5973     1
   5970   5974     1
   5970   5975     1
   5971   5978     1
   5971   5973     1
   5971   5974     1
   5971   5975     1
   5980   5987     1
   5980   5988     1
   5981   5986     1
   5981   5984     1
   5981   5985     1
   5981   5990     1
   5981   5991     1
   5981   5993     1
   5982   5986     1
   5982   5984     1
   5982   5985     1
   5982   5990     1
   5982   5991     1
   5982   5993     1
   5983   5990     1
   5983   5991     1
   5983   5993     1
   5984   5989     1
   5984   5992     1
   5984   5987     1
   5984   5988     1
   5985   5989     1
   5985   5992     1
   5985   5987     1
   5985   5988     1
   5994   6001     1
   5994   6002     1
   5995   6000     1
   5995   5998     1
   5995   5999     1
   5995   6004     1
   5995   6005     1
   5995   6007     1
   5996   6000     1
   5996   5998     1
   5996   5999     1
   5996   6004     1
   5996   6005     1
   5996   6007     1
   5997   6004     1
   5997   6005     1
   5997   6007     1
   5998   6006     1
   5998   6001     1
   5998   6002     1
   5998   6003     1
   5999   6006     1
   5999   6001     1
   5999   6002     1
   5999   6003     1
   6008   6015     1
   6008   6016     1
   6009   6014     1
   6009   6012     1
   6009   6013     1
   6009   6018     1
   6009   6019     1
   6009   6021     1
   6010   6014     1
   6010   6012     1
   6010   6013     1
   6010   6018     1
   6010   6019     1
   6010   6021     1
   6011   6018     1
   6011   6019     1
   6011   6021     1
   6012   6017     1
   6012   6020     1
   6012   6015     1
   6012   6016     1
   6013   6017     1
   6013   6020     1
   6013   6015     1
   6013   6016     1
   6022   6029     1
   6022   6030     1
   6023   6028     1
   6023   6026     1
   6023   6027     1
   6023   6032     1
   6023   6033     1
   6023   6035     1
   6024   6028     1
   6024   6026     1
   6024   6027     1
   6024   6032     1
   6024   6033     1
   6024   6035     1
   6025   6032     1
   6025   6033     1
   6025   6035     1
   6026   6034     1
   6026   6029     1
   6026   6030     1
   6026   6031     1
   6027   6034     1
   6027   6029     1
   6027   6030     1
   6027   6031     1
   6036   6043     1
   6036   6044     1
   6037   6042     1
   6037   6040     1
   6037   6041     1
   6037   6046     1
   6037   6047     1
   6037   6049     1
   6038   6042     1
   6038   6040     1
   6038   6041     1
   6038   6046     1
   6038   6047     1
   6038   6049     1
   6039   6046     1
   6039   6047     1
   6039   6049     1
   6040   6045     1
   6040   6048     1
   6040   6043     1
   6040   6044     1
   6041   6045     1
   6041   6048     1
   6041   6043     1
   6041   6044     1
   6050   6057     1
   6050   6058     1
   6051   6056     1
   6051   6054     1
   6051   6055     1
   6051   6060     1
   6051   6061     1
   6051   6063     1
   6052   6056     1
   6052   6054     1
   6052   6055     1
   6052   6060     1
   6052   6061     1
   6052   6063     1
   6053   6060     1
   6053   6061     1
   6053   6063     1
   6054   6062     1
   6054   6057     1
   6054   6058     1
   6054   6059     1
   6055   6062     1
   6055   6057     1
   6055   6058     1
   6055   6059     1
   6064   6071     1
   6064   6072     1
   6065   6070     1
   6065   6068     1
   6065   6069     1
   6065   6074     1
   6065   6075     1
   6065   6077     1
   6066   6070     1
   6066   6068     1
   6066   6069     1
   6066   6074     1
   6066   6075     1
   6066   6077     1
   6067   6074     1
   6067   6075     1
   6067   6077     1
   6068   6073     1
   6068   6076     1
   6068   6071     1
   6068   6072     1
   6069   6073     1
   6069   6076     1
   6069   6071     1
   6069   6072     1
   6078   6085     1
   6078   6086     1
   6079   6084     1
   6079   6082     1
   6079   6083     1
   6079   6088     1
   6079   6089     1
   6079   6091     1
   6080   6084     1
   6080   6082     1
   6080   6083     1
   6080   6088     1
   6080   6089     1
   6080   6091     1
   6081   6088     1
   6081   6089     1
   6081   6091     1
   6082   6090     1
   6082   6085     1
   6082   6086     1
   6082   6087     1
   6083   6090     1
   6083   6085     1
   6083   6086     1
   6083   6087     1
   6092   6099     1
   6092   6100     1
   6093   6098     1
   6093   6096     1
   6093   6097     1
   6093   6102     1
   6093   6103     1
   6093   6105     1
   6094   6098     1
   6094   6096     1
   6094   6097     1
   6094   6102     1
   6094   6103     1
   6094   6105     1
   6095   6102     1
   6095   6103     1
   6095   6105     1
   6096   6101     1
   6096   6104     1
   6096   6099     1
   6096   6100     1
   6097   6101     1
   6097   6104     1
   6097   6099     1
   6097   6100     1
   6106   6113     1
   6106   6114     1
   6107   6112     1
   6107   6110     1
   6107   6111     1
   6107   6116     1
   6107   6117     1
   6107   6119     1
   6108   6112     1
   6108   6110     1
   6108   6111     1
   6108   6116     1
   6108   6117     1
   6108   6119     1
   6109   6116     1
   6109   6117     1
   6109   6119     1
   6110   6118     1
   6110   6113     1
   6110   6114     1
   6110   6115     1
   6111   6118     1
   6111   6113     1
   6111   6114     1
   6111   6115     1
   6120   6127     1
   6120   6128     1
   6121   6126     1
   6121   6124     1
   6121   6125     1
   6121   6130     1
   6121   6131     1
   6121   6133     1
   6122   6126     1
   6122   6124     1
   6122   6125     1
   6122   6130     1
   6122   6131     1
   6122   6133     1
   6123   6130     1
   6123   6131     1
   6123   6133     1
   6124   6129     1
   6124   6132     1
   6124   6127     1
   6124   6128     1
   6125   6129     1
   6125   6132     1
   6125   6127     1
   6125   6128     1
   6134   6141     1
   6134   6142     1
   6135   6140     1
   6135   6138     1
   6135   6139     1
   6135   6144     1
   6135   6145     1
   6135   6147     1
   6136   6140     1
   6136   6138     1
   6136   6139     1
   6136   6144     1
   6136   6145     1
   6136   6147     1
   6137   6144     1
   6137   6145     1
   6137   6147     1
   6138   6146     1
   6138   6141     1
   6138   6142     1
   6138   6143     1
   6139   6146     1
   6139   6141     1
   6139   6142     1
   6139   6143     1
   6148   6155     1
   6148   6156     1
   6149   6154     1
   6149   6152     1
   6149   6153     1
   6149   6158     1
   6149   6159     1
   6149   6161     1
   6150   6154     1
   6150   6152     1
   6150   6153     1
   6150   6158     1
   6150   6159     1
   6150   6161     1
   6151   6158     1
   6151   6159     1
   6151   6161     1
   6152   6157     1
   6152   6160     1
   6152   6155     1
   6152   6156     1
   6153   6157     1
   6153   6160     1
   6153   6155     1
   6153   6156     1
   6162   6169     1
   6162   6170     1
   6163   6168     1
   6163   6166     1
   6163   6167     1
   6163   6172     1
   6163   6173     1
   6163   6175     1
   6164   6168     1
   6164   6166     1
   6164   6167     1
   6164   6172     1
   6164   6173     1
   6164   6175     1
   6165   6172     1
   6165   6173     1
   6165   6175     1
   6166   6174     1
   6166   6169     1
   6166   6170     1
   6166   6171     1
   6167   6174     1
   6167   6169     1
   6167   6170     1
   6167   6171     1
   6176   6183     1
   6176   6184     1
   6177   6182     1
   6177   6180     1
   6177   6181     1
   6177   6186     1
   6177   6187     1
   6177   6189     1
   6178   6182     1
   6178   6180     1
   6178   6181     1
   6178   6186     1
   6178   6187     1
   6178   6189     1
   6179   6186     1
   6179   6187     1
   6179   6189     1
   6180   6185     1
   6180   6188     1
   6180   6183     1
   6180   6184     1
   6181   6185     1
   6181   6188     1
   6181   6183     1
   6181   6184     1
   6190   6197     1
   6190   6198     1
   6191   6196     1
   6191   6194     1
   6191   6195     1
   6191   6200     1
   6191   6201     1
   6191   6203     1
   6192   6196     1
   6192   6194     1
   6192   6195     1
   6192   6200     1
   6192   6201     1
   6192   6203     1
   6193   6200     1
   6193   6201     1
   6193   6203     1
   6194   6202     1
   6194   6197     1
   6194   6198     1
   6194   6199     1
   6195   6202     1
   6195   6197     1
   6195   6198     1
   6195   6199     1
   6204   6211     1
   6204   6212     1
   6205   6210     1
   6205   6208     1
   6205   6209     1
   6205   6214     1
   6205   6215     1
   6205   6217     1
   6206   6210     1
   6206   6208     1
   6206   6209     1
   6206   6214     1
   6206   6215     1
   6206   6217     1
   6207   6214     1
   6207   6215     1
   6207   6217     1
   6208   6213     1
   6208   6216     1
   6208   6211     1
   6208   6212     1
   6209   6213     1
   6209   6216     1
   6209   6211     1
   6209   6212     1
   6218   6225     1
   6218   6226     1
   6219   6224     1
   6219   6222     1
   6219   6223     1
   6219   6228     1
   6219   6229     1
   6219   6231     1
   6220   6224     1
   6220   6222     1
   6220   6223     1
   6220   6228     1
   6220   6229     1
   6220   6231     1
   6221   6228     1
   6221   6229     1
   6221   6231     1
   6222   6230     1
   6222   6225     1
   6222   6226     1
   6222   6227     1
   6223   6230     1
   6223   6225     1
   6223   6226     1
   6223   6227     1
   6232   6239     1
   6232   6240     1
   6233   6238     1
   6233   6236     1
   6233   6237     1
   6233   6242     1
   6233   6243     1
   6233   6245     1
   6234   6238     1
   6234   6236     1
   6234   6237     1
   6234   6242     1
   6234   6243     1
   6234   6245     1
   6235   6242     1
   6235   6243     1
   6235   6245     1
   6236   6241     1
   6236   6244     1
   6236   6239     1
   6236   6240     1
   6237   6241     1
   6237   6244     1
   6237   6239     1
   6237   6240     1
   6246   6253     1
   6246   6254     1
   6247   6252     1
   6247   6250     1
   6247   6251     1
   6247   6256     1
   6247   6257     1
   6247   6259     1
   6248   6252     1
   6248   6250     1
   6248   6251     1
   6248   6256     1
   6248   6257     1
   6248   6259     1
   6249   6256     1
   6249   6257     1
   6249   6259     1
   6250   6258     1
   6250   6253     1
   6250   6254     1
   6250   6255     1
   6251   6258     1
   6251   6253     1
   6251   6254     1
   6251   6255     1
   6260   6267     1
   6260   6268     1
   6261   6266     1
   6261   6264     1
   6261   6265     1
   6261   6270     1
   6261   6271     1
   6261   6273     1
   6262   6266     1
   6262   6264     1
   6262   6265     1
   6262   6270     1
   6262   6271     1
   6262   6273     1
   6263   6270     1
   6263   6271     1
   6263   6273     1
   6264   6269     1
   6264   6272     1
   6264   6267     1
   6264   6268     1
   6265   6269     1
   6265   6272     1
   6265   6267     1
   6265   6268     1
   6274   6281     1
   6274   6282     1
   6275   6280     1
   6275   6278     1
   6275   6279     1
   6275   6284     1
   6275   6285     1
   6275   6287     1
   6276   6280     1
   6276   6278     1
   6276   6279     1
   6276   6284     1
   6276   6285     1
   6276   6287     1
   6277   6284     1
   6277   6285     1
   6277   6287     1
   6278   6286     1
   6278   6281     1
   6278   6282     1
   6278   6283     1
   6279   6286     1
   6279   6281     1
   6279   6282     1
   6279   6283     1
   6288   6295     1
   6288   6296     1
   6289   6294     1
   6289   6292     1
   6289   6293     1
   6289   6298     1
   6289   6299     1
   6289   6301     1
   6290   6294     1
   6290   6292     1
   6290   6293     1
   6290   6298     1
   6290   6299     1
   6290   6301     1
   6291   6298     1
   6291   6299     1
   6291   6301     1
   6292   6297     1
   6292   6300     1
   6292   6295     1
   6292   6296     1
   6293   6297     1
   6293   6300     1
   6293   6295     1
   6293   6296     1
   6302   6309     1
   6302   6310     1
   6303   6308     1
   6303   6306     1
   6303   6307     1
   6303   6312     1
   6303   6313     1
   6303   6315     1
   6304   6308     1
   6304   6306     1
   6304   6307     1
   6304   6312     1
   6304   6313     1
   6304   6315     1
   6305   6312     1
   6305   6313     1
   6305   6315     1
   6306   6314     1
   6306   6309     1
   6306   6310     1
   6306   6311     1
   6307   6314     1
   6307   6309     1
   6307   6310     1
   6307   6311     1
   6316   6323     1
   6316   6324     1
   6317   6322     1
   6317   6320     1
   6317   6321     1
   6317   6326     1
   6317   6327     1
   6317   6329     1
   6318   6322     1
   6318   6320     1
   6318   6321     1
   6318   6326     1
   6318   6327     1
   6318   6329     1
   6319   6326     1
   6319   6327     1
   6319   6329     1
   6320   6325     1
   6320   6328     1
   6320   6323     1
   6320   6324     1
   6321   6325     1
   6321   6328     1
   6321   6323     1
   6321   6324     1
   6330   6337     1
   6330   6338     1
   6331   6336     1
   6331   6334     1
   6331   6335     1
   6331   6340     1
   6331   6341     1
   6331   6343     1
   6332   6336     1
   6332   6334     1
   6332   6335     1
   6332   6340     1
   6332   6341     1
   6332   6343     1
   6333   6340     1
   6333   6341     1
   6333   6343     1
   6334   6342     1
   6334   6337     1
   6334   6338     1
   6334   6339     1
   6335   6342     1
   6335   6337     1
   6335   6338     1
   6335   6339     1
   6344   6351     1
   6344   6352     1
   6345   6350     1
   6345   6348     1
   6345   6349     1
   6345   6354     1
   6345   6355     1
   6345   6357     1
   6346   6350     1
   6346   6348     1
   6346   6349     1
   6346   6354     1
   6346   6355     1
   6346   6357     1
   6347   6354     1
   6347   6355     1
   6347   6357     1
   6348   6353     1
   6348   6356     1
   6348   6351     1
   6348   6352     1
   6349   6353     1
   6349   6356     1
   6349   6351     1
   6349   6352     1
   6358   6365     1
   6358   6366     1
   6359   6364     1
   6359   6362     1
   6359   6363     1
   6359   6368     1
   6359   6369     1
   6359   6371     1
   6360   6364     1
   6360   6362     1
   6360   6363     1
   6360   6368     1
   6360   6369     1
   6360   6371     1
   6361   6368     1
   6361   6369     1
   6361   6371     1
   6362   6370     1
   6362   6365     1
   6362   6366     1
   6362   6367     1
   6363   6370     1
   6363   6365     1
   6363   6366     1
   6363   6367     1
   6372   6379     1
   6372   6380     1
   6373   6378     1
   6373   6376     1
   6373   6377     1
   6373   6382     1
   6373   6383     1
   6373   6385     1
   6374   6378     1
   6374   6376     1
   6374   6377     1
   6374   6382     1
   6374   6383     1
   6374   6385     1
   6375   6382     1
   6375   6383     1
   6375   6385     1
   6376   6381     1
   6376   6384     1
   6376   6379     1
   6376   6380     1
   6377   6381     1
   6377   6384     1
   6377   6379     1
   6377   6380     1
   6386   6393     1
   6386   6394     1
   6387   6392     1
   6387   6390     1
   6387   6391     1
   6387   6396     1
   6387   6397     1
   6387   6399     1
   6388   6392     1
   6388   6390     1
   6388   6391     1
   6388   6396     1
   6388   6397     1
   6388   6399     1
   6389   6396     1
   6389   6397     1
   6389   6399     1
   6390   6398     1
   6390   6393     1
   6390   6394     1
   6390   6395     1
   6391   6398     1
   6391   6393     1
   6391   6394     1
   6391   6395     1
   6400   6407     1
   6400   6408     1
   6401   6406     1
   6401   6404     1
   6401   6405     1
   6401   6410     1
   6401   6411     1
   6401   6413     1
   6402   6406     1
   6402   6404     1
   6402   6405     1
   6402   6410     1
   6402   6411     1
   6402   6413     1
   6403   6410     1
   6403   6411     1
   6403   6413     1
   6404   6409     1
   6404   6412     1
   6404   6407     1
   6404   6408     1
   6405   6409     1
   6405   6412     1
   6405   6407     1
   6405   6408     1
   6414   6421     1
   6414   6422     1
   6415   6420     1
   6415   6418     1
   6415   6419     1
   6415   6424     1
   6415   6425     1
   6415   6427     1
   6416   6420     1
   6416   6418     1
   6416   6419     1
   6416   6424     1
   6416   6425     1
   6416   6427     1
   6417   6424     1
   6417   6425     1
   6417   6427     1
   6418   6426     1
   6418   6421     1
   6418   6422     1
   6418   6423     1
   6419   6426     1
   6419   6421     1
   6419   6422     1
   6419   6423     1
   6428   6435     1
   6428   6436     1
   6429   6434     1
   6429   6432     1
   6429   6433     1
   6429   6438     1
   6429   6439     1
   6429   6441     1
   6430   6434     1
   6430   6432     1
   6430   6433     1
   6430   6438     1
   6430   6439     1
   6430   6441     1
   6431   6438     1
   6431   6439     1
   6431   6441     1
   6432   6437     1
   6432   6440     1
   6432   6435     1
   6432   6436     1
   6433   6437     1
   6433   6440     1
   6433   6435     1
   6433   6436     1
   6442   6449     1
   6442   6450     1
   6443   6448     1
   6443   6446     1
   6443   6447     1
   6443   6452     1
   6443   6453     1
   6443   6455     1
   6444   6448     1
   6444   6446     1
   6444   6447     1
   6444   6452     1
   6444   6453     1
   6444   6455     1
   6445   6452     1
   6445   6453     1
   6445   6455     1
   6446   6454     1
   6446   6449     1
   6446   6450     1
   6446   6451     1
   6447   6454     1
   6447   6449     1
   6447   6450     1
   6447   6451     1
   6456   6463     1
   6456   6464     1
   6457   6462     1
   6457   6460     1
   6457   6461     1
   6457   6466     1
   6457   6467     1
   6457   6469     1
   6458   6462     1
   6458   6460     1
   6458   6461     1
   6458   6466     1
   6458   6467     1
   6458   6469     1
   6459   6466     1
   6459   6467     1
   6459   6469     1
   6460   6465     1
   6460   6468     1
   6460   6463     1
   6460   6464     1
   6461   6465     1
   6461   6468     1
   6461   6463     1
   6461   6464     1
   6470   6477     1
   6470   6478     1
   6471   6476     1
   6471   6474     1
   6471   6475     1
   6471   6480     1
   6471   6481     1
   6471   6483     1
   6472   6476     1
   6472   6474     1
   6472   6475     1
   6472   6480     1
   6472   6481     1
   6472   6483     1
   6473   6480     1
   6473   6481     1
   6473   6483     1
   6474   6482     1
   6474   6477     1
   6474   6478     1
   6474   6479     1
   6475   6482     1
   6475   6477     1
   6475   6478     1
   6475   6479     1
   6484   6491     1
   6484   6492     1
   6485   6490     1
   6485   6488     1
   6485   6489     1
   6485   6494     1
   6485   6495     1
   6485   6497     1
   6486   6490     1
   6486   6488     1
   6486   6489     1
   6486   6494     1
   6486   6495     1
   6486   6497     1
   6487   6494     1
   6487   6495     1
   6487   6497     1
   6488   6493     1
   6488   6496     1
   6488   6491     1
   6488   6492     1
   6489   6493     1
   6489   6496     1
   6489   6491     1
   6489   6492     1
   6498   6505     1
   6498   6506     1
   6499   6504     1
   6499   6502     1
   6499   6503     1
   6499   6508     1
   6499   6509     1
   6499   6511     1
   6500   6504     1
   6500   6502     1
   6500   6503     1
   6500   6508     1
   6500   6509     1
   6500   6511     1
   6501   6508     1
   6501   6509     1
   6501   6511     1
   6502   6510     1
   6502   6505     1
   6502   6506     1
   6502   6507     1
   6503   6510     1
   6503   6505     1
   6503   6506     1
   6503   6507     1
   6512   6519     1
   6512   6520     1
   6513   6518     1
   6513   6516     1
   6513   6517     1
   6513   6522     1
   6513   6523     1
   6513   6525     1
   6514   6518     1
   6514   6516     1
   6514   6517     1
   6514   6522     1
   6514   6523     1
   6514   6525     1
   6515   6522     1
   6515   6523     1
   6515   6525     1
   6516   6521     1
   6516   6524     1
   6516   6519     1
   6516   6520     1
   6517   6521     1
   6517   6524     1
   6517   6519     1
   6517   6520     1
   6526   6533     1
   6526   6534     1
   6527   6532     1
   6527   6530     1
   6527   6531     1
   6527   6536     1
   6527   6537     1
   6527   6539     1
   6528   6532     1
   6528   6530     1
   6528   6531     1
   6528   6536     1
   6528   6537     1
   6528   6539     1
   6529   6536     1
   6529   6537     1
   6529   6539     1
   6530   6538     1
   6530   6533     1
   6530   6534     1
   6530   6535     1
   6531   6538     1
   6531   6533     1
   6531   6534     1
   6531   6535     1
   6540   6547     1
   6540   6548     1
   6541   6546     1
   6541   6544     1
   6541   6545     1
   6541   6550     1
   6541   6551     1
   6541   6553     1
   6542   6546     1
   6542   6544     1
   6542   6545     1
   6542   6550     1
   6542   6551     1
   6542   6553     1
   6543   6550     1
   6543   6551     1
   6543   6553     1
   6544   6549     1
   6544   6552     1
   6544   6547     1
   6544   6548     1
   6545   6549     1
   6545   6552     1
   6545   6547     1
   6545   6548     1
   6554   6561     1
   6554   6562     1
   6555   6560     1
   6555   6558     1
   6555   6559     1
   6555   6564     1
   6555   6565     1
   6555   6567     1
   6556   6560     1
   6556   6558     1
   6556   6559     1
   6556   6564     1
   6556   6565     1
   6556   6567     1
   6557   6564     1
   6557   6565     1
   6557   6567     1
   6558   6566     1
   6558   6561     1
   6558   6562     1
   6558   6563     1
   6559   6566     1
   6559   6561     1
   6559   6562     1
   6559   6563     1
   6568   6575     1
   6568   6576     1
   6569   6574     1
   6569   6572     1
   6569   6573     1
   6569   6578     1
   6569   6579     1
   6569   6581     1
   6570   6574     1
   6570   6572     1
   6570   6573     1
   6570   6578     1
   6570   6579     1
   6570   6581     1
   6571   6578     1
   6571   6579     1
   6571   6581     1
   6572   6577     1
   6572   6580     1
   6572   6575     1
   6572   6576     1
   6573   6577     1
   6573   6580     1
   6573   6575     1
   6573   6576     1
   6582   6589     1
   6582   6590     1
   6583   6588     1
   6583   6586     1
   6583   6587     1
   6583   6592     1
   6583   6593     1
   6583   6595     1
   6584   6588     1
   6584   6586     1
   6584   6587     1
   6584   6592     1
   6584   6593     1
   6584   6595     1
   6585   6592     1
   6585   6593     1
   6585   6595     1
   6586   6594     1
   6586   6589     1
   6586   6590     1
   6586   6591     1
   6587   6594     1
   6587   6589     1
   6587   6590     1
   6587   6591     1
   6596   6603     1
   6596   6604     1
   6597   6602     1
   6597   6600     1
   6597   6601     1
   6597   6606     1
   6597   6607     1
   6597   6609     1
   6598   6602     1
   6598   6600     1
   6598   6601     1
   6598   6606     1
   6598   6607     1
   6598   6609     1
   6599   6606     1
   6599   6607     1
   6599   6609     1
   6600   6605     1
   6600   6608     1
   6600   6603     1
   6600   6604     1
   6601   6605     1
   6601   6608     1
   6601   6603     1
   6601   6604     1
   6610   6617     1
   6610   6618     1
   6611   6616     1
   6611   6614     1
   6611   6615     1
   6611   6620     1
   6611   6621     1
   6611   6623     1
   6612   6616     1
   6612   6614     1
   6612   6615     1
   6612   6620     1
   6612   6621     1
   6612   6623     1
   6613   6620     1
   6613   6621     1
   6613   6623     1
   6614   6622     1
   6614   6617     1
   6614   6618     1
   6614   6619     1
   6615   6622     1
   6615   6617     1
   6615   6618     1
   6615   6619     1
   6624   6631     1
   6624   6632     1
   6625   6630     1
   6625   6628     1
   6625   6629     1
   6625   6634     1
   6625   6635     1
   6625   6637     1
   6626   6630     1
   6626   6628     1
   6626   6629     1
   6626   6634     1
   6626   6635     1
   6626   6637     1
   6627   6634     1
   6627   6635     1
   6627   6637     1
   6628   6633     1
   6628   6636     1
   6628   6631     1
   6628   6632     1
   6629   6633     1
   6629   6636     1
   6629   6631     1
   6629   6632     1
   6638   6645     1
   6638   6646     1
   6639   6644     1
   6639   6642     1
   6639   6643     1
   6639   6648     1
   6639   6649     1
   6639   6651     1
   6640   6644     1
   6640   6642     1
   6640   6643     1
   6640   6648     1
   6640   6649     1
   6640   6651     1
   6641   6648     1
   6641   6649     1
   6641   6651     1
   6642   6650     1
   6642   6645     1
   6642   6646     1
   6642   6647     1
   6643   6650     1
   6643   6645     1
   6643   6646     1
   6643   6647     1
   6652   6659     1
   6652   6660     1
   6653   6658     1
   6653   6656     1
   6653   6657     1
   6653   6662     1
   6653   6663     1
   6653   6665     1
   6654   6658     1
   6654   6656     1
   6654   6657     1
   6654   6662     1
   6654   6663     1
   6654   6665     1
   6655   6662     1
   6655   6663     1
   6655   6665     1
   6656   6661     1
   6656   6664     1
   6656   6659     1
   6656   6660     1
   6657   6661     1
   6657   6664     1
   6657   6659     1
   6657   6660     1
   6666   6673     1
   6666   6674     1
   6667   6672     1
   6667   6670     1
   6667   6671     1
   6667   6676     1
   6667   6677     1
   6667   6679     1
   6668   6672     1
   6668   6670     1
   6668   6671     1
   6668   6676     1
   6668   6677     1
   6668   6679     1
   6669   6676     1
   6669   6677     1
   6669   6679     1
   6670   6678     1
   6670   6673     1
   6670   6674     1
   6670   6675     1
   6671   6678     1
   6671   6673     1
   6671   6674     1
   6671   6675     1
   6680   6687     1
   6680   6688     1
   6681   6686     1
   6681   6684     1
   6681   6685     1
   6681   6690     1
   6681   6691     1
   6681   6693     1
   6682   6686     1
   6682   6684     1
   6682   6685     1
   6682   6690     1
   6682   6691     1
   6682   6693     1
   6683   6690     1
   6683   6691     1
   6683   6693     1
   6684   6689     1
   6684   6692     1
   6684   6687     1
   6684   6688     1
   6685   6689     1
   6685   6692     1
   6685   6687     1
   6685   6688     1
   6694   6701     1
   6694   6702     1
   6695   6700     1
   6695   6698     1
   6695   6699     1
   6695   6704     1
   6695   6705     1
   6695   6707     1
   6696   6700     1
   6696   6698     1
   6696   6699     1
   6696   6704     1
   6696   6705     1
   6696   6707     1
   6697   6704     1
   6697   6705     1
   6697   6707     1
   6698   6706     1
   6698   6701     1
   6698   6702     1
   6698   6703     1
   6699   6706     1
   6699   6701     1
   6699   6702     1
   6699   6703     1
   6708   6715     1
   6708   6716     1
   6709   6714     1
   6709   6712     1
   6709   6713     1
   6709   6718     1
   6709   6719     1
   6709   6721     1
   6710   6714     1
   6710   6712     1
   6710   6713     1
   6710   6718     1
   6710   6719     1
   6710   6721     1
   6711   6718     1
   6711   6719     1
   6711   6721     1
   6712   6717     1
   6712   6720     1
   6712   6715     1
   6712   6716     1
   6713   6717     1
   6713   6720     1
   6713   6715     1
   6713   6716     1
   6722   6729     1
   6722   6730     1
   6723   6728     1
   6723   6726     1
   6723   6727     1
   6723   6732     1
   6723   6733     1
   6723   6735     1
   6724   6728     1
   6724   6726     1
   6724   6727     1
   6724   6732     1
   6724   6733     1
   6724   6735     1
   6725   6732     1
   6725   6733     1
   6725   6735     1
   6726   6734     1
   6726   6729     1
   6726   6730     1
   6726   6731     1
   6727   6734     1
   6727   6729     1
   6727   6730     1
   6727   6731     1
   6736   6743     1
   6736   6744     1
   6737   6742     1
   6737   6740     1
   6737   6741     1
   6737   6746     1
   6737   6747     1
   6737   6749     1
   6738   6742     1
   6738   6740     1
   6738   6741     1
   6738   6746     1
   6738   6747     1
   6738   6749     1
   6739   6746     1
   6739   6747     1
   6739   6749     1
   6740   6745     1
   6740   6748     1
   6740   6743     1
   6740   6744     1
   6741   6745     1
   6741   6748     1
   6741   6743     1
   6741   6744     1
   6750   6757     1
   6750   6758     1
   6751   6756     1
   6751   6754     1
   6751   6755     1
   6751   6760     1
   6751   6761     1
   6751   6763     1
   6752   6756     1
   6752   6754     1
   6752   6755     1
   6752   6760     1
   6752   6761     1
   6752   6763     1
   6753   6760     1
   6753   6761     1
   6753   6763     1
   6754   6762     1
   6754   6757     1
   6754   6758     1
   6754   6759     1
   6755   6762     1
   6755   6757     1
   6755   6758     1
   6755   6759     1
   6764   6771     1
   6764   6772     1
   6765   6770     1
   6765   6768     1
   6765   6769     1
   6765   6774     1
   6765   6775     1
   6765   6777     1
   6766   6770     1
   6766   6768     1
   6766   6769     1
   6766   6774     1
   6766   6775     1
   6766   6777     1
   6767   6774     1
   6767   6775     1
   6767   6777     1
   6768   6773     1
   6768   6776     1
   6768   6771     1
   6768   6772     1
   6769   6773     1
   6769   6776     1
   6769   6771     1
   6769   6772     1
   6778   6785     1
   6778   6786     1
   6779   6784     1
   6779   6782     1
   6779   6783     1
   6779   6788     1
   6779   6789     1
   6779   6791     1
   6780   6784     1
   6780   6782     1
   6780   6783     1
   6780   6788     1
   6780   6789     1
   6780   6791     1
   6781   6788     1
   6781   6789     1
   6781   6791     1
   6782   6790     1
   6782   6785     1
   6782   6786     1
   6782   6787     1
   6783   6790     1
   6783   6785     1
   6783   6786     1
   6783   6787     1
   6792   6799     1
   6792   6800     1
   6793   6798     1
   6793   6796     1
   6793   6797     1
   6793   6802     1
   6793   6803     1
   6793   6805     1
   6794   6798     1
   6794   6796     1
   6794   6797     1
   6794   6802     1
   6794   6803     1
   6794   6805     1
   6795   6802     1
   6795   6803     1
   6795   6805     1
   6796   6801     1
   6796   6804     1
   6796   6799     1
   6796   6800     1
   6797   6801     1
   6797   6804     1
   6797   6799     1
   6797   6800     1
   6806   6813     1
   6806   6814     1
   6807   6812     1
   6807   6810     1
   6807   6811     1
   6807   6816     1
   6807   6817     1
   6807   6819     1
   6808   6812     1
   6808   6810     1
   6808   6811     1
   6808   6816     1
   6808   6817     1
   6808   6819     1
   6809   6816     1
   6809   6817     1
   6809   6819     1
   6810   6818     1
   6810   6813     1
   6810   6814     1
   6810   6815     1
   6811   6818     1
   6811   6813     1
   6811   6814     1
   6811   6815     1
   6820   6827     1
   6820   6828     1
   6821   6826     1
   6821   6824     1
   6821   6825     1
   6821   6830     1
   6821   6831     1
   6821   6833     1
   6822   6826     1
   6822   6824     1
   6822   6825     1
   6822   6830     1
   6822   6831     1
   6822   6833     1
   6823   6830     1
   6823   6831     1
   6823   6833     1
   6824   6829     1
   6824   6832     1
   6824   6827     1
   6824   6828     1
   6825   6829     1
   6825   6832     1
   6825   6827     1
   6825   6828     1
   6834   6841     1
   6834   6842     1
   6835   6840     1
   6835   6838     1
   6835   6839     1
   6835   6844     1
   6835   6845     1
   6835   6847     1
   6836   6840     1
   6836   6838     1
   6836   6839     1
   6836   6844     1
   6836   6845     1
   6836   6847     1
   6837   6844     1
   6837   6845     1
   6837   6847     1
   6838   6846     1
   6838   6841     1
   6838   6842     1
   6838   6843     1
   6839   6846     1
   6839   6841     1
   6839   6842     1
   6839   6843     1
   6848   6855     1
   6848   6856     1
   6849   6854     1
   6849   6852     1
   6849   6853     1
   6849   6858     1
   6849   6859     1
   6849   6861     1
   6850   6854     1
   6850   6852     1
   6850   6853     1
   6850   6858     1
   6850   6859     1
   6850   6861     1
   6851   6858     1
   6851   6859     1
   6851   6861     1
   6852   6857     1
   6852   6860     1
   6852   6855     1
   6852   6856     1
   6853   6857     1
   6853   6860     1
   6853   6855     1
   6853   6856     1
   6862   6869     1
   6862   6870     1
   6863   6868     1
   6863   6866     1
   6863   6867     1
   6863   6872     1
   6863   6873     1
   6863   6875     1
   6864   6868     1
   6864   6866     1
   6864   6867     1
   6864   6872     1
   6864   6873     1
   6864   6875     1
   6865   6872     1
   6865   6873     1
   6865   6875     1
   6866   6874     1
   6866   6869     1
   6866   6870     1
   6866   6871     1
   6867   6874     1
   6867   6869     1
   6867   6870     1
   6867   6871     1
   6876   6883     1
   6876   6884     1
   6877   6882     1
   6877   6880     1
   6877   6881     1
   6877   6886     1
   6877   6887     1
   6877   6889     1
   6878   6882     1
   6878   6880     1
   6878   6881     1
   6878   6886     1
   6878   6887     1
   6878   6889     1
   6879   6886     1
   6879   6887     1
   6879   6889     1
   6880   6885     1
   6880   6888     1
   6880   6883     1
   6880   6884     1
   6881   6885     1
   6881   6888     1
   6881   6883     1
   6881   6884     1
   6890   6897     1
   6890   6898     1
   6891   6896     1
   6891   6894     1
   6891   6895     1
   6891   6900     1
   6891   6901     1
   6891   6903     1
   6892   6896     1
   6892   6894     1
   6892   6895     1
   6892   6900     1
   6892   6901     1
   6892   6903     1
   6893   6900     1
   6893   6901     1
   6893   6903     1
   6894   6902     1
   6894   6897     1
   6894   6898     1
   6894   6899     1
   6895   6902     1
   6895   6897     1
   6895   6898     1
   6895   6899     1
   6904   6911     1
   6904   6912     1
   6905   6910     1
   6905   6908     1
   6905   6909     1
   6905   6914     1
   6905   6915     1
   6905   6917     1
   6906   6910     1
   6906   6908     1
   6906   6909     1
   6906   6914     1
   6906   6915     1
   6906   6917     1
   6907   6914     1
   6907   6915     1
   6907   6917     1
   6908   6913     1
   6908   6916     1
   6908   6911     1
   6908   6912     1
   6909   6913     1
   6909   6916     1
   6909   6911     1
   6909   6912     1
   6918   6925     1
   6918   6926     1
   6919   6924     1
   6919   6922     1
   6919   6923     1
   6919   6928     1
   6919   6929     1
   6919   6931     1
   6920   6924     1
   6920   6922     1
   6920   6923     1
   6920   6928     1
   6920   6929     1
   6920   6931     1
   6921   6928     1
   6921   6929     1
   6921   6931     1
   6922   6930     1
   6922   6925     1
   6922   6926     1
   6922   6927     1
   6923   6930     1
   6923   6925     1
   6923   6926     1
   6923   6927     1
   6932   6939     1
   6932   6940     1
   6933   6938     1
   6933   6936     1
   6933   6937     1
   6933   6942     1
   6933   6943     1
   6933   6945     1
   6934   6938     1
   6934   6936     1
   6934   6937     1
   6934   6942     1
   6934   6943     1
   6934   6945     1
   6935   6942     1
   6935   6943     1
   6935   6945     1
   6936   6941     1
   6936   6944     1
   6936   6939     1
   6936   6940     1
   6937   6941     1
   6937   6944     1
   6937   6939     1
   6937   6940     1
   6946   6953     1
   6946   6954     1
   6947   6952     1
   6947   6950     1
   6947   6951     1
   6947   6956     1
   6947   6957     1
   6947   6959     1
   6948   6952     1
   6948   6950     1
   6948   6951     1
   6948   6956     1
   6948   6957     1
   6948   6959     1
   6949   6956     1
   6949   6957     1
   6949   6959     1
   6950   6958     1
   6950   6953     1
   6950   6954     1
   6950   6955     1
   6951   6958     1
   6951   6953     1
   6951   6954     1
   6951   6955     1
   6960   6967     1
   6960   6968     1
   6961   6966     1
   6961   6964     1
   6961   6965     1
   6961   6970     1
   6961   6971     1
   6961   6973     1
   6962   6966     1
   6962   6964     1
   6962   6965     1
   6962   6970     1
   6962   6971     1
   6962   6973     1
   6963   6970     1
   6963   6971     1
   6963   6973     1
   6964   6969     1
   6964   6972     1
   6964   6967     1
   6964   6968     1
   6965   6969     1
   6965   6972     1
   6965   6967     1
   6965   6968     1
   6974   6981     1
   6974   6982     1
   6975   6980     1
   6975   6978     1
   6975   6979     1
   6975   6984     1
   6975   6985     1
   6975   6987     1
   6976   6980     1
   6976   6978     1
   6976   6979     1
   6976   6984     1
   6976   6985     1
   6976   6987     1
   6977   6984     1
   6977   6985     1
   6977   6987     1
   6978   6986     1
   6978   6981     1
   6978   6982     1
   6978   6983     1
   6979   6986     1
   6979   6981     1
   6979   6982     1
   6979   6983     1
   6988   6995     1
   6988   6996     1
   6989   6994     1
   6989   6992     1
   6989   6993     1
   6989   6998     1
   6989   6999     1
   6989   7001     1
   6990   6994     1
   6990   6992     1
   6990   6993     1
   6990   6998     1
   6990   6999     1
   6990   7001     1
   6991   6998     1
   6991   6999     1
   6991   7001     1
   6992   6997     1
   6992   7000     1
   6992   6995     1
   6992   6996     1
   6993   6997     1
   6993   7000     1
   6993   6995     1
   6993   6996     1
   7002   7009     1
   7002   7010     1
   7003   7008     1
   7003   7006     1
   7003   7007     1
   7003   7012     1
   7003   7013     1
   7003   7015     1
   7004   7008     1
   7004   7006     1
   7004   7007     1
   7004   7012     1
   7004   7013     1
   7004   7015     1
   7005   7012     1
   7005   7013     1
   7005   7015     1
   7006   7014     1
   7006   7009     1
   7006   7010     1
   7006   7011     1
   7007   7014     1
   7007   7009     1
   7007   7010     1
   7007   7011     1
   7016   7023     1
   7016   7024     1
   7017   7022     1
   7017   7020     1
   7017   7021     1
   7017   7026     1
   7017   7027     1
   7017   7029     1
   7018   7022     1
   7018   7020     1
   7018   7021     1
   7018   7026     1
   7018   7027     1
   7018   7029     1
   7019   7026     1
   7019   7027     1
   7019   7029     1
   7020   7025     1
   7020   7028     1
   7020   7023     1
   7020   7024     1
   7021   7025     1
   7021   7028     1
   7021   7023     1
   7021   7024     1
   7030   7037     1
   7030   7038     1
   7031   7036     1
   7031   7034     1
   7031   7035     1
   7031   7040     1
   7031   7041     1
   7031   7043     1
   7032   7036     1
   7032   7034     1
   7032   7035     1
   7032   7040     1
   7032   7041     1
   7032   7043     1
   7033   7040     1
   7033   7041     1
   7033   7043     1
   7034   7042     1
   7034   7037     1
   7034   7038     1
   7034   7039     1
   7035   7042     1
   7035   7037     1
   7035   7038     1
   7035   7039     1
   7044   7051     1
   7044   7052     1
   7045   7050     1
   7045   7048     1
   7045   7049     1
   7045   7054     1
   7045   7055     1
   7045   7057     1
   7046   7050     1
   7046   7048     1
   7046   7049     1
   7046   7054     1
   7046   7055     1
   7046   7057     1
   7047   7054     1
   7047   7055     1
   7047   7057     1
   7048   7053     1
   7048   7056     1
   7048   7051     1
   7048   7052     1
   7049   7053     1
   7049   7056     1
   7049   7051     1
   7049   7052     1
   7058   7065     1
   7058   7066     1
   7059   7064     1
   7059   7062     1
   7059   7063     1
   7059   7068     1
   7059   7069     1
   7059   7071     1
   7060   7064     1
   7060   7062     1
   7060   7063     1
   7060   7068     1
   7060   7069     1
   7060   7071     1
   7061   7068     1
   7061   7069     1
   7061   7071     1
   7062   7070     1
   7062   7065     1
   7062   7066     1
   7062   7067     1
   7063   7070     1
   7063   7065     1
   7063   7066     1
   7063   7067     1
   7072   7079     1
   7072   7080     1
   7073   7078     1
   7073   7076     1
   7073   7077     1
   7073   7082     1
   7073   7083     1
   7073   7085     1
   7074   7078     1
   7074   7076     1
   7074   7077     1
   7074   7082     1
   7074   7083     1
   7074   7085     1
   7075   7082     1
   7075   7083     1
   7075   7085     1
   7076   7081     1
   7076   7084     1
   7076   7079     1
   7076   7080     1
   7077   7081     1
   7077   7084     1
   7077   7079     1
   7077   7080     1
   7086   7093     1
   7086   7094     1
   7087   7092     1
   7087   7090     1
   7087   7091     1
   7087   7096     1
   7087   7097     1
   7087   7099     1
   7088   7092     1
   7088   7090     1
   7088   7091     1
   7088   7096     1
   7088   7097     1
   7088   7099     1
   7089   7096     1
   7089   7097     1
   7089   7099     1
   7090   7098     1
   7090   7093     1
   7090   7094     1
   7090   7095     1
   7091   7098     1
   7091   7093     1
   7091   7094     1
   7091   7095     1
   7100   7107     1
   7100   7108     1
   7101   7106     1
   7101   7104     1
   7101   7105     1
   7101   7110     1
   7101   7111     1
   7101   7113     1
   7102   7106     1
   7102   7104     1
   7102   7105     1
   7102   7110     1
   7102   7111     1
   7102   7113     1
   7103   7110     1
   7103   7111     1
   7103   7113     1
   7104   7109     1
   7104   7112     1
   7104   7107     1
   7104   7108     1
   7105   7109     1
   7105   7112     1
   7105   7107     1
   7105   7108     1
   7114   7121     1
   7114   7122     1
   7115   7120     1
   7115   7118     1
   7115   7119     1
   7115   7124     1
   7115   7125     1
   7115   7127     1
   7116   7120     1
   7116   7118     1
   7116   7119     1
   7116   7124     1
   7116   7125     1
   7116   7127     1
   7117   7124     1
   7117   7125     1
   7117   7127     1
   7118   7126     1
   7118   7121     1
   7118   7122     1
   7118   7123     1
   7119   7126     1
   7119   7121     1
   7119   7122     1
   7119   7123     1
   7128   7135     1
   7128   7136     1
   7129   7134     1
   7129   7132     1
   7129   7133     1
   7129   7138     1
   7129   7139     1
   7129   7141     1
   7130   7134     1
   7130   7132     1
   7130   7133     1
   7130   7138     1
   7130   7139     1
   7130   7141     1
   7131   7138     1
   7131   7139     1
   7131   7141     1
   7132   7137     1
   7132   7140     1
   7132   7135     1
   7132   7136     1
   7133   7137     1
   7133   7140     1
   7133   7135     1
   7133   7136     1
   7142   7149     1
   7142   7150     1
   7143   7148     1
   7143   7146     1
   7143   7147     1
   7143   7152     1
   7143   7153     1
   7143   7155     1
   7144   7148     1
   7144   7146     1
   7144   7147     1
   7144   7152     1
   7144   7153     1
   7144   7155     1
   7145   7152     1
   7145   7153     1
   7145   7155     1
   7146   7154     1
   7146   7149     1
   7146   7150     1
   7146   7151     1
   7147   7154     1
   7147   7149     1
   7147   7150     1
   7147   7151     1
   7156   7163     1
   7156   7164     1
   7157   7162     1
   7157   7160     1
   7157   7161     1
   7157   7166     1
   7157   7167     1
   7157   7169     1
   7158   7162     1
   7158   7160     1
   7158   7161     1
   7158   7166     1
   7158   7167     1
   7158   7169     1
   7159   7166     1
   7159   7167     1
   7159   7169     1
   7160   7165     1
   7160   7168     1
   7160   7163     1
   7160   7164     1
   7161   7165     1
   7161   7168     1
   7161   7163     1
   7161   7164     1
   7170   7177     1
   7170   7178     1
   7171   7176     1
   7171   7174     1
   7171   7175     1
   7171   7180     1
   7171   7181     1
   7171   7183     1
   7172   7176     1
   7172   7174     1
   7172   7175     1
   7172   7180     1
   7172   7181     1
   7172   7183     1
   7173   7180     1
   7173   7181     1
   7173   7183     1
   7174   7182     1
   7174   7177     1
   7174   7178     1
   7174   7179     1
   7175   7182     1
   7175   7177     1
   7175   7178     1
   7175   7179     1
   7184   7191     1
   7184   7192     1
   7185   7190     1
   7185   7188     1
   7185   7189     1
   7185   7194     1
   7185   7195     1
   7185   7197     1
   7186   7190     1
   7186   7188     1
   7186   7189     1
   7186   7194     1
   7186   7195     1
   7186   7197     1
   7187   7194     1
   7187   7195     1
   7187   7197     1
   7188   7193     1
   7188   7196     1
   7188   7191     1
   7188   7192     1
   7189   7193     1
   7189   7196     1
   7189   7191     1
   7189   7192     1
   7198   7205     1
   7198   7206     1
   7199   7204     1
   7199   7202     1
   7199   7203     1
   7199   7208     1
   7199   7209     1
   7199   7211     1
   7200   7204     1
   7200   7202     1
   7200   7203     1
   7200   7208     1
   7200   7209     1
   7200   7211     1
   7201   7208     1
   7201   7209     1
   7201   7211     1
   7202   7210     1
   7202   7205     1
   7202   7206     1
   7202   7207     1
   7203   7210     1
   7203   7205     1
   7203   7206     1
   7203   7207     1
   7212   7219     1
   7212   7220     1
   7213   7218     1
   7213   7216     1
   7213   7217     1
   7213   7222     1
   7213   7223     1
   7213   7225     1
   7214   7218     1
   7214   7216     1
   7214   7217     1
   7214   7222     1
   7214   7223     1
   7214   7225     1
   7215   7222     1
   7215   7223     1
   7215   7225     1
   7216   7221     1
   7216   7224     1
   7216   7219     1
   7216   7220     1
   7217   7221     1
   7217   7224     1
   7217   7219     1
   7217   7220     1
   7226   7233     1
   7226   7234     1
   7227   7232     1
   7227   7230     1
   7227   7231     1
   7227   7236     1
   7227   7237     1
   7227   7239     1
   7228   7232     1
   7228   7230     1
   7228   7231     1
   7228   7236     1
   7228   7237     1
   7228   7239     1
   7229   7236     1
   7229   7237     1
   7229   7239     1
   7230   7238     1
   7230   7233     1
   7230   7234     1
   7230   7235     1
   7231   7238     1
   7231   7233     1
   7231   7234     1
   7231   7235     1
   7240   7247     1
   7240   7248     1
   7241   7246     1
   7241   7244     1
   7241   7245     1
   7241   7250     1
   7241   7251     1
   7241   7253     1
   7242   7246     1
   7242   7244     1
   7242   7245     1
   7242   7250     1
   7242   7251     1
   7242   7253     1
   7243   7250     1
   7243   7251     1
   7243   7253     1
   7244   7249     1
   7244   7252     1
   7244   7247     1
   7244   7248     1
   7245   7249     1
   7245   7252     1
   7245   7247     1
   7245   7248     1
   7254   7261     1
   7254   7262     1
   7255   7260     1
   7255   7258     1
   7255   7259     1
   7255   7264     1
   7255   7265     1
   7255   7267     1
   7256   7260     1
   7256   7258     1
   7256   7259     1
   7256   7264     1
   7256   7265     1
   7256   7267     1
   7257   7264     1
   7257   7265     1
   7257   7267     1
   7258   7266     1
   7258   7261     1
   7258   7262     1
   7258   7263     1
   7259   7266     1
   7259   7261     1
   7259   7262     1
   7259   7263     1
   7268   7275     1
   7268   7276     1
   7269   7274     1
   7269   7272     1
   7269   7273     1
   7269   7278     1
   7269   7279     1
   7269   7281     1
   7270   7274     1
   7270   7272     1
   7270   7273     1
   7270   7278     1
   7270   7279     1
   7270   7281     1
   7271   7278     1
   7271   7279     1
   7271   7281     1
   7272   7277     1
   7272   7280     1
   7272   7275     1
   7272   7276     1
   7273   7277     1
   7273   7280     1
   7273   7275     1
   7273   7276     1
   7282   7289     1
   7282   7290     1
   7283   7288     1
   7283   7286     1
   7283   7287     1
   7283   7292     1
   7283   7293     1
   7283   7295     1
   7284   7288     1
   7284   7286     1
   7284   7287     1
   7284   7292     1
   7284   7293     1
   7284   7295     1
   7285   7292     1
   7285   7293     1
   7285   7295     1
   7286   7294     1
   7286   7289     1
   7286   7290     1
   7286   7291     1
   7287   7294     1
   7287   7289     1
   7287   7290     1
   7287   7291     1
   7296   7303     1
   7296   7304     1
   7297   7302     1
   7297   7300     1
   7297   7301     1
   7297   7306     1
   7297   7307     1
   7297   7309     1
   7298   7302     1
   7298   7300     1
   7298   7301     1
   7298   7306     1
   7298   7307     1
   7298   7309     1
   7299   7306     1
   7299   7307     1
   7299   7309     1
   7300   7305     1
   7300   7308     1
   7300   7303     1
   7300   7304     1
   7301   7305     1
   7301   7308     1
   7301   7303     1
   7301   7304     1
   7310   7317     1
   7310   7318     1
   7311   7316     1
   7311   7314     1
   7311   7315     1
   7311   7320     1
   7311   7321     1
   7311   7323     1
   7312   7316     1
   7312   7314     1
   7312   7315     1
   7312   7320     1
   7312   7321     1
   7312   7323     1
   7313   7320     1
   7313   7321     1
   7313   7323     1
   7314   7322     1
   7314   7317     1
   7314   7318     1
   7314   7319     1
   7315   7322     1
   7315   7317     1
   7315   7318     1
   7315   7319     1
   7324   7331     1
   7324   7332     1
   7325   7330     1
   7325   7328     1
   7325   7329     1
   7325   7334     1
   7325   7335     1
   7325   7337     1
   7326   7330     1
   7326   7328     1
   7326   7329     1
   7326   7334     1
   7326   7335     1
   7326   7337     1
   7327   7334     1
   7327   7335     1
   7327   7337     1
   7328   7333     1
   7328   7336     1
   7328   7331     1
   7328   7332     1
   7329   7333     1
   7329   7336     1
   7329   7331     1
   7329   7332     1
   7338   7345     1
   7338   7346     1
   7339   7344     1
   7339   7342     1
   7339   7343     1
   7339   7348     1
   7339   7349     1
   7339   7351     1
   7340   7344     1
   7340   7342     1
   7340   7343     1
   7340   7348     1
   7340   7349     1
   7340   7351     1
   7341   7348     1
   7341   7349     1
   7341   7351     1
   7342   7350     1
   7342   7345     1
   7342   7346     1
   7342   7347     1
   7343   7350     1
   7343   7345     1
   7343   7346     1
   7343   7347     1
   7352   7359     1
   7352   7360     1
   7353   7358     1
   7353   7356     1
   7353   7357     1
   7353   7362     1
   7353   7363     1
   7353   7365     1
   7354   7358     1
   7354   7356     1
   7354   7357     1
   7354   7362     1
   7354   7363     1
   7354   7365     1
   7355   7362     1
   7355   7363     1
   7355   7365     1
   7356   7361     1
   7356   7364     1
   7356   7359     1
   7356   7360     1
   7357   7361     1
   7357   7364     1
   7357   7359     1
   7357   7360     1
   7366   7373     1
   7366   7374     1
   7367   7372     1
   7367   7370     1
   7367   7371     1
   7367   7376     1
   7367   7377     1
   7367   7379     1
   7368   7372     1
   7368   7370     1
   7368   7371     1
   7368   7376     1
   7368   7377     1
   7368   7379     1
   7369   7376     1
   7369   7377     1
   7369   7379     1
   7370   7378     1
   7370   7373     1
   7370   7374     1
   7370   7375     1
   7371   7378     1
   7371   7373     1
   7371   7374     1
   7371   7375     1
   7380   7387     1
   7380   7388     1
   7381   7386     1
   7381   7384     1
   7381   7385     1
   7381   7390     1
   7381   7391     1
   7381   7393     1
   7382   7386     1
   7382   7384     1
   7382   7385     1
   7382   7390     1
   7382   7391     1
   7382   7393     1
   7383   7390     1
   7383   7391     1
   7383   7393     1
   7384   7389     1
   7384   7392     1
   7384   7387     1
   7384   7388     1
   7385   7389     1
   7385   7392     1
   7385   7387     1
   7385   7388     1
   7394   7401     1
   7394   7402     1
   7395   7400     1
   7395   7398     1
   7395   7399     1
   7395   7404     1
   7395   7405     1
   7395   7407     1
   7396   7400     1
   7396   7398     1
   7396   7399     1
   7396   7404     1
   7396   7405     1
   7396   7407     1
   7397   7404     1
   7397   7405     1
   7397   7407     1
   7398   7406     1
   7398   7401     1
   7398   7402     1
   7398   7403     1
   7399   7406     1
   7399   7401     1
   7399   7402     1
   7399   7403     1
   7408   7415     1
   7408   7416     1
   7409   7414     1
   7409   7412     1
   7409   7413     1
   7409   7418     1
   7409   7419     1
   7409   7421     1
   7410   7414     1
   7410   7412     1
   7410   7413     1
   7410   7418     1
   7410   7419     1
   7410   7421     1
   7411   7418     1
   7411   7419     1
   7411   7421     1
   7412   7417     1
   7412   7420     1
   7412   7415     1
   7412   7416     1
   7413   7417     1
   7413   7420     1
   7413   7415     1
   7413   7416     1
   7422   7429     1
   7422   7430     1
   7423   7428     1
   7423   7426     1
   7423   7427     1
   7423   7432     1
   7423   7433     1
   7423   7435     1
   7424   7428     1
   7424   7426     1
   7424   7427     1
   7424   7432     1
   7424   7433     1
   7424   7435     1
   7425   7432     1
   7425   7433     1
   7425   7435     1
   7426   7434     1
   7426   7429     1
   7426   7430     1
   7426   7431     1
   7427   7434     1
   7427   7429     1
   7427   7430     1
   7427   7431     1
   7436   7443     1
   7436   7444     1
   7437   7442     1
   7437   7440     1
   7437   7441     1
   7437   7446     1
   7437   7447     1
   7437   7449     1
   7438   7442     1
   7438   7440     1
   7438   7441     1
   7438   7446     1
   7438   7447     1
   7438   7449     1
   7439   7446     1
   7439   7447     1
   7439   7449     1
   7440   7445     1
   7440   7448     1
   7440   7443     1
   7440   7444     1
   7441   7445     1
   7441   7448     1
   7441   7443     1
   7441   7444     1
   7450   7457     1
   7450   7458     1
   7451   7456     1
   7451   7454     1
   7451   7455     1
   7451   7460     1
   7451   7461     1
   7451   7463     1
   7452   7456     1
   7452   7454     1
   7452   7455     1
   7452   7460     1
   7452   7461     1
   7452   7463     1
   7453   7460     1
   7453   7461     1
   7453   7463     1
   7454   7462     1
   7454   7457     1
   7454   7458     1
   7454   7459     1
   7455   7462     1
   7455   7457     1
   7455   7458     1
   7455   7459     1
   7464   7471     1
   7464   7472     1
   7465   7470     1
   7465   7468     1
   7465   7469     1
   7465   7474     1
   7465   7475     1
   7465   7477     1
   7466   7470     1
   7466   7468     1
   7466   7469     1
   7466   7474     1
   7466   7475     1
   7466   7477     1
   7467   7474     1
   7467   7475     1
   7467   7477     1
   7468   7473     1
   7468   7476     1
   7468   7471     1
   7468   7472     1
   7469   7473     1
   7469   7476     1
   7469   7471     1
   7469   7472     1
   7478   7485     1
   7478   7486     1
   7479   7484     1
   7479   7482     1
   7479   7483     1
   7479   7488     1
   7479   7489     1
   7479   7491     1
   7480   7484     1
   7480   7482     1
   7480   7483     1
   7480   7488     1
   7480   7489     1
   7480   7491     1
   7481   7488     1
   7481   7489     1
   7481   7491     1
   7482   7490     1
   7482   7485     1
   7482   7486     1
   7482   7487     1
   7483   7490     1
   7483   7485     1
   7483   7486     1
   7483   7487     1
   7492   7499     1
   7492   7500     1
   7493   7498     1
   7493   7496     1
   7493   7497     1
   7493   7502     1
   7493   7503     1
   7493   7505     1
   7494   7498     1
   7494   7496     1
   7494   7497     1
   7494   7502     1
   7494   7503     1
   7494   7505     1
   7495   7502     1
   7495   7503     1
   7495   7505     1
   7496   7501     1
   7496   7504     1
   7496   7499     1
   7496   7500     1
   7497   7501     1
   7497   7504     1
   7497   7499     1
   7497   7500     1
   7506   7513     1
   7506   7514     1
   7507   7512     1
   7507   7510     1
   7507   7511     1
   7507   7516     1
   7507   7517     1
   7507   7519     1
   7508   7512     1
   7508   7510     1
   7508   7511     1
   7508   7516     1
   7508   7517     1
   7508   7519     1
   7509   7516     1
   7509   7517     1
   7509   7519     1
   7510   7518     1
   7510   7513     1
   7510   7514     1
   7510   7515     1
   7511   7518     1
   7511   7513     1
   7511   7514     1
   7511   7515     1
   7520   7527     1
   7520   7528     1
   7521   7526     1
   7521   7524     1
   7521   7525     1
   7521   7530     1
   7521   7531     1
   7521   7533     1
   7522   7526     1
   7522   7524     1
   7522   7525     1
   7522   7530     1
   7522   7531     1
   7522   7533     1
   7523   7530     1
   7523   7531     1
   7523   7533     1
   7524   7529     1
   7524   7532     1
   7524   7527     1
   7524   7528     1
   7525   7529     1
   7525   7532     1
   7525   7527     1
   7525   7528     1
   7534   7541     1
   7534   7542     1
   7535   7540     1
   7535   7538     1
   7535   7539     1
   7535   7544     1
   7535   7545     1
   7535   7547     1
   7536   7540     1
   7536   7538     1
   7536   7539     1
   7536   7544     1
   7536   7545     1
   7536   7547     1
   7537   7544     1
   7537   7545     1
   7537   7547     1
   7538   7546     1
   7538   7541     1
   7538   7542     1
   7538   7543     1
   7539   7546     1
   7539   7541     1
   7539   7542     1
   7539   7543     1
   7548   7555     1
   7548   7556     1
   7549   7554     1
   7549   7552     1
   7549   7553     1
   7549   7558     1
   7549   7559     1
   7549   7561     1
   7550   7554     1
   7550   7552     1
   7550   7553     1
   7550   7558     1
   7550   7559     1
   7550   7561     1
   7551   7558     1
   7551   7559     1
   7551   7561     1
   7552   7557     1
   7552   7560     1
   7552   7555     1
   7552   7556     1
   7553   7557     1
   7553   7560     1
   7553   7555     1
   7553   7556     1
   7562   7569     1
   7562   7570     1
   7563   7568     1
   7563   7566     1
   7563   7567     1
   7563   7572     1
   7563   7573     1
   7563   7575     1
   7564   7568     1
   7564   7566     1
   7564   7567     1
   7564   7572     1
   7564   7573     1
   7564   7575     1
   7565   7572     1
   7565   7573     1
   7565   7575     1
   7566   7574     1
   7566   7569     1
   7566   7570     1
   7566   7571     1
   7567   7574     1
   7567   7569     1
   7567   7570     1
   7567   7571     1
   7576   7583     1
   7576   7584     1
   7577   7582     1
   7577   7580     1
   7577   7581     1
   7577   7586     1
   7577   7587     1
   7577   7589     1
   7578   7582     1
   7578   7580     1
   7578   7581     1
   7578   7586     1
   7578   7587     1
   7578   7589     1
   7579   7586     1
   7579   7587     1
   7579   7589     1
   7580   7585     1
   7580   7588     1
   7580   7583     1
   7580   7584     1
   7581   7585     1
   7581   7588     1
   7581   7583     1
   7581   7584     1
   7590   7597     1
   7590   7598     1
   7591   7596     1
   7591   7594     1
   7591   7595     1
   7591   7600     1
   7591   7601     1
   7591   7603     1
   7592   7596     1
   7592   7594     1
   7592   7595     1
   7592   7600     1
   7592   7601     1
   7592   7603     1
   7593   7600     1
   7593   7601     1
   7593   7603     1
   7594   7602     1
   7594   7597     1
   7594   7598     1
   7594   7599     1
   7595   7602     1
   7595   7597     1
   7595   7598     1
   7595   7599     1
   7604   7611     1
   7604   7612     1
   7605   7610     1
   7605   7608     1
   7605   7609     1
   7605   7614     1
   7605   7615     1
   7605   7617     1
   7606   7610     1
   7606   7608     1
   7606   7609     1
   7606   7614     1
   7606   7615     1
   7606   7617     1
   7607   7614     1
   7607   7615     1
   7607   7617     1
   7608   7613     1
   7608   7616     1
   7608   7611     1
   7608   7612     1
   7609   7613     1
   7609   7616     1
   7609   7611     1
   7609   7612     1
   7618   7625     1
   7618   7626     1
   7619   7624     1
   7619   7622     1
   7619   7623     1
   7619   7628     1
   7619   7629     1
   7619   7631     1
   7620   7624     1
   7620   7622     1
   7620   7623     1
   7620   7628     1
   7620   7629     1
   7620   7631     1
   7621   7628     1
   7621   7629     1
   7621   7631     1
   7622   7630     1
   7622   7625     1
   7622   7626     1
   7622   7627     1
   7623   7630     1
   7623   7625     1
   7623   7626     1
   7623   7627     1
   7632   7639     1
   7632   7640     1
   7633   7638     1
   7633   7636     1
   7633   7637     1
   7633   7642     1
   7633   7643     1
   7633   7645     1
   7634   7638     1
   7634   7636     1
   7634   7637     1
   7634   7642     1
   7634   7643     1
   7634   7645     1
   7635   7642     1
   7635   7643     1
   7635   7645     1
   7636   7641     1
   7636   7644     1
   7636   7639     1
   7636   7640     1
   7637   7641     1
   7637   7644     1
   7637   7639     1
   7637   7640     1
   7646   7653     1
   7646   7654     1
   7647   7652     1
   7647   7650     1
   7647   7651     1
   7647   7656     1
   7647   7657     1
   7647   7659     1
   7648   7652     1
   7648   7650     1
   7648   7651     1
   7648   7656     1
   7648   7657     1
   7648   7659     1
   7649   7656     1
   7649   7657     1
   7649   7659     1
   7650   7658     1
   7650   7653     1
   7650   7654     1
   7650   7655     1
   7651   7658     1
   7651   7653     1
   7651   7654     1
   7651   7655     1
   7660   7667     1
   7660   7668     1
   7661   7666     1
   7661   7664     1
   7661   7665     1
   7661   7670     1
   7661   7671     1
   7661   7673     1
   7662   7666     1
   7662   7664     1
   7662   7665     1
   7662   7670     1
   7662   7671     1
   7662   7673     1
   7663   7670     1
   7663   7671     1
   7663   7673     1
   7664   7669     1
   7664   7672     1
   7664   7667     1
   7664   7668     1
   7665   7669     1
   7665   7672     1
   7665   7667     1
   7665   7668     1
   7674   7681     1
   7674   7682     1
   7675   7680     1
   7675   7678     1
   7675   7679     1
   7675   7684     1
   7675   7685     1
   7675   7687     1
   7676   7680     1
   7676   7678     1
   7676   7679     1
   7676   7684     1
   7676   7685     1
   7676   7687     1
   7677   7684     1
   7677   7685     1
   7677   7687     1
   7678   7686     1
   7678   7681     1
   7678   7682     1
   7678   7683     1
   7679   7686     1
   7679   7681     1
   7679   7682     1
   7679   7683     1
   7688   7695     1
   7688   7696     1
   7689   7694     1
   7689   7692     1
   7689   7693     1
   7689   7698     1
   7689   7699     1
   7689   7701     1
   7690   7694     1
   7690   7692     1
   7690   7693     1
   7690   7698     1
   7690   7699     1
   7690   7701     1
   7691   7698     1
   7691   7699     1
   7691   7701     1
   7692   7697     1
   7692   7700     1
   7692   7695     1
   7692   7696     1
   7693   7697     1
   7693   7700     1
   7693   7695     1
   7693   7696     1
   7702   7709     1
   7702   7710     1
   7703   7708     1
   7703   7706     1
   7703   7707     1
   7703   7712     1
   7703   7713     1
   7703   7715     1
   7704   7708     1
   7704   7706     1
   7704   7707     1
   7704   7712     1
   7704   7713     1
   7704   7715     1
   7705   7712     1
   7705   7713     1
   7705   7715     1
   7706   7714     1
   7706   7709     1
   7706   7710     1
   7706   7711     1
   7707   7714     1
   7707   7709     1
   7707   7710     1
   7707   7711     1
   7716   7723     1
   7716   7724     1
   7717   7722     1
   7717   7720     1
   7717   7721     1
   7717   7726     1
   7717   7727     1
   7717   7729     1
   7718   7722     1
   7718   7720     1
   7718   7721     1
   7718   7726     1
   7718   7727     1
   7718   7729     1
   7719   7726     1
   7719   7727     1
   7719   7729     1
   7720   7725     1
   7720   7728     1
   7720   7723     1
   7720   7724     1
   7721   7725     1
   7721   7728     1
   7721   7723     1
   7721   7724     1
   7730   7737     1
   7730   7738     1
   7731   7736     1
   7731   7734     1
   7731   7735     1
   7731   7740     1
   7731   7741     1
   7731   7743     1
   7732   7736     1
   7732   7734     1
   7732   7735     1
   7732   7740     1
   7732   7741     1
   7732   7743     1
   7733   7740     1
   7733   7741     1
   7733   7743     1
   7734   7742     1
   7734   7737     1
   7734   7738     1
   7734   7739     1
   7735   7742     1
   7735   7737     1
   7735   7738     1
   7735   7739     1
   7744   7751     1
   7744   7752     1
   7745   7750     1
   7745   7748     1
   7745   7749     1
   7745   7754     1
   7745   7755     1
   7745   7757     1
   7746   7750     1
   7746   7748     1
   7746   7749     1
   7746   7754     1
   7746   7755     1
   7746   7757     1
   7747   7754     1
   7747   7755     1
   7747   7757     1
   7748   7753     1
   7748   7756     1
   7748   7751     1
   7748   7752     1
   7749   7753     1
   7749   7756     1
   7749   7751     1
   7749   7752     1
   7758   7765     1
   7758   7766     1
   7759   7764     1
   7759   7762     1
   7759   7763     1
   7759   7768     1
   7759   7769     1
   7759   7771     1
   7760   7764     1
   7760   7762     1
   7760   7763     1
   7760   7768     1
   7760   7769     1
   7760   7771     1
   7761   7768     1
   7761   7769     1
   7761   7771     1
   7762   7770     1
   7762   7765     1
   7762   7766     1
   7762   7767     1
   7763   7770     1
   7763   7765     1
   7763   7766     1
   7763   7767     1
   7772   7779     1
   7772   7780     1
   7773   7778     1
   7773   7776     1
   7773   7777     1
   7773   7782     1
   7773   7783     1
   7773   7785     1
   7774   7778     1
   7774   7776     1
   7774   7777     1
   7774   7782     1
   7774   7783     1
   7774   7785     1
   7775   7782     1
   7775   7783     1
   7775   7785     1
   7776   7781     1
   7776   7784     1
   7776   7779     1
   7776   7780     1
   7777   7781     1
   7777   7784     1
   7777   7779     1
   7777   7780     1
   7786   7793     1
   7786   7794     1
   7787   7792     1
   7787   7790     1
   7787   7791     1
   7787   7796     1
   7787   7797     1
   7787   7799     1
   7788   7792     1
   7788   7790     1
   7788   7791     1
   7788   7796     1
   7788   7797     1
   7788   7799     1
   7789   7796     1
   7789   7797     1
   7789   7799     1
   7790   7798     1
   7790   7793     1
   7790   7794     1
   7790   7795     1
   7791   7798     1
   7791   7793     1
   7791   7794     1
   7791   7795     1
   7800   7807     1
   7800   7808     1
   7801   7806     1
   7801   7804     1
   7801   7805     1
   7801   7810     1
   7801   7811     1
   7801   7813     1
   7802   7806     1
   7802   7804     1
   7802   7805     1
   7802   7810     1
   7802   7811     1
   7802   7813     1
   7803   7810     1
   7803   7811     1
   7803   7813     1
   7804   7809     1
   7804   7812     1
   7804   7807     1
   7804   7808     1
   7805   7809     1
   7805   7812     1
   7805   7807     1
   7805   7808     1
   7814   7821     1
   7814   7822     1
   7815   7820     1
   7815   7818     1
   7815   7819     1
   7815   7824     1
   7815   7825     1
   7815   7827     1
   7816   7820     1
   7816   7818     1
   7816   7819     1
   7816   7824     1
   7816   7825     1
   7816   7827     1
   7817   7824     1
   7817   7825     1
   7817   7827     1
   7818   7826     1
   7818   7821     1
   7818   7822     1
   7818   7823     1
   7819   7826     1
   7819   7821     1
   7819   7822     1
   7819   7823     1
   7828   7835     1
   7828   7836     1
   7829   7834     1
   7829   7832     1
   7829   7833     1
   7829   7838     1
   7829   7839     1
   7829   7841     1
   7830   7834     1
   7830   7832     1
   7830   7833     1
   7830   7838     1
   7830   7839     1
   7830   7841     1
   7831   7838     1
   7831   7839     1
   7831   7841     1
   7832   7837     1
   7832   7840     1
   7832   7835     1
   7832   7836     1
   7833   7837     1
   7833   7840     1
   7833   7835     1
   7833   7836     1
   7842   7849     1
   7842   7850     1
   7843   7848     1
   7843   7846     1
   7843   7847     1
   7843   7852     1
   7843   7853     1
   7843   7855     1
   7844   7848     1
   7844   7846     1
   7844   7847     1
   7844   7852     1
   7844   7853     1
   7844   7855     1
   7845   7852     1
   7845   7853     1
   7845   7855     1
   7846   7854     1
   7846   7849     1
   7846   7850     1
   7846   7851     1
   7847   7854     1
   7847   7849     1
   7847   7850     1
   7847   7851     1
   7856   7863     1
   7856   7864     1
   7857   7862     1
   7857   7860     1
   7857   7861     1
   7857   7866     1
   7857   7867     1
   7857   7869     1
   7858   7862     1
   7858   7860     1
   7858   7861     1
   7858   7866     1
   7858   7867     1
   7858   7869     1
   7859   7866     1
   7859   7867     1
   7859   7869     1
   7860   7865     1
   7860   7868     1
   7860   7863     1
   7860   7864     1
   7861   7865     1
   7861   7868     1
   7861   7863     1
   7861   7864     1
   7870   7877     1
   7870   7878     1
   7871   7876     1
   7871   7874     1
   7871   7875     1
   7871   7880     1
   7871   7881     1
   7871   7883     1
   7872   7876     1
   7872   7874     1
   7872   7875     1
   7872   7880     1
   7872   7881     1
   7872   7883     1
   7873   7880     1
   7873   7881     1
   7873   7883     1
   7874   7882     1
   7874   7877     1
   7874   7878     1
   7874   7879     1
   7875   7882     1
   7875   7877     1
   7875   7878     1
   7875   7879     1
   7884   7891     1
   7884   7892     1
   7885   7890     1
   7885   7888     1
   7885   7889     1
   7885   7894     1
   7885   7895     1
   7885   7897     1
   7886   7890     1
   7886   7888     1
   7886   7889     1
   7886   7894     1
   7886   7895     1
   7886   7897     1
   7887   7894     1
   7887   7895     1
   7887   7897     1
   7888   7893     1
   7888   7896     1
   7888   7891     1
   7888   7892     1
   7889   7893     1
   7889   7896     1
   7889   7891     1
   7889   7892     1
   7898   7905     1
   7898   7906     1
   7899   7904     1
   7899   7902     1
   7899   7903     1
   7899   7908     1
   7899   7909     1
   7899   7911     1
   7900   7904     1
   7900   7902     1
   7900   7903     1
   7900   7908     1
   7900   7909     1
   7900   7911     1
   7901   7908     1
   7901   7909     1
   7901   7911     1
   7902   7910     1
   7902   7905     1
   7902   7906     1
   7902   7907     1
   7903   7910     1
   7903   7905     1
   7903   7906     1
   7903   7907     1
   7912   7919     1
   7912   7920     1
   7913   7918     1
   7913   7916     1
   7913   7917     1
   7913   7922     1
   7913   7923     1
   7913   7925     1
   7914   7918     1
   7914   7916     1
   7914   7917     1
   7914   7922     1
   7914   7923     1
   7914   7925     1
   7915   7922     1
   7915   7923     1
   7915   7925     1
   7916   7921     1
   7916   7924     1
   7916   7919     1
   7916   7920     1
   7917   7921     1
   7917   7924     1
   7917   7919     1
   7917   7920     1
   7926   7933     1
   7926   7934     1
   7927   7932     1
   7927   7930     1
   7927   7931     1
   7927   7936     1
   7927   7937     1
   7927   7939     1
   7928   7932     1
   7928   7930     1
   7928   7931     1
   7928   7936     1
   7928   7937     1
   7928   7939     1
   7929   7936     1
   7929   7937     1
   7929   7939     1
   7930   7938     1
   7930   7933     1
   7930   7934     1
   7930   7935     1
   7931   7938     1
   7931   7933     1
   7931   7934     1
   7931   7935     1
   7940   7947     1
   7940   7948     1
   7941   7946     1
   7941   7944     1
   7941   7945     1
   7941   7950     1
   7941   7951     1
   7941   7953     1
   7942   7946     1
   7942   7944     1
   7942   7945     1
   7942   7950     1
   7942   7951     1
   7942   7953     1
   7943   7950     1
   7943   7951     1
   7943   7953     1
   7944   7949     1
   7944   7952     1
   7944   7947     1
   7944   7948     1
   7945   7949     1
   7945   7952     1
   7945   7947     1
   7945   7948     1
   7954   7961     1
   7954   7962     1
   7955   7960     1
   7955   7958     1
   7955   7959     1
   7955   7964     1
   7955   7965     1
   7955   7967     1
   7956   7960     1
   7956   7958     1
   7956   7959     1
   7956   7964     1
   7956   7965     1
   7956   7967     1
   7957   7964     1
   7957   7965     1
   7957   7967     1
   7958   7966     1
   7958   7961     1
   7958   7962     1
   7958   7963     1
   7959   7966     1
   7959   7961     1
   7959   7962     1
   7959   7963     1
   7968   7975     1
   7968   7976     1
   7969   7974     1
   7969   7972     1
   7969   7973     1
   7969   7978     1
   7969   7979     1
   7969   7981     1
   7970   7974     1
   7970   7972     1
   7970   7973     1
   7970   7978     1
   7970   7979     1
   7970   7981     1
   7971   7978     1
   7971   7979     1
   7971   7981     1
   7972   7977     1
   7972   7980     1
   7972   7975     1
   7972   7976     1
   7973   7977     1
   7973   7980     1
   7973   7975     1
   7973   7976     1
   7982   7989     1
   7982   7990     1
   7983   7988     1
   7983   7986     1
   7983   7987     1
   7983   7992     1
   7983   7993     1
   7983   7995     1
   7984   7988     1
   7984   7986     1
   7984   7987     1
   7984   7992     1
   7984   7993     1
   7984   7995     1
   7985   7992     1
   7985   7993     1
   7985   7995     1
   7986   7994     1
   7986   7989     1
   7986   7990     1
   7986   7991     1
   7987   7994     1
   7987   7989     1
   7987   7990     1
   7987   7991     1
   7996   8003     1
   7996   8004     1
   7997   8002     1
   7997   8000     1
   7997   8001     1
   7997   8006     1
   7997   8007     1
   7997   8009     1
   7998   8002     1
   7998   8000     1
   7998   8001     1
   7998   8006     1
   7998   8007     1
   7998   8009     1
   7999   8006     1
   7999   8007     1
   7999   8009     1
   8000   8005     1
   8000   8008     1
   8000   8003     1
   8000   8004     1
   8001   8005     1
   8001   8008     1
   8001   8003     1
   8001   8004     1
   8010   8017     1
   8010   8018     1
   8011   8016     1
   8011   8014     1
   8011   8015     1
   8011   8020     1
   8011   8021     1
   8011   8023     1
   8012   8016     1
   8012   8014     1
   8012   8015     1
   8012   8020     1
   8012   8021     1
   8012   8023     1
   8013   8020     1
   8013   8021     1
   8013   8023     1
   8014   8022     1
   8014   8017     1
   8014   8018     1
   8014   8019     1
   8015   8022     1
   8015   8017     1
   8015   8018     1
   8015   8019     1
   8024   8031     1
   8024   8032     1
   8025   8030     1
   8025   8028     1
   8025   8029     1
   8025   8034     1
   8025   8035     1
   8025   8037     1
   8026   8030     1
   8026   8028     1
   8026   8029     1
   8026   8034     1
   8026   8035     1
   8026   8037     1
   8027   8034     1
   8027   8035     1
   8027   8037     1
   8028   8033     1
   8028   8036     1
   8028   8031     1
   8028   8032     1
   8029   8033     1
   8029   8036     1
   8029   8031     1
   8029   8032     1
   8038   8045     1
   8038   8046     1
   8039   8044     1
   8039   8042     1
   8039   8043     1
   8039   8048     1
   8039   8049     1
   8039   8051     1
   8040   8044     1
   8040   8042     1
   8040   8043     1
   8040   8048     1
   8040   8049     1
   8040   8051     1
   8041   8048     1
   8041   8049     1
   8041   8051     1
   8042   8050     1
   8042   8045     1
   8042   8046     1
   8042   8047     1
   8043   8050     1
   8043   8045     1
   8043   8046     1
   8043   8047     1
   8052   8059     1
   8052   8060     1
   8053   8058     1
   8053   8056     1
   8053   8057     1
   8053   8062     1
   8053   8063     1
   8053   8065     1
   8054   8058     1
   8054   8056     1
   8054   8057     1
   8054   8062     1
   8054   8063     1
   8054   8065     1
   8055   8062     1
   8055   8063     1
   8055   8065     1
   8056   8061     1
   8056   8064     1
   8056   8059     1
   8056   8060     1
   8057   8061     1
   8057   8064     1
   8057   8059     1
   8057   8060     1
   8066   8073     1
   8066   8074     1
   8067   8072     1
   8067   8070     1
   8067   8071     1
   8067   8076     1
   8067   8077     1
   8067   8079     1
   8068   8072     1
   8068   8070     1
   8068   8071     1
   8068   8076     1
   8068   8077     1
   8068   8079     1
   8069   8076     1
   8069   8077     1
   8069   8079     1
   8070   8078     1
   8070   8073     1
   8070   8074     1
   8070   8075     1
   8071   8078     1
   8071   8073     1
   8071   8074     1
   8071   8075     1
   8080   8087     1
   8080   8088     1
   8081   8086     1
   8081   8084     1
   8081   8085     1
   8081   8090     1
   8081   8091     1
   8081   8093     1
   8082   8086     1
   8082   8084     1
   8082   8085     1
   8082   8090     1
   8082   8091     1
   8082   8093     1
   8083   8090     1
   8083   8091     1
   8083   8093     1
   8084   8089     1
   8084   8092     1
   8084   8087     1
   8084   8088     1
   8085   8089     1
   8085   8092     1
   8085   8087     1
   8085   8088     1
   8094   8101     1
   8094   8102     1
   8095   8100     1
   8095   8098     1
   8095   8099     1
   8095   8104     1
   8095   8105     1
   8095   8107     1
   8096   8100     1
   8096   8098     1
   8096   8099     1
   8096   8104     1
   8096   8105     1
   8096   8107     1
   8097   8104     1
   8097   8105     1
   8097   8107     1
   8098   8106     1
   8098   8101     1
   8098   8102     1
   8098   8103     1
   8099   8106     1
   8099   8101     1
   8099   8102     1
   8099   8103     1
   8108   8115     1
   8108   8116     1
   8109   8114     1
   8109   8112     1
   8109   8113     1
   8109   8118     1
   8109   8119     1
   8109   8121     1
   8110   8114     1
   8110   8112     1
   8110   8113     1
   8110   8118     1
   8110   8119     1
   8110   8121     1
   8111   8118     1
   8111   8119     1
   8111   8121     1
   8112   8117     1
   8112   8120     1
   8112   8115     1
   8112   8116     1
   8113   8117     1
   8113   8120     1
   8113   8115     1
   8113   8116     1
   8122   8129     1
   8122   8130     1
   8123   8128     1
   8123   8126     1
   8123   8127     1
   8123   8132     1
   8123   8133     1
   8123   8135     1
   8124   8128     1
   8124   8126     1
   8124   8127     1
   8124   8132     1
   8124   8133     1
   8124   8135     1
   8125   8132     1
   8125   8133     1
   8125   8135     1
   8126   8134     1
   8126   8129     1
   8126   8130     1
   8126   8131     1
   8127   8134     1
   8127   8129     1
   8127   8130     1
   8127   8131     1
   8136   8143     1
   8136   8144     1
   8137   8142     1
   8137   8140     1
   8137   8141     1
   8137   8146     1
   8137   8147     1
   8137   8149     1
   8138   8142     1
   8138   8140     1
   8138   8141     1
   8138   8146     1
   8138   8147     1
   8138   8149     1
   8139   8146     1
   8139   8147     1
   8139   8149     1
   8140   8145     1
   8140   8148     1
   8140   8143     1
   8140   8144     1
   8141   8145     1
   8141   8148     1
   8141   8143     1
   8141   8144     1
   8150   8157     1
   8150   8158     1
   8151   8156     1
   8151   8154     1
   8151   8155     1
   8151   8160     1
   8151   8161     1
   8151   8163     1
   8152   8156     1
   8152   8154     1
   8152   8155     1
   8152   8160     1
   8152   8161     1
   8152   8163     1
   8153   8160     1
   8153   8161     1
   8153   8163     1
   8154   8162     1
   8154   8157     1
   8154   8158     1
   8154   8159     1
   8155   8162     1
   8155   8157     1
   8155   8158     1
   8155   8159     1
   8164   8171     1
   8164   8172     1
   8165   8170     1
   8165   8168     1
   8165   8169     1
   8165   8174     1
   8165   8175     1
   8165   8177     1
   8166   8170     1
   8166   8168     1
   8166   8169     1
   8166   8174     1
   8166   8175     1
   8166   8177     1
   8167   8174     1
   8167   8175     1
   8167   8177     1
   8168   8173     1
   8168   8176     1
   8168   8171     1
   8168   8172     1
   8169   8173     1
   8169   8176     1
   8169   8171     1
   8169   8172     1
   8178   8185     1
   8178   8186     1
   8179   8184     1
   8179   8182     1
   8179   8183     1
   8179   8188     1
   8179   8189     1
   8179   8191     1
   8180   8184     1
   8180   8182     1
   8180   8183     1
   8180   8188     1
   8180   8189     1
   8180   8191     1
   8181   8188     1
   8181   8189     1
   8181   8191     1
   8182   8190     1
   8182   8185     1
   8182   8186     1
   8182   8187     1
   8183   8190     1
   8183   8185     1
   8183   8186     1
   8183   8187     1
   8192   8199     1
   8192   8200     1
   8193   8198     1
   8193   8196     1
   8193   8197     1
   8193   8202     1
   8193   8203     1
   8193   8205     1
   8194   8198     1
   8194   8196     1
   8194   8197     1
   8194   8202     1
   8194   8203     1
   8194   8205     1
   8195   8202     1
   8195   8203     1
   8195   8205     1
   8196   8201     1
   8196   8204     1
   8196   8199     1
   8196   8200     1
   8197   8201     1
   8197   8204     1
   8197   8199     1
   8197   8200     1
   8206   8213     1
   8206   8214     1
   8207   8212     1
   8207   8210     1
   8207   8211     1
   8207   8216     1
   8207   8217     1
   8207   8219     1
   8208   8212     1
   8208   8210     1
   8208   8211     1
   8208   8216     1
   8208   8217     1
   8208   8219     1
   8209   8216     1
   8209   8217     1
   8209   8219     1
   8210   8218     1
   8210   8213     1
   8210   8214     1
   8210   8215     1
   8211   8218     1
   8211   8213     1
   8211   8214     1
   8211   8215     1
   8220   8227     1
   8220   8228     1
   8221   8226     1
   8221   8224     1
   8221   8225     1
   8221   8230     1
   8221   8231     1
   8221   8233     1
   8222   8226     1
   8222   8224     1
   8222   8225     1
   8222   8230     1
   8222   8231     1
   8222   8233     1
   8223   8230     1
   8223   8231     1
   8223   8233     1
   8224   8229     1
   8224   8232     1
   8224   8227     1
   8224   8228     1
   8225   8229     1
   8225   8232     1
   8225   8227     1
   8225   8228     1
   8234   8241     1
   8234   8242     1
   8235   8240     1
   8235   8238     1
   8235   8239     1
   8235   8244     1
   8235   8245     1
   8235   8247     1
   8236   8240     1
   8236   8238     1
   8236   8239     1
   8236   8244     1
   8236   8245     1
   8236   8247     1
   8237   8244     1
   8237   8245     1
   8237   8247     1
   8238   8246     1
   8238   8241     1
   8238   8242     1
   8238   8243     1
   8239   8246     1
   8239   8241     1
   8239   8242     1
   8239   8243     1
   8248   8255     1
   8248   8256     1
   8249   8254     1
   8249   8252     1
   8249   8253     1
   8249   8258     1
   8249   8259     1
   8249   8261     1
   8250   8254     1
   8250   8252     1
   8250   8253     1
   8250   8258     1
   8250   8259     1
   8250   8261     1
   8251   8258     1
   8251   8259     1
   8251   8261     1
   8252   8257     1
   8252   8260     1
   8252   8255     1
   8252   8256     1
   8253   8257     1
   8253   8260     1
   8253   8255     1
   8253   8256     1
   8262   8269     1
   8262   8270     1
   8263   8268     1
   8263   8266     1
   8263   8267     1
   8263   8272     1
   8263   8273     1
   8263   8275     1
   8264   8268     1
   8264   8266     1
   8264   8267     1
   8264   8272     1
   8264   8273     1
   8264   8275     1
   8265   8272     1
   8265   8273     1
   8265   8275     1
   8266   8274     1
   8266   8269     1
   8266   8270     1
   8266   8271     1
   8267   8274     1
   8267   8269     1
   8267   8270     1
   8267   8271     1
   8276   8283     1
   8276   8284     1
   8277   8282     1
   8277   8280     1
   8277   8281     1
   8277   8286     1
   8277   8287     1
   8277   8289     1
   8278   8282     1
   8278   8280     1
   8278   8281     1
   8278   8286     1
   8278   8287     1
   8278   8289     1
   8279   8286     1
   8279   8287     1
   8279   8289     1
   8280   8285     1
   8280   8288     1
   8280   8283     1
   8280   8284     1
   8281   8285     1
   8281   8288     1
   8281   8283     1
   8281   8284     1
   8290   8297     1
   8290   8298     1
   8291   8296     1
   8291   8294     1
   8291   8295     1
   8291   8300     1
   8291   8301     1
   8291   8303     1
   8292   8296     1
   8292   8294     1
   8292   8295     1
   8292   8300     1
   8292   8301     1
   8292   8303     1
   8293   8300     1
   8293   8301     1
   8293   8303     1
   8294   8302     1
   8294   8297     1
   8294   8298     1
   8294   8299     1
   8295   8302     1
   8295   8297     1
   8295   8298     1
   8295   8299     1
   8304   8311     1
   8304   8312     1
   8305   8310     1
   8305   8308     1
   8305   8309     1
   8305   8314     1
   8305   8315     1
   8305   8317     1
   8306   8310     1
   8306   8308     1
   8306   8309     1
   8306   8314     1
   8306   8315     1
   8306   8317     1
   8307   8314     1
   8307   8315     1
   8307   8317     1
   8308   8313     1
   8308   8316     1
   8308   8311     1
   8308   8312     1
   8309   8313     1
   8309   8316     1
   8309   8311     1
   8309   8312     1
   8318   8325     1
   8318   8326     1
   8319   8324     1
   8319   8322     1
   8319   8323     1
   8319   8328     1
   8319   8329     1
   8319   8331     1
   8320   8324     1
   8320   8322     1
   8320   8323     1
   8320   8328     1
   8320   8329     1
   8320   8331     1
   8321   8328     1
   8321   8329     1
   8321   8331     1
   8322   8330     1
   8322   8325     1
   8322   8326     1
   8322   8327     1
   8323   8330     1
   8323   8325     1
   8323   8326     1
   8323   8327     1
   8332   8339     1
   8332   8340     1
   8333   8338     1
   8333   8336     1
   8333   8337     1
   8333   8342     1
   8333   8343     1
   8333   8345     1
   8334   8338     1
   8334   8336     1
   8334   8337     1
   8334   8342     1
   8334   8343     1
   8334   8345     1
   8335   8342     1
   8335   8343     1
   8335   8345     1
   8336   8341     1
   8336   8344     1
   8336   8339     1
   8336   8340     1
   8337   8341     1
   8337   8344     1
   8337   8339     1
   8337   8340     1
   8346   8353     1
   8346   8354     1
   8347   8352     1
   8347   8350     1
   8347   8351     1
   8347   8356     1
   8347   8357     1
   8347   8359     1
   8348   8352     1
   8348   8350     1
   8348   8351     1
   8348   8356     1
   8348   8357     1
   8348   8359     1
   8349   8356     1
   8349   8357     1
   8349   8359     1
   8350   8358     1
   8350   8353     1
   8350   8354     1
   8350   8355     1
   8351   8358     1
   8351   8353     1
   8351   8354     1
   8351   8355     1
   8360   8367     1
   8360   8368     1
   8361   8366     1
   8361   8364     1
   8361   8365     1
   8361   8370     1
   8361   8371     1
   8361   8373     1
   8362   8366     1
   8362   8364     1
   8362   8365     1
   8362   8370     1
   8362   8371     1
   8362   8373     1
   8363   8370     1
   8363   8371     1
   8363   8373     1
   8364   8369     1
   8364   8372     1
   8364   8367     1
   8364   8368     1
   8365   8369     1
   8365   8372     1
   8365   8367     1
   8365   8368     1
   8374   8381     1
   8374   8382     1
   8375   8380     1
   8375   8378     1
   8375   8379     1
   8375   8384     1
   8375   8385     1
   8375   8387     1
   8376   8380     1
   8376   8378     1
   8376   8379     1
   8376   8384     1
   8376   8385     1
   8376   8387     1
   8377   8384     1
   8377   8385     1
   8377   8387     1
   8378   8386     1
   8378   8381     1
   8378   8382     1
   8378   8383     1
   8379   8386     1
   8379   8381     1
   8379   8382     1
   8379   8383     1

[ angles ]
;    ai     aj     ak funct         c0         c1         c2         c3
      1      2     14     1   114.2100488 537.225600
      1      5     17     1   114.2100488 537.225600
      1      8     11     1   114.2100488 537.225600
      2      1      5     1   109.6600471 523.836800
      2      1      8     1   109.6600471 523.836800
      2     14     26     1   111.5100476 526.347200
      5      1      8     1   109.6600471 523.836800
      5     17     20     1   111.5100476 526.347200
      8     11     23     1   111.5100476 526.347200
     11     23     88     1   107.9700462 569.024000
     14     26    118     1   107.9700462 569.024000
     17     20     58     1   107.9700462 569.024000
     20     58     49     1   112.4800480 524.673600
     23     88     79     1   112.4800480 524.673600
     26    118    109     1   112.4800480 524.673600
     30     31     43     1   114.2100488 537.225600
     30     34     46     1   114.2100488 537.225600
     30     37     40     1   114.2100488 537.225600
     31     30     34     1   109.6600471 523.836800
     31     30     37     1   109.6600471 523.836800
     31     43     55     1   111.5100476 526.347200
     34     30     37     1   109.6600471 523.836800
     34     46     52     1   111.5100476 526.347200
     37     40     49     1   111.5100476 526.347200
     40     49     58     1   107.9700462 569.024000
     43     55    178     1   107.9700462 569.024000
     46     52    148     1   107.9700462 569.024000
     52    148    139     1   112.4800480 524.673600
     55    178    169     1   112.4800480 524.673600
     60     61     73     1   114.2100488 537.225600
     60     64     76     1   114.2100488 537.225600
     60     67     70     1   114.2100488 537.225600
     61     60     64     1   109.6600471 523.836800
     61     60     67     1   109.6600471 523.836800
     61     73     85     1   111.5100476 526.347200
     64     60     67     1   109.6600471 523.836800
     64     76     82     1   111.5100476 526.347200
     67     70     79     1   111.5100476 526.347200
     70     79     88     1   107.9700462 569.024000
     73     85    238     1   107.9700462 569.024000
     76     82    208     1   107.9700462 569.024000
     82    208    199     1   112.4800480 524.673600
     85    238    229     1   112.4800480 524.673600
     90     91    103     1   114.2100488 537.225600
     90     94    106     1   114.2100488 537.225600
     90     97    100     1   114.2100488 537.225600
     91     90     94     1   109.6600471 523.836800
     91     90     97     1   109.6600471 523.836800
     91    103    115     1   111.5100476 526.347200
     94     90     97     1   109.6600471 523.836800
     94    106    112     1   111.5100476 526.347200
     97    100    109     1   111.5100476 526.347200
    100    109    118     1   107.9700462 569.024000
    103    115    298     1   107.9700462 569.024000
    106    112    268     1   107.9700462 569.024000
    112    268    259     1   112.4800480 524.673600
    115    298    289     1   112.4800480 524.673600
    120    121    133     1   114.2100488 537.225600
    120    124    136     1   114.2100488 537.225600
    120    127    130     1   114.2100488 537.225600
    121    120    124     1   109.6600471 523.836800
    121    120    127     1   109.6600471 523.836800
    121    133    145     1   111.5100476 526.347200
    124    120    127     1   109.6600471 523.836800
    124    136    142     1   111.5100476 526.347200
    127    130    139     1   111.5100476 526.347200
    130    139    148     1   107.9700462 569.024000
    133    145    358     1   107.9700462 569.024000
    136    142    328     1   107.9700462 569.024000
    142    328    319     1   112.4800480 524.673600
    145    358    349     1   112.4800480 524.673600
    150    151    163     1   114.2100488 537.225600
    150    154    166     1   114.2100488 537.225600
    150    157    160     1   114.2100488 537.225600
    151    150    154     1   109.6600471 523.836800
    151    150    157     1   109.6600471 523.836800
    151    163    175     1   111.5100476 526.347200
    154    150    157     1   109.6600471 523.836800
    154    166    172     1   111.5100476 526.347200
    157    160    169     1   111.5100476 526.347200
    160    169    178     1   107.9700462 569.024000
    163    175    418     1   107.9700462 569.024000
    166    172    388     1   107.9700462 569.024000
    172    388    379     1   112.4800480 524.673600
    175    418    409     1   112.4800480 524.673600
    180    181    193     1   114.2100488 537.225600
    180    184    196     1   114.2100488 537.225600
    180    187    190     1   114.2100488 537.225600
    181    180    184     1   109.6600471 523.836800
    181    180    187     1   109.6600471 523.836800
    181    193    205     1   111.5100476 526.347200
    184    180    187     1   109.6600471 523.836800
    184    196    202     1   111.5100476 526.347200
    187    190    199     1   111.5100476 526.347200
    190    199    208     1   107.9700462 569.024000
    193    205    478     1   107.9700462 569.024000
    196    202    448     1   107.9700462 569.024000
    202    448    439     1   112.4800480 524.673600
    205    478    469     1   112.4800480 524.673600
    210    211    223     1   114.2100488 537.225600
    210    214    226     1   114.2100488 537.225600
    210    217    220     1   114.2100488 537.225600
    211    210    214     1   109.6600471 523.836800
    211    210    217     1   109.6600471 523.836800
    211    223    235     1   111.5100476 526.347200
    214    210    217     1   109.6600471 523.836800
    214    226    232     1   111.5100476 526.347200
    217    220    229     1   111.5100476 526.347200
    220    229    238     1   107.9700462 569.024000
    223    235    538     1   107.9700462 569.024000
    226    232    508     1   107.9700462 569.024000
    232    508    499     1   112.4800480 524.673600
    235    538    529     1   112.4800480 524.673600
    240    241    253     1   114.2100488 537.225600
    240    244    256     1   114.2100488 537.225600
    240    247    250     1   114.2100488 537.225600
    241    240    244     1   109.6600471 523.836800
    241    240    247     1   109.6600471 523.836800
    241    253    265     1   111.5100476 526.347200
    244    240    247     1   109.6600471 523.836800
    244    256    262     1   111.5100476 526.347200
    247    250    259     1   111.5100476 526.347200
    250    259    268     1   107.9700462 569.024000
    253    265    598     1   107.9700462 569.024000
    256    262    568     1   107.9700462 569.024000
    262    568    559     1   112.4800480 524.673600
    265    598    589     1   112.4800480 524.673600
    270    271    283     1   114.2100488 537.225600
    270    274    286     1   114.2100488 537.225600
    270    277    280     1   114.2100488 537.225600
    271    270    274     1   109.6600471 523.836800
    271    270    277     1   109.6600471 523.836800
    271    283    295     1   111.5100476 526.347200
    274    270    277     1   109.6600471 523.836800
    274    286    292     1   111.5100476 526.347200
    277    280    289     1   111.5100476 526.347200
    280    289    298     1   107.9700462 569.024000
    283    295    658     1   107.9700462 569.024000
    286    292    628     1   107.9700462 569.024000
    292    628    619     1   112.4800480 524.673600
    295    658    649     1   112.4800480 524.673600
    300    301    313     1   114.2100488 537.225600
    300    304    316     1   114.2100488 537.225600
    300    307    310     1   114.2100488 537.225600
    301    300    304     1   109.6600471 523.836800
    301    300    307     1   109.6600471 523.836800
    301    313    325     1   111.5100476 526.347200
    304    300    307     1   109.6600471 523.836800
    304    316    322     1   111.5100476 526.347200
    307    310    319     1   111.5100476 526.347200
    310    319    328     1   107.9700462 569.024000
    313    325    718     1   107.9700462 569.024000
    316    322    688     1   107.9700462 569.024000
    322    688    679     1   112.4800480 524.673600
    325    718    709     1   112.4800480 524.673600
    330    331    343     1   114.2100488 537.225600
    330    334    346     1   114.2100488 537.225600
    330    337    340     1   114.2100488 537.225600
    331    330    334     1   109.6600471 523.836800
    331    330    337     1   109.6600471 523.836800
    331    343    355     1   111.5100476 526.347200
    334    330    337     1   109.6600471 523.836800
    334    346    352     1   111.5100476 526.347200
    337    340    349     1   111.5100476 526.347200
    340    349    358     1   107.9700462 569.024000
    343    355    778     1   107.9700462 569.024000
    346    352    748     1   107.9700462 569.024000
    352    748    739     1   112.4800480 524.673600
    355    778    769     1   112.4800480 524.673600
    360    361    373     1   114.2100488 537.225600
    360    364    376     1   114.2100488 537.225600
    360    367    370     1   114.2100488 537.225600
    361    360    364     1   109.6600471 523.836800
    361    360    367     1   109.6600471 523.836800
    361    373    385     1   111.5100476 526.347200
    364    360    367     1   109.6600471 523.836800
    364    376    382     1   111.5100476 526.347200
    367    370    379     1   111.5100476 526.347200
    370    379    388     1   107.9700462 569.024000
    373    385    838     1   107.9700462 569.024000
    376    382    808     1   107.9700462 569.024000
    382    808    799     1   112.4800480 524.673600
    385    838    829     1   112.4800480 524.673600
    390    391    403     1   114.2100488 537.225600
    390    394    406     1   114.2100488 537.225600
    390    397    400     1   114.2100488 537.225600
    391    390    394     1   109.6600471 523.836800
    391    390    397     1   109.6600471 523.836800
    391    403    415     1   111.5100476 526.347200
    394    390    397     1   109.6600471 523.836800
    394    406    412     1   111.5100476 526.347200
    397    400    409     1   111.5100476 526.347200
    400    409    418     1   107.9700462 569.024000
    403    415    898     1   107.9700462 569.024000
    406    412    868     1   107.9700462 569.024000
    412    868    859     1   112.4800480 524.673600
    415    898    889     1   112.4800480 524.673600
    420    421    433     1   114.2100488 537.225600
    420    424    436     1   114.2100488 537.225600
    420    427    430     1   114.2100488 537.225600
    421    420    424     1   109.6600471 523.836800
    421    420    427     1   109.6600471 523.836800
    421    433    445     1   111.5100476 526.347200
    424    420    427     1   109.6600471 523.836800
    424    436    442     1   111.5100476 526.347200
    427    430    439     1   111.5100476 526.347200
    430    439    448     1   107.9700462 569.024000
    433    445    958     1   107.9700462 569.024000
    436    442    928     1   107.9700462 569.024000
    442    928    919     1   112.4800480 524.673600
    445    958    949     1   112.4800480 524.673600
    450    451    463     1   114.2100488 537.225600
    450    454    466     1   114.2100488 537.225600
    450    457    460     1   114.2100488 537.225600
    451    450    454     1   109.6600471 523.836800
    451    450    457     1   109.6600471 523.836800
    451    463    475     1   111.5100476 526.347200
    454    450    457     1   109.6600471 523.836800
    454    466    472     1   111.5100476 526.347200
    457    460    469     1   111.5100476 526.347200
    460    469    478     1   107.9700462 569.024000
    463    475   1018     1   107.9700462 569.024000
    466    472    988     1   107.9700462 569.024000
    472    988    979     1   112.4800480 524.673600
    475   1018   1009     1   112.4800480 524.673600
    480    481    493     1   114.2100488 537.225600
    480    484    496     1   114.2100488 537.225600
    480    487    490     1   114.2100488 537.225600
    481    480    484     1   109.6600471 523.836800
    481    480    487     1   109.6600471 523.836800
    481    493    505     1   111.5100476 526.347200
    484    480    487     1   109.6600471 523.836800
    484    496    502     1   111.5100476 526.347200
    487    490    499     1   111.5100476 526.347200
    490    499    508     1   107.9700462 569.024000
    493    505   1078     1   107.9700462 569.024000
    496    502   1048     1   107.9700462 569.024000
    502   1048   1039     1   112.4800480 524.673600
    505   1078   1069     1   112.4800480 524.673600
    510    511    523     1   114.2100488 537.225600
    510    514    526     1   114.2100488 537.225600
    510    517    520     1   114.2100488 537.225600
    511    510    514     1   109.6600471 523.836800
    511    510    517     1   109.6600471 523.836800
    511    523    535     1   111.5100476 526.347200
    514    510    517     1   109.6600471 523.836800
    514    526    532     1   111.5100476 526.347200
    517    520    529     1   111.5100476 526.347200
    520    529    538     1   107.9700462 569.024000
    523    535   1138     1   107.9700462 569.024000
    526    532   1108     1   107.9700462 569.024000
    532   1108   1099     1   112.4800480 524.673600
    535   1138   1129     1   112.4800480 524.673600
    540    541    553     1   114.2100488 537.225600
    540    544    556     1   114.2100488 537.225600
    540    547    550     1   114.2100488 537.225600
    541    540    544     1   109.6600471 523.836800
    541    540    547     1   109.6600471 523.836800
    541    553    565     1   111.5100476 526.347200
    544    540    547     1   109.6600471 523.836800
    544    556    562     1   111.5100476 526.347200
    547    550    559     1   111.5100476 526.347200
    550    559    568     1   107.9700462 569.024000
    553    565   1198     1   107.9700462 569.024000
    556    562   1168     1   107.9700462 569.024000
    562   1168   1159     1   112.4800480 524.673600
    565   1198   1189     1   112.4800480 524.673600
    570    571    583     1   114.2100488 537.225600
    570    574    586     1   114.2100488 537.225600
    570    577    580     1   114.2100488 537.225600
    571    570    574     1   109.6600471 523.836800
    571    570    577     1   109.6600471 523.836800
    571    583    595     1   111.5100476 526.347200
    574    570    577     1   109.6600471 523.836800
    574    586    592     1   111.5100476 526.347200
    577    580    589     1   111.5100476 526.347200
    580    589    598     1   107.9700462 569.024000
    583    595   1258     1   107.9700462 569.024000
    586    592   1228     1   107.9700462 569.024000
    592   1228   1219     1   112.4800480 524.673600
    595   1258   1249     1   112.4800480 524.673600
    600    601    613     1   114.2100488 537.225600
    600    604    616     1   114.2100488 537.225600
    600    607    610     1   114.2100488 537.225600
    601    600    604     1   109.6600471 523.836800
    601    600    607     1   109.6600471 523.836800
    601    613    625     1   111.5100476 526.347200
    604    600    607     1   109.6600471 523.836800
    604    616    622     1   111.5100476 526.347200
    607    610    619     1   111.5100476 526.347200
    610    619    628     1   107.9700462 569.024000
    613    625   1318     1   107.9700462 569.024000
    616    622   1288     1   107.9700462 569.024000
    622   1288   1279     1   112.4800480 524.673600
    625   1318   1309     1   112.4800480 524.673600
    630    631    643     1   114.2100488 537.225600
    630    634    646     1   114.2100488 537.225600
    630    637    640     1   114.2100488 537.225600
    631    630    634     1   109.6600471 523.836800
    631    630    637     1   109.6600471 523.836800
    631    643    655     1   111.5100476 526.347200
    634    630    637     1   109.6600471 523.836800
    634    646    652     1   111.5100476 526.347200
    637    640    649     1   111.5100476 526.347200
    640    649    658     1   107.9700462 569.024000
    643    655   1378     1   107.9700462 569.024000
    646    652   1348     1   107.9700462 569.024000
    652   1348   1339     1   112.4800480 524.673600
    655   1378   1369     1   112.4800480 524.673600
    660    661    673     1   114.2100488 537.225600
    660    664    676     1   114.2100488 537.225600
    660    667    670     1   114.2100488 537.225600
    661    660    664     1   109.6600471 523.836800
    661    660    667     1   109.6600471 523.836800
    661    673    685     1   111.5100476 526.347200
    664    660    667     1   109.6600471 523.836800
    664    676    682     1   111.5100476 526.347200
    667    670    679     1   111.5100476 526.347200
    670    679    688     1   107.9700462 569.024000
    673    685   1438     1   107.9700462 569.024000
    676    682   1408     1   107.9700462 569.024000
    682   1408   1399     1   112.4800480 524.673600
    685   1438   1429     1   112.4800480 524.673600
    690    691    703     1   114.2100488 537.225600
    690    694    706     1   114.2100488 537.225600
    690    697    700     1   114.2100488 537.225600
    691    690    694     1   109.6600471 523.836800
    691    690    697     1   109.6600471 523.836800
    691    703    715     1   111.5100476 526.347200
    694    690    697     1   109.6600471 523.836800
    694    706    712     1   111.5100476 526.347200
    697    700    709     1   111.5100476 526.347200
    700    709    718     1   107.9700462 569.024000
    703    715   1498     1   107.9700462 569.024000
    706    712   1468     1   107.9700462 569.024000
    712   1468   1459     1   112.4800480 524.673600
    715   1498   1489     1   112.4800480 524.673600
    720    721    733     1   114.2100488 537.225600
    720    724    736     1   114.2100488 537.225600
    720    727    730     1   114.2100488 537.225600
    721    720    724     1   109.6600471 523.836800
    721    720    727     1   109.6600471 523.836800
    721    733    745     1   111.5100476 526.347200
    724    720    727     1   109.6600471 523.836800
    724    736    742     1   111.5100476 526.347200
    727    730    739     1   111.5100476 526.347200
    730    739    748     1   107.9700462 569.024000
    733    745   1558     1   107.9700462 569.024000
    736    742   1528     1   107.9700462 569.024000
    742   1528   1519     1   112.4800480 524.673600
    745   1558   1549     1   112.4800480 524.673600
    750    751    763     1   114.2100488 537.225600
    750    754    766     1   114.2100488 537.225600
    750    757    760     1   114.2100488 537.225600
    751    750    754     1   109.6600471 523.836800
    751    750    757     1   109.6600471 523.836800
    751    763    775     1   111.5100476 526.347200
    754    750    757     1   109.6600471 523.836800
    754    766    772     1   111.5100476 526.347200
    757    760    769     1   111.5100476 526.347200
    760    769    778     1   107.9700462 569.024000
    763    775   1618     1   107.9700462 569.024000
    766    772   1588     1   107.9700462 569.024000
    772   1588   1579     1   112.4800480 524.673600
    775   1618   1609     1   112.4800480 524.673600
    780    781    793     1   114.2100488 537.225600
    780    784    796     1   114.2100488 537.225600
    780    787    790     1   114.2100488 537.225600
    781    780    784     1   109.6600471 523.836800
    781    780    787     1   109.6600471 523.836800
    781    793    805     1   111.5100476 526.347200
    784    780    787     1   109.6600471 523.836800
    784    796    802     1   111.5100476 526.347200
    787    790    799     1   111.5100476 526.347200
    790    799    808     1   107.9700462 569.024000
    793    805   1678     1   107.9700462 569.024000
    796    802   1648     1   107.9700462 569.024000
    802   1648   1639     1   112.4800480 524.673600
    805   1678   1669     1   112.4800480 524.673600
    810    811    823     1   114.2100488 537.225600
    810    814    826     1   114.2100488 537.225600
    810    817    820     1   114.2100488 537.225600
    811    810    814     1   109.6600471 523.836800
    811    810    817     1   109.6600471 523.836800
    811    823    835     1   111.5100476 526.347200
    814    810    817     1   109.6600471 523.836800
    814    826    832     1   111.5100476 526.347200
    817    820    829     1   111.5100476 526.347200
    820    829    838     1   107.9700462 569.024000
    823    835   1738     1   107.9700462 569.024000
    826    832   1708     1   107.9700462 569.024000
    832   1708   1699     1   112.4800480 524.673600
    835   1738   1729     1   112.4800480 524.673600
    840    841    853     1   114.2100488 537.225600
    840    844    856     1   114.2100488 537.225600
    840    847    850     1   114.2100488 537.225600
    841    840    844     1   109.6600471 523.836800
    841    840    847     1   109.6600471 523.836800
    841    853    865     1   111.5100476 526.347200
    844    840    847     1   109.6600471 523.836800
    844    856    862     1   111.5100476 526.347200
    847    850    859     1   111.5100476 526.347200
    850    859    868     1   107.9700462 569.024000
    853    865   1798     1   107.9700462 569.024000
    856    862   1768     1   107.9700462 569.024000
    862   1768   1759     1   112.4800480 524.673600
    865   1798   1789     1   112.4800480 524.673600
    870    871    883     1   114.2100488 537.225600
    870    874    886     1   114.2100488 537.225600
    870    877    880     1   114.2100488 537.225600
    871    870    874     1   109.6600471 523.836800
    871    870    877     1   109.6600471 523.836800
    871    883    895     1   111.5100476 526.347200
    874    870    877     1   109.6600471 523.836800
    874    886    892     1   111.5100476 526.347200
    877    880    889     1   111.5100476 526.347200
    880    889    898     1   107.9700462 569.024000
    883    895   1858     1   107.9700462 569.024000
    886    892   1828     1   107.9700462 569.024000
    892   1828   1819     1   112.4800480 524.673600
    895   1858   1849     1   112.4800480 524.673600
    900    901    913     1   114.2100488 537.225600
    900    904    916     1   114.2100488 537.225600
    900    907    910     1   114.2100488 537.225600
    901    900    904     1   109.6600471 523.836800
    901    900    907     1   109.6600471 523.836800
    901    913    925     1   111.5100476 526.347200
    904    900    907     1   109.6600471 523.836800
    904    916    922     1   111.5100476 526.347200
    907    910    919     1   111.5100476 526.347200
    910    919    928     1   107.9700462 569.024000
    913    925   1918     1   107.9700462 569.024000
    916    922   1888     1   107.9700462 569.024000
    922   1888   1879     1   112.4800480 524.673600
    925   1918   1909     1   112.4800480 524.673600
    930    931    943     1   114.2100488 537.225600
    930    934    946     1   114.2100488 537.225600
    930    937    940     1   114.2100488 537.225600
    931    930    934     1   109.6600471 523.836800
    931    930    937     1   109.6600471 523.836800
    931    943    955     1   111.5100476 526.347200
    934    930    937     1   109.6600471 523.836800
    934    946    952     1   111.5100476 526.347200
    937    940    949     1   111.5100476 526.347200
    940    949    958     1   107.9700462 569.024000
    943    955   1978     1   107.9700462 569.024000
    946    952   1948     1   107.9700462 569.024000
    952   1948   1939     1   112.4800480 524.673600
    955   1978   1969     1   112.4800480 524.673600
    960    961    973     1   114.2100488 537.225600
    960    964    976     1   114.2100488 537.225600
    960    967    970     1   114.2100488 537.225600
    961    960    964     1   109.6600471 523.836800
    961    960    967     1   109.6600471 523.836800
    961    973    985     1   111.5100476 526.347200
    964    960    967     1   109.6600471 523.836800
    964    976    982     1   111.5100476 526.347200
    967    970    979     1   111.5100476 526.347200
    970    979    988     1   107.9700462 569.024000
    973    985   2038     1   107.9700462 569.024000
    976    982   2008     1   107.9700462 569.024000
    982   2008   1999     1   112.4800480 524.673600
    985   2038   2029     1   112.4800480 524.673600
    990    991   1003     1   114.2100488 537.225600
    990    994   1006     1   114.2100488 537.225600
    990    997   1000     1   114.2100488 537.225600
    991    990    994     1   109.6600471 523.836800
    991    990    997     1   109.6600471 523.836800
    991   1003   1015     1   111.5100476 526.347200
    994    990    997     1   109.6600471 523.836800
    994   1006   1012     1   111.5100476 526.347200
    997   1000   1009     1   111.5100476 526.347200
   1000   1009   1018     1   107.9700462 569.024000
   1003   1015   2098     1   107.9700462 569.024000
   1006   1012   2068     1   107.9700462 569.024000
   1012   2068   2059     1   112.4800480 524.673600
   1015   2098   2089     1   112.4800480 524.673600
   1020   1021   1033     1   114.2100488 537.225600
   1020   1024   1036     1   114.2100488 537.225600
   1020   1027   1030     1   114.2100488 537.225600
   1021   1020   1024     1   109.6600471 523.836800
   1021   1020   1027     1   109.6600471 523.836800
   1021   1033   1045     1   111.5100476 526.347200
   1024   1020   1027     1   109.6600471 523.836800
   1024   1036   1042     1   111.5100476 526.347200
   1027   1030   1039     1   111.5100476 526.347200
   1030   1039   1048     1   107.9700462 569.024000
   1033   1045   2158     1   107.9700462 569.024000
   1036   1042   2128     1   107.9700462 569.024000
   1042   2128   2119     1   112.4800480 524.673600
   1045   2158   2149     1   112.4800480 524.673600
   1050   1051   1063     1   114.2100488 537.225600
   1050   1054   1066     1   114.2100488 537.225600
   1050   1057   1060     1   114.2100488 537.225600
   1051   1050   1054     1   109.6600471 523.836800
   1051   1050   1057     1   109.6600471 523.836800
   1051   1063   1075     1   111.5100476 526.347200
   1054   1050   1057     1   109.6600471 523.836800
   1054   1066   1072     1   111.5100476 526.347200
   1057   1060   1069     1   111.5100476 526.347200
   1060   1069   1078     1   107.9700462 569.024000
   1063   1075   2218     1   107.9700462 569.024000
   1066   1072   2188     1   107.9700462 569.024000
   1072   2188   2179     1   112.4800480 524.673600
   1075   2218   2209     1   112.4800480 524.673600
   1080   1081   1093     1   114.2100488 537.225600
   1080   1084   1096     1   114.2100488 537.225600
   1080   1087   1090     1   114.2100488 537.225600
   1081   1080   1084     1   109.6600471 523.836800
   1081   1080   1087     1   109.6600471 523.836800
   1081   1093   1105     1   111.5100476 526.347200
   1084   1080   1087     1   109.6600471 523.836800
   1084   1096   1102     1   111.5100476 526.347200
   1087   1090   1099     1   111.5100476 526.347200
   1090   1099   1108     1   107.9700462 569.024000
   1093   1105   2278     1   107.9700462 569.024000
   1096   1102   2248     1   107.9700462 569.024000
   1102   2248   2239     1   112.4800480 524.673600
   1105   2278   2269     1   112.4800480 524.673600
   1110   1111   1123     1   114.2100488 537.225600
   1110   1114   1126     1   114.2100488 537.225600
   1110   1117   1120     1   114.2100488 537.225600
   1111   1110   1114     1   109.6600471 523.836800
   1111   1110   1117     1   109.6600471 523.836800
   1111   1123   1135     1   111.5100476 526.347200
   1114   1110   1117     1   109.6600471 523.836800
   1114   1126   1132     1   111.5100476 526.347200
   1117   1120   1129     1   111.5100476 526.347200
   1120   1129   1138     1   107.9700462 569.024000
   1123   1135   2338     1   107.9700462 569.024000
   1126   1132   2308     1   107.9700462 569.024000
   1132   2308   2299     1   112.4800480 524.673600
   1135   2338   2329     1   112.4800480 524.673600
   1140   1141   1153     1   114.2100488 537.225600
   1140   1144   1156     1   114.2100488 537.225600
   1140   1147   1150     1   114.2100488 537.225600
   1141   1140   1144     1   109.6600471 523.836800
   1141   1140   1147     1   109.6600471 523.836800
   1141   1153   1165     1   111.5100476 526.347200
   1144   1140   1147     1   109.6600471 523.836800
   1144   1156   1162     1   111.5100476 526.347200
   1147   1150   1159     1   111.5100476 526.347200
   1150   1159   1168     1   107.9700462 569.024000
   1153   1165   2398     1   107.9700462 569.024000
   1156   1162   2368     1   107.9700462 569.024000
   1162   2368   2359     1   112.4800480 524.673600
   1165   2398   2389     1   112.4800480 524.673600
   1170   1171   1183     1   114.2100488 537.225600
   1170   1174   1186     1   114.2100488 537.225600
   1170   1177   1180     1   114.2100488 537.225600
   1171   1170   1174     1   109.6600471 523.836800
   1171   1170   1177     1   109.6600471 523.836800
   1171   1183   1195     1   111.5100476 526.347200
   1174   1170   1177     1   109.6600471 523.836800
   1174   1186   1192     1   111.5100476 526.347200
   1177   1180   1189     1   111.5100476 526.347200
   1180   1189   1198     1   107.9700462 569.024000
   1183   1195   2458     1   107.9700462 569.024000
   1186   1192   2428     1   107.9700462 569.024000
   1192   2428   2419     1   112.4800480 524.673600
   1195   2458   2449     1   112.4800480 524.673600
   1200   1201   1213     1   114.2100488 537.225600
   1200   1204   1216     1   114.2100488 537.225600
   1200   1207   1210     1   114.2100488 537.225600
   1201   1200   1204     1   109.6600471 523.836800
   1201   1200   1207     1   109.6600471 523.836800
   1201   1213   1225     1   111.5100476 526.347200
   1204   1200   1207     1   109.6600471 523.836800
   1204   1216   1222     1   111.5100476 526.347200
   1207   1210   1219     1   111.5100476 526.347200
   1210   1219   1228     1   107.9700462 569.024000
   1213   1225   2518     1   107.9700462 569.024000
   1216   1222   2488     1   107.9700462 569.024000
   1222   2488   2479     1   112.4800480 524.673600
   1225   2518   2509     1   112.4800480 524.673600
   1230   1231   1243     1   114.2100488 537.225600
   1230   1234   1246     1   114.2100488 537.225600
   1230   1237   1240     1   114.2100488 537.225600
   1231   1230   1234     1   109.6600471 523.836800
   1231   1230   1237     1   109.6600471 523.836800
   1231   1243   1255     1   111.5100476 526.347200
   1234   1230   1237     1   109.6600471 523.836800
   1234   1246   1252     1   111.5100476 526.347200
   1237   1240   1249     1   111.5100476 526.347200
   1240   1249   1258     1   107.9700462 569.024000
   1243   1255   2578     1   107.9700462 569.024000
   1246   1252   2548     1   107.9700462 569.024000
   1252   2548   2539     1   112.4800480 524.673600
   1255   2578   2569     1   112.4800480 524.673600
   1260   1261   1273     1   114.2100488 537.225600
   1260   1264   1276     1   114.2100488 537.225600
   1260   1267   1270     1   114.2100488 537.225600
   1261   1260   1264     1   109.6600471 523.836800
   1261   1260   1267     1   109.6600471 523.836800
   1261   1273   1285     1   111.5100476 526.347200
   1264   1260   1267     1   109.6600471 523.836800
   1264   1276   1282     1   111.5100476 526.347200
   1267   1270   1279     1   111.5100476 526.347200
   1270   1279   1288     1   107.9700462 569.024000
   1273   1285   2638     1   107.9700462 569.024000
   1276   1282   2608     1   107.9700462 569.024000
   1282   2608   2599     1   112.4800480 524.673600
   1285   2638   2629     1   112.4800480 524.673600
   1290   1291   1303     1   114.2100488 537.225600
   1290   1294   1306     1   114.2100488 537.225600
   1290   1297   1300     1   114.2100488 537.225600
   1291   1290   1294     1   109.6600471 523.836800
   1291   1290   1297     1   109.6600471 523.836800
   1291   1303   1315     1   111.5100476 526.347200
   1294   1290   1297     1   109.6600471 523.836800
   1294   1306   1312     1   111.5100476 526.347200
   1297   1300   1309     1   111.5100476 526.347200
   1300   1309   1318     1   107.9700462 569.024000
   1303   1315   2698     1   107.9700462 569.024000
   1306   1312   2668     1   107.9700462 569.024000
   1312   2668   2659     1   112.4800480 524.673600
   1315   2698   2689     1   112.4800480 524.673600
   1320   1321   1333     1   114.2100488 537.225600
   1320   1324   1336     1   114.2100488 537.225600
   1320   1327   1330     1   114.2100488 537.225600
   1321   1320   1324     1   109.6600471 523.836800
   1321   1320   1327     1   109.6600471 523.836800
   1321   1333   1345     1   111.5100476 526.347200
   1324   1320   1327     1   109.6600471 523.836800
   1324   1336   1342     1   111.5100476 526.347200
   1327   1330   1339     1   111.5100476 526.347200
   1330   1339   1348     1   107.9700462 569.024000
   1333   1345   2758     1   107.9700462 569.024000
   1336   1342   2728     1   107.9700462 569.024000
   1342   2728   2719     1   112.4800480 524.673600
   1345   2758   2749     1   112.4800480 524.673600
   1350   1351   1363     1   114.2100488 537.225600
   1350   1354   1366     1   114.2100488 537.225600
   1350   1357   1360     1   114.2100488 537.225600
   1351   1350   1354     1   109.6600471 523.836800
   1351   1350   1357     1   109.6600471 523.836800
   1351   1363   1375     1   111.5100476 526.347200
   1354   1350   1357     1   109.6600471 523.836800
   1354   1366   1372     1   111.5100476 526.347200
   1357   1360   1369     1   111.5100476 526.347200
   1360   1369   1378     1   107.9700462 569.024000
   1363   1375   2818     1   107.9700462 569.024000
   1366   1372   2788     1   107.9700462 569.024000
   1372   2788   2779     1   112.4800480 524.673600
   1375   2818   2809     1   112.4800480 524.673600
   1380   1381   1393     1   114.2100488 537.225600
   1380   1384   1396     1   114.2100488 537.225600
   1380   1387   1390     1   114.2100488 537.225600
   1381   1380   1384     1   109.6600471 523.836800
   1381   1380   1387     1   109.6600471 523.836800
   1381   1393   1405     1   111.5100476 526.347200
   1384   1380   1387     1   109.6600471 523.836800
   1384   1396   1402     1   111.5100476 526.347200
   1387   1390   1399     1   111.5100476 526.347200
   1390   1399   1408     1   107.9700462 569.024000
   1393   1405   2878     1   107.9700462 569.024000
   1396   1402   2848     1   107.9700462 569.024000
   1402   2848   2839     1   112.4800480 524.673600
   1405   2878   2869     1   112.4800480 524.673600
   1410   1411   1423     1   114.2100488 537.225600
   1410   1414   1426     1   114.2100488 537.225600
   1410   1417   1420     1   114.2100488 537.225600
   1411   1410   1414     1   109.6600471 523.836800
   1411   1410   1417     1   109.6600471 523.836800
   1411   1423   1435     1   111.5100476 526.347200
   1414   1410   1417     1   109.6600471 523.836800
   1414   1426   1432     1   111.5100476 526.347200
   1417   1420   1429     1   111.5100476 526.347200
   1420   1429   1438     1   107.9700462 569.024000
   1423   1435   2938     1   107.9700462 569.024000
   1426   1432   2908     1   107.9700462 569.024000
   1432   2908   2899     1   112.4800480 524.673600
   1435   2938   2929     1   112.4800480 524.673600
   1440   1441   1453     1   114.2100488 537.225600
   1440   1444   1456     1   114.2100488 537.225600
   1440   1447   1450     1   114.2100488 537.225600
   1441   1440   1444     1   109.6600471 523.836800
   1441   1440   1447     1   109.6600471 523.836800
   1441   1453   1465     1   111.5100476 526.347200
   1444   1440   1447     1   109.6600471 523.836800
   1444   1456   1462     1   111.5100476 526.347200
   1447   1450   1459     1   111.5100476 526.347200
   1450   1459   1468     1   107.9700462 569.024000
   1453   1465   2998     1   107.9700462 569.024000
   1456   1462   2968     1   107.9700462 569.024000
   1462   2968   2959     1   112.4800480 524.673600
   1465   2998   2989     1   112.4800480 524.673600
   1470   1471   1483     1   114.2100488 537.225600
   1470   1474   1486     1   114.2100488 537.225600
   1470   1477   1480     1   114.2100488 537.225600
   1471   1470   1474     1   109.6600471 523.836800
   1471   1470   1477     1   109.6600471 523.836800
   1471   1483   1495     1   111.5100476 526.347200
   1474   1470   1477     1   109.6600471 523.836800
   1474   1486   1492     1   111.5100476 526.347200
   1477   1480   1489     1   111.5100476 526.347200
   1480   1489   1498     1   107.9700462 569.024000
   1483   1495   3058     1   107.9700462 569.024000
   1486   1492   3028     1   107.9700462 569.024000
   1492   3028   3019     1   112.4800480 524.673600
   1495   3058   3049     1   112.4800480 524.673600
   1500   1501   1513     1   114.2100488 537.225600
   1500   1504   1516     1   114.2100488 537.225600
   1500   1507   1510     1   114.2100488 537.225600
   1501   1500   1504     1   109.6600471 523.836800
   1501   1500   1507     1   109.6600471 523.836800
   1501   1513   1525     1   111.5100476 526.347200
   1504   1500   1507     1   109.6600471 523.836800
   1504   1516   1522     1   111.5100476 526.347200
   1507   1510   1519     1   111.5100476 526.347200
   1510   1519   1528     1   107.9700462 569.024000
   1513   1525   3118     1   107.9700462 569.024000
   1516   1522   3088     1   107.9700462 569.024000
   1522   3088   3079     1   112.4800480 524.673600
   1525   3118   3109     1   112.4800480 524.673600
   1530   1531   1543     1   114.2100488 537.225600
   1530   1534   1546     1   114.2100488 537.225600
   1530   1537   1540     1   114.2100488 537.225600
   1531   1530   1534     1   109.6600471 523.836800
   1531   1530   1537     1   109.6600471 523.836800
   1531   1543   1555     1   111.5100476 526.347200
   1534   1530   1537     1   109.6600471 523.836800
   1534   1546   1552     1   111.5100476 526.347200
   1537   1540   1549     1   111.5100476 526.347200
   1540   1549   1558     1   107.9700462 569.024000
   1543   1555   3178     1   107.9700462 569.024000
   1546   1552   3148     1   107.9700462 569.024000
   1552   3148   3139     1   112.4800480 524.673600
   1555   3178   3169     1   112.4800480 524.673600
   1560   1561   1573     1   114.2100488 537.225600
   1560   1564   1576     1   114.2100488 537.225600
   1560   1567   1570     1   114.2100488 537.225600
   1561   1560   1564     1   109.6600471 523.836800
   1561   1560   1567     1   109.6600471 523.836800
   1561   1573   1585     1   111.5100476 526.347200
   1564   1560   1567     1   109.6600471 523.836800
   1564   1576   1582     1   111.5100476 526.347200
   1567   1570   1579     1   111.5100476 526.347200
   1570   1579   1588     1   107.9700462 569.024000
   1573   1585   3238     1   107.9700462 569.024000
   1576   1582   3208     1   107.9700462 569.024000
   1582   3208   3199     1   112.4800480 524.673600
   1585   3238   3229     1   112.4800480 524.673600
   1590   1591   1603     1   114.2100488 537.225600
   1590   1594   1606     1   114.2100488 537.225600
   1590   1597   1600     1   114.2100488 537.225600
   1591   1590   1594     1   109.6600471 523.836800
   1591   1590   1597     1   109.6600471 523.836800
   1591   1603   1615     1   111.5100476 526.347200
   1594   1590   1597     1   109.6600471 523.836800
   1594   1606   1612     1   111.5100476 526.347200
   1597   1600   1609     1   111.5100476 526.347200
   1600   1609   1618     1   107.9700462 569.024000
   1603   1615   3298     1   107.9700462 569.024000
   1606   1612   3268     1   107.9700462 569.024000
   1612   3268   3259     1   112.4800480 524.673600
   1615   3298   3289     1   112.4800480 524.673600
   1620   1621   1633     1   114.2100488 537.225600
   1620   1624   1636     1   114.2100488 537.225600
   1620   1627   1630     1   114.2100488 537.225600
   1621   1620   1624     1   109.6600471 523.836800
   1621   1620   1627     1   109.6600471 523.836800
   1621   1633   1645     1   111.5100476 526.347200
   1624   1620   1627     1   109.6600471 523.836800
   1624   1636   1642     1   111.5100476 526.347200
   1627   1630   1639     1   111.5100476 526.347200
   1630   1639   1648     1   107.9700462 569.024000
   1633   1645   3358     1   107.9700462 569.024000
   1636   1642   3328     1   107.9700462 569.024000
   1642   3328   3319     1   112.4800480 524.673600
   1645   3358   3349     1   112.4800480 524.673600
   1650   1651   1663     1   114.2100488 537.225600
   1650   1654   1666     1   114.2100488 537.225600
   1650   1657   1660     1   114.2100488 537.225600
   1651   1650   1654     1   109.6600471 523.836800
   1651   1650   1657     1   109.6600471 523.836800
   1651   1663   1675     1   111.5100476 526.347200
   1654   1650   1657     1   109.6600471 523.836800
   1654   1666   1672     1   111.5100476 526.347200
   1657   1660   1669     1   111.5100476 526.347200
   1660   1669   1678     1   107.9700462 569.024000
   1663   1675   3418     1   107.9700462 569.024000
   1666   1672   3388     1   107.9700462 569.024000
   1672   3388   3379     1   112.4800480 524.673600
   1675   3418   3409     1   112.4800480 524.673600
   1680   1681   1693     1   114.2100488 537.225600
   1680   1684   1696     1   114.2100488 537.225600
   1680   1687   1690     1   114.2100488 537.225600
   1681   1680   1684     1   109.6600471 523.836800
   1681   1680   1687     1   109.6600471 523.836800
   1681   1693   1705     1   111.5100476 526.347200
   1684   1680   1687     1   109.6600471 523.836800
   1684   1696   1702     1   111.5100476 526.347200
   1687   1690   1699     1   111.5100476 526.347200
   1690   1699   1708     1   107.9700462 569.024000
   1693   1705   3478     1   107.9700462 569.024000
   1696   1702   3448     1   107.9700462 569.024000
   1702   3448   3439     1   112.4800480 524.673600
   1705   3478   3469     1   112.4800480 524.673600
   1710   1711   1723     1   114.2100488 537.225600
   1710   1714   1726     1   114.2100488 537.225600
   1710   1717   1720     1   114.2100488 537.225600
   1711   1710   1714     1   109.6600471 523.836800
   1711   1710   1717     1   109.6600471 523.836800
   1711   1723   1735     1   111.5100476 526.347200
   1714   1710   1717     1   109.6600471 523.836800
   1714   1726   1732     1   111.5100476 526.347200
   1717   1720   1729     1   111.5100476 526.347200
   1720   1729   1738     1   107.9700462 569.024000
   1723   1735   3538     1   107.9700462 569.024000
   1726   1732   3508     1   107.9700462 569.024000
   1732   3508   3499     1   112.4800480 524.673600
   1735   3538   3529     1   112.4800480 524.673600
   1740   1741   1753     1   114.2100488 537.225600
   1740   1744   1756     1   114.2100488 537.225600
   1740   1747   1750     1   114.2100488 537.225600
   1741   1740   1744     1   109.6600471 523.836800
   1741   1740   1747     1   109.6600471 523.836800
   1741   1753   1765     1   111.5100476 526.347200
   1744   1740   1747     1   109.6600471 523.836800
   1744   1756   1762     1   111.5100476 526.347200
   1747   1750   1759     1   111.5100476 526.347200
   1750   1759   1768     1   107.9700462 569.024000
   1753   1765   3598     1   107.9700462 569.024000
   1756   1762   3568     1   107.9700462 569.024000
   1762   3568   3559     1   112.4800480 524.673600
   1765   3598   3589     1   112.4800480 524.673600
   1770   1771   1783     1   114.2100488 537.225600
   1770   1774   1786     1   114.2100488 537.225600
   1770   1777   1780     1   114.2100488 537.225600
   1771   1770   1774     1   109.6600471 523.836800
   1771   1770   1777     1   109.6600471 523.836800
   1771   1783   1795     1   111.5100476 526.347200
   1774   1770   1777     1   109.6600471 523.836800
   1774   1786   1792     1   111.5100476 526.347200
   1777   1780   1789     1   111.5100476 526.347200
   1780   1789   1798     1   107.9700462 569.024000
   1783   1795   3658     1   107.9700462 569.024000
   1786   1792   3628     1   107.9700462 569.024000
   1792   3628   3619     1   112.4800480 524.673600
   1795   3658   3649     1   112.4800480 524.673600
   1800   1801   1813     1   114.2100488 537.225600
   1800   1804   1816     1   114.2100488 537.225600
   1800   1807   1810     1   114.2100488 537.225600
   1801   1800   1804     1   109.6600471 523.836800
   1801   1800   1807     1   109.6600471 523.836800
   1801   1813   1825     1   111.5100476 526.347200
   1804   1800   1807     1   109.6600471 523.836800
   1804   1816   1822     1   111.5100476 526.347200
   1807   1810   1819     1   111.5100476 526.347200
   1810   1819   1828     1   107.9700462 569.024000
   1813   1825   3718     1   107.9700462 569.024000
   1816   1822   3688     1   107.9700462 569.024000
   1822   3688   3679     1   112.4800480 524.673600
   1825   3718   3709     1   112.4800480 524.673600
   1830   1831   1843     1   114.2100488 537.225600
   1830   1834   1846     1   114.2100488 537.225600
   1830   1837   1840     1   114.2100488 537.225600
   1831   1830   1834     1   109.6600471 523.836800
   1831   1830   1837     1   109.6600471 523.836800
   1831   1843   1855     1   111.5100476 526.347200
   1834   1830   1837     1   109.6600471 523.836800
   1834   1846   1852     1   111.5100476 526.347200
   1837   1840   1849     1   111.5100476 526.347200
   1840   1849   1858     1   107.9700462 569.024000
   1843   1855   3778     1   107.9700462 569.024000
   1846   1852   3748     1   107.9700462 569.024000
   1852   3748   3739     1   112.4800480 524.673600
   1855   3778   3769     1   112.4800480 524.673600
   1860   1861   1873     1   114.2100488 537.225600
   1860   1864   1876     1   114.2100488 537.225600
   1860   1867   1870     1   114.2100488 537.225600
   1861   1860   1864     1   109.6600471 523.836800
   1861   1860   1867     1   109.6600471 523.836800
   1861   1873   1885     1   111.5100476 526.347200
   1864   1860   1867     1   109.6600471 523.836800
   1864   1876   1882     1   111.5100476 526.347200
   1867   1870   1879     1   111.5100476 526.347200
   1870   1879   1888     1   107.9700462 569.024000
   1873   1885   3838     1   107.9700462 569.024000
   1876   1882   3808     1   107.9700462 569.024000
   1882   3808   3799     1   112.4800480 524.673600
   1885   3838   3829     1   112.4800480 524.673600
   1890   1891   1903     1   114.2100488 537.225600
   1890   1894   1906     1   114.2100488 537.225600
   1890   1897   1900     1   114.2100488 537.225600
   1891   1890   1894     1   109.6600471 523.836800
   1891   1890   1897     1   109.6600471 523.836800
   1891   1903   1915     1   111.5100476 526.347200
   1894   1890   1897     1   109.6600471 523.836800
   1894   1906   1912     1   111.5100476 526.347200
   1897   1900   1909     1   111.5100476 526.347200
   1900   1909   1918     1   107.9700462 569.024000
   1903   1915   3898     1   107.9700462 569.024000
   1906   1912   3868     1   107.9700462 569.024000
   1912   3868   3859     1   112.4800480 524.673600
   1915   3898   3889     1   112.4800480 524.673600
   1920   1921   1933     1   114.2100488 537.225600
   1920   1924   1936     1   114.2100488 537.225600
   1920   1927   1930     1   114.2100488 537.225600
   1921   1920   1924     1   109.6600471 523.836800
   1921   1920   1927     1   109.6600471 523.836800
   1921   1933   1945     1   111.5100476 526.347200
   1924   1920   1927     1   109.6600471 523.836800
   1924   1936   1942     1   111.5100476 526.347200
   1927   1930   1939     1   111.5100476 526.347200
   1930   1939   1948     1   107.9700462 569.024000
   1933   1945   3958     1   107.9700462 569.024000
   1936   1942   3928     1   107.9700462 569.024000
   1942   3928   3919     1   112.4800480 524.673600
   1945   3958   3949     1   112.4800480 524.673600
   1950   1951   1963     1   114.2100488 537.225600
   1950   1954   1966     1   114.2100488 537.225600
   1950   1957   1960     1   114.2100488 537.225600
   1951   1950   1954     1   109.6600471 523.836800
   1951   1950   1957     1   109.6600471 523.836800
   1951   1963   1975     1   111.5100476 526.347200
   1954   1950   1957     1   109.6600471 523.836800
   1954   1966   1972     1   111.5100476 526.347200
   1957   1960   1969     1   111.5100476 526.347200
   1960   1969   1978     1   107.9700462 569.024000
   1963   1975   4018     1   107.9700462 569.024000
   1966   1972   3988     1   107.9700462 569.024000
   1972   3988   3979     1   112.4800480 524.673600
   1975   4018   4009     1   112.4800480 524.673600
   1980   1981   1993     1   114.2100488 537.225600
   1980   1984   1996     1   114.2100488 537.225600
   1980   1987   1990     1   114.2100488 537.225600
   1981   1980   1984     1   109.6600471 523.836800
   1981   1980   1987     1   109.6600471 523.836800
   1981   1993   2005     1   111.5100476 526.347200
   1984   1980   1987     1   109.6600471 523.836800
   1984   1996   2002     1   111.5100476 526.347200
   1987   1990   1999     1   111.5100476 526.347200
   1990   1999   2008     1   107.9700462 569.024000
   1993   2005   4078     1   107.9700462 569.024000
   1996   2002   4048     1   107.9700462 569.024000
   2002   4048   4039     1   112.4800480 524.673600
   2005   4078   4069     1   112.4800480 524.673600
   2010   2011   2023     1   114.2100488 537.225600
   2010   2014   2026     1   114.2100488 537.225600
   2010   2017   2020     1   114.2100488 537.225600
   2011   2010   2014     1   109.6600471 523.836800
   2011   2010   2017     1   109.6600471 523.836800
   2011   2023   2035     1   111.5100476 526.347200
   2014   2010   2017     1   109.6600471 523.836800
   2014   2026   2032     1   111.5100476 526.347200
   2017   2020   2029     1   111.5100476 526.347200
   2020   2029   2038     1   107.9700462 569.024000
   2023   2035   4138     1   107.9700462 569.024000
   2026   2032   4108     1   107.9700462 569.024000
   2032   4108   4099     1   112.4800480 524.673600
   2035   4138   4129     1   112.4800480 524.673600
   2040   2041   2053     1   114.2100488 537.225600
   2040   2044   2056     1   114.2100488 537.225600
   2040   2047   2050     1   114.2100488 537.225600
   2041   2040   2044     1   109.6600471 523.836800
   2041   2040   2047     1   109.6600471 523.836800
   2041   2053   2065     1   111.5100476 526.347200
   2044   2040   2047     1   109.6600471 523.836800
   2044   2056   2062     1   111.5100476 526.347200
   2047   2050   2059     1   111.5100476 526.347200
   2050   2059   2068     1   107.9700462 569.024000
   2053   2065   4198     1   107.9700462 569.024000
   2056   2062   4168     1   107.9700462 569.024000
   2062   4168   4159     1   112.4800480 524.673600
   2065   4198   4189     1   112.4800480 524.673600
   2070   2071   2083     1   114.2100488 537.225600
   2070   2074   2086     1   114.2100488 537.225600
   2070   2077   2080     1   114.2100488 537.225600
   2071   2070   2074     1   109.6600471 523.836800
   2071   2070   2077     1   109.6600471 523.836800
   2071   2083   2095     1   111.5100476 526.347200
   2074   2070   2077     1   109.6600471 523.836800
   2074   2086   2092     1   111.5100476 526.347200
   2077   2080   2089     1   111.5100476 526.347200
   2080   2089   2098     1   107.9700462 569.024000
   2083   2095   4258     1   107.9700462 569.024000
   2086   2092   4228     1   107.9700462 569.024000
   2092   4228   4219     1   112.4800480 524.673600
   2095   4258   4249     1   112.4800480 524.673600
   2100   2101   2113     1   114.2100488 537.225600
   2100   2104   2116     1   114.2100488 537.225600
   2100   2107   2110     1   114.2100488 537.225600
   2101   2100   2104     1   109.6600471 523.836800
   2101   2100   2107     1   109.6600471 523.836800
   2101   2113   2125     1   111.5100476 526.347200
   2104   2100   2107     1   109.6600471 523.836800
   2104   2116   2122     1   111.5100476 526.347200
   2107   2110   2119     1   111.5100476 526.347200
   2110   2119   2128     1   107.9700462 569.024000
   2113   2125   4318     1   107.9700462 569.024000
   2116   2122   4288     1   107.9700462 569.024000
   2122   4288   4279     1   112.4800480 524.673600
   2125   4318   4309     1   112.4800480 524.673600
   2130   2131   2143     1   114.2100488 537.225600
   2130   2134   2146     1   114.2100488 537.225600
   2130   2137   2140     1   114.2100488 537.225600
   2131   2130   2134     1   109.6600471 523.836800
   2131   2130   2137     1   109.6600471 523.836800
   2131   2143   2155     1   111.5100476 526.347200
   2134   2130   2137     1   109.6600471 523.836800
   2134   2146   2152     1   111.5100476 526.347200
   2137   2140   2149     1   111.5100476 526.347200
   2140   2149   2158     1   107.9700462 569.024000
   2143   2155   4378     1   107.9700462 569.024000
   2146   2152   4348     1   107.9700462 569.024000
   2152   4348   4339     1   112.4800480 524.673600
   2155   4378   4369     1   112.4800480 524.673600
   2160   2161   2173     1   114.2100488 537.225600
   2160   2164   2176     1   114.2100488 537.225600
   2160   2167   2170     1   114.2100488 537.225600
   2161   2160   2164     1   109.6600471 523.836800
   2161   2160   2167     1   109.6600471 523.836800
   2161   2173   2185     1   111.5100476 526.347200
   2164   2160   2167     1   109.6600471 523.836800
   2164   2176   2182     1   111.5100476 526.347200
   2167   2170   2179     1   111.5100476 526.347200
   2170   2179   2188     1   107.9700462 569.024000
   2173   2185   4438     1   107.9700462 569.024000
   2176   2182   4408     1   107.9700462 569.024000
   2182   4408   4399     1   112.4800480 524.673600
   2185   4438   4429     1   112.4800480 524.673600
   2190   2191   2203     1   114.2100488 537.225600
   2190   2194   2206     1   114.2100488 537.225600
   2190   2197   2200     1   114.2100488 537.225600
   2191   2190   2194     1   109.6600471 523.836800
   2191   2190   2197     1   109.6600471 523.836800
   2191   2203   2215     1   111.5100476 526.347200
   2194   2190   2197     1   109.6600471 523.836800
   2194   2206   2212     1   111.5100476 526.347200
   2197   2200   2209     1   111.5100476 526.347200
   2200   2209   2218     1   107.9700462 569.024000
   2203   2215   4498     1   107.9700462 569.024000
   2206   2212   4468     1   107.9700462 569.024000
   2212   4468   4459     1   112.4800480 524.673600
   2215   4498   4489     1   112.4800480 524.673600
   2220   2221   2233     1   114.2100488 537.225600
   2220   2224   2236     1   114.2100488 537.225600
   2220   2227   2230     1   114.2100488 537.225600
   2221   2220   2224     1   109.6600471 523.836800
   2221   2220   2227     1   109.6600471 523.836800
   2221   2233   2245     1   111.5100476 526.347200
   2224   2220   2227     1   109.6600471 523.836800
   2224   2236   2242     1   111.5100476 526.347200
   2227   2230   2239     1   111.5100476 526.347200
   2230   2239   2248     1   107.9700462 569.024000
   2233   2245   4558     1   107.9700462 569.024000
   2236   2242   4528     1   107.9700462 569.024000
   2242   4528   4519     1   112.4800480 524.673600
   2245   4558   4549     1   112.4800480 524.673600
   2250   2251   2263     1   114.2100488 537.225600
   2250   2254   2266     1   114.2100488 537.225600
   2250   2257   2260     1   114.2100488 537.225600
   2251   2250   2254     1   109.6600471 523.836800
   2251   2250   2257     1   109.6600471 523.836800
   2251   2263   2275     1   111.5100476 526.347200
   2254   2250   2257     1   109.6600471 523.836800
   2254   2266   2272     1   111.5100476 526.347200
   2257   2260   2269     1   111.5100476 526.347200
   2260   2269   2278     1   107.9700462 569.024000
   2263   2275   4618     1   107.9700462 569.024000
   2266   2272   4588     1   107.9700462 569.024000
   2272   4588   4579     1   112.4800480 524.673600
   2275   4618   4609     1   112.4800480 524.673600
   2280   2281   2293     1   114.2100488 537.225600
   2280   2284   2296     1   114.2100488 537.225600
   2280   2287   2290     1   114.2100488 537.225600
   2281   2280   2284     1   109.6600471 523.836800
   2281   2280   2287     1   109.6600471 523.836800
   2281   2293   2305     1   111.5100476 526.347200
   2284   2280   2287     1   109.6600471 523.836800
   2284   2296   2302     1   111.5100476 526.347200
   2287   2290   2299     1   111.5100476 526.347200
   2290   2299   2308     1   107.9700462 569.024000
   2293   2305   4678     1   107.9700462 569.024000
   2296   2302   4648     1   107.9700462 569.024000
   2302   4648   4639     1   112.4800480 524.673600
   2305   4678   4669     1   112.4800480 524.673600
   2310   2311   2323     1   114.2100488 537.225600
   2310   2314   2326     1   114.2100488 537.225600
   2310   2317   2320     1   114.2100488 537.225600
   2311   2310   2314     1   109.6600471 523.836800
   2311   2310   2317     1   109.6600471 523.836800
   2311   2323   2335     1   111.5100476 526.347200
   2314   2310   2317     1   109.6600471 523.836800
   2314   2326   2332     1   111.5100476 526.347200
   2317   2320   2329     1   111.5100476 526.347200
   2320   2329   2338     1   107.9700462 569.024000
   2323   2335   4738     1   107.9700462 569.024000
   2326   2332   4708     1   107.9700462 569.024000
   2332   4708   4699     1   112.4800480 524.673600
   2335   4738   4729     1   112.4800480 524.673600
   2340   2341   2353     1   114.2100488 537.225600
   2340   2344   2356     1   114.2100488 537.225600
   2340   2347   2350     1   114.2100488 537.225600
   2341   2340   2344     1   109.6600471 523.836800
   2341   2340   2347     1   109.6600471 523.836800
   2341   2353   2365     1   111.5100476 526.347200
   2344   2340   2347     1   109.6600471 523.836800
   2344   2356   2362     1   111.5100476 526.347200
   2347   2350   2359     1   111.5100476 526.347200
   2350   2359   2368     1   107.9700462 569.024000
   2353   2365   4798     1   107.9700462 569.024000
   2356   2362   4768     1   107.9700462 569.024000
   2362   4768   4759     1   112.4800480 524.673600
   2365   4798   4789     1   112.4800480 524.673600
   2370   2371   2383     1   114.2100488 537.225600
   2370   2374   2386     1   114.2100488 537.225600
   2370   2377   2380     1   114.2100488 537.225600
   2371   2370   2374     1   109.6600471 523.836800
   2371   2370   2377     1   109.6600471 523.836800
   2371   2383   2395     1   111.5100476 526.347200
   2374   2370   2377     1   109.6600471 523.836800
   2374   2386   2392     1   111.5100476 526.347200
   2377   2380   2389     1   111.5100476 526.347200
   2380   2389   2398     1   107.9700462 569.024000
   2383   2395   4858     1   107.9700462 569.024000
   2386   2392   4828     1   107.9700462 569.024000
   2392   4828   4819     1   112.4800480 524.673600
   2395   4858   4849     1   112.4800480 524.673600
   2400   2401   2413     1   114.2100488 537.225600
   2400   2404   2416     1   114.2100488 537.225600
   2400   2407   2410     1   114.2100488 537.225600
   2401   2400   2404     1   109.6600471 523.836800
   2401   2400   2407     1   109.6600471 523.836800
   2401   2413   2425     1   111.5100476 526.347200
   2404   2400   2407     1   109.6600471 523.836800
   2404   2416   2422     1   111.5100476 526.347200
   2407   2410   2419     1   111.5100476 526.347200
   2410   2419   2428     1   107.9700462 569.024000
   2413   2425   4918     1   107.9700462 569.024000
   2416   2422   4888     1   107.9700462 569.024000
   2422   4888   4879     1   112.4800480 524.673600
   2425   4918   4909     1   112.4800480 524.673600
   2430   2431   2443     1   114.2100488 537.225600
   2430   2434   2446     1   114.2100488 537.225600
   2430   2437   2440     1   114.2100488 537.225600
   2431   2430   2434     1   109.6600471 523.836800
   2431   2430   2437     1   109.6600471 523.836800
   2431   2443   2455     1   111.5100476 526.347200
   2434   2430   2437     1   109.6600471 523.836800
   2434   2446   2452     1   111.5100476 526.347200
   2437   2440   2449     1   111.5100476 526.347200
   2440   2449   2458     1   107.9700462 569.024000
   2443   2455   4978     1   107.9700462 569.024000
   2446   2452   4948     1   107.9700462 569.024000
   2452   4948   4939     1   112.4800480 524.673600
   2455   4978   4969     1   112.4800480 524.673600
   2460   2461   2473     1   114.2100488 537.225600
   2460   2464   2476     1   114.2100488 537.225600
   2460   2467   2470     1   114.2100488 537.225600
   2461   2460   2464     1   109.6600471 523.836800
   2461   2460   2467     1   109.6600471 523.836800
   2461   2473   2485     1   111.5100476 526.347200
   2464   2460   2467     1   109.6600471 523.836800
   2464   2476   2482     1   111.5100476 526.347200
   2467   2470   2479     1   111.5100476 526.347200
   2470   2479   2488     1   107.9700462 569.024000
   2473   2485   5038     1   107.9700462 569.024000
   2476   2482   5008     1   107.9700462 569.024000
   2482   5008   4999     1   112.4800480 524.673600
   2485   5038   5029     1   112.4800480 524.673600
   2490   2491   2503     1   114.2100488 537.225600
   2490   2494   2506     1   114.2100488 537.225600
   2490   2497   2500     1   114.2100488 537.225600
   2491   2490   2494     1   109.6600471 523.836800
   2491   2490   2497     1   109.6600471 523.836800
   2491   2503   2515     1   111.5100476 526.347200
   2494   2490   2497     1   109.6600471 523.836800
   2494   2506   2512     1   111.5100476 526.347200
   2497   2500   2509     1   111.5100476 526.347200
   2500   2509   2518     1   107.9700462 569.024000
   2503   2515   5098     1   107.9700462 569.024000
   2506   2512   5068     1   107.9700462 569.024000
   2512   5068   5059     1   112.4800480 524.673600
   2515   5098   5089     1   112.4800480 524.673600
   2520   2521   2533     1   114.2100488 537.225600
   2520   2524   2536     1   114.2100488 537.225600
   2520   2527   2530     1   114.2100488 537.225600
   2521   2520   2524     1   109.6600471 523.836800
   2521   2520   2527     1   109.6600471 523.836800
   2521   2533   2545     1   111.5100476 526.347200
   2524   2520   2527     1   109.6600471 523.836800
   2524   2536   2542     1   111.5100476 526.347200
   2527   2530   2539     1   111.5100476 526.347200
   2530   2539   2548     1   107.9700462 569.024000
   2533   2545   5158     1   107.9700462 569.024000
   2536   2542   5128     1   107.9700462 569.024000
   2542   5128   5119     1   112.4800480 524.673600
   2545   5158   5149     1   112.4800480 524.673600
   2550   2551   2563     1   114.2100488 537.225600
   2550   2554   2566     1   114.2100488 537.225600
   2550   2557   2560     1   114.2100488 537.225600
   2551   2550   2554     1   109.6600471 523.836800
   2551   2550   2557     1   109.6600471 523.836800
   2551   2563   2575     1   111.5100476 526.347200
   2554   2550   2557     1   109.6600471 523.836800
   2554   2566   2572     1   111.5100476 526.347200
   2557   2560   2569     1   111.5100476 526.347200
   2560   2569   2578     1   107.9700462 569.024000
   2563   2575   5218     1   107.9700462 569.024000
   2566   2572   5188     1   107.9700462 569.024000
   2572   5188   5179     1   112.4800480 524.673600
   2575   5218   5209     1   112.4800480 524.673600
   2580   2581   2593     1   114.2100488 537.225600
   2580   2584   2596     1   114.2100488 537.225600
   2580   2587   2590     1   114.2100488 537.225600
   2581   2580   2584     1   109.6600471 523.836800
   2581   2580   2587     1   109.6600471 523.836800
   2581   2593   2605     1   111.5100476 526.347200
   2584   2580   2587     1   109.6600471 523.836800
   2584   2596   2602     1   111.5100476 526.347200
   2587   2590   2599     1   111.5100476 526.347200
   2590   2599   2608     1   107.9700462 569.024000
   2593   2605   5278     1   107.9700462 569.024000
   2596   2602   5248     1   107.9700462 569.024000
   2602   5248   5239     1   112.4800480 524.673600
   2605   5278   5269     1   112.4800480 524.673600
   2610   2611   2623     1   114.2100488 537.225600
   2610   2614   2626     1   114.2100488 537.225600
   2610   2617   2620     1   114.2100488 537.225600
   2611   2610   2614     1   109.6600471 523.836800
   2611   2610   2617     1   109.6600471 523.836800
   2611   2623   2635     1   111.5100476 526.347200
   2614   2610   2617     1   109.6600471 523.836800
   2614   2626   2632     1   111.5100476 526.347200
   2617   2620   2629     1   111.5100476 526.347200
   2620   2629   2638     1   107.9700462 569.024000
   2623   2635   5338     1   107.9700462 569.024000
   2626   2632   5308     1   107.9700462 569.024000
   2632   5308   5299     1   112.4800480 524.673600
   2635   5338   5329     1   112.4800480 524.673600
   2640   2641   2653     1   114.2100488 537.225600
   2640   2644   2656     1   114.2100488 537.225600
   2640   2647   2650     1   114.2100488 537.225600
   2641   2640   2644     1   109.6600471 523.836800
   2641   2640   2647     1   109.6600471 523.836800
   2641   2653   2665     1   111.5100476 526.347200
   2644   2640   2647     1   109.6600471 523.836800
   2644   2656   2662     1   111.5100476 526.347200
   2647   2650   2659     1   111.5100476 526.347200
   2650   2659   2668     1   107.9700462 569.024000
   2653   2665   5398     1   107.9700462 569.024000
   2656   2662   5368     1   107.9700462 569.024000
   2662   5368   5359     1   112.4800480 524.673600
   2665   5398   5389     1   112.4800480 524.673600
   2670   2671   2683     1   114.2100488 537.225600
   2670   2674   2686     1   114.2100488 537.225600
   2670   2677   2680     1   114.2100488 537.225600
   2671   2670   2674     1   109.6600471 523.836800
   2671   2670   2677     1   109.6600471 523.836800
   2671   2683   2695     1   111.5100476 526.347200
   2674   2670   2677     1   109.6600471 523.836800
   2674   2686   2692     1   111.5100476 526.347200
   2677   2680   2689     1   111.5100476 526.347200
   2680   2689   2698     1   107.9700462 569.024000
   2683   2695   5458     1   107.9700462 569.024000
   2686   2692   5428     1   107.9700462 569.024000
   2692   5428   5419     1   112.4800480 524.673600
   2695   5458   5449     1   112.4800480 524.673600
   2700   2701   2713     1   114.2100488 537.225600
   2700   2704   2716     1   114.2100488 537.225600
   2700   2707   2710     1   114.2100488 537.225600
   2701   2700   2704     1   109.6600471 523.836800
   2701   2700   2707     1   109.6600471 523.836800
   2701   2713   2725     1   111.5100476 526.347200
   2704   2700   2707     1   109.6600471 523.836800
   2704   2716   2722     1   111.5100476 526.347200
   2707   2710   2719     1   111.5100476 526.347200
   2710   2719   2728     1   107.9700462 569.024000
   2713   2725   5518     1   107.9700462 569.024000
   2716   2722   5488     1   107.9700462 569.024000
   2722   5488   5479     1   112.4800480 524.673600
   2725   5518   5509     1   112.4800480 524.673600
   2730   2731   2743     1   114.2100488 537.225600
   2730   2734   2746     1   114.2100488 537.225600
   2730   2737   2740     1   114.2100488 537.225600
   2731   2730   2734     1   109.6600471 523.836800
   2731   2730   2737     1   109.6600471 523.836800
   2731   2743   2755     1   111.5100476 526.347200
   2734   2730   2737     1   109.6600471 523.836800
   2734   2746   2752     1   111.5100476 526.347200
   2737   2740   2749     1   111.5100476 526.347200
   2740   2749   2758     1   107.9700462 569.024000
   2743   2755   5578     1   107.9700462 569.024000
   2746   2752   5548     1   107.9700462 569.024000
   2752   5548   5539     1   112.4800480 524.673600
   2755   5578   5569     1   112.4800480 524.673600
   2760   2761   2773     1   114.2100488 537.225600
   2760   2764   2776     1   114.2100488 537.225600
   2760   2767   2770     1   114.2100488 537.225600
   2761   2760   2764     1   109.6600471 523.836800
   2761   2760   2767     1   109.6600471 523.836800
   2761   2773   2785     1   111.5100476 526.347200
   2764   2760   2767     1   109.6600471 523.836800
   2764   2776   2782     1   111.5100476 526.347200
   2767   2770   2779     1   111.5100476 526.347200
   2770   2779   2788     1   107.9700462 569.024000
   2773   2785   5638     1   107.9700462 569.024000
   2776   2782   5608     1   107.9700462 569.024000
   2782   5608   5599     1   112.4800480 524.673600
   2785   5638   5629     1   112.4800480 524.673600
   2790   2791   2803     1   114.2100488 537.225600
   2790   2794   2806     1   114.2100488 537.225600
   2790   2797   2800     1   114.2100488 537.225600
   2791   2790   2794     1   109.6600471 523.836800
   2791   2790   2797     1   109.6600471 523.836800
   2791   2803   2815     1   111.5100476 526.347200
   2794   2790   2797     1   109.6600471 523.836800
   2794   2806   2812     1   111.5100476 526.347200
   2797   2800   2809     1   111.5100476 526.347200
   2800   2809   2818     1   107.9700462 569.024000
   2803   2815   5698     1   107.9700462 569.024000
   2806   2812   5668     1   107.9700462 569.024000
   2812   5668   5659     1   112.4800480 524.673600
   2815   5698   5689     1   112.4800480 524.673600
   2820   2821   2833     1   114.2100488 537.225600
   2820   2824   2836     1   114.2100488 537.225600
   2820   2827   2830     1   114.2100488 537.225600
   2821   2820   2824     1   109.6600471 523.836800
   2821   2820   2827     1   109.6600471 523.836800
   2821   2833   2845     1   111.5100476 526.347200
   2824   2820   2827     1   109.6600471 523.836800
   2824   2836   2842     1   111.5100476 526.347200
   2827   2830   2839     1   111.5100476 526.347200
   2830   2839   2848     1   107.9700462 569.024000
   2833   2845   5726     1   107.9700462 569.024000
   2836   2842   5712     1   107.9700462 569.024000
   2842   5712   5706     1   112.4800480 524.673600
   2845   5726   5720     1   112.4800480 524.673600
   2850   2851   2863     1   114.2100488 537.225600
   2850   2854   2866     1   114.2100488 537.225600
   2850   2857   2860     1   114.2100488 537.225600
   2851   2850   2854     1   109.6600471 523.836800
   2851   2850   2857     1   109.6600471 523.836800
   2851   2863   2875     1   111.5100476 526.347200
   2854   2850   2857     1   109.6600471 523.836800
   2854   2866   2872     1   111.5100476 526.347200
   2857   2860   2869     1   111.5100476 526.347200
   2860   2869   2878     1   107.9700462 569.024000
   2863   2875   5754     1   107.9700462 569.024000
   2866   2872   5740     1   107.9700462 569.024000
   2872   5740   5734     1   112.4800480 524.673600
   2875   5754   5748     1   112.4800480 524.673600
   2880   2881   2893     1   114.2100488 537.225600
   2880   2884   2896     1   114.2100488 537.225600
   2880   2887   2890     1   114.2100488 537.225600
   2881   2880   2884     1   109.6600471 523.836800
   2881   2880   2887     1   109.6600471 523.836800
   2881   2893   2905     1   111.5100476 526.347200
   2884   2880   2887     1   109.6600471 523.836800
   2884   2896   2902     1   111.5100476 526.347200
   2887   2890   2899     1   111.5100476 526.347200
   2890   2899   2908     1   107.9700462 569.024000
   2893   2905   5782     1   107.9700462 569.024000
   2896   2902   5768     1   107.9700462 569.024000
   2902   5768   5762     1   112.4800480 524.673600
   2905   5782   5776     1   112.4800480 524.673600
   2910   2911   2923     1   114.2100488 537.225600
   2910   2914   2926     1   114.2100488 537.225600
   2910   2917   2920     1   114.2100488 537.225600
   2911   2910   2914     1   109.6600471 523.836800
   2911   2910   2917     1   109.6600471 523.836800
   2911   2923   2935     1   111.5100476 526.347200
   2914   2910   2917     1   109.6600471 523.836800
   2914   2926   2932     1   111.5100476 526.347200
   2917   2920   2929     1   111.5100476 526.347200
   2920   2929   2938     1   107.9700462 569.024000
   2923   2935   5810     1   107.9700462 569.024000
   2926   2932   5796     1   107.9700462 569.024000
   2932   5796   5790     1   112.4800480 524.673600
   2935   5810   5804     1   112.4800480 524.673600
   2940   2941   2953     1   114.2100488 537.225600
   2940   2944   2956     1   114.2100488 537.225600
   2940   2947   2950     1   114.2100488 537.225600
   2941   2940   2944     1   109.6600471 523.836800
   2941   2940   2947     1   109.6600471 523.836800
   2941   2953   2965     1   111.5100476 526.347200
   2944   2940   2947     1   109.6600471 523.836800
   2944   2956   2962     1   111.5100476 526.347200
   2947   2950   2959     1   111.5100476 526.347200
   2950   2959   2968     1   107.9700462 569.024000
   2953   2965   5838     1   107.9700462 569.024000
   2956   2962   5824     1   107.9700462 569.024000
   2962   5824   5818     1   112.4800480 524.673600
   2965   5838   5832     1   112.4800480 524.673600
   2970   2971   2983     1   114.2100488 537.225600
   2970   2974   2986     1   114.2100488 537.225600
   2970   2977   2980     1   114.2100488 537.225600
   2971   2970   2974     1   109.6600471 523.836800
   2971   2970   2977     1   109.6600471 523.836800
   2971   2983   2995     1   111.5100476 526.347200
   2974   2970   2977     1   109.6600471 523.836800
   2974   2986   2992     1   111.5100476 526.347200
   2977   2980   2989     1   111.5100476 526.347200
   2980   2989   2998     1   107.9700462 569.024000
   2983   2995   5866     1   107.9700462 569.024000
   2986   2992   5852     1   107.9700462 569.024000
   2992   5852   5846     1   112.4800480 524.673600
   2995   5866   5860     1   112.4800480 524.673600
   3000   3001   3013     1   114.2100488 537.225600
   3000   3004   3016     1   114.2100488 537.225600
   3000   3007   3010     1   114.2100488 537.225600
   3001   3000   3004     1   109.6600471 523.836800
   3001   3000   3007     1   109.6600471 523.836800
   3001   3013   3025     1   111.5100476 526.347200
   3004   3000   3007     1   109.6600471 523.836800
   3004   3016   3022     1   111.5100476 526.347200
   3007   3010   3019     1   111.5100476 526.347200
   3010   3019   3028     1   107.9700462 569.024000
   3013   3025   5894     1   107.9700462 569.024000
   3016   3022   5880     1   107.9700462 569.024000
   3022   5880   5874     1   112.4800480 524.673600
   3025   5894   5888     1   112.4800480 524.673600
   3030   3031   3043     1   114.2100488 537.225600
   3030   3034   3046     1   114.2100488 537.225600
   3030   3037   3040     1   114.2100488 537.225600
   3031   3030   3034     1   109.6600471 523.836800
   3031   3030   3037     1   109.6600471 523.836800
   3031   3043   3055     1   111.5100476 526.347200
   3034   3030   3037     1   109.6600471 523.836800
   3034   3046   3052     1   111.5100476 526.347200
   3037   3040   3049     1   111.5100476 526.347200
   3040   3049   3058     1   107.9700462 569.024000
   3043   3055   5922     1   107.9700462 569.024000
   3046   3052   5908     1   107.9700462 569.024000
   3052   5908   5902     1   112.4800480 524.673600
   3055   5922   5916     1   112.4800480 524.673600
   3060   3061   3073     1   114.2100488 537.225600
   3060   3064   3076     1   114.2100488 537.225600
   3060   3067   3070     1   114.2100488 537.225600
   3061   3060   3064     1   109.6600471 523.836800
   3061   3060   3067     1   109.6600471 523.836800
   3061   3073   3085     1   111.5100476 526.347200
   3064   3060   3067     1   109.6600471 523.836800
   3064   3076   3082     1   111.5100476 526.347200
   3067   3070   3079     1   111.5100476 526.347200
   3070   3079   3088     1   107.9700462 569.024000
   3073   3085   5950     1   107.9700462 569.024000
   3076   3082   5936     1   107.9700462 569.024000
   3082   5936   5930     1   112.4800480 524.673600
   3085   5950   5944     1   112.4800480 524.673600
   3090   3091   3103     1   114.2100488 537.225600
   3090   3094   3106     1   114.2100488 537.225600
   3090   3097   3100     1   114.2100488 537.225600
   3091   3090   3094     1   109.6600471 523.836800
   3091   3090   3097     1   109.6600471 523.836800
   3091   3103   3115     1   111.5100476 526.347200
   3094   3090   3097     1   109.6600471 523.836800
   3094   3106   3112     1   111.5100476 526.347200
   3097   3100   3109     1   111.5100476 526.347200
   3100   3109   3118     1   107.9700462 569.024000
   3103   3115   5978     1   107.9700462 569.024000
   3106   3112   5964     1   107.9700462 569.024000
   3112   5964   5958     1   112.4800480 524.673600
   3115   5978   5972     1   112.4800480 524.673600
   3120   3121   3133     1   114.2100488 537.225600
   3120   3124   3136     1   114.2100488 537.225600
   3120   3127   3130     1   114.2100488 537.225600
   3121   3120   3124     1   109.6600471 523.836800
   3121   3120   3127     1   109.6600471 523.836800
   3121   3133   3145     1   111.5100476 526.347200
   3124   3120   3127     1   109.6600471 523.836800
   3124   3136   3142     1   111.5100476 526.347200
   3127   3130   3139     1   111.5100476 526.347200
   3130   3139   3148     1   107.9700462 569.024000
   3133   3145   6006     1   107.9700462 569.024000
   3136   3142   5992     1   107.9700462 569.024000
   3142   5992   5986     1   112.4800480 524.673600
   3145   6006   6000     1   112.4800480 524.673600
   3150   3151   3163     1   114.2100488 537.225600
   3150   3154   3166     1   114.2100488 537.225600
   3150   3157   3160     1   114.2100488 537.225600
   3151   3150   3154     1   109.6600471 523.836800
   3151   3150   3157     1   109.6600471 523.836800
   3151   3163   3175     1   111.5100476 526.347200
   3154   3150   3157     1   109.6600471 523.836800
   3154   3166   3172     1   111.5100476 526.347200
   3157   3160   3169     1   111.5100476 526.347200
   3160   3169   3178     1   107.9700462 569.024000
   3163   3175   6034     1   107.9700462 569.024000
   3166   3172   6020     1   107.9700462 569.024000
   3172   6020   6014     1   112.4800480 524.673600
   3175   6034   6028     1   112.4800480 524.673600
   3180   3181   3193     1   114.2100488 537.225600
   3180   3184   3196     1   114.2100488 537.225600
   3180   3187   3190     1   114.2100488 537.225600
   3181   3180   3184     1   109.6600471 523.836800
   3181   3180   3187     1   109.6600471 523.836800
   3181   3193   3205     1   111.5100476 526.347200
   3184   3180   3187     1   109.6600471 523.836800
   3184   3196   3202     1   111.5100476 526.347200
   3187   3190   3199     1   111.5100476 526.347200
   3190   3199   3208     1   107.9700462 569.024000
   3193   3205   6062     1   107.9700462 569.024000
   3196   3202   6048     1   107.9700462 569.024000
   3202   6048   6042     1   112.4800480 524.673600
   3205   6062   6056     1   112.4800480 524.673600
   3210   3211   3223     1   114.2100488 537.225600
   3210   3214   3226     1   114.2100488 537.225600
   3210   3217   3220     1   114.2100488 537.225600
   3211   3210   3214     1   109.6600471 523.836800
   3211   3210   3217     1   109.6600471 523.836800
   3211   3223   3235     1   111.5100476 526.347200
   3214   3210   3217     1   109.6600471 523.836800
   3214   3226   3232     1   111.5100476 526.347200
   3217   3220   3229     1   111.5100476 526.347200
   3220   3229   3238     1   107.9700462 569.024000
   3223   3235   6090     1   107.9700462 569.024000
   3226   3232   6076     1   107.9700462 569.024000
   3232   6076   6070     1   112.4800480 524.673600
   3235   6090   6084     1   112.4800480 524.673600
   3240   3241   3253     1   114.2100488 537.225600
   3240   3244   3256     1   114.2100488 537.225600
   3240   3247   3250     1   114.2100488 537.225600
   3241   3240   3244     1   109.6600471 523.836800
   3241   3240   3247     1   109.6600471 523.836800
   3241   3253   3265     1   111.5100476 526.347200
   3244   3240   3247     1   109.6600471 523.836800
   3244   3256   3262     1   111.5100476 526.347200
   3247   3250   3259     1   111.5100476 526.347200
   3250   3259   3268     1   107.9700462 569.024000
   3253   3265   6118     1   107.9700462 569.024000
   3256   3262   6104     1   107.9700462 569.024000
   3262   6104   6098     1   112.4800480 524.673600
   3265   6118   6112     1   112.4800480 524.673600
   3270   3271   3283     1   114.2100488 537.225600
   3270   3274   3286     1   114.2100488 537.225600
   3270   3277   3280     1   114.2100488 537.225600
   3271   3270   3274     1   109.6600471 523.836800
   3271   3270   3277     1   109.6600471 523.836800
   3271   3283   3295     1   111.5100476 526.347200
   3274   3270   3277     1   109.6600471 523.836800
   3274   3286   3292     1   111.5100476 526.347200
   3277   3280   3289     1   111.5100476 526.347200
   3280   3289   3298     1   107.9700462 569.024000
   3283   3295   6146     1   107.9700462 569.024000
   3286   3292   6132     1   107.9700462 569.024000
   3292   6132   6126     1   112.4800480 524.673600
   3295   6146   6140     1   112.4800480 524.673600
   3300   3301   3313     1   114.2100488 537.225600
   3300   3304   3316     1   114.2100488 537.225600
   3300   3307   3310     1   114.2100488 537.225600
   3301   3300   3304     1   109.6600471 523.836800
   3301   3300   3307     1   109.6600471 523.836800
   3301   3313   3325     1   111.5100476 526.347200
   3304   3300   3307     1   109.6600471 523.836800
   3304   3316   3322     1   111.5100476 526.347200
   3307   3310   3319     1   111.5100476 526.347200
   3310   3319   3328     1   107.9700462 569.024000
   3313   3325   6174     1   107.9700462 569.024000
   3316   3322   6160     1   107.9700462 569.024000
   3322   6160   6154     1   112.4800480 524.673600
   3325   6174   6168     1   112.4800480 524.673600
   3330   3331   3343     1   114.2100488 537.225600
   3330   3334   3346     1   114.2100488 537.225600
   3330   3337   3340     1   114.2100488 537.225600
   3331   3330   3334     1   109.6600471 523.836800
   3331   3330   3337     1   109.6600471 523.836800
   3331   3343   3355     1   111.5100476 526.347200
   3334   3330   3337     1   109.6600471 523.836800
   3334   3346   3352     1   111.5100476 526.347200
   3337   3340   3349     1   111.5100476 526.347200
   3340   3349   3358     1   107.9700462 569.024000
   3343   3355   6202     1   107.9700462 569.024000
   3346   3352   6188     1   107.9700462 569.024000
   3352   6188   6182     1   112.4800480 524.673600
   3355   6202   6196     1   112.4800480 524.673600
   3360   3361   3373     1   114.2100488 537.225600
   3360   3364   3376     1   114.2100488 537.225600
   3360   3367   3370     1   114.2100488 537.225600
   3361   3360   3364     1   109.6600471 523.836800
   3361   3360   3367     1   109.6600471 523.836800
   3361   3373   3385     1   111.5100476 526.347200
   3364   3360   3367     1   109.6600471 523.836800
   3364   3376   3382     1   111.5100476 526.347200
   3367   3370   3379     1   111.5100476 526.347200
   3370   3379   3388     1   107.9700462 569.024000
   3373   3385   6230     1   107.9700462 569.024000
   3376   3382   6216     1   107.9700462 569.024000
   3382   6216   6210     1   112.4800480 524.673600
   3385   6230   6224     1   112.4800480 524.673600
   3390   3391   3403     1   114.2100488 537.225600
   3390   3394   3406     1   114.2100488 537.225600
   3390   3397   3400     1   114.2100488 537.225600
   3391   3390   3394     1   109.6600471 523.836800
   3391   3390   3397     1   109.6600471 523.836800
   3391   3403   3415     1   111.5100476 526.347200
   3394   3390   3397     1   109.6600471 523.836800
   3394   3406   3412     1   111.5100476 526.347200
   3397   3400   3409     1   111.5100476 526.347200
   3400   3409   3418     1   107.9700462 569.024000
   3403   3415   6258     1   107.9700462 569.024000
   3406   3412   6244     1   107.9700462 569.024000
   3412   6244   6238     1   112.4800480 524.673600
   3415   6258   6252     1   112.4800480 524.673600
   3420   3421   3433     1   114.2100488 537.225600
   3420   3424   3436     1   114.2100488 537.225600
   3420   3427   3430     1   114.2100488 537.225600
   3421   3420   3424     1   109.6600471 523.836800
   3421   3420   3427     1   109.6600471 523.836800
   3421   3433   3445     1   111.5100476 526.347200
   3424   3420   3427     1   109.6600471 523.836800
   3424   3436   3442     1   111.5100476 526.347200
   3427   3430   3439     1   111.5100476 526.347200
   3430   3439   3448     1   107.9700462 569.024000
   3433   3445   6286     1   107.9700462 569.024000
   3436   3442   6272     1   107.9700462 569.024000
   3442   6272   6266     1   112.4800480 524.673600
   3445   6286   6280     1   112.4800480 524.673600
   3450   3451   3463     1   114.2100488 537.225600
   3450   3454   3466     1   114.2100488 537.225600
   3450   3457   3460     1   114.2100488 537.225600
   3451   3450   3454     1   109.6600471 523.836800
   3451   3450   3457     1   109.6600471 523.836800
   3451   3463   3475     1   111.5100476 526.347200
   3454   3450   3457     1   109.6600471 523.836800
   3454   3466   3472     1   111.5100476 526.347200
   3457   3460   3469     1   111.5100476 526.347200
   3460   3469   3478     1   107.9700462 569.024000
   3463   3475   6314     1   107.9700462 569.024000
   3466   3472   6300     1   107.9700462 569.024000
   3472   6300   6294     1   112.4800480 524.673600
   3475   6314   6308     1   112.4800480 524.673600
   3480   3481   3493     1   114.2100488 537.225600
   3480   3484   3496     1   114.2100488 537.225600
   3480   3487   3490     1   114.2100488 537.225600
   3481   3480   3484     1   109.6600471 523.836800
   3481   3480   3487     1   109.6600471 523.836800
   3481   3493   3505     1   111.5100476 526.347200
   3484   3480   3487     1   109.6600471 523.836800
   3484   3496   3502     1   111.5100476 526.347200
   3487   3490   3499     1   111.5100476 526.347200
   3490   3499   3508     1   107.9700462 569.024000
   3493   3505   6342     1   107.9700462 569.024000
   3496   3502   6328     1   107.9700462 569.024000
   3502   6328   6322     1   112.4800480 524.673600
   3505   6342   6336     1   112.4800480 524.673600
   3510   3511   3523     1   114.2100488 537.225600
   3510   3514   3526     1   114.2100488 537.225600
   3510   3517   3520     1   114.2100488 537.225600
   3511   3510   3514     1   109.6600471 523.836800
   3511   3510   3517     1   109.6600471 523.836800
   3511   3523   3535     1   111.5100476 526.347200
   3514   3510   3517     1   109.6600471 523.836800
   3514   3526   3532     1   111.5100476 526.347200
   3517   3520   3529     1   111.5100476 526.347200
   3520   3529   3538     1   107.9700462 569.024000
   3523   3535   6370     1   107.9700462 569.024000
   3526   3532   6356     1   107.9700462 569.024000
   3532   6356   6350     1   112.4800480 524.673600
   3535   6370   6364     1   112.4800480 524.673600
   3540   3541   3553     1   114.2100488 537.225600
   3540   3544   3556     1   114.2100488 537.225600
   3540   3547   3550     1   114.2100488 537.225600
   3541   3540   3544     1   109.6600471 523.836800
   3541   3540   3547     1   109.6600471 523.836800
   3541   3553   3565     1   111.5100476 526.347200
   3544   3540   3547     1   109.6600471 523.836800
   3544   3556   3562     1   111.5100476 526.347200
   3547   3550   3559     1   111.5100476 526.347200
   3550   3559   3568     1   107.9700462 569.024000
   3553   3565   6398     1   107.9700462 569.024000
   3556   3562   6384     1   107.9700462 569.024000
   3562   6384   6378     1   112.4800480 524.673600
   3565   6398   6392     1   112.4800480 524.673600
   3570   3571   3583     1   114.2100488 537.225600
   3570   3574   3586     1   114.2100488 537.225600
   3570   3577   3580     1   114.2100488 537.225600
   3571   3570   3574     1   109.6600471 523.836800
   3571   3570   3577     1   109.6600471 523.836800
   3571   3583   3595     1   111.5100476 526.347200
   3574   3570   3577     1   109.6600471 523.836800
   3574   3586   3592     1   111.5100476 526.347200
   3577   3580   3589     1   111.5100476 526.347200
   3580   3589   3598     1   107.9700462 569.024000
   3583   3595   6426     1   107.9700462 569.024000
   3586   3592   6412     1   107.9700462 569.024000
   3592   6412   6406     1   112.4800480 524.673600
   3595   6426   6420     1   112.4800480 524.673600
   3600   3601   3613     1   114.2100488 537.225600
   3600   3604   3616     1   114.2100488 537.225600
   3600   3607   3610     1   114.2100488 537.225600
   3601   3600   3604     1   109.6600471 523.836800
   3601   3600   3607     1   109.6600471 523.836800
   3601   3613   3625     1   111.5100476 526.347200
   3604   3600   3607     1   109.6600471 523.836800
   3604   3616   3622     1   111.5100476 526.347200
   3607   3610   3619     1   111.5100476 526.347200
   3610   3619   3628     1   107.9700462 569.024000
   3613   3625   6454     1   107.9700462 569.024000
   3616   3622   6440     1   107.9700462 569.024000
   3622   6440   6434     1   112.4800480 524.673600
   3625   6454   6448     1   112.4800480 524.673600
   3630   3631   3643     1   114.2100488 537.225600
   3630   3634   3646     1   114.2100488 537.225600
   3630   3637   3640     1   114.2100488 537.225600
   3631   3630   3634     1   109.6600471 523.836800
   3631   3630   3637     1   109.6600471 523.836800
   3631   3643   3655     1   111.5100476 526.347200
   3634   3630   3637     1   109.6600471 523.836800
   3634   3646   3652     1   111.5100476 526.347200
   3637   3640   3649     1   111.5100476 526.347200
   3640   3649   3658     1   107.9700462 569.024000
   3643   3655   6482     1   107.9700462 569.024000
   3646   3652   6468     1   107.9700462 569.024000
   3652   6468   6462     1   112.4800480 524.673600
   3655   6482   6476     1   112.4800480 524.673600
   3660   3661   3673     1   114.2100488 537.225600
   3660   3664   3676     1   114.2100488 537.225600
   3660   3667   3670     1   114.2100488 537.225600
   3661   3660   3664     1   109.6600471 523.836800
   3661   3660   3667     1   109.6600471 523.836800
   3661   3673   3685     1   111.5100476 526.347200
   3664   3660   3667     1   109.6600471 523.836800
   3664   3676   3682     1   111.5100476 526.347200
   3667   3670   3679     1   111.5100476 526.347200
   3670   3679   3688     1   107.9700462 569.024000
   3673   3685   6510     1   107.9700462 569.024000
   3676   3682   6496     1   107.9700462 569.024000
   3682   6496   6490     1   112.4800480 524.673600
   3685   6510   6504     1   112.4800480 524.673600
   3690   3691   3703     1   114.2100488 537.225600
   3690   3694   3706     1   114.2100488 537.225600
   3690   3697   3700     1   114.2100488 537.225600
   3691   3690   3694     1   109.6600471 523.836800
   3691   3690   3697     1   109.6600471 523.836800
   3691   3703   3715     1   111.5100476 526.347200
   3694   3690   3697     1   109.6600471 523.836800
   3694   3706   3712     1   111.5100476 526.347200
   3697   3700   3709     1   111.5100476 526.347200
   3700   3709   3718     1   107.9700462 569.024000
   3703   3715   6538     1   107.9700462 569.024000
   3706   3712   6524     1   107.9700462 569.024000
   3712   6524   6518     1   112.4800480 524.673600
   3715   6538   6532     1   112.4800480 524.673600
   3720   3721   3733     1   114.2100488 537.225600
   3720   3724   3736     1   114.2100488 537.225600
   3720   3727   3730     1   114.2100488 537.225600
   3721   3720   3724     1   109.6600471 523.836800
   3721   3720   3727     1   109.6600471 523.836800
   3721   3733   3745     1   111.5100476 526.347200
   3724   3720   3727     1   109.6600471 523.836800
   3724   3736   3742     1   111.5100476 526.347200
   3727   3730   3739     1   111.5100476 526.347200
   3730   3739   3748     1   107.9700462 569.024000
   3733   3745   6566     1   107.9700462 569.024000
   3736   3742   6552     1   107.9700462 569.024000
   3742   6552   6546     1   112.4800480 524.673600
   3745   6566   6560     1   112.4800480 524.673600
   3750   3751   3763     1   114.2100488 537.225600
   3750   3754   3766     1   114.2100488 537.225600
   3750   3757   3760     1   114.2100488 537.225600
   3751   3750   3754     1   109.6600471 523.836800
   3751   3750   3757     1   109.6600471 523.836800
   3751   3763   3775     1   111.5100476 526.347200
   3754   3750   3757     1   109.6600471 523.836800
   3754   3766   3772     1   111.5100476 526.347200
   3757   3760   3769     1   111.5100476 526.347200
   3760   3769   3778     1   107.9700462 569.024000
   3763   3775   6594     1   107.9700462 569.024000
   3766   3772   6580     1   107.9700462 569.024000
   3772   6580   6574     1   112.4800480 524.673600
   3775   6594   6588     1   112.4800480 524.673600
   3780   3781   3793     1   114.2100488 537.225600
   3780   3784   3796     1   114.2100488 537.225600
   3780   3787   3790     1   114.2100488 537.225600
   3781   3780   3784     1   109.6600471 523.836800
   3781   3780   3787     1   109.6600471 523.836800
   3781   3793   3805     1   111.5100476 526.347200
   3784   3780   3787     1   109.6600471 523.836800
   3784   3796   3802     1   111.5100476 526.347200
   3787   3790   3799     1   111.5100476 526.347200
   3790   3799   3808     1   107.9700462 569.024000
   3793   3805   6622     1   107.9700462 569.024000
   3796   3802   6608     1   107.9700462 569.024000
   3802   6608   6602     1   112.4800480 524.673600
   3805   6622   6616     1   112.4800480 524.673600
   3810   3811   3823     1   114.2100488 537.225600
   3810   3814   3826     1   114.2100488 537.225600
   3810   3817   3820     1   114.2100488 537.225600
   3811   3810   3814     1   109.6600471 523.836800
   3811   3810   3817     1   109.6600471 523.836800
   3811   3823   3835     1   111.5100476 526.347200
   3814   3810   3817     1   109.6600471 523.836800
   3814   3826   3832     1   111.5100476 526.347200
   3817   3820   3829     1   111.5100476 526.347200
   3820   3829   3838     1   107.9700462 569.024000
   3823   3835   6650     1   107.9700462 569.024000
   3826   3832   6636     1   107.9700462 569.024000
   3832   6636   6630     1   112.4800480 524.673600
   3835   6650   6644     1   112.4800480 524.673600
   3840   3841   3853     1   114.2100488 537.225600
   3840   3844   3856     1   114.2100488 537.225600
   3840   3847   3850     1   114.2100488 537.225600
   3841   3840   3844     1   109.6600471 523.836800
   3841   3840   3847     1   109.6600471 523.836800
   3841   3853   3865     1   111.5100476 526.347200
   3844   3840   3847     1   109.6600471 523.836800
   3844   3856   3862     1   111.5100476 526.347200
   3847   3850   3859     1   111.5100476 526.347200
   3850   3859   3868     1   107.9700462 569.024000
   3853   3865   6678     1   107.9700462 569.024000
   3856   3862   6664     1   107.9700462 569.024000
   3862   6664   6658     1   112.4800480 524.673600
   3865   6678   6672     1   112.4800480 524.673600
   3870   3871   3883     1   114.2100488 537.225600
   3870   3874   3886     1   114.2100488 537.225600
   3870   3877   3880     1   114.2100488 537.225600
   3871   3870   3874     1   109.6600471 523.836800
   3871   3870   3877     1   109.6600471 523.836800
   3871   3883   3895     1   111.5100476 526.347200
   3874   3870   3877     1   109.6600471 523.836800
   3874   3886   3892     1   111.5100476 526.347200
   3877   3880   3889     1   111.5100476 526.347200
   3880   3889   3898     1   107.9700462 569.024000
   3883   3895   6706     1   107.9700462 569.024000
   3886   3892   6692     1   107.9700462 569.024000
   3892   6692   6686     1   112.4800480 524.673600
   3895   6706   6700     1   112.4800480 524.673600
   3900   3901   3913     1   114.2100488 537.225600
   3900   3904   3916     1   114.2100488 537.225600
   3900   3907   3910     1   114.2100488 537.225600
   3901   3900   3904     1   109.6600471 523.836800
   3901   3900   3907     1   109.6600471 523.836800
   3901   3913   3925     1   111.5100476 526.347200
   3904   3900   3907     1   109.6600471 523.836800
   3904   3916   3922     1   111.5100476 526.347200
   3907   3910   3919     1   111.5100476 526.347200
   3910   3919   3928     1   107.9700462 569.024000
   3913   3925   6734     1   107.9700462 569.024000
   3916   3922   6720     1   107.9700462 569.024000
   3922   6720   6714     1   112.4800480 524.673600
   3925   6734   6728     1   112.4800480 524.673600
   3930   3931   3943     1   114.2100488 537.225600
   3930   3934   3946     1   114.2100488 537.225600
   3930   3937   3940     1   114.2100488 537.225600
   3931   3930   3934     1   109.6600471 523.836800
   3931   3930   3937     1   109.6600471 523.836800
   3931   3943   3955     1   111.5100476 526.347200
   3934   3930   3937     1   109.6600471 523.836800
   3934   3946   3952     1   111.5100476 526.347200
   3937   3940   3949     1   111.5100476 526.347200
   3940   3949   3958     1   107.9700462 569.024000
   3943   3955   6762     1   107.9700462 569.024000
   3946   3952   6748     1   107.9700462 569.024000
   3952   6748   6742     1   112.4800480 524.673600
   3955   6762   6756     1   112.4800480 524.673600
   3960   3961   3973     1   114.2100488 537.225600
   3960   3964   3976     1   114.2100488 537.225600
   3960   3967   3970     1   114.2100488 537.225600
   3961   3960   3964     1   109.6600471 523.836800
   3961   3960   3967     1   109.6600471 523.836800
   3961   3973   3985     1   111.5100476 526.347200
   3964   3960   3967     1   109.6600471 523.836800
   3964   3976   3982     1   111.5100476 526.347200
   3967   3970   3979     1   111.5100476 526.347200
   3970   3979   3988     1   107.9700462 569.024000
   3973   3985   6790     1   107.9700462 569.024000
   3976   3982   6776     1   107.9700462 569.024000
   3982   6776   6770     1   112.4800480 524.673600
   3985   6790   6784     1   112.4800480 524.673600
   3990   3991   4003     1   114.2100488 537.225600
   3990   3994   4006     1   114.2100488 537.225600
   3990   3997   4000     1   114.2100488 537.225600
   3991   3990   3994     1   109.6600471 523.836800
   3991   3990   3997     1   109.6600471 523.836800
   3991   4003   4015     1   111.5100476 526.347200
   3994   3990   3997     1   109.6600471 523.836800
   3994   4006   4012     1   111.5100476 526.347200
   3997   4000   4009     1   111.5100476 526.347200
   4000   4009   4018     1   107.9700462 569.024000
   4003   4015   6818     1   107.9700462 569.024000
   4006   4012   6804     1   107.9700462 569.024000
   4012   6804   6798     1   112.4800480 524.673600
   4015   6818   6812     1   112.4800480 524.673600
   4020   4021   4033     1   114.2100488 537.225600
   4020   4024   4036     1   114.2100488 537.225600
   4020   4027   4030     1   114.2100488 537.225600
   4021   4020   4024     1   109.6600471 523.836800
   4021   4020   4027     1   109.6600471 523.836800
   4021   4033   4045     1   111.5100476 526.347200
   4024   4020   4027     1   109.6600471 523.836800
   4024   4036   4042     1   111.5100476 526.347200
   4027   4030   4039     1   111.5100476 526.347200
   4030   4039   4048     1   107.9700462 569.024000
   4033   4045   6846     1   107.9700462 569.024000
   4036   4042   6832     1   107.9700462 569.024000
   4042   6832   6826     1   112.4800480 524.673600
   4045   6846   6840     1   112.4800480 524.673600
   4050   4051   4063     1   114.2100488 537.225600
   4050   4054   4066     1   114.2100488 537.225600
   4050   4057   4060     1   114.2100488 537.225600
   4051   4050   4054     1   109.6600471 523.836800
   4051   4050   4057     1   109.6600471 523.836800
   4051   4063   4075     1   111.5100476 526.347200
   4054   4050   4057     1   109.6600471 523.836800
   4054   4066   4072     1   111.5100476 526.347200
   4057   4060   4069     1   111.5100476 526.347200
   4060   4069   4078     1   107.9700462 569.024000
   4063   4075   6874     1   107.9700462 569.024000
   4066   4072   6860     1   107.9700462 569.024000
   4072   6860   6854     1   112.4800480 524.673600
   4075   6874   6868     1   112.4800480 524.673600
   4080   4081   4093     1   114.2100488 537.225600
   4080   4084   4096     1   114.2100488 537.225600
   4080   4087   4090     1   114.2100488 537.225600
   4081   4080   4084     1   109.6600471 523.836800
   4081   4080   4087     1   109.6600471 523.836800
   4081   4093   4105     1   111.5100476 526.347200
   4084   4080   4087     1   109.6600471 523.836800
   4084   4096   4102     1   111.5100476 526.347200
   4087   4090   4099     1   111.5100476 526.347200
   4090   4099   4108     1   107.9700462 569.024000
   4093   4105   6902     1   107.9700462 569.024000
   4096   4102   6888     1   107.9700462 569.024000
   4102   6888   6882     1   112.4800480 524.673600
   4105   6902   6896     1   112.4800480 524.673600
   4110   4111   4123     1   114.2100488 537.225600
   4110   4114   4126     1   114.2100488 537.225600
   4110   4117   4120     1   114.2100488 537.225600
   4111   4110   4114     1   109.6600471 523.836800
   4111   4110   4117     1   109.6600471 523.836800
   4111   4123   4135     1   111.5100476 526.347200
   4114   4110   4117     1   109.6600471 523.836800
   4114   4126   4132     1   111.5100476 526.347200
   4117   4120   4129     1   111.5100476 526.347200
   4120   4129   4138     1   107.9700462 569.024000
   4123   4135   6930     1   107.9700462 569.024000
   4126   4132   6916     1   107.9700462 569.024000
   4132   6916   6910     1   112.4800480 524.673600
   4135   6930   6924     1   112.4800480 524.673600
   4140   4141   4153     1   114.2100488 537.225600
   4140   4144   4156     1   114.2100488 537.225600
   4140   4147   4150     1   114.2100488 537.225600
   4141   4140   4144     1   109.6600471 523.836800
   4141   4140   4147     1   109.6600471 523.836800
   4141   4153   4165     1   111.5100476 526.347200
   4144   4140   4147     1   109.6600471 523.836800
   4144   4156   4162     1   111.5100476 526.347200
   4147   4150   4159     1   111.5100476 526.347200
   4150   4159   4168     1   107.9700462 569.024000
   4153   4165   6958     1   107.9700462 569.024000
   4156   4162   6944     1   107.9700462 569.024000
   4162   6944   6938     1   112.4800480 524.673600
   4165   6958   6952     1   112.4800480 524.673600
   4170   4171   4183     1   114.2100488 537.225600
   4170   4174   4186     1   114.2100488 537.225600
   4170   4177   4180     1   114.2100488 537.225600
   4171   4170   4174     1   109.6600471 523.836800
   4171   4170   4177     1   109.6600471 523.836800
   4171   4183   4195     1   111.5100476 526.347200
   4174   4170   4177     1   109.6600471 523.836800
   4174   4186   4192     1   111.5100476 526.347200
   4177   4180   4189     1   111.5100476 526.347200
   4180   4189   4198     1   107.9700462 569.024000
   4183   4195   6986     1   107.9700462 569.024000
   4186   4192   6972     1   107.9700462 569.024000
   4192   6972   6966     1   112.4800480 524.673600
   4195   6986   6980     1   112.4800480 524.673600
   4200   4201   4213     1   114.2100488 537.225600
   4200   4204   4216     1   114.2100488 537.225600
   4200   4207   4210     1   114.2100488 537.225600
   4201   4200   4204     1   109.6600471 523.836800
   4201   4200   4207     1   109.6600471 523.836800
   4201   4213   4225     1   111.5100476 526.347200
   4204   4200   4207     1   109.6600471 523.836800
   4204   4216   4222     1   111.5100476 526.347200
   4207   4210   4219     1   111.5100476 526.347200
   4210   4219   4228     1   107.9700462 569.024000
   4213   4225   7014     1   107.9700462 569.024000
   4216   4222   7000     1   107.9700462 569.024000
   4222   7000   6994     1   112.4800480 524.673600
   4225   7014   7008     1   112.4800480 524.673600
   4230   4231   4243     1   114.2100488 537.225600
   4230   4234   4246     1   114.2100488 537.225600
   4230   4237   4240     1   114.2100488 537.225600
   4231   4230   4234     1   109.6600471 523.836800
   4231   4230   4237     1   109.6600471 523.836800
   4231   4243   4255     1   111.5100476 526.347200
   4234   4230   4237     1   109.6600471 523.836800
   4234   4246   4252     1   111.5100476 526.347200
   4237   4240   4249     1   111.5100476 526.347200
   4240   4249   4258     1   107.9700462 569.024000
   4243   4255   7042     1   107.9700462 569.024000
   4246   4252   7028     1   107.9700462 569.024000
   4252   7028   7022     1   112.4800480 524.673600
   4255   7042   7036     1   112.4800480 524.673600
   4260   4261   4273     1   114.2100488 537.225600
   4260   4264   4276     1   114.2100488 537.225600
   4260   4267   4270     1   114.2100488 537.225600
   4261   4260   4264     1   109.6600471 523.836800
   4261   4260   4267     1   109.6600471 523.836800
   4261   4273   4285     1   111.5100476 526.347200
   4264   4260   4267     1   109.6600471 523.836800
   4264   4276   4282     1   111.5100476 526.347200
   4267   4270   4279     1   111.5100476 526.347200
   4270   4279   4288     1   107.9700462 569.024000
   4273   4285   7070     1   107.9700462 569.024000
   4276   4282   7056     1   107.9700462 569.024000
   4282   7056   7050     1   112.4800480 524.673600
   4285   7070   7064     1   112.4800480 524.673600
   4290   4291   4303     1   114.2100488 537.225600
   4290   4294   4306     1   114.2100488 537.225600
   4290   4297   4300     1   114.2100488 537.225600
   4291   4290   4294     1   109.6600471 523.836800
   4291   4290   4297     1   109.6600471 523.836800
   4291   4303   4315     1   111.5100476 526.347200
   4294   4290   4297     1   109.6600471 523.836800
   4294   4306   4312     1   111.5100476 526.347200
   4297   4300   4309     1   111.5100476 526.347200
   4300   4309   4318     1   107.9700462 569.024000
   4303   4315   7098     1   107.9700462 569.024000
   4306   4312   7084     1   107.9700462 569.024000
   4312   7084   7078     1   112.4800480 524.673600
   4315   7098   7092     1   112.4800480 524.673600
   4320   4321   4333     1   114.2100488 537.225600
   4320   4324   4336     1   114.2100488 537.225600
   4320   4327   4330     1   114.2100488 537.225600
   4321   4320   4324     1   109.6600471 523.836800
   4321   4320   4327     1   109.6600471 523.836800
   4321   4333   4345     1   111.5100476 526.347200
   4324   4320   4327     1   109.6600471 523.836800
   4324   4336   4342     1   111.5100476 526.347200
   4327   4330   4339     1   111.5100476 526.347200
   4330   4339   4348     1   107.9700462 569.024000
   4333   4345   7126     1   107.9700462 569.024000
   4336   4342   7112     1   107.9700462 569.024000
   4342   7112   7106     1   112.4800480 524.673600
   4345   7126   7120     1   112.4800480 524.673600
   4350   4351   4363     1   114.2100488 537.225600
   4350   4354   4366     1   114.2100488 537.225600
   4350   4357   4360     1   114.2100488 537.225600
   4351   4350   4354     1   109.6600471 523.836800
   4351   4350   4357     1   109.6600471 523.836800
   4351   4363   4375     1   111.5100476 526.347200
   4354   4350   4357     1   109.6600471 523.836800
   4354   4366   4372     1   111.5100476 526.347200
   4357   4360   4369     1   111.5100476 526.347200
   4360   4369   4378     1   107.9700462 569.024000
   4363   4375   7154     1   107.9700462 569.024000
   4366   4372   7140     1   107.9700462 569.024000
   4372   7140   7134     1   112.4800480 524.673600
   4375   7154   7148     1   112.4800480 524.673600
   4380   4381   4393     1   114.2100488 537.225600
   4380   4384   4396     1   114.2100488 537.225600
   4380   4387   4390     1   114.2100488 537.225600
   4381   4380   4384     1   109.6600471 523.836800
   4381   4380   4387     1   109.6600471 523.836800
   4381   4393   4405     1   111.5100476 526.347200
   4384   4380   4387     1   109.6600471 523.836800
   4384   4396   4402     1   111.5100476 526.347200
   4387   4390   4399     1   111.5100476 526.347200
   4390   4399   4408     1   107.9700462 569.024000
   4393   4405   7182     1   107.9700462 569.024000
   4396   4402   7168     1   107.9700462 569.024000
   4402   7168   7162     1   112.4800480 524.673600
   4405   7182   7176     1   112.4800480 524.673600
   4410   4411   4423     1   114.2100488 537.225600
   4410   4414   4426     1   114.2100488 537.225600
   4410   4417   4420     1   114.2100488 537.225600
   4411   4410   4414     1   109.6600471 523.836800
   4411   4410   4417     1   109.6600471 523.836800
   4411   4423   4435     1   111.5100476 526.347200
   4414   4410   4417     1   109.6600471 523.836800
   4414   4426   4432     1   111.5100476 526.347200
   4417   4420   4429     1   111.5100476 526.347200
   4420   4429   4438     1   107.9700462 569.024000
   4423   4435   7210     1   107.9700462 569.024000
   4426   4432   7196     1   107.9700462 569.024000
   4432   7196   7190     1   112.4800480 524.673600
   4435   7210   7204     1   112.4800480 524.673600
   4440   4441   4453     1   114.2100488 537.225600
   4440   4444   4456     1   114.2100488 537.225600
   4440   4447   4450     1   114.2100488 537.225600
   4441   4440   4444     1   109.6600471 523.836800
   4441   4440   4447     1   109.6600471 523.836800
   4441   4453   4465     1   111.5100476 526.347200
   4444   4440   4447     1   109.6600471 523.836800
   4444   4456   4462     1   111.5100476 526.347200
   4447   4450   4459     1   111.5100476 526.347200
   4450   4459   4468     1   107.9700462 569.024000
   4453   4465   7238     1   107.9700462 569.024000
   4456   4462   7224     1   107.9700462 569.024000
   4462   7224   7218     1   112.4800480 524.673600
   4465   7238   7232     1   112.4800480 524.673600
   4470   4471   4483     1   114.2100488 537.225600
   4470   4474   4486     1   114.2100488 537.225600
   4470   4477   4480     1   114.2100488 537.225600
   4471   4470   4474     1   109.6600471 523.836800
   4471   4470   4477     1   109.6600471 523.836800
   4471   4483   4495     1   111.5100476 526.347200
   4474   4470   4477     1   109.6600471 523.836800
   4474   4486   4492     1   111.5100476 526.347200
   4477   4480   4489     1   111.5100476 526.347200
   4480   4489   4498     1   107.9700462 569.024000
   4483   4495   7266     1   107.9700462 569.024000
   4486   4492   7252     1   107.9700462 569.024000
   4492   7252   7246     1   112.4800480 524.673600
   4495   7266   7260     1   112.4800480 524.673600
   4500   4501   4513     1   114.2100488 537.225600
   4500   4504   4516     1   114.2100488 537.225600
   4500   4507   4510     1   114.2100488 537.225600
   4501   4500   4504     1   109.6600471 523.836800
   4501   4500   4507     1   109.6600471 523.836800
   4501   4513   4525     1   111.5100476 526.347200
   4504   4500   4507     1   109.6600471 523.836800
   4504   4516   4522     1   111.5100476 526.347200
   4507   4510   4519     1   111.5100476 526.347200
   4510   4519   4528     1   107.9700462 569.024000
   4513   4525   7294     1   107.9700462 569.024000
   4516   4522   7280     1   107.9700462 569.024000
   4522   7280   7274     1   112.4800480 524.673600
   4525   7294   7288     1   112.4800480 524.673600
   4530   4531   4543     1   114.2100488 537.225600
   4530   4534   4546     1   114.2100488 537.225600
   4530   4537   4540     1   114.2100488 537.225600
   4531   4530   4534     1   109.6600471 523.836800
   4531   4530   4537     1   109.6600471 523.836800
   4531   4543   4555     1   111.5100476 526.347200
   4534   4530   4537     1   109.6600471 523.836800
   4534   4546   4552     1   111.5100476 526.347200
   4537   4540   4549     1   111.5100476 526.347200
   4540   4549   4558     1   107.9700462 569.024000
   4543   4555   7322     1   107.9700462 569.024000
   4546   4552   7308     1   107.9700462 569.024000
   4552   7308   7302     1   112.4800480 524.673600
   4555   7322   7316     1   112.4800480 524.673600
   4560   4561   4573     1   114.2100488 537.225600
   4560   4564   4576     1   114.2100488 537.225600
   4560   4567   4570     1   114.2100488 537.225600
   4561   4560   4564     1   109.6600471 523.836800
   4561   4560   4567     1   109.6600471 523.836800
   4561   4573   4585     1   111.5100476 526.347200
   4564   4560   4567     1   109.6600471 523.836800
   4564   4576   4582     1   111.5100476 526.347200
   4567   4570   4579     1   111.5100476 526.347200
   4570   4579   4588     1   107.9700462 569.024000
   4573   4585   7350     1   107.9700462 569.024000
   4576   4582   7336     1   107.9700462 569.024000
   4582   7336   7330     1   112.4800480 524.673600
   4585   7350   7344     1   112.4800480 524.673600
   4590   4591   4603     1   114.2100488 537.225600
   4590   4594   4606     1   114.2100488 537.225600
   4590   4597   4600     1   114.2100488 537.225600
   4591   4590   4594     1   109.6600471 523.836800
   4591   4590   4597     1   109.6600471 523.836800
   4591   4603   4615     1   111.5100476 526.347200
   4594   4590   4597     1   109.6600471 523.836800
   4594   4606   4612     1   111.5100476 526.347200
   4597   4600   4609     1   111.5100476 526.347200
   4600   4609   4618     1   107.9700462 569.024000
   4603   4615   7378     1   107.9700462 569.024000
   4606   4612   7364     1   107.9700462 569.024000
   4612   7364   7358     1   112.4800480 524.673600
   4615   7378   7372     1   112.4800480 524.673600
   4620   4621   4633     1   114.2100488 537.225600
   4620   4624   4636     1   114.2100488 537.225600
   4620   4627   4630     1   114.2100488 537.225600
   4621   4620   4624     1   109.6600471 523.836800
   4621   4620   4627     1   109.6600471 523.836800
   4621   4633   4645     1   111.5100476 526.347200
   4624   4620   4627     1   109.6600471 523.836800
   4624   4636   4642     1   111.5100476 526.347200
   4627   4630   4639     1   111.5100476 526.347200
   4630   4639   4648     1   107.9700462 569.024000
   4633   4645   7406     1   107.9700462 569.024000
   4636   4642   7392     1   107.9700462 569.024000
   4642   7392   7386     1   112.4800480 524.673600
   4645   7406   7400     1   112.4800480 524.673600
   4650   4651   4663     1   114.2100488 537.225600
   4650   4654   4666     1   114.2100488 537.225600
   4650   4657   4660     1   114.2100488 537.225600
   4651   4650   4654     1   109.6600471 523.836800
   4651   4650   4657     1   109.6600471 523.836800
   4651   4663   4675     1   111.5100476 526.347200
   4654   4650   4657     1   109.6600471 523.836800
   4654   4666   4672     1   111.5100476 526.347200
   4657   4660   4669     1   111.5100476 526.347200
   4660   4669   4678     1   107.9700462 569.024000
   4663   4675   7434     1   107.9700462 569.024000
   4666   4672   7420     1   107.9700462 569.024000
   4672   7420   7414     1   112.4800480 524.673600
   4675   7434   7428     1   112.4800480 524.673600
   4680   4681   4693     1   114.2100488 537.225600
   4680   4684   4696     1   114.2100488 537.225600
   4680   4687   4690     1   114.2100488 537.225600
   4681   4680   4684     1   109.6600471 523.836800
   4681   4680   4687     1   109.6600471 523.836800
   4681   4693   4705     1   111.5100476 526.347200
   4684   4680   4687     1   109.6600471 523.836800
   4684   4696   4702     1   111.5100476 526.347200
   4687   4690   4699     1   111.5100476 526.347200
   4690   4699   4708     1   107.9700462 569.024000
   4693   4705   7462     1   107.9700462 569.024000
   4696   4702   7448     1   107.9700462 569.024000
   4702   7448   7442     1   112.4800480 524.673600
   4705   7462   7456     1   112.4800480 524.673600
   4710   4711   4723     1   114.2100488 537.225600
   4710   4714   4726     1   114.2100488 537.225600
   4710   4717   4720     1   114.2100488 537.225600
   4711   4710   4714     1   109.6600471 523.836800
   4711   4710   4717     1   109.6600471 523.836800
   4711   4723   4735     1   111.5100476 526.347200
   4714   4710   4717     1   109.6600471 523.836800
   4714   4726   4732     1   111.5100476 526.347200
   4717   4720   4729     1   111.5100476 526.347200
   4720   4729   4738     1   107.9700462 569.024000
   4723   4735   7490     1   107.9700462 569.024000
   4726   4732   7476     1   107.9700462 569.024000
   4732   7476   7470     1   112.4800480 524.673600
   4735   7490   7484     1   112.4800480 524.673600
   4740   4741   4753     1   114.2100488 537.225600
   4740   4744   4756     1   114.2100488 537.225600
   4740   4747   4750     1   114.2100488 537.225600
   4741   4740   4744     1   109.6600471 523.836800
   4741   4740   4747     1   109.6600471 523.836800
   4741   4753   4765     1   111.5100476 526.347200
   4744   4740   4747     1   109.6600471 523.836800
   4744   4756   4762     1   111.5100476 526.347200
   4747   4750   4759     1   111.5100476 526.347200
   4750   4759   4768     1   107.9700462 569.024000
   4753   4765   7518     1   107.9700462 569.024000
   4756   4762   7504     1   107.9700462 569.024000
   4762   7504   7498     1   112.4800480 524.673600
   4765   7518   7512     1   112.4800480 524.673600
   4770   4771   4783     1   114.2100488 537.225600
   4770   4774   4786     1   114.2100488 537.225600
   4770   4777   4780     1   114.2100488 537.225600
   4771   4770   4774     1   109.6600471 523.836800
   4771   4770   4777     1   109.6600471 523.836800
   4771   4783   4795     1   111.5100476 526.347200
   4774   4770   4777     1   109.6600471 523.836800
   4774   4786   4792     1   111.5100476 526.347200
   4777   4780   4789     1   111.5100476 526.347200
   4780   4789   4798     1   107.9700462 569.024000
   4783   4795   7546     1   107.9700462 569.024000
   4786   4792   7532     1   107.9700462 569.024000
   4792   7532   7526     1   112.4800480 524.673600
   4795   7546   7540     1   112.4800480 524.673600
   4800   4801   4813     1   114.2100488 537.225600
   4800   4804   4816     1   114.2100488 537.225600
   4800   4807   4810     1   114.2100488 537.225600
   4801   4800   4804     1   109.6600471 523.836800
   4801   4800   4807     1   109.6600471 523.836800
   4801   4813   4825     1   111.5100476 526.347200
   4804   4800   4807     1   109.6600471 523.836800
   4804   4816   4822     1   111.5100476 526.347200
   4807   4810   4819     1   111.5100476 526.347200
   4810   4819   4828     1   107.9700462 569.024000
   4813   4825   7574     1   107.9700462 569.024000
   4816   4822   7560     1   107.9700462 569.024000
   4822   7560   7554     1   112.4800480 524.673600
   4825   7574   7568     1   112.4800480 524.673600
   4830   4831   4843     1   114.2100488 537.225600
   4830   4834   4846     1   114.2100488 537.225600
   4830   4837   4840     1   114.2100488 537.225600
   4831   4830   4834     1   109.6600471 523.836800
   4831   4830   4837     1   109.6600471 523.836800
   4831   4843   4855     1   111.5100476 526.347200
   4834   4830   4837     1   109.6600471 523.836800
   4834   4846   4852     1   111.5100476 526.347200
   4837   4840   4849     1   111.5100476 526.347200
   4840   4849   4858     1   107.9700462 569.024000
   4843   4855   7602     1   107.9700462 569.024000
   4846   4852   7588     1   107.9700462 569.024000
   4852   7588   7582     1   112.4800480 524.673600
   4855   7602   7596     1   112.4800480 524.673600
   4860   4861   4873     1   114.2100488 537.225600
   4860   4864   4876     1   114.2100488 537.225600
   4860   4867   4870     1   114.2100488 537.225600
   4861   4860   4864     1   109.6600471 523.836800
   4861   4860   4867     1   109.6600471 523.836800
   4861   4873   4885     1   111.5100476 526.347200
   4864   4860   4867     1   109.6600471 523.836800
   4864   4876   4882     1   111.5100476 526.347200
   4867   4870   4879     1   111.5100476 526.347200
   4870   4879   4888     1   107.9700462 569.024000
   4873   4885   7630     1   107.9700462 569.024000
   4876   4882   7616     1   107.9700462 569.024000
   4882   7616   7610     1   112.4800480 524.673600
   4885   7630   7624     1   112.4800480 524.673600
   4890   4891   4903     1   114.2100488 537.225600
   4890   4894   4906     1   114.2100488 537.225600
   4890   4897   4900     1   114.2100488 537.225600
   4891   4890   4894     1   109.6600471 523.836800
   4891   4890   4897     1   109.6600471 523.836800
   4891   4903   4915     1   111.5100476 526.347200
   4894   4890   4897     1   109.6600471 523.836800
   4894   4906   4912     1   111.5100476 526.347200
   4897   4900   4909     1   111.5100476 526.347200
   4900   4909   4918     1   107.9700462 569.024000
   4903   4915   7658     1   107.9700462 569.024000
   4906   4912   7644     1   107.9700462 569.024000
   4912   7644   7638     1   112.4800480 524.673600
   4915   7658   7652     1   112.4800480 524.673600
   4920   4921   4933     1   114.2100488 537.225600
   4920   4924   4936     1   114.2100488 537.225600
   4920   4927   4930     1   114.2100488 537.225600
   4921   4920   4924     1   109.6600471 523.836800
   4921   4920   4927     1   109.6600471 523.836800
   4921   4933   4945     1   111.5100476 526.347200
   4924   4920   4927     1   109.6600471 523.836800
   4924   4936   4942     1   111.5100476 526.347200
   4927   4930   4939     1   111.5100476 526.347200
   4930   4939   4948     1   107.9700462 569.024000
   4933   4945   7686     1   107.9700462 569.024000
   4936   4942   7672     1   107.9700462 569.024000
   4942   7672   7666     1   112.4800480 524.673600
   4945   7686   7680     1   112.4800480 524.673600
   4950   4951   4963     1   114.2100488 537.225600
   4950   4954   4966     1   114.2100488 537.225600
   4950   4957   4960     1   114.2100488 537.225600
   4951   4950   4954     1   109.6600471 523.836800
   4951   4950   4957     1   109.6600471 523.836800
   4951   4963   4975     1   111.5100476 526.347200
   4954   4950   4957     1   109.6600471 523.836800
   4954   4966   4972     1   111.5100476 526.347200
   4957   4960   4969     1   111.5100476 526.347200
   4960   4969   4978     1   107.9700462 569.024000
   4963   4975   7714     1   107.9700462 569.024000
   4966   4972   7700     1   107.9700462 569.024000
   4972   7700   7694     1   112.4800480 524.673600
   4975   7714   7708     1   112.4800480 524.673600
   4980   4981   4993     1   114.2100488 537.225600
   4980   4984   4996     1   114.2100488 537.225600
   4980   4987   4990     1   114.2100488 537.225600
   4981   4980   4984     1   109.6600471 523.836800
   4981   4980   4987     1   109.6600471 523.836800
   4981   4993   5005     1   111.5100476 526.347200
   4984   4980   4987     1   109.6600471 523.836800
   4984   4996   5002     1   111.5100476 526.347200
   4987   4990   4999     1   111.5100476 526.347200
   4990   4999   5008     1   107.9700462 569.024000
   4993   5005   7742     1   107.9700462 569.024000
   4996   5002   7728     1   107.9700462 569.024000
   5002   7728   7722     1   112.4800480 524.673600
   5005   7742   7736     1   112.4800480 524.673600
   5010   5011   5023     1   114.2100488 537.225600
   5010   5014   5026     1   114.2100488 537.225600
   5010   5017   5020     1   114.2100488 537.225600
   5011   5010   5014     1   109.6600471 523.836800
   5011   5010   5017     1   109.6600471 523.836800
   5011   5023   5035     1   111.5100476 526.347200
   5014   5010   5017     1   109.6600471 523.836800
   5014   5026   5032     1   111.5100476 526.347200
   5017   5020   5029     1   111.5100476 526.347200
   5020   5029   5038     1   107.9700462 569.024000
   5023   5035   7770     1   107.9700462 569.024000
   5026   5032   7756     1   107.9700462 569.024000
   5032   7756   7750     1   112.4800480 524.673600
   5035   7770   7764     1   112.4800480 524.673600
   5040   5041   5053     1   114.2100488 537.225600
   5040   5044   5056     1   114.2100488 537.225600
   5040   5047   5050     1   114.2100488 537.225600
   5041   5040   5044     1   109.6600471 523.836800
   5041   5040   5047     1   109.6600471 523.836800
   5041   5053   5065     1   111.5100476 526.347200
   5044   5040   5047     1   109.6600471 523.836800
   5044   5056   5062     1   111.5100476 526.347200
   5047   5050   5059     1   111.5100476 526.347200
   5050   5059   5068     1   107.9700462 569.024000
   5053   5065   7798     1   107.9700462 569.024000
   5056   5062   7784     1   107.9700462 569.024000
   5062   7784   7778     1   112.4800480 524.673600
   5065   7798   7792     1   112.4800480 524.673600
   5070   5071   5083     1   114.2100488 537.225600
   5070   5074   5086     1   114.2100488 537.225600
   5070   5077   5080     1   114.2100488 537.225600
   5071   5070   5074     1   109.6600471 523.836800
   5071   5070   5077     1   109.6600471 523.836800
   5071   5083   5095     1   111.5100476 526.347200
   5074   5070   5077     1   109.6600471 523.836800
   5074   5086   5092     1   111.5100476 526.347200
   5077   5080   5089     1   111.5100476 526.347200
   5080   5089   5098     1   107.9700462 569.024000
   5083   5095   7826     1   107.9700462 569.024000
   5086   5092   7812     1   107.9700462 569.024000
   5092   7812   7806     1   112.4800480 524.673600
   5095   7826   7820     1   112.4800480 524.673600
   5100   5101   5113     1   114.2100488 537.225600
   5100   5104   5116     1   114.2100488 537.225600
   5100   5107   5110     1   114.2100488 537.225600
   5101   5100   5104     1   109.6600471 523.836800
   5101   5100   5107     1   109.6600471 523.836800
   5101   5113   5125     1   111.5100476 526.347200
   5104   5100   5107     1   109.6600471 523.836800
   5104   5116   5122     1   111.5100476 526.347200
   5107   5110   5119     1   111.5100476 526.347200
   5110   5119   5128     1   107.9700462 569.024000
   5113   5125   7854     1   107.9700462 569.024000
   5116   5122   7840     1   107.9700462 569.024000
   5122   7840   7834     1   112.4800480 524.673600
   5125   7854   7848     1   112.4800480 524.673600
   5130   5131   5143     1   114.2100488 537.225600
   5130   5134   5146     1   114.2100488 537.225600
   5130   5137   5140     1   114.2100488 537.225600
   5131   5130   5134     1   109.6600471 523.836800
   5131   5130   5137     1   109.6600471 523.836800
   5131   5143   5155     1   111.5100476 526.347200
   5134   5130   5137     1   109.6600471 523.836800
   5134   5146   5152     1   111.5100476 526.347200
   5137   5140   5149     1   111.5100476 526.347200
   5140   5149   5158     1   107.9700462 569.024000
   5143   5155   7882     1   107.9700462 569.024000
   5146   5152   7868     1   107.9700462 569.024000
   5152   7868   7862     1   112.4800480 524.673600
   5155   7882   7876     1   112.4800480 524.673600
   5160   5161   5173     1   114.2100488 537.225600
   5160   5164   5176     1   114.2100488 537.225600
   5160   5167   5170     1   114.2100488 537.225600
   5161   5160   5164     1   109.6600471 523.836800
   5161   5160   5167     1   109.6600471 523.836800
   5161   5173   5185     1   111.5100476 526.347200
   5164   5160   5167     1   109.6600471 523.836800
   5164   5176   5182     1   111.5100476 526.347200
   5167   5170   5179     1   111.5100476 526.347200
   5170   5179   5188     1   107.9700462 569.024000
   5173   5185   7910     1   107.9700462 569.024000
   5176   5182   7896     1   107.9700462 569.024000
   5182   7896   7890     1   112.4800480 524.673600
   5185   7910   7904     1   112.4800480 524.673600
   5190   5191   5203     1   114.2100488 537.225600
   5190   5194   5206     1   114.2100488 537.225600
   5190   5197   5200     1   114.2100488 537.225600
   5191   5190   5194     1   109.6600471 523.836800
   5191   5190   5197     1   109.6600471 523.836800
   5191   5203   5215     1   111.5100476 526.347200
   5194   5190   5197     1   109.6600471 523.836800
   5194   5206   5212     1   111.5100476 526.347200
   5197   5200   5209     1   111.5100476 526.347200
   5200   5209   5218     1   107.9700462 569.024000
   5203   5215   7938     1   107.9700462 569.024000
   5206   5212   7924     1   107.9700462 569.024000
   5212   7924   7918     1   112.4800480 524.673600
   5215   7938   7932     1   112.4800480 524.673600
   5220   5221   5233     1   114.2100488 537.225600
   5220   5224   5236     1   114.2100488 537.225600
   5220   5227   5230     1   114.2100488 537.225600
   5221   5220   5224     1   109.6600471 523.836800
   5221   5220   5227     1   109.6600471 523.836800
   5221   5233   5245     1   111.5100476 526.347200
   5224   5220   5227     1   109.6600471 523.836800
   5224   5236   5242     1   111.5100476 526.347200
   5227   5230   5239     1   111.5100476 526.347200
   5230   5239   5248     1   107.9700462 569.024000
   5233   5245   7966     1   107.9700462 569.024000
   5236   5242   7952     1   107.9700462 569.024000
   5242   7952   7946     1   112.4800480 524.673600
   5245   7966   7960     1   112.4800480 524.673600
   5250   5251   5263     1   114.2100488 537.225600
   5250   5254   5266     1   114.2100488 537.225600
   5250   5257   5260     1   114.2100488 537.225600
   5251   5250   5254     1   109.6600471 523.836800
   5251   5250   5257     1   109.6600471 523.836800
   5251   5263   5275     1   111.5100476 526.347200
   5254   5250   5257     1   109.6600471 523.836800
   5254   5266   5272     1   111.5100476 526.347200
   5257   5260   5269     1   111.5100476 526.347200
   5260   5269   5278     1   107.9700462 569.024000
   5263   5275   7994     1   107.9700462 569.024000
   5266   5272   7980     1   107.9700462 569.024000
   5272   7980   7974     1   112.4800480 524.673600
   5275   7994   7988     1   112.4800480 524.673600
   5280   5281   5293     1   114.2100488 537.225600
   5280   5284   5296     1   114.2100488 537.225600
   5280   5287   5290     1   114.2100488 537.225600
   5281   5280   5284     1   109.6600471 523.836800
   5281   5280   5287     1   109.6600471 523.836800
   5281   5293   5305     1   111.5100476 526.347200
   5284   5280   5287     1   109.6600471 523.836800
   5284   5296   5302     1   111.5100476 526.347200
   5287   5290   5299     1   111.5100476 526.347200
   5290   5299   5308     1   107.9700462 569.024000
   5293   5305   8022     1   107.9700462 569.024000
   5296   5302   8008     1   107.9700462 569.024000
   5302   8008   8002     1   112.4800480 524.673600
   5305   8022   8016     1   112.4800480 524.673600
   5310   5311   5323     1   114.2100488 537.225600
   5310   5314   5326     1   114.2100488 537.225600
   5310   5317   5320     1   114.2100488 537.225600
   5311   5310   5314     1   109.6600471 523.836800
   5311   5310   5317     1   109.6600471 523.836800
   5311   5323   5335     1   111.5100476 526.347200
   5314   5310   5317     1   109.6600471 523.836800
   5314   5326   5332     1   111.5100476 526.347200
   5317   5320   5329     1   111.5100476 526.347200
   5320   5329   5338     1   107.9700462 569.024000
   5323   5335   8050     1   107.9700462 569.024000
   5326   5332   8036     1   107.9700462 569.024000
   5332   8036   8030     1   112.4800480 524.673600
   5335   8050   8044     1   112.4800480 524.673600
   5340   5341   5353     1   114.2100488 537.225600
   5340   5344   5356     1   114.2100488 537.225600
   5340   5347   5350     1   114.2100488 537.225600
   5341   5340   5344     1   109.6600471 523.836800
   5341   5340   5347     1   109.6600471 523.836800
   5341   5353   5365     1   111.5100476 526.347200
   5344   5340   5347     1   109.6600471 523.836800
   5344   5356   5362     1   111.5100476 526.347200
   5347   5350   5359     1   111.5100476 526.347200
   5350   5359   5368     1   107.9700462 569.024000
   5353   5365   8078     1   107.9700462 569.024000
   5356   5362   8064     1   107.9700462 569.024000
   5362   8064   8058     1   112.4800480 524.673600
   5365   8078   8072     1   112.4800480 524.673600
   5370   5371   5383     1   114.2100488 537.225600
   5370   5374   5386     1   114.2100488 537.225600
   5370   5377   5380     1   114.2100488 537.225600
   5371   5370   5374     1   109.6600471 523.836800
   5371   5370   5377     1   109.6600471 523.836800
   5371   5383   5395     1   111.5100476 526.347200
   5374   5370   5377     1   109.6600471 523.836800
   5374   5386   5392     1   111.5100476 526.347200
   5377   5380   5389     1   111.5100476 526.347200
   5380   5389   5398     1   107.9700462 569.024000
   5383   5395   8106     1   107.9700462 569.024000
   5386   5392   8092     1   107.9700462 569.024000
   5392   8092   8086     1   112.4800480 524.673600
   5395   8106   8100     1   112.4800480 524.673600
   5400   5401   5413     1   114.2100488 537.225600
   5400   5404   5416     1   114.2100488 537.225600
   5400   5407   5410     1   114.2100488 537.225600
   5401   5400   5404     1   109.6600471 523.836800
   5401   5400   5407     1   109.6600471 523.836800
   5401   5413   5425     1   111.5100476 526.347200
   5404   5400   5407     1   109.6600471 523.836800
   5404   5416   5422     1   111.5100476 526.347200
   5407   5410   5419     1   111.5100476 526.347200
   5410   5419   5428     1   107.9700462 569.024000
   5413   5425   8134     1   107.9700462 569.024000
   5416   5422   8120     1   107.9700462 569.024000
   5422   8120   8114     1   112.4800480 524.673600
   5425   8134   8128     1   112.4800480 524.673600
   5430   5431   5443     1   114.2100488 537.225600
   5430   5434   5446     1   114.2100488 537.225600
   5430   5437   5440     1   114.2100488 537.225600
   5431   5430   5434     1   109.6600471 523.836800
   5431   5430   5437     1   109.6600471 523.836800
   5431   5443   5455     1   111.5100476 526.347200
   5434   5430   5437     1   109.6600471 523.836800
   5434   5446   5452     1   111.5100476 526.347200
   5437   5440   5449     1   111.5100476 526.347200
   5440   5449   5458     1   107.9700462 569.024000
   5443   5455   8162     1   107.9700462 569.024000
   5446   5452   8148     1   107.9700462 569.024000
   5452   8148   8142     1   112.4800480 524.673600
   5455   8162   8156     1   112.4800480 524.673600
   5460   5461   5473     1   114.2100488 537.225600
   5460   5464   5476     1   114.2100488 537.225600
   5460   5467   5470     1   114.2100488 537.225600
   5461   5460   5464     1   109.6600471 523.836800
   5461   5460   5467     1   109.6600471 523.836800
   5461   5473   5485     1   111.5100476 526.347200
   5464   5460   5467     1   109.6600471 523.836800
   5464   5476   5482     1   111.5100476 526.347200
   5467   5470   5479     1   111.5100476 526.347200
   5470   5479   5488     1   107.9700462 569.024000
   5473   5485   8190     1   107.9700462 569.024000
   5476   5482   8176     1   107.9700462 569.024000
   5482   8176   8170     1   112.4800480 524.673600
   5485   8190   8184     1   112.4800480 524.673600
   5490   5491   5503     1   114.2100488 537.225600
   5490   5494   5506     1   114.2100488 537.225600
   5490   5497   5500     1   114.2100488 537.225600
   5491   5490   5494     1   109.6600471 523.836800
   5491   5490   5497     1   109.6600471 523.836800
   5491   5503   5515     1   111.5100476 526.347200
   5494   5490   5497     1   109.6600471 523.836800
   5494   5506   5512     1   111.5100476 526.347200
   5497   5500   5509     1   111.5100476 526.347200
   5500   5509   5518     1   107.9700462 569.024000
   5503   5515   8218     1   107.9700462 569.024000
   5506   5512   8204     1   107.9700462 569.024000
   5512   8204   8198     1   112.4800480 524.673600
   5515   8218   8212     1   112.4800480 524.673600
   5520   5521   5533     1   114.2100488 537.225600
   5520   5524   5536     1   114.2100488 537.225600
   5520   5527   5530     1   114.2100488 537.225600
   5521   5520   5524     1   109.6600471 523.836800
   5521   5520   5527     1   109.6600471 523.836800
   5521   5533   5545     1   111.5100476 526.347200
   5524   5520   5527     1   109.6600471 523.836800
   5524   5536   5542     1   111.5100476 526.347200
   5527   5530   5539     1   111.5100476 526.347200
   5530   5539   5548     1   107.9700462 569.024000
   5533   5545   8246     1   107.9700462 569.024000
   5536   5542   8232     1   107.9700462 569.024000
   5542   8232   8226     1   112.4800480 524.673600
   5545   8246   8240     1   112.4800480 524.673600
   5550   5551   5563     1   114.2100488 537.225600
   5550   5554   5566     1   114.2100488 537.225600
   5550   5557   5560     1   114.2100488 537.225600
   5551   5550   5554     1   109.6600471 523.836800
   5551   5550   5557     1   109.6600471 523.836800
   5551   5563   5575     1   111.5100476 526.347200
   5554   5550   5557     1   109.6600471 523.836800
   5554   5566   5572     1   111.5100476 526.347200
   5557   5560   5569     1   111.5100476 526.347200
   5560   5569   5578     1   107.9700462 569.024000
   5563   5575   8274     1   107.9700462 569.024000
   5566   5572   8260     1   107.9700462 569.024000
   5572   8260   8254     1   112.4800480 524.673600
   5575   8274   8268     1   112.4800480 524.673600
   5580   5581   5593     1   114.2100488 537.225600
   5580   5584   5596     1   114.2100488 537.225600
   5580   5587   5590     1   114.2100488 537.225600
   5581   5580   5584     1   109.6600471 523.836800
   5581   5580   5587     1   109.6600471 523.836800
   5581   5593   5605     1   111.5100476 526.347200
   5584   5580   5587     1   109.6600471 523.836800
   5584   5596   5602     1   111.5100476 526.347200
   5587   5590   5599     1   111.5100476 526.347200
   5590   5599   5608     1   107.9700462 569.024000
   5593   5605   8302     1   107.9700462 569.024000
   5596   5602   8288     1   107.9700462 569.024000
   5602   8288   8282     1   112.4800480 524.673600
   5605   8302   8296     1   112.4800480 524.673600
   5610   5611   5623     1   114.2100488 537.225600
   5610   5614   5626     1   114.2100488 537.225600
   5610   5617   5620     1   114.2100488 537.225600
   5611   5610   5614     1   109.6600471 523.836800
   5611   5610   5617     1   109.6600471 523.836800
   5611   5623   5635     1   111.5100476 526.347200
   5614   5610   5617     1   109.6600471 523.836800
   5614   5626   5632     1   111.5100476 526.347200
   5617   5620   5629     1   111.5100476 526.347200
   5620   5629   5638     1   107.9700462 569.024000
   5623   5635   8330     1   107.9700462 569.024000
   5626   5632   8316     1   107.9700462 569.024000
   5632   8316   8310     1   112.4800480 524.673600
   5635   8330   8324     1   112.4800480 524.673600
   5640   5641   5653     1   114.2100488 537.225600
   5640   5644   5656     1   114.2100488 537.225600
   5640   5647   5650     1   114.2100488 537.225600
   5641   5640   5644     1   109.6600471 523.836800
   5641   5640   5647     1   109.6600471 523.836800
   5641   5653   5665     1   111.5100476 526.347200
   5644   5640   5647     1   109.6600471 523.836800
   5644   5656   5662     1   111.5100476 526.347200
   5647   5650   5659     1   111.5100476 526.347200
   5650   5659   5668     1   107.9700462 569.024000
   5653   5665   8358     1   107.9700462 569.024000
   5656   5662   8344     1   107.9700462 569.024000
   5662   8344   8338     1   112.4800480 524.673600
   5665   8358   8352     1   112.4800480 524.673600
   5670   5671   5683     1   114.2100488 537.225600
   5670   5674   5686     1   114.2100488 537.225600
   5670   5677   5680     1   114.2100488 537.225600
   5671   5670   5674     1   109.6600471 523.836800
   5671   5670   5677     1   109.6600471 523.836800
   5671   5683   5695     1   111.5100476 526.347200
   5674   5670   5677     1   109.6600471 523.836800
   5674   5686   5692     1   111.5100476 526.347200
   5677   5680   5689     1   111.5100476 526.347200
   5680   5689   5698     1   107.9700462 569.024000
   5683   5695   8386     1   107.9700462 569.024000
   5686   5692   8372     1   107.9700462 569.024000
   5692   8372   8366     1   112.4800480 524.673600
   5695   8386   8380     1   112.4800480 524.673600
   5700   5703   5706     1   111.5100476 526.347200
   5703   5700   5709     1   114.2100488 537.225600
   5703   5706   5712     1   107.9700462 569.024000
   5714   5717   5720     1   111.5100476 526.347200
   5717   5720   5726     1   107.9700462 569.024000
   5717   5714   5723     1   114.2100488 537.225600
   5728   5731   5734     1   111.5100476 526.347200
   5731   5728   5737     1   114.2100488 537.225600
   5731   5734   5740     1   107.9700462 569.024000
   5742   5745   5748     1   111.5100476 526.347200
   5745   5748   5754     1   107.9700462 569.024000
   5745   5742   5751     1   114.2100488 537.225600
   5756   5759   5762     1   111.5100476 526.347200
   5759   5756   5765     1   114.2100488 537.225600
   5759   5762   5768     1   107.9700462 569.024000
   5770   5773   5776     1   111.5100476 526.347200
   5773   5776   5782     1   107.9700462 569.024000
   5773   5770   5779     1   114.2100488 537.225600
   5784   5787   5790     1   111.5100476 526.347200
   5787   5784   5793     1   114.2100488 537.225600
   5787   5790   5796     1   107.9700462 569.024000
   5798   5801   5804     1   111.5100476 526.347200
   5801   5804   5810     1   107.9700462 569.024000
   5801   5798   5807     1   114.2100488 537.225600
   5812   5815   5818     1   111.5100476 526.347200
   5815   5812   5821     1   114.2100488 537.225600
   5815   5818   5824     1   107.9700462 569.024000
   5826   5829   5832     1   111.5100476 526.347200
   5829   5832   5838     1   107.9700462 569.024000
   5829   5826   5835     1   114.2100488 537.225600
   5840   5843   5846     1   111.5100476 526.347200
   5843   5840   5849     1   114.2100488 537.225600
   5843   5846   5852     1   107.9700462 569.024000
   5854   5857   5860     1   111.5100476 526.347200
   5857   5860   5866     1   107.9700462 569.024000
   5857   5854   5863     1   114.2100488 537.225600
   5868   5871   5874     1   111.5100476 526.347200
   5871   5868   5877     1   114.2100488 537.225600
   5871   5874   5880     1   107.9700462 569.024000
   5882   5885   5888     1   111.5100476 526.347200
   5885   5888   5894     1   107.9700462 569.024000
   5885   5882   5891     1   114.2100488 537.225600
   5896   5899   5902     1   111.5100476 526.347200
   5899   5896   5905     1   114.2100488 537.225600
   5899   5902   5908     1   107.9700462 569.024000
   5910   5913   5916     1   111.5100476 526.347200
   5913   5916   5922     1   107.9700462 569.024000
   5913   5910   5919     1   114.2100488 537.225600
   5924   5927   5930     1   111.5100476 526.347200
   5927   5924   5933     1   114.2100488 537.225600
   5927   5930   5936     1   107.9700462 569.024000
   5938   5941   5944     1   111.5100476 526.347200
   5941   5944   5950     1   107.9700462 569.024000
   5941   5938   5947     1   114.2100488 537.225600
   5952   5955   5958     1   111.5100476 526.347200
   5955   5952   5961     1   114.2100488 537.225600
   5955   5958   5964     1   107.9700462 569.024000
   5966   5969   5972     1   111.5100476 526.347200
   5969   5972   5978     1   107.9700462 569.024000
   5969   5966   5975     1   114.2100488 537.225600
   5980   5983   5986     1   111.5100476 526.347200
   5983   5980   5989     1   114.2100488 537.225600
   5983   5986   5992     1   107.9700462 569.024000
   5994   5997   6000     1   111.5100476 526.347200
   5997   6000   6006     1   107.9700462 569.024000
   5997   5994   6003     1   114.2100488 537.225600
   6008   6011   6014     1   111.5100476 526.347200
   6011   6008   6017     1   114.2100488 537.225600
   6011   6014   6020     1   107.9700462 569.024000
   6022   6025   6028     1   111.5100476 526.347200
   6025   6028   6034     1   107.9700462 569.024000
   6025   6022   6031     1   114.2100488 537.225600
   6036   6039   6042     1   111.5100476 526.347200
   6039   6036   6045     1   114.2100488 537.225600
   6039   6042   6048     1   107.9700462 569.024000
   6050   6053   6056     1   111.5100476 526.347200
   6053   6056   6062     1   107.9700462 569.024000
   6053   6050   6059     1   114.2100488 537.225600
   6064   6067   6070     1   111.5100476 526.347200
   6067   6064   6073     1   114.2100488 537.225600
   6067   6070   6076     1   107.9700462 569.024000
   6078   6081   6084     1   111.5100476 526.347200
   6081   6084   6090     1   107.9700462 569.024000
   6081   6078   6087     1   114.2100488 537.225600
   6092   6095   6098     1   111.5100476 526.347200
   6095   6092   6101     1   114.2100488 537.225600
   6095   6098   6104     1   107.9700462 569.024000
   6106   6109   6112     1   111.5100476 526.347200
   6109   6112   6118     1   107.9700462 569.024000
   6109   6106   6115     1   114.2100488 537.225600
   6120   6123   6126     1   111.5100476 526.347200
   6123   6120   6129     1   114.2100488 537.225600
   6123   6126   6132     1   107.9700462 569.024000
   6134   6137   6140     1   111.5100476 526.347200
   6137   6140   6146     1   107.9700462 569.024000
   6137   6134   6143     1   114.2100488 537.225600
   6148   6151   6154     1   111.5100476 526.347200
   6151   6148   6157     1   114.2100488 537.225600
   6151   6154   6160     1   107.9700462 569.024000
   6162   6165   6168     1   111.5100476 526.347200
   6165   6168   6174     1   107.9700462 569.024000
   6165   6162   6171     1   114.2100488 537.225600
   6176   6179   6182     1   111.5100476 526.347200
   6179   6176   6185     1   114.2100488 537.225600
   6179   6182   6188     1   107.9700462 569.024000
   6190   6193   6196     1   111.5100476 526.347200
   6193   6196   6202     1   107.9700462 569.024000
   6193   6190   6199     1   114.2100488 537.225600
   6204   6207   6210     1   111.5100476 526.347200
   6207   6204   6213     1   114.2100488 537.225600
   6207   6210   6216     1   107.9700462 569.024000
   6218   6221   6224     1   111.5100476 526.347200
   6221   6224   6230     1   107.9700462 569.024000
   6221   6218   6227     1   114.2100488 537.225600
   6232   6235   6238     1   111.5100476 526.347200
   6235   6232   6241     1   114.2100488 537.225600
   6235   6238   6244     1   107.9700462 569.024000
   6246   6249   6252     1   111.5100476 526.347200
   6249   6252   6258     1   107.9700462 569.024000
   6249   6246   6255     1   114.2100488 537.225600
   6260   6263   6266     1   111.5100476 526.347200
   6263   6260   6269     1   114.2100488 537.225600
   6263   6266   6272     1   107.9700462 569.024000
   6274   6277   6280     1   111.5100476 526.347200
   6277   6280   6286     1   107.9700462 569.024000
   6277   6274   6283     1   114.2100488 537.225600
   6288   6291   6294     1   111.5100476 526.347200
   6291   6288   6297     1   114.2100488 537.225600
   6291   6294   6300     1   107.9700462 569.024000
   6302   6305   6308     1   111.5100476 526.347200
   6305   6308   6314     1   107.9700462 569.024000
   6305   6302   6311     1   114.2100488 537.225600
   6316   6319   6322     1   111.5100476 526.347200
   6319   6316   6325     1   114.2100488 537.225600
   6319   6322   6328     1   107.9700462 569.024000
   6330   6333   6336     1   111.5100476 526.347200
   6333   6336   6342     1   107.9700462 569.024000
   6333   6330   6339     1   114.2100488 537.225600
   6344   6347   6350     1   111.5100476 526.347200
   6347   6344   6353     1   114.2100488 537.225600
   6347   6350   6356     1   107.9700462 569.024000
   6358   6361   6364     1   111.5100476 526.347200
   6361   6364   6370     1   107.9700462 569.024000
   6361   6358   6367     1   114.2100488 537.225600
   6372   6375   6378     1   111.5100476 526.347200
   6375   6372   6381     1   114.2100488 537.225600
   6375   6378   6384     1   107.9700462 569.024000
   6386   6389   6392     1   111.5100476 526.347200
   6389   6392   6398     1   107.9700462 569.024000
   6389   6386   6395     1   114.2100488 537.225600
   6400   6403   6406     1   111.5100476 526.347200
   6403   6400   6409     1   114.2100488 537.225600
   6403   6406   6412     1   107.9700462 569.024000
   6414   6417   6420     1   111.5100476 526.347200
   6417   6420   6426     1   107.9700462 569.024000
   6417   6414   6423     1   114.2100488 537.225600
   6428   6431   6434     1   111.5100476 526.347200
   6431   6428   6437     1   114.2100488 537.225600
   6431   6434   6440     1   107.9700462 569.024000
   6442   6445   6448     1   111.5100476 526.347200
   6445   6448   6454     1   107.9700462 569.024000
   6445   6442   6451     1   114.2100488 537.225600
   6456   6459   6462     1   111.5100476 526.347200
   6459   6456   6465     1   114.2100488 537.225600
   6459   6462   6468     1   107.9700462 569.024000
   6470   6473   6476     1   111.5100476 526.347200
   6473   6476   6482     1   107.9700462 569.024000
   6473   6470   6479     1   114.2100488 537.225600
   6484   6487   6490     1   111.5100476 526.347200
   6487   6484   6493     1   114.2100488 537.225600
   6487   6490   6496     1   107.9700462 569.024000
   6498   6501   6504     1   111.5100476 526.347200
   6501   6504   6510     1   107.9700462 569.024000
   6501   6498   6507     1   114.2100488 537.225600
   6512   6515   6518     1   111.5100476 526.347200
   6515   6512   6521     1   114.2100488 537.225600
   6515   6518   6524     1   107.9700462 569.024000
   6526   6529   6532     1   111.5100476 526.347200
   6529   6532   6538     1   107.9700462 569.024000
   6529   6526   6535     1   114.2100488 537.225600
   6540   6543   6546     1   111.5100476 526.347200
   6543   6540   6549     1   114.2100488 537.225600
   6543   6546   6552     1   107.9700462 569.024000
   6554   6557   6560     1   111.5100476 526.347200
   6557   6560   6566     1   107.9700462 569.024000
   6557   6554   6563     1   114.2100488 537.225600
   6568   6571   6574     1   111.5100476 526.347200
   6571   6568   6577     1   114.2100488 537.225600
   6571   6574   6580     1   107.9700462 569.024000
   6582   6585   6588     1   111.5100476 526.347200
   6585   6588   6594     1   107.9700462 569.024000
   6585   6582   6591     1   114.2100488 537.225600
   6596   6599   6602     1   111.5100476 526.347200
   6599   6596   6605     1   114.2100488 537.225600
   6599   6602   6608     1   107.9700462 569.024000
   6610   6613   6616     1   111.5100476 526.347200
   6613   6616   6622     1   107.9700462 569.024000
   6613   6610   6619     1   114.2100488 537.225600
   6624   6627   6630     1   111.5100476 526.347200
   6627   6624   6633     1   114.2100488 537.225600
   6627   6630   6636     1   107.9700462 569.024000
   6638   6641   6644     1   111.5100476 526.347200
   6641   6644   6650     1   107.9700462 569.024000
   6641   6638   6647     1   114.2100488 537.225600
   6652   6655   6658     1   111.5100476 526.347200
   6655   6652   6661     1   114.2100488 537.225600
   6655   6658   6664     1   107.9700462 569.024000
   6666   6669   6672     1   111.5100476 526.347200
   6669   6672   6678     1   107.9700462 569.024000
   6669   6666   6675     1   114.2100488 537.225600
   6680   6683   6686     1   111.5100476 526.347200
   6683   6680   6689     1   114.2100488 537.225600
   6683   6686   6692     1   107.9700462 569.024000
   6694   6697   6700     1   111.5100476 526.347200
   6697   6700   6706     1   107.9700462 569.024000
   6697   6694   6703     1   114.2100488 537.225600
   6708   6711   6714     1   111.5100476 526.347200
   6711   6708   6717     1   114.2100488 537.225600
   6711   6714   6720     1   107.9700462 569.024000
   6722   6725   6728     1   111.5100476 526.347200
   6725   6728   6734     1   107.9700462 569.024000
   6725   6722   6731     1   114.2100488 537.225600
   6736   6739   6742     1   111.5100476 526.347200
   6739   6736   6745     1   114.2100488 537.225600
   6739   6742   6748     1   107.9700462 569.024000
   6750   6753   6756     1   111.5100476 526.347200
   6753   6756   6762     1   107.9700462 569.024000
   6753   6750   6759     1   114.2100488 537.225600
   6764   6767   6770     1   111.5100476 526.347200
   6767   6764   6773     1   114.2100488 537.225600
   6767   6770   6776     1   107.9700462 569.024000
   6778   6781   6784     1   111.5100476 526.347200
   6781   6784   6790     1   107.9700462 569.024000
   6781   6778   6787     1   114.2100488 537.225600
   6792   6795   6798     1   111.5100476 526.347200
   6795   6792   6801     1   114.2100488 537.225600
   6795   6798   6804     1   107.9700462 569.024000
   6806   6809   6812     1   111.5100476 526.347200
   6809   6812   6818     1   107.9700462 569.024000
   6809   6806   6815     1   114.2100488 537.225600
   6820   6823   6826     1   111.5100476 526.347200
   6823   6820   6829     1   114.2100488 537.225600
   6823   6826   6832     1   107.9700462 569.024000
   6834   6837   6840     1   111.5100476 526.347200
   6837   6840   6846     1   107.9700462 569.024000
   6837   6834   6843     1   114.2100488 537.225600
   6848   6851   6854     1   111.5100476 526.347200
   6851   6848   6857     1   114.2100488 537.225600
   6851   6854   6860     1   107.9700462 569.024000
   6862   6865   6868     1   111.5100476 526.347200
   6865   6868   6874     1   107.9700462 569.024000
   6865   6862   6871     1   114.2100488 537.225600
   6876   6879   6882     1   111.5100476 526.347200
   6879   6876   6885     1   114.2100488 537.225600
   6879   6882   6888     1   107.9700462 569.024000
   6890   6893   6896     1   111.5100476 526.347200
   6893   6896   6902     1   107.9700462 569.024000
   6893   6890   6899     1   114.2100488 537.225600
   6904   6907   6910     1   111.5100476 526.347200
   6907   6904   6913     1   114.2100488 537.225600
   6907   6910   6916     1   107.9700462 569.024000
   6918   6921   6924     1   111.5100476 526.347200
   6921   6924   6930     1   107.9700462 569.024000
   6921   6918   6927     1   114.2100488 537.225600
   6932   6935   6938     1   111.5100476 526.347200
   6935   6932   6941     1   114.2100488 537.225600
   6935   6938   6944     1   107.9700462 569.024000
   6946   6949   6952     1   111.5100476 526.347200
   6949   6952   6958     1   107.9700462 569.024000
   6949   6946   6955     1   114.2100488 537.225600
   6960   6963   6966     1   111.5100476 526.347200
   6963   6960   6969     1   114.2100488 537.225600
   6963   6966   6972     1   107.9700462 569.024000
   6974   6977   6980     1   111.5100476 526.347200
   6977   6980   6986     1   107.9700462 569.024000
   6977   6974   6983     1   114.2100488 537.225600
   6988   6991   6994     1   111.5100476 526.347200
   6991   6988   6997     1   114.2100488 537.225600
   6991   6994   7000     1   107.9700462 569.024000
   7002   7005   7008     1   111.5100476 526.347200
   7005   7008   7014     1   107.9700462 569.024000
   7005   7002   7011     1   114.2100488 537.225600
   7016   7019   7022     1   111.5100476 526.347200
   7019   7016   7025     1   114.2100488 537.225600
   7019   7022   7028     1   107.9700462 569.024000
   7030   7033   7036     1   111.5100476 526.347200
   7033   7036   7042     1   107.9700462 569.024000
   7033   7030   7039     1   114.2100488 537.225600
   7044   7047   7050     1   111.5100476 526.347200
   7047   7044   7053     1   114.2100488 537.225600
   7047   7050   7056     1   107.9700462 569.024000
   7058   7061   7064     1   111.5100476 526.347200
   7061   7064   7070     1   107.9700462 569.024000
   7061   7058   7067     1   114.2100488 537.225600
   7072   7075   7078     1   111.5100476 526.347200
   7075   7072   7081     1   114.2100488 537.225600
   7075   7078   7084     1   107.9700462 569.024000
   7086   7089   7092     1   111.5100476 526.347200
   7089   7092   7098     1   107.9700462 569.024000
   7089   7086   7095     1   114.2100488 537.225600
   7100   7103   7106     1   111.5100476 526.347200
   7103   7100   7109     1   114.2100488 537.225600
   7103   7106   7112     1   107.9700462 569.024000
   7114   7117   7120     1   111.5100476 526.347200
   7117   7120   7126     1   107.9700462 569.024000
   7117   7114   7123     1   114.2100488 537.225600
   7128   7131   7134     1   111.5100476 526.347200
   7131   7128   7137     1   114.2100488 537.225600
   7131   7134   7140     1   107.9700462 569.024000
   7142   7145   7148     1   111.5100476 526.347200
   7145   7148   7154     1   107.9700462 569.024000
   7145   7142   7151     1   114.2100488 537.225600
   7156   7159   7162     1   111.5100476 526.347200
   7159   7156   7165     1   114.2100488 537.225600
   7159   7162   7168     1   107.9700462 569.024000
   7170   7173   7176     1   111.5100476 526.347200
   7173   7176   7182     1   107.9700462 569.024000
   7173   7170   7179     1   114.2100488 537.225600
   7184   7187   7190     1   111.5100476 526.347200
   7187   7184   7193     1   114.2100488 537.225600
   7187   7190   7196     1   107.9700462 569.024000
   7198   7201   7204     1   111.5100476 526.347200
   7201   7204   7210     1   107.9700462 569.024000
   7201   7198   7207     1   114.2100488 537.225600
   7212   7215   7218     1   111.5100476 526.347200
   7215   7212   7221     1   114.2100488 537.225600
   7215   7218   7224     1   107.9700462 569.024000
   7226   7229   7232     1   111.5100476 526.347200
   7229   7232   7238     1   107.9700462 569.024000
   7229   7226   7235     1   114.2100488 537.225600
   7240   7243   7246     1   111.5100476 526.347200
   7243   7240   7249     1   114.2100488 537.225600
   7243   7246   7252     1   107.9700462 569.024000
   7254   7257   7260     1   111.5100476 526.347200
   7257   7260   7266     1   107.9700462 569.024000
   7257   7254   7263     1   114.2100488 537.225600
   7268   7271   7274     1   111.5100476 526.347200
   7271   7268   7277     1   114.2100488 537.225600
   7271   7274   7280     1   107.9700462 569.024000
   7282   7285   7288     1   111.5100476 526.347200
   7285   7288   7294     1   107.9700462 569.024000
   7285   7282   7291     1   114.2100488 537.225600
   7296   7299   7302     1   111.5100476 526.347200
   7299   7296   7305     1   114.2100488 537.225600
   7299   7302   7308     1   107.9700462 569.024000
   7310   7313   7316     1   111.5100476 526.347200
   7313   7316   7322     1   107.9700462 569.024000
   7313   7310   7319     1   114.2100488 537.225600
   7324   7327   7330     1   111.5100476 526.347200
   7327   7324   7333     1   114.2100488 537.225600
   7327   7330   7336     1   107.9700462 569.024000
   7338   7341   7344     1   111.5100476 526.347200
   7341   7344   7350     1   107.9700462 569.024000
   7341   7338   7347     1   114.2100488 537.225600
   7352   7355   7358     1   111.5100476 526.347200
   7355   7352   7361     1   114.2100488 537.225600
   7355   7358   7364     1   107.9700462 569.024000
   7366   7369   7372     1   111.5100476 526.347200
   7369   7372   7378     1   107.9700462 569.024000
   7369   7366   7375     1   114.2100488 537.225600
   7380   7383   7386     1   111.5100476 526.347200
   7383   7380   7389     1   114.2100488 537.225600
   7383   7386   7392     1   107.9700462 569.024000
   7394   7397   7400     1   111.5100476 526.347200
   7397   7400   7406     1   107.9700462 569.024000
   7397   7394   7403     1   114.2100488 537.225600
   7408   7411   7414     1   111.5100476 526.347200
   7411   7408   7417     1   114.2100488 537.225600
   7411   7414   7420     1   107.9700462 569.024000
   7422   7425   7428     1   111.5100476 526.347200
   7425   7428   7434     1   107.9700462 569.024000
   7425   7422   7431     1   114.2100488 537.225600
   7436   7439   7442     1   111.5100476 526.347200
   7439   7436   7445     1   114.2100488 537.225600
   7439   7442   7448     1   107.9700462 569.024000
   7450   7453   7456     1   111.5100476 526.347200
   7453   7456   7462     1   107.9700462 569.024000
   7453   7450   7459     1   114.2100488 537.225600
   7464   7467   7470     1   111.5100476 526.347200
   7467   7464   7473     1   114.2100488 537.225600
   7467   7470   7476     1   107.9700462 569.024000
   7478   7481   7484     1   111.5100476 526.347200
   7481   7484   7490     1   107.9700462 569.024000
   7481   7478   7487     1   114.2100488 537.225600
   7492   7495   7498     1   111.5100476 526.347200
   7495   7492   7501     1   114.2100488 537.225600
   7495   7498   7504     1   107.9700462 569.024000
   7506   7509   7512     1   111.5100476 526.347200
   7509   7512   7518     1   107.9700462 569.024000
   7509   7506   7515     1   114.2100488 537.225600
   7520   7523   7526     1   111.5100476 526.347200
   7523   7520   7529     1   114.2100488 537.225600
   7523   7526   7532     1   107.9700462 569.024000
   7534   7537   7540     1   111.5100476 526.347200
   7537   7540   7546     1   107.9700462 569.024000
   7537   7534   7543     1   114.2100488 537.225600
   7548   7551   7554     1   111.5100476 526.347200
   7551   7548   7557     1   114.2100488 537.225600
   7551   7554   7560     1   107.9700462 569.024000
   7562   7565   7568     1   111.5100476 526.347200
   7565   7568   7574     1   107.9700462 569.024000
   7565   7562   7571     1   114.2100488 537.225600
   7576   7579   7582     1   111.5100476 526.347200
   7579   7576   7585     1   114.2100488 537.225600
   7579   7582   7588     1   107.9700462 569.024000
   7590   7593   7596     1   111.5100476 526.347200
   7593   7596   7602     1   107.9700462 569.024000
   7593   7590   7599     1   114.2100488 537.225600
   7604   7607   7610     1   111.5100476 526.347200
   7607   7604   7613     1   114.2100488 537.225600
   7607   7610   7616     1   107.9700462 569.024000
   7618   7621   7624     1   111.5100476 526.347200
   7621   7624   7630     1   107.9700462 569.024000
   7621   7618   7627     1   114.2100488 537.225600
   7632   7635   7638     1   111.5100476 526.347200
   7635   7632   7641     1   114.2100488 537.225600
   7635   7638   7644     1   107.9700462 569.024000
   7646   7649   7652     1   111.5100476 526.347200
   7649   7652   7658     1   107.9700462 569.024000
   7649   7646   7655     1   114.2100488 537.225600
   7660   7663   7666     1   111.5100476 526.347200
   7663   7660   7669     1   114.2100488 537.225600
   7663   7666   7672     1   107.9700462 569.024000
   7674   7677   7680     1   111.5100476 526.347200
   7677   7680   7686     1   107.9700462 569.024000
   7677   7674   7683     1   114.2100488 537.225600
   7688   7691   7694     1   111.5100476 526.347200
   7691   7688   7697     1   114.2100488 537.225600
   7691   7694   7700     1   107.9700462 569.024000
   7702   7705   7708     1   111.5100476 526.347200
   7705   7708   7714     1   107.9700462 569.024000
   7705   7702   7711     1   114.2100488 537.225600
   7716   7719   7722     1   111.5100476 526.347200
   7719   7716   7725     1   114.2100488 537.225600
   7719   7722   7728     1   107.9700462 569.024000
   7730   7733   7736     1   111.5100476 526.347200
   7733   7736   7742     1   107.9700462 569.024000
   7733   7730   7739     1   114.2100488 537.225600
   7744   7747   7750     1   111.5100476 526.347200
   7747   7744   7753     1   114.2100488 537.225600
   7747   7750   7756     1   107.9700462 569.024000
   7758   7761   7764     1   111.5100476 526.347200
   7761   7764   7770     1   107.9700462 569.024000
   7761   7758   7767     1   114.2100488 537.225600
   7772   7775   7778     1   111.5100476 526.347200
   7775   7772   7781     1   114.2100488 537.225600
   7775   7778   7784     1   107.9700462 569.024000
   7786   7789   7792     1   111.5100476 526.347200
   7789   7792   7798     1   107.9700462 569.024000
   7789   7786   7795     1   114.2100488 537.225600
   7800   7803   7806     1   111.5100476 526.347200
   7803   7800   7809     1   114.2100488 537.225600
   7803   7806   7812     1   107.9700462 569.024000
   7814   7817   7820     1   111.5100476 526.347200
   7817   7820   7826     1   107.9700462 569.024000
   7817   7814   7823     1   114.2100488 537.225600
   7828   7831   7834     1   111.5100476 526.347200
   7831   7828   7837     1   114.2100488 537.225600
   7831   7834   7840     1   107.9700462 569.024000
   7842   7845   7848     1   111.5100476 526.347200
   7845   7848   7854     1   107.9700462 569.024000
   7845   7842   7851     1   114.2100488 537.225600
   7856   7859   7862     1   111.5100476 526.347200
   7859   7856   7865     1   114.2100488 537.225600
   7859   7862   7868     1   107.9700462 569.024000
   7870   7873   7876     1   111.5100476 526.347200
   7873   7876   7882     1   107.9700462 569.024000
   7873   7870   7879     1   114.2100488 537.225600
   7884   7887   7890     1   111.5100476 526.347200
   7887   7884   7893     1   114.2100488 537.225600
   7887   7890   7896     1   107.9700462 569.024000
   7898   7901   7904     1   111.5100476 526.347200
   7901   7904   7910     1   107.9700462 569.024000
   7901   7898   7907     1   114.2100488 537.225600
   7912   7915   7918     1   111.5100476 526.347200
   7915   7912   7921     1   114.2100488 537.225600
   7915   7918   7924     1   107.9700462 569.024000
   7926   7929   7932     1   111.5100476 526.347200
   7929   7932   7938     1   107.9700462 569.024000
   7929   7926   7935     1   114.2100488 537.225600
   7940   7943   7946     1   111.5100476 526.347200
   7943   7940   7949     1   114.2100488 537.225600
   7943   7946   7952     1   107.9700462 569.024000
   7954   7957   7960     1   111.5100476 526.347200
   7957   7960   7966     1   107.9700462 569.024000
   7957   7954   7963     1   114.2100488 537.225600
   7968   7971   7974     1   111.5100476 526.347200
   7971   7968   7977     1   114.2100488 537.225600
   7971   7974   7980     1   107.9700462 569.024000
   7982   7985   7988     1   111.5100476 526.347200
   7985   7988   7994     1   107.9700462 569.024000
   7985   7982   7991     1   114.2100488 537.225600
   7996   7999   8002     1   111.5100476 526.347200
   7999   7996   8005     1   114.2100488 537.225600
   7999   8002   8008     1   107.9700462 569.024000
   8010   8013   8016     1   111.5100476 526.347200
   8013   8016   8022     1   107.9700462 569.024000
   8013   8010   8019     1   114.2100488 537.225600
   8024   8027   8030     1   111.5100476 526.347200
   8027   8024   8033     1   114.2100488 537.225600
   8027   8030   8036     1   107.9700462 569.024000
   8038   8041   8044     1   111.5100476 526.347200
   8041   8044   8050     1   107.9700462 569.024000
   8041   8038   8047     1   114.2100488 537.225600
   8052   8055   8058     1   111.5100476 526.347200
   8055   8052   8061     1   114.2100488 537.225600
   8055   8058   8064     1   107.9700462 569.024000
   8066   8069   8072     1   111.5100476 526.347200
   8069   8072   8078     1   107.9700462 569.024000
   8069   8066   8075     1   114.2100488 537.225600
   8080   8083   8086     1   111.5100476 526.347200
   8083   8080   8089     1   114.2100488 537.225600
   8083   8086   8092     1   107.9700462 569.024000
   8094   8097   8100     1   111.5100476 526.347200
   8097   8100   8106     1   107.9700462 569.024000
   8097   8094   8103     1   114.2100488 537.225600
   8108   8111   8114     1   111.5100476 526.347200
   8111   8108   8117     1   114.2100488 537.225600
   8111   8114   8120     1   107.9700462 569.024000
   8122   8125   8128     1   111.5100476 526.347200
   8125   8128   8134     1   107.9700462 569.024000
   8125   8122   8131     1   114.2100488 537.225600
   8136   8139   8142     1   111.5100476 526.347200
   8139   8136   8145     1   114.2100488 537.225600
   8139   8142   8148     1   107.9700462 569.024000
   8150   8153   8156     1   111.5100476 526.347200
   8153   8156   8162     1   107.9700462 569.024000
   8153   8150   8159     1   114.2100488 537.225600
   8164   8167   8170     1   111.5100476 526.347200
   8167   8164   8173     1   114.2100488 537.225600
   8167   8170   8176     1   107.9700462 569.024000
   8178   8181   8184     1   111.5100476 526.347200
   8181   8184   8190     1   107.9700462 569.024000
   8181   8178   8187     1   114.2100488 537.225600
   8192   8195   8198     1   111.5100476 526.347200
   8195   8192   8201     1   114.2100488 537.225600
   8195   8198   8204     1   107.9700462 569.024000
   8206   8209   8212     1   111.5100476 526.347200
   8209   8212   8218     1   107.9700462 569.024000
   8209   8206   8215     1   114.2100488 537.225600
   8220   8223   8226     1   111.5100476 526.347200
   8223   8220   8229     1   114.2100488 537.225600
   8223   8226   8232     1   107.9700462 569.024000
   8234   8237   8240     1   111.5100476 526.347200
   8237   8240   8246     1   107.9700462 569.024000
   8237   8234   8243     1   114.2100488 537.225600
   8248   8251   8254     1   111.5100476 526.347200
   8251   8248   8257     1   114.2100488 537.225600
   8251   8254   8260     1   107.9700462 569.024000
   8262   8265   8268     1   111.5100476 526.347200
   8265   8268   8274     1   107.9700462 569.024000
   8265   8262   8271     1   114.2100488 537.225600
   8276   8279   8282     1   111.5100476 526.347200
   8279   8276   8285     1   114.2100488 537.225600
   8279   8282   8288     1   107.9700462 569.024000
   8290   8293   8296     1   111.5100476 526.347200
   8293   8296   8302     1   107.9700462 569.024000
   8293   8290   8299     1   114.2100488 537.225600
   8304   8307   8310     1   111.5100476 526.347200
   8307   8304   8313     1   114.2100488 537.225600
   8307   8310   8316     1   107.9700462 569.024000
   8318   8321   8324     1   111.5100476 526.347200
   8321   8324   8330     1   107.9700462 569.024000
   8321   8318   8327     1   114.2100488 537.225600
   8332   8335   8338     1   111.5100476 526.347200
   8335   8332   8341     1   114.2100488 537.225600
   8335   8338   8344     1   107.9700462 569.024000
   8346   8349   8352     1   111.5100476 526.347200
   8349   8352   8358     1   107.9700462 569.024000
   8349   8346   8355     1   114.2100488 537.225600
   8360   8363   8366     1   111.5100476 526.347200
   8363   8360   8369     1   114.2100488 537.225600
   8363   8366   8372     1   107.9700462 569.024000
   8374   8377   8380     1   111.5100476 526.347200
   8377   8380   8386     1   107.9700462 569.024000
   8377   8374   8383     1   114.2100488 537.225600
      1      2      3     1   108.0100461 406.684800
      1      2      4     1   108.0100461 406.684800
      1      5      6     1   108.0100461 406.684800
      1      5      7     1   108.0100461 406.684800
      1      8      9     1   108.0100461 406.684800
      1      8     10     1   108.0100461 406.684800
      2      1     29     1   110.1100470 384.091200
      2     14     15     1   109.8000471 387.438400
      2     14     16     1   109.8000471 387.438400
      3      2     14     1   110.5600475 386.601600
      3      2      4     1   109.7500473 328.025600
      4      2     14     1   110.5600475 386.601600
      5      1     29     1   110.1100470 384.091200
      5     17     18     1   109.8000471 387.438400
      5     17     19     1   109.8000471 387.438400
      6      5     17     1   110.5600475 386.601600
      6      5      7     1   109.7500473 328.025600
      7      5     17     1   110.5600475 386.601600
      8      1     29     1   110.1100470 384.091200
      8     11     12     1   109.8000471 387.438400
      8     11     13     1   109.8000471 387.438400
      9      8     11     1   110.5600475 386.601600
      9      8     10     1   109.7500473 328.025600
     10      8     11     1   110.5600475 386.601600
     11     23     24     1   109.5600471 388.275200
     11     23     25     1   109.5600471 388.275200
     12     11     23     1   109.8000471 387.438400
     12     11     13     1   107.5800459 329.699200
     13     11     23     1   109.8000471 387.438400
     14     26     27     1   109.5600471 388.275200
     14     26     28     1   109.5600471 388.275200
     15     14     26     1   109.8000471 387.438400
     15     14     16     1   107.5800459 329.699200
     16     14     26     1   109.8000471 387.438400
     17     20     21     1   109.5600471 388.275200
     17     20     22     1   109.5600471 388.275200
     18     17     20     1   109.8000471 387.438400
     18     17     19     1   107.5800459 329.699200
     19     17     20     1   109.8000471 387.438400
     21     20     58     1   109.7800468 425.094400
     21     20     22     1   108.4600466 328.025600
     22     20     58     1   109.7800468 425.094400
     24     23     88     1   109.7800468 425.094400
     24     23     25     1   108.4600466 328.025600
     25     23     88     1   109.7800468 425.094400
     27     26    118     1   109.7800468 425.094400
     27     26     28     1   108.4600466 328.025600
     28     26    118     1   109.7800468 425.094400
     30     31     32     1   108.0100461 406.684800
     30     31     33     1   108.0100461 406.684800
     30     34     35     1   108.0100461 406.684800
     30     34     36     1   108.0100461 406.684800
     30     37     38     1   108.0100461 406.684800
     30     37     39     1   108.0100461 406.684800
     31     30     59     1   110.1100470 384.091200
     31     43     44     1   109.8000471 387.438400
     31     43     45     1   109.8000471 387.438400
     32     31     43     1   110.5600475 386.601600
     32     31     33     1   109.7500473 328.025600
     33     31     43     1   110.5600475 386.601600
     34     30     59     1   110.1100470 384.091200
     34     46     47     1   109.8000471 387.438400
     34     46     48     1   109.8000471 387.438400
     35     34     46     1   110.5600475 386.601600
     35     34     36     1   109.7500473 328.025600
     36     34     46     1   110.5600475 386.601600
     37     30     59     1   110.1100470 384.091200
     37     40     41     1   109.8000471 387.438400
     37     40     42     1   109.8000471 387.438400
     38     37     40     1   110.5600475 386.601600
     38     37     39     1   109.7500473 328.025600
     39     37     40     1   110.5600475 386.601600
     40     49     50     1   109.5600471 388.275200
     40     49     51     1   109.5600471 388.275200
     41     40     49     1   109.8000471 387.438400
     41     40     42     1   107.5800459 329.699200
     42     40     49     1   109.8000471 387.438400
     43     55     56     1   109.5600471 388.275200
     43     55     57     1   109.5600471 388.275200
     44     43     55     1   109.8000471 387.438400
     44     43     45     1   107.5800459 329.699200
     45     43     55     1   109.8000471 387.438400
     46     52     53     1   109.5600471 388.275200
     46     52     54     1   109.5600471 388.275200
     47     46     52     1   109.8000471 387.438400
     47     46     48     1   107.5800459 329.699200
     48     46     52     1   109.8000471 387.438400
     50     49     58     1   109.7800468 425.094400
     50     49     51     1   108.4600466 328.025600
     51     49     58     1   109.7800468 425.094400
     53     52    148     1   109.7800468 425.094400
     53     52     54     1   108.4600466 328.025600
     54     52    148     1   109.7800468 425.094400
     56     55    178     1   109.7800468 425.094400
     56     55     57     1   108.4600466 328.025600
     57     55    178     1   109.7800468 425.094400
     60     61     62     1   108.0100461 406.684800
     60     61     63     1   108.0100461 406.684800
     60     64     65     1   108.0100461 406.684800
     60     64     66     1   108.0100461 406.684800
     60     67     68     1   108.0100461 406.684800
     60     67     69     1   108.0100461 406.684800
     61     60     89     1   110.1100470 384.091200
     61     73     74     1   109.8000471 387.438400
     61     73     75     1   109.8000471 387.438400
     62     61     73     1   110.5600475 386.601600
     62     61     63     1   109.7500473 328.025600
     63     61     73     1   110.5600475 386.601600
     64     60     89     1   110.1100470 384.091200
     64     76     77     1   109.8000471 387.438400
     64     76     78     1   109.8000471 387.438400
     65     64     76     1   110.5600475 386.601600
     65     64     66     1   109.7500473 328.025600
     66     64     76     1   110.5600475 386.601600
     67     60     89     1   110.1100470 384.091200
     67     70     71     1   109.8000471 387.438400
     67     70     72     1   109.8000471 387.438400
     68     67     70     1   110.5600475 386.601600
     68     67     69     1   109.7500473 328.025600
     69     67     70     1   110.5600475 386.601600
     70     79     80     1   109.5600471 388.275200
     70     79     81     1   109.5600471 388.275200
     71     70     79     1   109.8000471 387.438400
     71     70     72     1   107.5800459 329.699200
     72     70     79     1   109.8000471 387.438400
     73     85     86     1   109.5600471 388.275200
     73     85     87     1   109.5600471 388.275200
     74     73     85     1   109.8000471 387.438400
     74     73     75     1   107.5800459 329.699200
     75     73     85     1   109.8000471 387.438400
     76     82     83     1   109.5600471 388.275200
     76     82     84     1   109.5600471 388.275200
     77     76     82     1   109.8000471 387.438400
     77     76     78     1   107.5800459 329.699200
     78     76     82     1   109.8000471 387.438400
     80     79     88     1   109.7800468 425.094400
     80     79     81     1   108.4600466 328.025600
     81     79     88     1   109.7800468 425.094400
     83     82    208     1   109.7800468 425.094400
     83     82     84     1   108.4600466 328.025600
     84     82    208     1   109.7800468 425.094400
     86     85    238     1   109.7800468 425.094400
     86     85     87     1   108.4600466 328.025600
     87     85    238     1   109.7800468 425.094400
     90     91     92     1   108.0100461 406.684800
     90     91     93     1   108.0100461 406.684800
     90     94     95     1   108.0100461 406.684800
     90     94     96     1   108.0100461 406.684800
     90     97     98     1   108.0100461 406.684800
     90     97     99     1   108.0100461 406.684800
     91     90    119     1   110.1100470 384.091200
     91    103    104     1   109.8000471 387.438400
     91    103    105     1   109.8000471 387.438400
     92     91    103     1   110.5600475 386.601600
     92     91     93     1   109.7500473 328.025600
     93     91    103     1   110.5600475 386.601600
     94     90    119     1   110.1100470 384.091200
     94    106    107     1   109.8000471 387.438400
     94    106    108     1   109.8000471 387.438400
     95     94    106     1   110.5600475 386.601600
     95     94     96     1   109.7500473 328.025600
     96     94    106     1   110.5600475 386.601600
     97     90    119     1   110.1100470 384.091200
     97    100    101     1   109.8000471 387.438400
     97    100    102     1   109.8000471 387.438400
     98     97    100     1   110.5600475 386.601600
     98     97     99     1   109.7500473 328.025600
     99     97    100     1   110.5600475 386.601600
    100    109    110     1   109.5600471 388.275200
    100    109    111     1   109.5600471 388.275200
    101    100    109     1   109.8000471 387.438400
    101    100    102     1   107.5800459 329.699200
    102    100    109     1   109.8000471 387.438400
    103    115    116     1   109.5600471 388.275200
    103    115    117     1   109.5600471 388.275200
    104    103    115     1   109.8000471 387.438400
    104    103    105     1   107.5800459 329.699200
    105    103    115     1   109.8000471 387.438400
    106    112    113     1   109.5600471 388.275200
    106    112    114     1   109.5600471 388.275200
    107    106    112     1   109.8000471 387.438400
    107    106    108     1   107.5800459 329.699200
    108    106    112     1   109.8000471 387.438400
    110    109    118     1   109.7800468 425.094400
    110    109    111     1   108.4600466 328.025600
    111    109    118     1   109.7800468 425.094400
    113    112    268     1   109.7800468 425.094400
    113    112    114     1   108.4600466 328.025600
    114    112    268     1   109.7800468 425.094400
    116    115    298     1   109.7800468 425.094400
    116    115    117     1   108.4600466 328.025600
    117    115    298     1   109.7800468 425.094400
    120    121    122     1   108.0100461 406.684800
    120    121    123     1   108.0100461 406.684800
    120    124    125     1   108.0100461 406.684800
    120    124    126     1   108.0100461 406.684800
    120    127    128     1   108.0100461 406.684800
    120    127    129     1   108.0100461 406.684800
    121    120    149     1   110.1100470 384.091200
    121    133    134     1   109.8000471 387.438400
    121    133    135     1   109.8000471 387.438400
    122    121    133     1   110.5600475 386.601600
    122    121    123     1   109.7500473 328.025600
    123    121    133     1   110.5600475 386.601600
    124    120    149     1   110.1100470 384.091200
    124    136    137     1   109.8000471 387.438400
    124    136    138     1   109.8000471 387.438400
    125    124    136     1   110.5600475 386.601600
    125    124    126     1   109.7500473 328.025600
    126    124    136     1   110.5600475 386.601600
    127    120    149     1   110.1100470 384.091200
    127    130    131     1   109.8000471 387.438400
    127    130    132     1   109.8000471 387.438400
    128    127    130     1   110.5600475 386.601600
    128    127    129     1   109.7500473 328.025600
    129    127    130     1   110.5600475 386.601600
    130    139    140     1   109.5600471 388.275200
    130    139    141     1   109.5600471 388.275200
    131    130    139     1   109.8000471 387.438400
    131    130    132     1   107.5800459 329.699200
    132    130    139     1   109.8000471 387.438400
    133    145    146     1   109.5600471 388.275200
    133    145    147     1   109.5600471 388.275200
    134    133    145     1   109.8000471 387.438400
    134    133    135     1   107.5800459 329.699200
    135    133    145     1   109.8000471 387.438400
    136    142    143     1   109.5600471 388.275200
    136    142    144     1   109.5600471 388.275200
    137    136    142     1   109.8000471 387.438400
    137    136    138     1   107.5800459 329.699200
    138    136    142     1   109.8000471 387.438400
    140    139    148     1   109.7800468 425.094400
    140    139    141     1   108.4600466 328.025600
    141    139    148     1   109.7800468 425.094400
    143    142    328     1   109.7800468 425.094400
    143    142    144     1   108.4600466 328.025600
    144    142    328     1   109.7800468 425.094400
    146    145    358     1   109.7800468 425.094400
    146    145    147     1   108.4600466 328.025600
    147    145    358     1   109.7800468 425.094400
    150    151    152     1   108.0100461 406.684800
    150    151    153     1   108.0100461 406.684800
    150    154    155     1   108.0100461 406.684800
    150    154    156     1   108.0100461 406.684800
    150    157    158     1   108.0100461 406.684800
    150    157    159     1   108.0100461 406.684800
    151    150    179     1   110.1100470 384.091200
    151    163    164     1   109.8000471 387.438400
    151    163    165     1   109.8000471 387.438400
    152    151    163     1   110.5600475 386.601600
    152    151    153     1   109.7500473 328.025600
    153    151    163     1   110.5600475 386.601600
    154    150    179     1   110.1100470 384.091200
    154    166    167     1   109.8000471 387.438400
    154    166    168     1   109.8000471 387.438400
    155    154    166     1   110.5600475 386.601600
    155    154    156     1   109.7500473 328.025600
    156    154    166     1   110.5600475 386.601600
    157    150    179     1   110.1100470 384.091200
    157    160    161     1   109.8000471 387.438400
    157    160    162     1   109.8000471 387.438400
    158    157    160     1   110.5600475 386.601600
    158    157    159     1   109.7500473 328.025600
    159    157    160     1   110.5600475 386.601600
    160    169    170     1   109.5600471 388.275200
    160    169    171     1   109.5600471 388.275200
    161    160    169     1   109.8000471 387.438400
    161    160    162     1   107.5800459 329.699200
    162    160    169     1   109.8000471 387.438400
    163    175    176     1   109.5600471 388.275200
    163    175    177     1   109.5600471 388.275200
    164    163    175     1   109.8000471 387.438400
    164    163    165     1   107.5800459 329.699200
    165    163    175     1   109.8000471 387.438400
    166    172    173     1   109.5600471 388.275200
    166    172    174     1   109.5600471 388.275200
    167    166    172     1   109.8000471 387.438400
    167    166    168     1   107.5800459 329.699200
    168    166    172     1   109.8000471 387.438400
    170    169    178     1   109.7800468 425.094400
    170    169    171     1   108.4600466 328.025600
    171    169    178     1   109.7800468 425.094400
    173    172    388     1   109.7800468 425.094400
    173    172    174     1   108.4600466 328.025600
    174    172    388     1   109.7800468 425.094400
    176    175    418     1   109.7800468 425.094400
    176    175    177     1   108.4600466 328.025600
    177    175    418     1   109.7800468 425.094400
    180    181    182     1   108.0100461 406.684800
    180    181    183     1   108.0100461 406.684800
    180    184    185     1   108.0100461 406.684800
    180    184    186     1   108.0100461 406.684800
    180    187    188     1   108.0100461 406.684800
    180    187    189     1   108.0100461 406.684800
    181    180    209     1   110.1100470 384.091200
    181    193    194     1   109.8000471 387.438400
    181    193    195     1   109.8000471 387.438400
    182    181    193     1   110.5600475 386.601600
    182    181    183     1   109.7500473 328.025600
    183    181    193     1   110.5600475 386.601600
    184    180    209     1   110.1100470 384.091200
    184    196    197     1   109.8000471 387.438400
    184    196    198     1   109.8000471 387.438400
    185    184    196     1   110.5600475 386.601600
    185    184    186     1   109.7500473 328.025600
    186    184    196     1   110.5600475 386.601600
    187    180    209     1   110.1100470 384.091200
    187    190    191     1   109.8000471 387.438400
    187    190    192     1   109.8000471 387.438400
    188    187    190     1   110.5600475 386.601600
    188    187    189     1   109.7500473 328.025600
    189    187    190     1   110.5600475 386.601600
    190    199    200     1   109.5600471 388.275200
    190    199    201     1   109.5600471 388.275200
    191    190    199     1   109.8000471 387.438400
    191    190    192     1   107.5800459 329.699200
    192    190    199     1   109.8000471 387.438400
    193    205    206     1   109.5600471 388.275200
    193    205    207     1   109.5600471 388.275200
    194    193    205     1   109.8000471 387.438400
    194    193    195     1   107.5800459 329.699200
    195    193    205     1   109.8000471 387.438400
    196    202    203     1   109.5600471 388.275200
    196    202    204     1   109.5600471 388.275200
    197    196    202     1   109.8000471 387.438400
    197    196    198     1   107.5800459 329.699200
    198    196    202     1   109.8000471 387.438400
    200    199    208     1   109.7800468 425.094400
    200    199    201     1   108.4600466 328.025600
    201    199    208     1   109.7800468 425.094400
    203    202    448     1   109.7800468 425.094400
    203    202    204     1   108.4600466 328.025600
    204    202    448     1   109.7800468 425.094400
    206    205    478     1   109.7800468 425.094400
    206    205    207     1   108.4600466 328.025600
    207    205    478     1   109.7800468 425.094400
    210    211    212     1   108.0100461 406.684800
    210    211    213     1   108.0100461 406.684800
    210    214    215     1   108.0100461 406.684800
    210    214    216     1   108.0100461 406.684800
    210    217    218     1   108.0100461 406.684800
    210    217    219     1   108.0100461 406.684800
    211    210    239     1   110.1100470 384.091200
    211    223    224     1   109.8000471 387.438400
    211    223    225     1   109.8000471 387.438400
    212    211    223     1   110.5600475 386.601600
    212    211    213     1   109.7500473 328.025600
    213    211    223     1   110.5600475 386.601600
    214    210    239     1   110.1100470 384.091200
    214    226    227     1   109.8000471 387.438400
    214    226    228     1   109.8000471 387.438400
    215    214    226     1   110.5600475 386.601600
    215    214    216     1   109.7500473 328.025600
    216    214    226     1   110.5600475 386.601600
    217    210    239     1   110.1100470 384.091200
    217    220    221     1   109.8000471 387.438400
    217    220    222     1   109.8000471 387.438400
    218    217    220     1   110.5600475 386.601600
    218    217    219     1   109.7500473 328.025600
    219    217    220     1   110.5600475 386.601600
    220    229    230     1   109.5600471 388.275200
    220    229    231     1   109.5600471 388.275200
    221    220    229     1   109.8000471 387.438400
    221    220    222     1   107.5800459 329.699200
    222    220    229     1   109.8000471 387.438400
    223    235    236     1   109.5600471 388.275200
    223    235    237     1   109.5600471 388.275200
    224    223    235     1   109.8000471 387.438400
    224    223    225     1   107.5800459 329.699200
    225    223    235     1   109.8000471 387.438400
    226    232    233     1   109.5600471 388.275200
    226    232    234     1   109.5600471 388.275200
    227    226    232     1   109.8000471 387.438400
    227    226    228     1   107.5800459 329.699200
    228    226    232     1   109.8000471 387.438400
    230    229    238     1   109.7800468 425.094400
    230    229    231     1   108.4600466 328.025600
    231    229    238     1   109.7800468 425.094400
    233    232    508     1   109.7800468 425.094400
    233    232    234     1   108.4600466 328.025600
    234    232    508     1   109.7800468 425.094400
    236    235    538     1   109.7800468 425.094400
    236    235    237     1   108.4600466 328.025600
    237    235    538     1   109.7800468 425.094400
    240    241    242     1   108.0100461 406.684800
    240    241    243     1   108.0100461 406.684800
    240    244    245     1   108.0100461 406.684800
    240    244    246     1   108.0100461 406.684800
    240    247    248     1   108.0100461 406.684800
    240    247    249     1   108.0100461 406.684800
    241    240    269     1   110.1100470 384.091200
    241    253    254     1   109.8000471 387.438400
    241    253    255     1   109.8000471 387.438400
    242    241    253     1   110.5600475 386.601600
    242    241    243     1   109.7500473 328.025600
    243    241    253     1   110.5600475 386.601600
    244    240    269     1   110.1100470 384.091200
    244    256    257     1   109.8000471 387.438400
    244    256    258     1   109.8000471 387.438400
    245    244    256     1   110.5600475 386.601600
    245    244    246     1   109.7500473 328.025600
    246    244    256     1   110.5600475 386.601600
    247    240    269     1   110.1100470 384.091200
    247    250    251     1   109.8000471 387.438400
    247    250    252     1   109.8000471 387.438400
    248    247    250     1   110.5600475 386.601600
    248    247    249     1   109.7500473 328.025600
    249    247    250     1   110.5600475 386.601600
    250    259    260     1   109.5600471 388.275200
    250    259    261     1   109.5600471 388.275200
    251    250    259     1   109.8000471 387.438400
    251    250    252     1   107.5800459 329.699200
    252    250    259     1   109.8000471 387.438400
    253    265    266     1   109.5600471 388.275200
    253    265    267     1   109.5600471 388.275200
    254    253    265     1   109.8000471 387.438400
    254    253    255     1   107.5800459 329.699200
    255    253    265     1   109.8000471 387.438400
    256    262    263     1   109.5600471 388.275200
    256    262    264     1   109.5600471 388.275200
    257    256    262     1   109.8000471 387.438400
    257    256    258     1   107.5800459 329.699200
    258    256    262     1   109.8000471 387.438400
    260    259    268     1   109.7800468 425.094400
    260    259    261     1   108.4600466 328.025600
    261    259    268     1   109.7800468 425.094400
    263    262    568     1   109.7800468 425.094400
    263    262    264     1   108.4600466 328.025600
    264    262    568     1   109.7800468 425.094400
    266    265    598     1   109.7800468 425.094400
    266    265    267     1   108.4600466 328.025600
    267    265    598     1   109.7800468 425.094400
    270    271    272     1   108.0100461 406.684800
    270    271    273     1   108.0100461 406.684800
    270    274    275     1   108.0100461 406.684800
    270    274    276     1   108.0100461 406.684800
    270    277    278     1   108.0100461 406.684800
    270    277    279     1   108.0100461 406.684800
    271    270    299     1   110.1100470 384.091200
    271    283    284     1   109.8000471 387.438400
    271    283    285     1   109.8000471 387.438400
    272    271    283     1   110.5600475 386.601600
    272    271    273     1   109.7500473 328.025600
    273    271    283     1   110.5600475 386.601600
    274    270    299     1   110.1100470 384.091200
    274    286    287     1   109.8000471 387.438400
    274    286    288     1   109.8000471 387.438400
    275    274    286     1   110.5600475 386.601600
    275    274    276     1   109.7500473 328.025600
    276    274    286     1   110.5600475 386.601600
    277    270    299     1   110.1100470 384.091200
    277    280    281     1   109.8000471 387.438400
    277    280    282     1   109.8000471 387.438400
    278    277    280     1   110.5600475 386.601600
    278    277    279     1   109.7500473 328.025600
    279    277    280     1   110.5600475 386.601600
    280    289    290     1   109.5600471 388.275200
    280    289    291     1   109.5600471 388.275200
    281    280    289     1   109.8000471 387.438400
    281    280    282     1   107.5800459 329.699200
    282    280    289     1   109.8000471 387.438400
    283    295    296     1   109.5600471 388.275200
    283    295    297     1   109.5600471 388.275200
    284    283    295     1   109.8000471 387.438400
    284    283    285     1   107.5800459 329.699200
    285    283    295     1   109.8000471 387.438400
    286    292    293     1   109.5600471 388.275200
    286    292    294     1   109.5600471 388.275200
    287    286    292     1   109.8000471 387.438400
    287    286    288     1   107.5800459 329.699200
    288    286    292     1   109.8000471 387.438400
    290    289    298     1   109.7800468 425.094400
    290    289    291     1   108.4600466 328.025600
    291    289    298     1   109.7800468 425.094400
    293    292    628     1   109.7800468 425.094400
    293    292    294     1   108.4600466 328.025600
    294    292    628     1   109.7800468 425.094400
    296    295    658     1   109.7800468 425.094400
    296    295    297     1   108.4600466 328.025600
    297    295    658     1   109.7800468 425.094400
    300    301    302     1   108.0100461 406.684800
    300    301    303     1   108.0100461 406.684800
    300    304    305     1   108.0100461 406.684800
    300    304    306     1   108.0100461 406.684800
    300    307    308     1   108.0100461 406.684800
    300    307    309     1   108.0100461 406.684800
    301    300    329     1   110.1100470 384.091200
    301    313    314     1   109.8000471 387.438400
    301    313    315     1   109.8000471 387.438400
    302    301    313     1   110.5600475 386.601600
    302    301    303     1   109.7500473 328.025600
    303    301    313     1   110.5600475 386.601600
    304    300    329     1   110.1100470 384.091200
    304    316    317     1   109.8000471 387.438400
    304    316    318     1   109.8000471 387.438400
    305    304    316     1   110.5600475 386.601600
    305    304    306     1   109.7500473 328.025600
    306    304    316     1   110.5600475 386.601600
    307    300    329     1   110.1100470 384.091200
    307    310    311     1   109.8000471 387.438400
    307    310    312     1   109.8000471 387.438400
    308    307    310     1   110.5600475 386.601600
    308    307    309     1   109.7500473 328.025600
    309    307    310     1   110.5600475 386.601600
    310    319    320     1   109.5600471 388.275200
    310    319    321     1   109.5600471 388.275200
    311    310    319     1   109.8000471 387.438400
    311    310    312     1   107.5800459 329.699200
    312    310    319     1   109.8000471 387.438400
    313    325    326     1   109.5600471 388.275200
    313    325    327     1   109.5600471 388.275200
    314    313    325     1   109.8000471 387.438400
    314    313    315     1   107.5800459 329.699200
    315    313    325     1   109.8000471 387.438400
    316    322    323     1   109.5600471 388.275200
    316    322    324     1   109.5600471 388.275200
    317    316    322     1   109.8000471 387.438400
    317    316    318     1   107.5800459 329.699200
    318    316    322     1   109.8000471 387.438400
    320    319    328     1   109.7800468 425.094400
    320    319    321     1   108.4600466 328.025600
    321    319    328     1   109.7800468 425.094400
    323    322    688     1   109.7800468 425.094400
    323    322    324     1   108.4600466 328.025600
    324    322    688     1   109.7800468 425.094400
    326    325    718     1   109.7800468 425.094400
    326    325    327     1   108.4600466 328.025600
    327    325    718     1   109.7800468 425.094400
    330    331    332     1   108.0100461 406.684800
    330    331    333     1   108.0100461 406.684800
    330    334    335     1   108.0100461 406.684800
    330    334    336     1   108.0100461 406.684800
    330    337    338     1   108.0100461 406.684800
    330    337    339     1   108.0100461 406.684800
    331    330    359     1   110.1100470 384.091200
    331    343    344     1   109.8000471 387.438400
    331    343    345     1   109.8000471 387.438400
    332    331    343     1   110.5600475 386.601600
    332    331    333     1   109.7500473 328.025600
    333    331    343     1   110.5600475 386.601600
    334    330    359     1   110.1100470 384.091200
    334    346    347     1   109.8000471 387.438400
    334    346    348     1   109.8000471 387.438400
    335    334    346     1   110.5600475 386.601600
    335    334    336     1   109.7500473 328.025600
    336    334    346     1   110.5600475 386.601600
    337    330    359     1   110.1100470 384.091200
    337    340    341     1   109.8000471 387.438400
    337    340    342     1   109.8000471 387.438400
    338    337    340     1   110.5600475 386.601600
    338    337    339     1   109.7500473 328.025600
    339    337    340     1   110.5600475 386.601600
    340    349    350     1   109.5600471 388.275200
    340    349    351     1   109.5600471 388.275200
    341    340    349     1   109.8000471 387.438400
    341    340    342     1   107.5800459 329.699200
    342    340    349     1   109.8000471 387.438400
    343    355    356     1   109.5600471 388.275200
    343    355    357     1   109.5600471 388.275200
    344    343    355     1   109.8000471 387.438400
    344    343    345     1   107.5800459 329.699200
    345    343    355     1   109.8000471 387.438400
    346    352    353     1   109.5600471 388.275200
    346    352    354     1   109.5600471 388.275200
    347    346    352     1   109.8000471 387.438400
    347    346    348     1   107.5800459 329.699200
    348    346    352     1   109.8000471 387.438400
    350    349    358     1   109.7800468 425.094400
    350    349    351     1   108.4600466 328.025600
    351    349    358     1   109.7800468 425.094400
    353    352    748     1   109.7800468 425.094400
    353    352    354     1   108.4600466 328.025600
    354    352    748     1   109.7800468 425.094400
    356    355    778     1   109.7800468 425.094400
    356    355    357     1   108.4600466 328.025600
    357    355    778     1   109.7800468 425.094400
    360    361    362     1   108.0100461 406.684800
    360    361    363     1   108.0100461 406.684800
    360    364    365     1   108.0100461 406.684800
    360    364    366     1   108.0100461 406.684800
    360    367    368     1   108.0100461 406.684800
    360    367    369     1   108.0100461 406.684800
    361    360    389     1   110.1100470 384.091200
    361    373    374     1   109.8000471 387.438400
    361    373    375     1   109.8000471 387.438400
    362    361    373     1   110.5600475 386.601600
    362    361    363     1   109.7500473 328.025600
    363    361    373     1   110.5600475 386.601600
    364    360    389     1   110.1100470 384.091200
    364    376    377     1   109.8000471 387.438400
    364    376    378     1   109.8000471 387.438400
    365    364    376     1   110.5600475 386.601600
    365    364    366     1   109.7500473 328.025600
    366    364    376     1   110.5600475 386.601600
    367    360    389     1   110.1100470 384.091200
    367    370    371     1   109.8000471 387.438400
    367    370    372     1   109.8000471 387.438400
    368    367    370     1   110.5600475 386.601600
    368    367    369     1   109.7500473 328.025600
    369    367    370     1   110.5600475 386.601600
    370    379    380     1   109.5600471 388.275200
    370    379    381     1   109.5600471 388.275200
    371    370    379     1   109.8000471 387.438400
    371    370    372     1   107.5800459 329.699200
    372    370    379     1   109.8000471 387.438400
    373    385    386     1   109.5600471 388.275200
    373    385    387     1   109.5600471 388.275200
    374    373    385     1   109.8000471 387.438400
    374    373    375     1   107.5800459 329.699200
    375    373    385     1   109.8000471 387.438400
    376    382    383     1   109.5600471 388.275200
    376    382    384     1   109.5600471 388.275200
    377    376    382     1   109.8000471 387.438400
    377    376    378     1   107.5800459 329.699200
    378    376    382     1   109.8000471 387.438400
    380    379    388     1   109.7800468 425.094400
    380    379    381     1   108.4600466 328.025600
    381    379    388     1   109.7800468 425.094400
    383    382    808     1   109.7800468 425.094400
    383    382    384     1   108.4600466 328.025600
    384    382    808     1   109.7800468 425.094400
    386    385    838     1   109.7800468 425.094400
    386    385    387     1   108.4600466 328.025600
    387    385    838     1   109.7800468 425.094400
    390    391    392     1   108.0100461 406.684800
    390    391    393     1   108.0100461 406.684800
    390    394    395     1   108.0100461 406.684800
    390    394    396     1   108.0100461 406.684800
    390    397    398     1   108.0100461 406.684800
    390    397    399     1   108.0100461 406.684800
    391    390    419     1   110.1100470 384.091200
    391    403    404     1   109.8000471 387.438400
    391    403    405     1   109.8000471 387.438400
    392    391    403     1   110.5600475 386.601600
    392    391    393     1   109.7500473 328.025600
    393    391    403     1   110.5600475 386.601600
    394    390    419     1   110.1100470 384.091200
    394    406    407     1   109.8000471 387.438400
    394    406    408     1   109.8000471 387.438400
    395    394    406     1   110.5600475 386.601600
    395    394    396     1   109.7500473 328.025600
    396    394    406     1   110.5600475 386.601600
    397    390    419     1   110.1100470 384.091200
    397    400    401     1   109.8000471 387.438400
    397    400    402     1   109.8000471 387.438400
    398    397    400     1   110.5600475 386.601600
    398    397    399     1   109.7500473 328.025600
    399    397    400     1   110.5600475 386.601600
    400    409    410     1   109.5600471 388.275200
    400    409    411     1   109.5600471 388.275200
    401    400    409     1   109.8000471 387.438400
    401    400    402     1   107.5800459 329.699200
    402    400    409     1   109.8000471 387.438400
    403    415    416     1   109.5600471 388.275200
    403    415    417     1   109.5600471 388.275200
    404    403    415     1   109.8000471 387.438400
    404    403    405     1   107.5800459 329.699200
    405    403    415     1   109.8000471 387.438400
    406    412    413     1   109.5600471 388.275200
    406    412    414     1   109.5600471 388.275200
    407    406    412     1   109.8000471 387.438400
    407    406    408     1   107.5800459 329.699200
    408    406    412     1   109.8000471 387.438400
    410    409    418     1   109.7800468 425.094400
    410    409    411     1   108.4600466 328.025600
    411    409    418     1   109.7800468 425.094400
    413    412    868     1   109.7800468 425.094400
    413    412    414     1   108.4600466 328.025600
    414    412    868     1   109.7800468 425.094400
    416    415    898     1   109.7800468 425.094400
    416    415    417     1   108.4600466 328.025600
    417    415    898     1   109.7800468 425.094400
    420    421    422     1   108.0100461 406.684800
    420    421    423     1   108.0100461 406.684800
    420    424    425     1   108.0100461 406.684800
    420    424    426     1   108.0100461 406.684800
    420    427    428     1   108.0100461 406.684800
    420    427    429     1   108.0100461 406.684800
    421    420    449     1   110.1100470 384.091200
    421    433    434     1   109.8000471 387.438400
    421    433    435     1   109.8000471 387.438400
    422    421    433     1   110.5600475 386.601600
    422    421    423     1   109.7500473 328.025600
    423    421    433     1   110.5600475 386.601600
    424    420    449     1   110.1100470 384.091200
    424    436    437     1   109.8000471 387.438400
    424    436    438     1   109.8000471 387.438400
    425    424    436     1   110.5600475 386.601600
    425    424    426     1   109.7500473 328.025600
    426    424    436     1   110.5600475 386.601600
    427    420    449     1   110.1100470 384.091200
    427    430    431     1   109.8000471 387.438400
    427    430    432     1   109.8000471 387.438400
    428    427    430     1   110.5600475 386.601600
    428    427    429     1   109.7500473 328.025600
    429    427    430     1   110.5600475 386.601600
    430    439    440     1   109.5600471 388.275200
    430    439    441     1   109.5600471 388.275200
    431    430    439     1   109.8000471 387.438400
    431    430    432     1   107.5800459 329.699200
    432    430    439     1   109.8000471 387.438400
    433    445    446     1   109.5600471 388.275200
    433    445    447     1   109.5600471 388.275200
    434    433    445     1   109.8000471 387.438400
    434    433    435     1   107.5800459 329.699200
    435    433    445     1   109.8000471 387.438400
    436    442    443     1   109.5600471 388.275200
    436    442    444     1   109.5600471 388.275200
    437    436    442     1   109.8000471 387.438400
    437    436    438     1   107.5800459 329.699200
    438    436    442     1   109.8000471 387.438400
    440    439    448     1   109.7800468 425.094400
    440    439    441     1   108.4600466 328.025600
    441    439    448     1   109.7800468 425.094400
    443    442    928     1   109.7800468 425.094400
    443    442    444     1   108.4600466 328.025600
    444    442    928     1   109.7800468 425.094400
    446    445    958     1   109.7800468 425.094400
    446    445    447     1   108.4600466 328.025600
    447    445    958     1   109.7800468 425.094400
    450    451    452     1   108.0100461 406.684800
    450    451    453     1   108.0100461 406.684800
    450    454    455     1   108.0100461 406.684800
    450    454    456     1   108.0100461 406.684800
    450    457    458     1   108.0100461 406.684800
    450    457    459     1   108.0100461 406.684800
    451    450    479     1   110.1100470 384.091200
    451    463    464     1   109.8000471 387.438400
    451    463    465     1   109.8000471 387.438400
    452    451    463     1   110.5600475 386.601600
    452    451    453     1   109.7500473 328.025600
    453    451    463     1   110.5600475 386.601600
    454    450    479     1   110.1100470 384.091200
    454    466    467     1   109.8000471 387.438400
    454    466    468     1   109.8000471 387.438400
    455    454    466     1   110.5600475 386.601600
    455    454    456     1   109.7500473 328.025600
    456    454    466     1   110.5600475 386.601600
    457    450    479     1   110.1100470 384.091200
    457    460    461     1   109.8000471 387.438400
    457    460    462     1   109.8000471 387.438400
    458    457    460     1   110.5600475 386.601600
    458    457    459     1   109.7500473 328.025600
    459    457    460     1   110.5600475 386.601600
    460    469    470     1   109.5600471 388.275200
    460    469    471     1   109.5600471 388.275200
    461    460    469     1   109.8000471 387.438400
    461    460    462     1   107.5800459 329.699200
    462    460    469     1   109.8000471 387.438400
    463    475    476     1   109.5600471 388.275200
    463    475    477     1   109.5600471 388.275200
    464    463    475     1   109.8000471 387.438400
    464    463    465     1   107.5800459 329.699200
    465    463    475     1   109.8000471 387.438400
    466    472    473     1   109.5600471 388.275200
    466    472    474     1   109.5600471 388.275200
    467    466    472     1   109.8000471 387.438400
    467    466    468     1   107.5800459 329.699200
    468    466    472     1   109.8000471 387.438400
    470    469    478     1   109.7800468 425.094400
    470    469    471     1   108.4600466 328.025600
    471    469    478     1   109.7800468 425.094400
    473    472    988     1   109.7800468 425.094400
    473    472    474     1   108.4600466 328.025600
    474    472    988     1   109.7800468 425.094400
    476    475   1018     1   109.7800468 425.094400
    476    475    477     1   108.4600466 328.025600
    477    475   1018     1   109.7800468 425.094400
    480    481    482     1   108.0100461 406.684800
    480    481    483     1   108.0100461 406.684800
    480    484    485     1   108.0100461 406.684800
    480    484    486     1   108.0100461 406.684800
    480    487    488     1   108.0100461 406.684800
    480    487    489     1   108.0100461 406.684800
    481    480    509     1   110.1100470 384.091200
    481    493    494     1   109.8000471 387.438400
    481    493    495     1   109.8000471 387.438400
    482    481    493     1   110.5600475 386.601600
    482    481    483     1   109.7500473 328.025600
    483    481    493     1   110.5600475 386.601600
    484    480    509     1   110.1100470 384.091200
    484    496    497     1   109.8000471 387.438400
    484    496    498     1   109.8000471 387.438400
    485    484    496     1   110.5600475 386.601600
    485    484    486     1   109.7500473 328.025600
    486    484    496     1   110.5600475 386.601600
    487    480    509     1   110.1100470 384.091200
    487    490    491     1   109.8000471 387.438400
    487    490    492     1   109.8000471 387.438400
    488    487    490     1   110.5600475 386.601600
    488    487    489     1   109.7500473 328.025600
    489    487    490     1   110.5600475 386.601600
    490    499    500     1   109.5600471 388.275200
    490    499    501     1   109.5600471 388.275200
    491    490    499     1   109.8000471 387.438400
    491    490    492     1   107.5800459 329.699200
    492    490    499     1   109.8000471 387.438400
    493    505    506     1   109.5600471 388.275200
    493    505    507     1   109.5600471 388.275200
    494    493    505     1   109.8000471 387.438400
    494    493    495     1   107.5800459 329.699200
    495    493    505     1   109.8000471 387.438400
    496    502    503     1   109.5600471 388.275200
    496    502    504     1   109.5600471 388.275200
    497    496    502     1   109.8000471 387.438400
    497    496    498     1   107.5800459 329.699200
    498    496    502     1   109.8000471 387.438400
    500    499    508     1   109.7800468 425.094400
    500    499    501     1   108.4600466 328.025600
    501    499    508     1   109.7800468 425.094400
    503    502   1048     1   109.7800468 425.094400
    503    502    504     1   108.4600466 328.025600
    504    502   1048     1   109.7800468 425.094400
    506    505   1078     1   109.7800468 425.094400
    506    505    507     1   108.4600466 328.025600
    507    505   1078     1   109.7800468 425.094400
    510    511    512     1   108.0100461 406.684800
    510    511    513     1   108.0100461 406.684800
    510    514    515     1   108.0100461 406.684800
    510    514    516     1   108.0100461 406.684800
    510    517    518     1   108.0100461 406.684800
    510    517    519     1   108.0100461 406.684800
    511    510    539     1   110.1100470 384.091200
    511    523    524     1   109.8000471 387.438400
    511    523    525     1   109.8000471 387.438400
    512    511    523     1   110.5600475 386.601600
    512    511    513     1   109.7500473 328.025600
    513    511    523     1   110.5600475 386.601600
    514    510    539     1   110.1100470 384.091200
    514    526    527     1   109.8000471 387.438400
    514    526    528     1   109.8000471 387.438400
    515    514    526     1   110.5600475 386.601600
    515    514    516     1   109.7500473 328.025600
    516    514    526     1   110.5600475 386.601600
    517    510    539     1   110.1100470 384.091200
    517    520    521     1   109.8000471 387.438400
    517    520    522     1   109.8000471 387.438400
    518    517    520     1   110.5600475 386.601600
    518    517    519     1   109.7500473 328.025600
    519    517    520     1   110.5600475 386.601600
    520    529    530     1   109.5600471 388.275200
    520    529    531     1   109.5600471 388.275200
    521    520    529     1   109.8000471 387.438400
    521    520    522     1   107.5800459 329.699200
    522    520    529     1   109.8000471 387.438400
    523    535    536     1   109.5600471 388.275200
    523    535    537     1   109.5600471 388.275200
    524    523    535     1   109.8000471 387.438400
    524    523    525     1   107.5800459 329.699200
    525    523    535     1   109.8000471 387.438400
    526    532    533     1   109.5600471 388.275200
    526    532    534     1   109.5600471 388.275200
    527    526    532     1   109.8000471 387.438400
    527    526    528     1   107.5800459 329.699200
    528    526    532     1   109.8000471 387.438400
    530    529    538     1   109.7800468 425.094400
    530    529    531     1   108.4600466 328.025600
    531    529    538     1   109.7800468 425.094400
    533    532   1108     1   109.7800468 425.094400
    533    532    534     1   108.4600466 328.025600
    534    532   1108     1   109.7800468 425.094400
    536    535   1138     1   109.7800468 425.094400
    536    535    537     1   108.4600466 328.025600
    537    535   1138     1   109.7800468 425.094400
    540    541    542     1   108.0100461 406.684800
    540    541    543     1   108.0100461 406.684800
    540    544    545     1   108.0100461 406.684800
    540    544    546     1   108.0100461 406.684800
    540    547    548     1   108.0100461 406.684800
    540    547    549     1   108.0100461 406.684800
    541    540    569     1   110.1100470 384.091200
    541    553    554     1   109.8000471 387.438400
    541    553    555     1   109.8000471 387.438400
    542    541    553     1   110.5600475 386.601600
    542    541    543     1   109.7500473 328.025600
    543    541    553     1   110.5600475 386.601600
    544    540    569     1   110.1100470 384.091200
    544    556    557     1   109.8000471 387.438400
    544    556    558     1   109.8000471 387.438400
    545    544    556     1   110.5600475 386.601600
    545    544    546     1   109.7500473 328.025600
    546    544    556     1   110.5600475 386.601600
    547    540    569     1   110.1100470 384.091200
    547    550    551     1   109.8000471 387.438400
    547    550    552     1   109.8000471 387.438400
    548    547    550     1   110.5600475 386.601600
    548    547    549     1   109.7500473 328.025600
    549    547    550     1   110.5600475 386.601600
    550    559    560     1   109.5600471 388.275200
    550    559    561     1   109.5600471 388.275200
    551    550    559     1   109.8000471 387.438400
    551    550    552     1   107.5800459 329.699200
    552    550    559     1   109.8000471 387.438400
    553    565    566     1   109.5600471 388.275200
    553    565    567     1   109.5600471 388.275200
    554    553    565     1   109.8000471 387.438400
    554    553    555     1   107.5800459 329.699200
    555    553    565     1   109.8000471 387.438400
    556    562    563     1   109.5600471 388.275200
    556    562    564     1   109.5600471 388.275200
    557    556    562     1   109.8000471 387.438400
    557    556    558     1   107.5800459 329.699200
    558    556    562     1   109.8000471 387.438400
    560    559    568     1   109.7800468 425.094400
    560    559    561     1   108.4600466 328.025600
    561    559    568     1   109.7800468 425.094400
    563    562   1168     1   109.7800468 425.094400
    563    562    564     1   108.4600466 328.025600
    564    562   1168     1   109.7800468 425.094400
    566    565   1198     1   109.7800468 425.094400
    566    565    567     1   108.4600466 328.025600
    567    565   1198     1   109.7800468 425.094400
    570    571    572     1   108.0100461 406.684800
    570    571    573     1   108.0100461 406.684800
    570    574    575     1   108.0100461 406.684800
    570    574    576     1   108.0100461 406.684800
    570    577    578     1   108.0100461 406.684800
    570    577    579     1   108.0100461 406.684800
    571    570    599     1   110.1100470 384.091200
    571    583    584     1   109.8000471 387.438400
    571    583    585     1   109.8000471 387.438400
    572    571    583     1   110.5600475 386.601600
    572    571    573     1   109.7500473 328.025600
    573    571    583     1   110.5600475 386.601600
    574    570    599     1   110.1100470 384.091200
    574    586    587     1   109.8000471 387.438400
    574    586    588     1   109.8000471 387.438400
    575    574    586     1   110.5600475 386.601600
    575    574    576     1   109.7500473 328.025600
    576    574    586     1   110.5600475 386.601600
    577    570    599     1   110.1100470 384.091200
    577    580    581     1   109.8000471 387.438400
    577    580    582     1   109.8000471 387.438400
    578    577    580     1   110.5600475 386.601600
    578    577    579     1   109.7500473 328.025600
    579    577    580     1   110.5600475 386.601600
    580    589    590     1   109.5600471 388.275200
    580    589    591     1   109.5600471 388.275200
    581    580    589     1   109.8000471 387.438400
    581    580    582     1   107.5800459 329.699200
    582    580    589     1   109.8000471 387.438400
    583    595    596     1   109.5600471 388.275200
    583    595    597     1   109.5600471 388.275200
    584    583    595     1   109.8000471 387.438400
    584    583    585     1   107.5800459 329.699200
    585    583    595     1   109.8000471 387.438400
    586    592    593     1   109.5600471 388.275200
    586    592    594     1   109.5600471 388.275200
    587    586    592     1   109.8000471 387.438400
    587    586    588     1   107.5800459 329.699200
    588    586    592     1   109.8000471 387.438400
    590    589    598     1   109.7800468 425.094400
    590    589    591     1   108.4600466 328.025600
    591    589    598     1   109.7800468 425.094400
    593    592   1228     1   109.7800468 425.094400
    593    592    594     1   108.4600466 328.025600
    594    592   1228     1   109.7800468 425.094400
    596    595   1258     1   109.7800468 425.094400
    596    595    597     1   108.4600466 328.025600
    597    595   1258     1   109.7800468 425.094400
    600    601    602     1   108.0100461 406.684800
    600    601    603     1   108.0100461 406.684800
    600    604    605     1   108.0100461 406.684800
    600    604    606     1   108.0100461 406.684800
    600    607    608     1   108.0100461 406.684800
    600    607    609     1   108.0100461 406.684800
    601    600    629     1   110.1100470 384.091200
    601    613    614     1   109.8000471 387.438400
    601    613    615     1   109.8000471 387.438400
    602    601    613     1   110.5600475 386.601600
    602    601    603     1   109.7500473 328.025600
    603    601    613     1   110.5600475 386.601600
    604    600    629     1   110.1100470 384.091200
    604    616    617     1   109.8000471 387.438400
    604    616    618     1   109.8000471 387.438400
    605    604    616     1   110.5600475 386.601600
    605    604    606     1   109.7500473 328.025600
    606    604    616     1   110.5600475 386.601600
    607    600    629     1   110.1100470 384.091200
    607    610    611     1   109.8000471 387.438400
    607    610    612     1   109.8000471 387.438400
    608    607    610     1   110.5600475 386.601600
    608    607    609     1   109.7500473 328.025600
    609    607    610     1   110.5600475 386.601600
    610    619    620     1   109.5600471 388.275200
    610    619    621     1   109.5600471 388.275200
    611    610    619     1   109.8000471 387.438400
    611    610    612     1   107.5800459 329.699200
    612    610    619     1   109.8000471 387.438400
    613    625    626     1   109.5600471 388.275200
    613    625    627     1   109.5600471 388.275200
    614    613    625     1   109.8000471 387.438400
    614    613    615     1   107.5800459 329.699200
    615    613    625     1   109.8000471 387.438400
    616    622    623     1   109.5600471 388.275200
    616    622    624     1   109.5600471 388.275200
    617    616    622     1   109.8000471 387.438400
    617    616    618     1   107.5800459 329.699200
    618    616    622     1   109.8000471 387.438400
    620    619    628     1   109.7800468 425.094400
    620    619    621     1   108.4600466 328.025600
    621    619    628     1   109.7800468 425.094400
    623    622   1288     1   109.7800468 425.094400
    623    622    624     1   108.4600466 328.025600
    624    622   1288     1   109.7800468 425.094400
    626    625   1318     1   109.7800468 425.094400
    626    625    627     1   108.4600466 328.025600
    627    625   1318     1   109.7800468 425.094400
    630    631    632     1   108.0100461 406.684800
    630    631    633     1   108.0100461 406.684800
    630    634    635     1   108.0100461 406.684800
    630    634    636     1   108.0100461 406.684800
    630    637    638     1   108.0100461 406.684800
    630    637    639     1   108.0100461 406.684800
    631    630    659     1   110.1100470 384.091200
    631    643    644     1   109.8000471 387.438400
    631    643    645     1   109.8000471 387.438400
    632    631    643     1   110.5600475 386.601600
    632    631    633     1   109.7500473 328.025600
    633    631    643     1   110.5600475 386.601600
    634    630    659     1   110.1100470 384.091200
    634    646    647     1   109.8000471 387.438400
    634    646    648     1   109.8000471 387.438400
    635    634    646     1   110.5600475 386.601600
    635    634    636     1   109.7500473 328.025600
    636    634    646     1   110.5600475 386.601600
    637    630    659     1   110.1100470 384.091200
    637    640    641     1   109.8000471 387.438400
    637    640    642     1   109.8000471 387.438400
    638    637    640     1   110.5600475 386.601600
    638    637    639     1   109.7500473 328.025600
    639    637    640     1   110.5600475 386.601600
    640    649    650     1   109.5600471 388.275200
    640    649    651     1   109.5600471 388.275200
    641    640    649     1   109.8000471 387.438400
    641    640    642     1   107.5800459 329.699200
    642    640    649     1   109.8000471 387.438400
    643    655    656     1   109.5600471 388.275200
    643    655    657     1   109.5600471 388.275200
    644    643    655     1   109.8000471 387.438400
    644    643    645     1   107.5800459 329.699200
    645    643    655     1   109.8000471 387.438400
    646    652    653     1   109.5600471 388.275200
    646    652    654     1   109.5600471 388.275200
    647    646    652     1   109.8000471 387.438400
    647    646    648     1   107.5800459 329.699200
    648    646    652     1   109.8000471 387.438400
    650    649    658     1   109.7800468 425.094400
    650    649    651     1   108.4600466 328.025600
    651    649    658     1   109.7800468 425.094400
    653    652   1348     1   109.7800468 425.094400
    653    652    654     1   108.4600466 328.025600
    654    652   1348     1   109.7800468 425.094400
    656    655   1378     1   109.7800468 425.094400
    656    655    657     1   108.4600466 328.025600
    657    655   1378     1   109.7800468 425.094400
    660    661    662     1   108.0100461 406.684800
    660    661    663     1   108.0100461 406.684800
    660    664    665     1   108.0100461 406.684800
    660    664    666     1   108.0100461 406.684800
    660    667    668     1   108.0100461 406.684800
    660    667    669     1   108.0100461 406.684800
    661    660    689     1   110.1100470 384.091200
    661    673    674     1   109.8000471 387.438400
    661    673    675     1   109.8000471 387.438400
    662    661    673     1   110.5600475 386.601600
    662    661    663     1   109.7500473 328.025600
    663    661    673     1   110.5600475 386.601600
    664    660    689     1   110.1100470 384.091200
    664    676    677     1   109.8000471 387.438400
    664    676    678     1   109.8000471 387.438400
    665    664    676     1   110.5600475 386.601600
    665    664    666     1   109.7500473 328.025600
    666    664    676     1   110.5600475 386.601600
    667    660    689     1   110.1100470 384.091200
    667    670    671     1   109.8000471 387.438400
    667    670    672     1   109.8000471 387.438400
    668    667    670     1   110.5600475 386.601600
    668    667    669     1   109.7500473 328.025600
    669    667    670     1   110.5600475 386.601600
    670    679    680     1   109.5600471 388.275200
    670    679    681     1   109.5600471 388.275200
    671    670    679     1   109.8000471 387.438400
    671    670    672     1   107.5800459 329.699200
    672    670    679     1   109.8000471 387.438400
    673    685    686     1   109.5600471 388.275200
    673    685    687     1   109.5600471 388.275200
    674    673    685     1   109.8000471 387.438400
    674    673    675     1   107.5800459 329.699200
    675    673    685     1   109.8000471 387.438400
    676    682    683     1   109.5600471 388.275200
    676    682    684     1   109.5600471 388.275200
    677    676    682     1   109.8000471 387.438400
    677    676    678     1   107.5800459 329.699200
    678    676    682     1   109.8000471 387.438400
    680    679    688     1   109.7800468 425.094400
    680    679    681     1   108.4600466 328.025600
    681    679    688     1   109.7800468 425.094400
    683    682   1408     1   109.7800468 425.094400
    683    682    684     1   108.4600466 328.025600
    684    682   1408     1   109.7800468 425.094400
    686    685   1438     1   109.7800468 425.094400
    686    685    687     1   108.4600466 328.025600
    687    685   1438     1   109.7800468 425.094400
    690    691    692     1   108.0100461 406.684800
    690    691    693     1   108.0100461 406.684800
    690    694    695     1   108.0100461 406.684800
    690    694    696     1   108.0100461 406.684800
    690    697    698     1   108.0100461 406.684800
    690    697    699     1   108.0100461 406.684800
    691    690    719     1   110.1100470 384.091200
    691    703    704     1   109.8000471 387.438400
    691    703    705     1   109.8000471 387.438400
    692    691    703     1   110.5600475 386.601600
    692    691    693     1   109.7500473 328.025600
    693    691    703     1   110.5600475 386.601600
    694    690    719     1   110.1100470 384.091200
    694    706    707     1   109.8000471 387.438400
    694    706    708     1   109.8000471 387.438400
    695    694    706     1   110.5600475 386.601600
    695    694    696     1   109.7500473 328.025600
    696    694    706     1   110.5600475 386.601600
    697    690    719     1   110.1100470 384.091200
    697    700    701     1   109.8000471 387.438400
    697    700    702     1   109.8000471 387.438400
    698    697    700     1   110.5600475 386.601600
    698    697    699     1   109.7500473 328.025600
    699    697    700     1   110.5600475 386.601600
    700    709    710     1   109.5600471 388.275200
    700    709    711     1   109.5600471 388.275200
    701    700    709     1   109.8000471 387.438400
    701    700    702     1   107.5800459 329.699200
    702    700    709     1   109.8000471 387.438400
    703    715    716     1   109.5600471 388.275200
    703    715    717     1   109.5600471 388.275200
    704    703    715     1   109.8000471 387.438400
    704    703    705     1   107.5800459 329.699200
    705    703    715     1   109.8000471 387.438400
    706    712    713     1   109.5600471 388.275200
    706    712    714     1   109.5600471 388.275200
    707    706    712     1   109.8000471 387.438400
    707    706    708     1   107.5800459 329.699200
    708    706    712     1   109.8000471 387.438400
    710    709    718     1   109.7800468 425.094400
    710    709    711     1   108.4600466 328.025600
    711    709    718     1   109.7800468 425.094400
    713    712   1468     1   109.7800468 425.094400
    713    712    714     1   108.4600466 328.025600
    714    712   1468     1   109.7800468 425.094400
    716    715   1498     1   109.7800468 425.094400
    716    715    717     1   108.4600466 328.025600
    717    715   1498     1   109.7800468 425.094400
    720    721    722     1   108.0100461 406.684800
    720    721    723     1   108.0100461 406.684800
    720    724    725     1   108.0100461 406.684800
    720    724    726     1   108.0100461 406.684800
    720    727    728     1   108.0100461 406.684800
    720    727    729     1   108.0100461 406.684800
    721    720    749     1   110.1100470 384.091200
    721    733    734     1   109.8000471 387.438400
    721    733    735     1   109.8000471 387.438400
    722    721    733     1   110.5600475 386.601600
    722    721    723     1   109.7500473 328.025600
    723    721    733     1   110.5600475 386.601600
    724    720    749     1   110.1100470 384.091200
    724    736    737     1   109.8000471 387.438400
    724    736    738     1   109.8000471 387.438400
    725    724    736     1   110.5600475 386.601600
    725    724    726     1   109.7500473 328.025600
    726    724    736     1   110.5600475 386.601600
    727    720    749     1   110.1100470 384.091200
    727    730    731     1   109.8000471 387.438400
    727    730    732     1   109.8000471 387.438400
    728    727    730     1   110.5600475 386.601600
    728    727    729     1   109.7500473 328.025600
    729    727    730     1   110.5600475 386.601600
    730    739    740     1   109.5600471 388.275200
    730    739    741     1   109.5600471 388.275200
    731    730    739     1   109.8000471 387.438400
    731    730    732     1   107.5800459 329.699200
    732    730    739     1   109.8000471 387.438400
    733    745    746     1   109.5600471 388.275200
    733    745    747     1   109.5600471 388.275200
    734    733    745     1   109.8000471 387.438400
    734    733    735     1   107.5800459 329.699200
    735    733    745     1   109.8000471 387.438400
    736    742    743     1   109.5600471 388.275200
    736    742    744     1   109.5600471 388.275200
    737    736    742     1   109.8000471 387.438400
    737    736    738     1   107.5800459 329.699200
    738    736    742     1   109.8000471 387.438400
    740    739    748     1   109.7800468 425.094400
    740    739    741     1   108.4600466 328.025600
    741    739    748     1   109.7800468 425.094400
    743    742   1528     1   109.7800468 425.094400
    743    742    744     1   108.4600466 328.025600
    744    742   1528     1   109.7800468 425.094400
    746    745   1558     1   109.7800468 425.094400
    746    745    747     1   108.4600466 328.025600
    747    745   1558     1   109.7800468 425.094400
    750    751    752     1   108.0100461 406.684800
    750    751    753     1   108.0100461 406.684800
    750    754    755     1   108.0100461 406.684800
    750    754    756     1   108.0100461 406.684800
    750    757    758     1   108.0100461 406.684800
    750    757    759     1   108.0100461 406.684800
    751    750    779     1   110.1100470 384.091200
    751    763    764     1   109.8000471 387.438400
    751    763    765     1   109.8000471 387.438400
    752    751    763     1   110.5600475 386.601600
    752    751    753     1   109.7500473 328.025600
    753    751    763     1   110.5600475 386.601600
    754    750    779     1   110.1100470 384.091200
    754    766    767     1   109.8000471 387.438400
    754    766    768     1   109.8000471 387.438400
    755    754    766     1   110.5600475 386.601600
    755    754    756     1   109.7500473 328.025600
    756    754    766     1   110.5600475 386.601600
    757    750    779     1   110.1100470 384.091200
    757    760    761     1   109.8000471 387.438400
    757    760    762     1   109.8000471 387.438400
    758    757    760     1   110.5600475 386.601600
    758    757    759     1   109.7500473 328.025600
    759    757    760     1   110.5600475 386.601600
    760    769    770     1   109.5600471 388.275200
    760    769    771     1   109.5600471 388.275200
    761    760    769     1   109.8000471 387.438400
    761    760    762     1   107.5800459 329.699200
    762    760    769     1   109.8000471 387.438400
    763    775    776     1   109.5600471 388.275200
    763    775    777     1   109.5600471 388.275200
    764    763    775     1   109.8000471 387.438400
    764    763    765     1   107.5800459 329.699200
    765    763    775     1   109.8000471 387.438400
    766    772    773     1   109.5600471 388.275200
    766    772    774     1   109.5600471 388.275200
    767    766    772     1   109.8000471 387.438400
    767    766    768     1   107.5800459 329.699200
    768    766    772     1   109.8000471 387.438400
    770    769    778     1   109.7800468 425.094400
    770    769    771     1   108.4600466 328.025600
    771    769    778     1   109.7800468 425.094400
    773    772   1588     1   109.7800468 425.094400
    773    772    774     1   108.4600466 328.025600
    774    772   1588     1   109.7800468 425.094400
    776    775   1618     1   109.7800468 425.094400
    776    775    777     1   108.4600466 328.025600
    777    775   1618     1   109.7800468 425.094400
    780    781    782     1   108.0100461 406.684800
    780    781    783     1   108.0100461 406.684800
    780    784    785     1   108.0100461 406.684800
    780    784    786     1   108.0100461 406.684800
    780    787    788     1   108.0100461 406.684800
    780    787    789     1   108.0100461 406.684800
    781    780    809     1   110.1100470 384.091200
    781    793    794     1   109.8000471 387.438400
    781    793    795     1   109.8000471 387.438400
    782    781    793     1   110.5600475 386.601600
    782    781    783     1   109.7500473 328.025600
    783    781    793     1   110.5600475 386.601600
    784    780    809     1   110.1100470 384.091200
    784    796    797     1   109.8000471 387.438400
    784    796    798     1   109.8000471 387.438400
    785    784    796     1   110.5600475 386.601600
    785    784    786     1   109.7500473 328.025600
    786    784    796     1   110.5600475 386.601600
    787    780    809     1   110.1100470 384.091200
    787    790    791     1   109.8000471 387.438400
    787    790    792     1   109.8000471 387.438400
    788    787    790     1   110.5600475 386.601600
    788    787    789     1   109.7500473 328.025600
    789    787    790     1   110.5600475 386.601600
    790    799    800     1   109.5600471 388.275200
    790    799    801     1   109.5600471 388.275200
    791    790    799     1   109.8000471 387.438400
    791    790    792     1   107.5800459 329.699200
    792    790    799     1   109.8000471 387.438400
    793    805    806     1   109.5600471 388.275200
    793    805    807     1   109.5600471 388.275200
    794    793    805     1   109.8000471 387.438400
    794    793    795     1   107.5800459 329.699200
    795    793    805     1   109.8000471 387.438400
    796    802    803     1   109.5600471 388.275200
    796    802    804     1   109.5600471 388.275200
    797    796    802     1   109.8000471 387.438400
    797    796    798     1   107.5800459 329.699200
    798    796    802     1   109.8000471 387.438400
    800    799    808     1   109.7800468 425.094400
    800    799    801     1   108.4600466 328.025600
    801    799    808     1   109.7800468 425.094400
    803    802   1648     1   109.7800468 425.094400
    803    802    804     1   108.4600466 328.025600
    804    802   1648     1   109.7800468 425.094400
    806    805   1678     1   109.7800468 425.094400
    806    805    807     1   108.4600466 328.025600
    807    805   1678     1   109.7800468 425.094400
    810    811    812     1   108.0100461 406.684800
    810    811    813     1   108.0100461 406.684800
    810    814    815     1   108.0100461 406.684800
    810    814    816     1   108.0100461 406.684800
    810    817    818     1   108.0100461 406.684800
    810    817    819     1   108.0100461 406.684800
    811    810    839     1   110.1100470 384.091200
    811    823    824     1   109.8000471 387.438400
    811    823    825     1   109.8000471 387.438400
    812    811    823     1   110.5600475 386.601600
    812    811    813     1   109.7500473 328.025600
    813    811    823     1   110.5600475 386.601600
    814    810    839     1   110.1100470 384.091200
    814    826    827     1   109.8000471 387.438400
    814    826    828     1   109.8000471 387.438400
    815    814    826     1   110.5600475 386.601600
    815    814    816     1   109.7500473 328.025600
    816    814    826     1   110.5600475 386.601600
    817    810    839     1   110.1100470 384.091200
    817    820    821     1   109.8000471 387.438400
    817    820    822     1   109.8000471 387.438400
    818    817    820     1   110.5600475 386.601600
    818    817    819     1   109.7500473 328.025600
    819    817    820     1   110.5600475 386.601600
    820    829    830     1   109.5600471 388.275200
    820    829    831     1   109.5600471 388.275200
    821    820    829     1   109.8000471 387.438400
    821    820    822     1   107.5800459 329.699200
    822    820    829     1   109.8000471 387.438400
    823    835    836     1   109.5600471 388.275200
    823    835    837     1   109.5600471 388.275200
    824    823    835     1   109.8000471 387.438400
    824    823    825     1   107.5800459 329.699200
    825    823    835     1   109.8000471 387.438400
    826    832    833     1   109.5600471 388.275200
    826    832    834     1   109.5600471 388.275200
    827    826    832     1   109.8000471 387.438400
    827    826    828     1   107.5800459 329.699200
    828    826    832     1   109.8000471 387.438400
    830    829    838     1   109.7800468 425.094400
    830    829    831     1   108.4600466 328.025600
    831    829    838     1   109.7800468 425.094400
    833    832   1708     1   109.7800468 425.094400
    833    832    834     1   108.4600466 328.025600
    834    832   1708     1   109.7800468 425.094400
    836    835   1738     1   109.7800468 425.094400
    836    835    837     1   108.4600466 328.025600
    837    835   1738     1   109.7800468 425.094400
    840    841    842     1   108.0100461 406.684800
    840    841    843     1   108.0100461 406.684800
    840    844    845     1   108.0100461 406.684800
    840    844    846     1   108.0100461 406.684800
    840    847    848     1   108.0100461 406.684800
    840    847    849     1   108.0100461 406.684800
    841    840    869     1   110.1100470 384.091200
    841    853    854     1   109.8000471 387.438400
    841    853    855     1   109.8000471 387.438400
    842    841    853     1   110.5600475 386.601600
    842    841    843     1   109.7500473 328.025600
    843    841    853     1   110.5600475 386.601600
    844    840    869     1   110.1100470 384.091200
    844    856    857     1   109.8000471 387.438400
    844    856    858     1   109.8000471 387.438400
    845    844    856     1   110.5600475 386.601600
    845    844    846     1   109.7500473 328.025600
    846    844    856     1   110.5600475 386.601600
    847    840    869     1   110.1100470 384.091200
    847    850    851     1   109.8000471 387.438400
    847    850    852     1   109.8000471 387.438400
    848    847    850     1   110.5600475 386.601600
    848    847    849     1   109.7500473 328.025600
    849    847    850     1   110.5600475 386.601600
    850    859    860     1   109.5600471 388.275200
    850    859    861     1   109.5600471 388.275200
    851    850    859     1   109.8000471 387.438400
    851    850    852     1   107.5800459 329.699200
    852    850    859     1   109.8000471 387.438400
    853    865    866     1   109.5600471 388.275200
    853    865    867     1   109.5600471 388.275200
    854    853    865     1   109.8000471 387.438400
    854    853    855     1   107.5800459 329.699200
    855    853    865     1   109.8000471 387.438400
    856    862    863     1   109.5600471 388.275200
    856    862    864     1   109.5600471 388.275200
    857    856    862     1   109.8000471 387.438400
    857    856    858     1   107.5800459 329.699200
    858    856    862     1   109.8000471 387.438400
    860    859    868     1   109.7800468 425.094400
    860    859    861     1   108.4600466 328.025600
    861    859    868     1   109.7800468 425.094400
    863    862   1768     1   109.7800468 425.094400
    863    862    864     1   108.4600466 328.025600
    864    862   1768     1   109.7800468 425.094400
    866    865   1798     1   109.7800468 425.094400
    866    865    867     1   108.4600466 328.025600
    867    865   1798     1   109.7800468 425.094400
    870    871    872     1   108.0100461 406.684800
    870    871    873     1   108.0100461 406.684800
    870    874    875     1   108.0100461 406.684800
    870    874    876     1   108.0100461 406.684800
    870    877    878     1   108.0100461 406.684800
    870    877    879     1   108.0100461 406.684800
    871    870    899     1   110.1100470 384.091200
    871    883    884     1   109.8000471 387.438400
    871    883    885     1   109.8000471 387.438400
    872    871    883     1   110.5600475 386.601600
    872    871    873     1   109.7500473 328.025600
    873    871    883     1   110.5600475 386.601600
    874    870    899     1   110.1100470 384.091200
    874    886    887     1   109.8000471 387.438400
    874    886    888     1   109.8000471 387.438400
    875    874    886     1   110.5600475 386.601600
    875    874    876     1   109.7500473 328.025600
    876    874    886     1   110.5600475 386.601600
    877    870    899     1   110.1100470 384.091200
    877    880    881     1   109.8000471 387.438400
    877    880    882     1   109.8000471 387.438400
    878    877    880     1   110.5600475 386.601600
    878    877    879     1   109.7500473 328.025600
    879    877    880     1   110.5600475 386.601600
    880    889    890     1   109.5600471 388.275200
    880    889    891     1   109.5600471 388.275200
    881    880    889     1   109.8000471 387.438400
    881    880    882     1   107.5800459 329.699200
    882    880    889     1   109.8000471 387.438400
    883    895    896     1   109.5600471 388.275200
    883    895    897     1   109.5600471 388.275200
    884    883    895     1   109.8000471 387.438400
    884    883    885     1   107.5800459 329.699200
    885    883    895     1   109.8000471 387.438400
    886    892    893     1   109.5600471 388.275200
    886    892    894     1   109.5600471 388.275200
    887    886    892     1   109.8000471 387.438400
    887    886    888     1   107.5800459 329.699200
    888    886    892     1   109.8000471 387.438400
    890    889    898     1   109.7800468 425.094400
    890    889    891     1   108.4600466 328.025600
    891    889    898     1   109.7800468 425.094400
    893    892   1828     1   109.7800468 425.094400
    893    892    894     1   108.4600466 328.025600
    894    892   1828     1   109.7800468 425.094400
    896    895   1858     1   109.7800468 425.094400
    896    895    897     1   108.4600466 328.025600
    897    895   1858     1   109.7800468 425.094400
    900    901    902     1   108.0100461 406.684800
    900    901    903     1   108.0100461 406.684800
    900    904    905     1   108.0100461 406.684800
    900    904    906     1   108.0100461 406.684800
    900    907    908     1   108.0100461 406.684800
    900    907    909     1   108.0100461 406.684800
    901    900    929     1   110.1100470 384.091200
    901    913    914     1   109.8000471 387.438400
    901    913    915     1   109.8000471 387.438400
    902    901    913     1   110.5600475 386.601600
    902    901    903     1   109.7500473 328.025600
    903    901    913     1   110.5600475 386.601600
    904    900    929     1   110.1100470 384.091200
    904    916    917     1   109.8000471 387.438400
    904    916    918     1   109.8000471 387.438400
    905    904    916     1   110.5600475 386.601600
    905    904    906     1   109.7500473 328.025600
    906    904    916     1   110.5600475 386.601600
    907    900    929     1   110.1100470 384.091200
    907    910    911     1   109.8000471 387.438400
    907    910    912     1   109.8000471 387.438400
    908    907    910     1   110.5600475 386.601600
    908    907    909     1   109.7500473 328.025600
    909    907    910     1   110.5600475 386.601600
    910    919    920     1   109.5600471 388.275200
    910    919    921     1   109.5600471 388.275200
    911    910    919     1   109.8000471 387.438400
    911    910    912     1   107.5800459 329.699200
    912    910    919     1   109.8000471 387.438400
    913    925    926     1   109.5600471 388.275200
    913    925    927     1   109.5600471 388.275200
    914    913    925     1   109.8000471 387.438400
    914    913    915     1   107.5800459 329.699200
    915    913    925     1   109.8000471 387.438400
    916    922    923     1   109.5600471 388.275200
    916    922    924     1   109.5600471 388.275200
    917    916    922     1   109.8000471 387.438400
    917    916    918     1   107.5800459 329.699200
    918    916    922     1   109.8000471 387.438400
    920    919    928     1   109.7800468 425.094400
    920    919    921     1   108.4600466 328.025600
    921    919    928     1   109.7800468 425.094400
    923    922   1888     1   109.7800468 425.094400
    923    922    924     1   108.4600466 328.025600
    924    922   1888     1   109.7800468 425.094400
    926    925   1918     1   109.7800468 425.094400
    926    925    927     1   108.4600466 328.025600
    927    925   1918     1   109.7800468 425.094400
    930    931    932     1   108.0100461 406.684800
    930    931    933     1   108.0100461 406.684800
    930    934    935     1   108.0100461 406.684800
    930    934    936     1   108.0100461 406.684800
    930    937    938     1   108.0100461 406.684800
    930    937    939     1   108.0100461 406.684800
    931    930    959     1   110.1100470 384.091200
    931    943    944     1   109.8000471 387.438400
    931    943    945     1   109.8000471 387.438400
    932    931    943     1   110.5600475 386.601600
    932    931    933     1   109.7500473 328.025600
    933    931    943     1   110.5600475 386.601600
    934    930    959     1   110.1100470 384.091200
    934    946    947     1   109.8000471 387.438400
    934    946    948     1   109.8000471 387.438400
    935    934    946     1   110.5600475 386.601600
    935    934    936     1   109.7500473 328.025600
    936    934    946     1   110.5600475 386.601600
    937    930    959     1   110.1100470 384.091200
    937    940    941     1   109.8000471 387.438400
    937    940    942     1   109.8000471 387.438400
    938    937    940     1   110.5600475 386.601600
    938    937    939     1   109.7500473 328.025600
    939    937    940     1   110.5600475 386.601600
    940    949    950     1   109.5600471 388.275200
    940    949    951     1   109.5600471 388.275200
    941    940    949     1   109.8000471 387.438400
    941    940    942     1   107.5800459 329.699200
    942    940    949     1   109.8000471 387.438400
    943    955    956     1   109.5600471 388.275200
    943    955    957     1   109.5600471 388.275200
    944    943    955     1   109.8000471 387.438400
    944    943    945     1   107.5800459 329.699200
    945    943    955     1   109.8000471 387.438400
    946    952    953     1   109.5600471 388.275200
    946    952    954     1   109.5600471 388.275200
    947    946    952     1   109.8000471 387.438400
    947    946    948     1   107.5800459 329.699200
    948    946    952     1   109.8000471 387.438400
    950    949    958     1   109.7800468 425.094400
    950    949    951     1   108.4600466 328.025600
    951    949    958     1   109.7800468 425.094400
    953    952   1948     1   109.7800468 425.094400
    953    952    954     1   108.4600466 328.025600
    954    952   1948     1   109.7800468 425.094400
    956    955   1978     1   109.7800468 425.094400
    956    955    957     1   108.4600466 328.025600
    957    955   1978     1   109.7800468 425.094400
    960    961    962     1   108.0100461 406.684800
    960    961    963     1   108.0100461 406.684800
    960    964    965     1   108.0100461 406.684800
    960    964    966     1   108.0100461 406.684800
    960    967    968     1   108.0100461 406.684800
    960    967    969     1   108.0100461 406.684800
    961    960    989     1   110.1100470 384.091200
    961    973    974     1   109.8000471 387.438400
    961    973    975     1   109.8000471 387.438400
    962    961    973     1   110.5600475 386.601600
    962    961    963     1   109.7500473 328.025600
    963    961    973     1   110.5600475 386.601600
    964    960    989     1   110.1100470 384.091200
    964    976    977     1   109.8000471 387.438400
    964    976    978     1   109.8000471 387.438400
    965    964    976     1   110.5600475 386.601600
    965    964    966     1   109.7500473 328.025600
    966    964    976     1   110.5600475 386.601600
    967    960    989     1   110.1100470 384.091200
    967    970    971     1   109.8000471 387.438400
    967    970    972     1   109.8000471 387.438400
    968    967    970     1   110.5600475 386.601600
    968    967    969     1   109.7500473 328.025600
    969    967    970     1   110.5600475 386.601600
    970    979    980     1   109.5600471 388.275200
    970    979    981     1   109.5600471 388.275200
    971    970    979     1   109.8000471 387.438400
    971    970    972     1   107.5800459 329.699200
    972    970    979     1   109.8000471 387.438400
    973    985    986     1   109.5600471 388.275200
    973    985    987     1   109.5600471 388.275200
    974    973    985     1   109.8000471 387.438400
    974    973    975     1   107.5800459 329.699200
    975    973    985     1   109.8000471 387.438400
    976    982    983     1   109.5600471 388.275200
    976    982    984     1   109.5600471 388.275200
    977    976    982     1   109.8000471 387.438400
    977    976    978     1   107.5800459 329.699200
    978    976    982     1   109.8000471 387.438400
    980    979    988     1   109.7800468 425.094400
    980    979    981     1   108.4600466 328.025600
    981    979    988     1   109.7800468 425.094400
    983    982   2008     1   109.7800468 425.094400
    983    982    984     1   108.4600466 328.025600
    984    982   2008     1   109.7800468 425.094400
    986    985   2038     1   109.7800468 425.094400
    986    985    987     1   108.4600466 328.025600
    987    985   2038     1   109.7800468 425.094400
    990    991    992     1   108.0100461 406.684800
    990    991    993     1   108.0100461 406.684800
    990    994    995     1   108.0100461 406.684800
    990    994    996     1   108.0100461 406.684800
    990    997    998     1   108.0100461 406.684800
    990    997    999     1   108.0100461 406.684800
    991    990   1019     1   110.1100470 384.091200
    991   1003   1004     1   109.8000471 387.438400
    991   1003   1005     1   109.8000471 387.438400
    992    991   1003     1   110.5600475 386.601600
    992    991    993     1   109.7500473 328.025600
    993    991   1003     1   110.5600475 386.601600
    994    990   1019     1   110.1100470 384.091200
    994   1006   1007     1   109.8000471 387.438400
    994   1006   1008     1   109.8000471 387.438400
    995    994   1006     1   110.5600475 386.601600
    995    994    996     1   109.7500473 328.025600
    996    994   1006     1   110.5600475 386.601600
    997    990   1019     1   110.1100470 384.091200
    997   1000   1001     1   109.8000471 387.438400
    997   1000   1002     1   109.8000471 387.438400
    998    997   1000     1   110.5600475 386.601600
    998    997    999     1   109.7500473 328.025600
    999    997   1000     1   110.5600475 386.601600
   1000   1009   1010     1   109.5600471 388.275200
   1000   1009   1011     1   109.5600471 388.275200
   1001   1000   1009     1   109.8000471 387.438400
   1001   1000   1002     1   107.5800459 329.699200
   1002   1000   1009     1   109.8000471 387.438400
   1003   1015   1016     1   109.5600471 388.275200
   1003   1015   1017     1   109.5600471 388.275200
   1004   1003   1015     1   109.8000471 387.438400
   1004   1003   1005     1   107.5800459 329.699200
   1005   1003   1015     1   109.8000471 387.438400
   1006   1012   1013     1   109.5600471 388.275200
   1006   1012   1014     1   109.5600471 388.275200
   1007   1006   1012     1   109.8000471 387.438400
   1007   1006   1008     1   107.5800459 329.699200
   1008   1006   1012     1   109.8000471 387.438400
   1010   1009   1018     1   109.7800468 425.094400
   1010   1009   1011     1   108.4600466 328.025600
   1011   1009   1018     1   109.7800468 425.094400
   1013   1012   2068     1   109.7800468 425.094400
   1013   1012   1014     1   108.4600466 328.025600
   1014   1012   2068     1   109.7800468 425.094400
   1016   1015   2098     1   109.7800468 425.094400
   1016   1015   1017     1   108.4600466 328.025600
   1017   1015   2098     1   109.7800468 425.094400
   1020   1021   1022     1   108.0100461 406.684800
   1020   1021   1023     1   108.0100461 406.684800
   1020   1024   1025     1   108.0100461 406.684800
   1020   1024   1026     1   108.0100461 406.684800
   1020   1027   1028     1   108.0100461 406.684800
   1020   1027   1029     1   108.0100461 406.684800
   1021   1020   1049     1   110.1100470 384.091200
   1021   1033   1034     1   109.8000471 387.438400
   1021   1033   1035     1   109.8000471 387.438400
   1022   1021   1033     1   110.5600475 386.601600
   1022   1021   1023     1   109.7500473 328.025600
   1023   1021   1033     1   110.5600475 386.601600
   1024   1020   1049     1   110.1100470 384.091200
   1024   1036   1037     1   109.8000471 387.438400
   1024   1036   1038     1   109.8000471 387.438400
   1025   1024   1036     1   110.5600475 386.601600
   1025   1024   1026     1   109.7500473 328.025600
   1026   1024   1036     1   110.5600475 386.601600
   1027   1020   1049     1   110.1100470 384.091200
   1027   1030   1031     1   109.8000471 387.438400
   1027   1030   1032     1   109.8000471 387.438400
   1028   1027   1030     1   110.5600475 386.601600
   1028   1027   1029     1   109.7500473 328.025600
   1029   1027   1030     1   110.5600475 386.601600
   1030   1039   1040     1   109.5600471 388.275200
   1030   1039   1041     1   109.5600471 388.275200
   1031   1030   1039     1   109.8000471 387.438400
   1031   1030   1032     1   107.5800459 329.699200
   1032   1030   1039     1   109.8000471 387.438400
   1033   1045   1046     1   109.5600471 388.275200
   1033   1045   1047     1   109.5600471 388.275200
   1034   1033   1045     1   109.8000471 387.438400
   1034   1033   1035     1   107.5800459 329.699200
   1035   1033   1045     1   109.8000471 387.438400
   1036   1042   1043     1   109.5600471 388.275200
   1036   1042   1044     1   109.5600471 388.275200
   1037   1036   1042     1   109.8000471 387.438400
   1037   1036   1038     1   107.5800459 329.699200
   1038   1036   1042     1   109.8000471 387.438400
   1040   1039   1048     1   109.7800468 425.094400
   1040   1039   1041     1   108.4600466 328.025600
   1041   1039   1048     1   109.7800468 425.094400
   1043   1042   2128     1   109.7800468 425.094400
   1043   1042   1044     1   108.4600466 328.025600
   1044   1042   2128     1   109.7800468 425.094400
   1046   1045   2158     1   109.7800468 425.094400
   1046   1045   1047     1   108.4600466 328.025600
   1047   1045   2158     1   109.7800468 425.094400
   1050   1051   1052     1   108.0100461 406.684800
   1050   1051   1053     1   108.0100461 406.684800
   1050   1054   1055     1   108.0100461 406.684800
   1050   1054   1056     1   108.0100461 406.684800
   1050   1057   1058     1   108.0100461 406.684800
   1050   1057   1059     1   108.0100461 406.684800
   1051   1050   1079     1   110.1100470 384.091200
   1051   1063   1064     1   109.8000471 387.438400
   1051   1063   1065     1   109.8000471 387.438400
   1052   1051   1063     1   110.5600475 386.601600
   1052   1051   1053     1   109.7500473 328.025600
   1053   1051   1063     1   110.5600475 386.601600
   1054   1050   1079     1   110.1100470 384.091200
   1054   1066   1067     1   109.8000471 387.438400
   1054   1066   1068     1   109.8000471 387.438400
   1055   1054   1066     1   110.5600475 386.601600
   1055   1054   1056     1   109.7500473 328.025600
   1056   1054   1066     1   110.5600475 386.601600
   1057   1050   1079     1   110.1100470 384.091200
   1057   1060   1061     1   109.8000471 387.438400
   1057   1060   1062     1   109.8000471 387.438400
   1058   1057   1060     1   110.5600475 386.601600
   1058   1057   1059     1   109.7500473 328.025600
   1059   1057   1060     1   110.5600475 386.601600
   1060   1069   1070     1   109.5600471 388.275200
   1060   1069   1071     1   109.5600471 388.275200
   1061   1060   1069     1   109.8000471 387.438400
   1061   1060   1062     1   107.5800459 329.699200
   1062   1060   1069     1   109.8000471 387.438400
   1063   1075   1076     1   109.5600471 388.275200
   1063   1075   1077     1   109.5600471 388.275200
   1064   1063   1075     1   109.8000471 387.438400
   1064   1063   1065     1   107.5800459 329.699200
   1065   1063   1075     1   109.8000471 387.438400
   1066   1072   1073     1   109.5600471 388.275200
   1066   1072   1074     1   109.5600471 388.275200
   1067   1066   1072     1   109.8000471 387.438400
   1067   1066   1068     1   107.5800459 329.699200
   1068   1066   1072     1   109.8000471 387.438400
   1070   1069   1078     1   109.7800468 425.094400
   1070   1069   1071     1   108.4600466 328.025600
   1071   1069   1078     1   109.7800468 425.094400
   1073   1072   2188     1   109.7800468 425.094400
   1073   1072   1074     1   108.4600466 328.025600
   1074   1072   2188     1   109.7800468 425.094400
   1076   1075   2218     1   109.7800468 425.094400
   1076   1075   1077     1   108.4600466 328.025600
   1077   1075   2218     1   109.7800468 425.094400
   1080   1081   1082     1   108.0100461 406.684800
   1080   1081   1083     1   108.0100461 406.684800
   1080   1084   1085     1   108.0100461 406.684800
   1080   1084   1086     1   108.0100461 406.684800
   1080   1087   1088     1   108.0100461 406.684800
   1080   1087   1089     1   108.0100461 406.684800
   1081   1080   1109     1   110.1100470 384.091200
   1081   1093   1094     1   109.8000471 387.438400
   1081   1093   1095     1   109.8000471 387.438400
   1082   1081   1093     1   110.5600475 386.601600
   1082   1081   1083     1   109.7500473 328.025600
   1083   1081   1093     1   110.5600475 386.601600
   1084   1080   1109     1   110.1100470 384.091200
   1084   1096   1097     1   109.8000471 387.438400
   1084   1096   1098     1   109.8000471 387.438400
   1085   1084   1096     1   110.5600475 386.601600
   1085   1084   1086     1   109.7500473 328.025600
   1086   1084   1096     1   110.5600475 386.601600
   1087   1080   1109     1   110.1100470 384.091200
   1087   1090   1091     1   109.8000471 387.438400
   1087   1090   1092     1   109.8000471 387.438400
   1088   1087   1090     1   110.5600475 386.601600
   1088   1087   1089     1   109.7500473 328.025600
   1089   1087   1090     1   110.5600475 386.601600
   1090   1099   1100     1   109.5600471 388.275200
   1090   1099   1101     1   109.5600471 388.275200
   1091   1090   1099     1   109.8000471 387.438400
   1091   1090   1092     1   107.5800459 329.699200
   1092   1090   1099     1   109.8000471 387.438400
   1093   1105   1106     1   109.5600471 388.275200
   1093   1105   1107     1   109.5600471 388.275200
   1094   1093   1105     1   109.8000471 387.438400
   1094   1093   1095     1   107.5800459 329.699200
   1095   1093   1105     1   109.8000471 387.438400
   1096   1102   1103     1   109.5600471 388.275200
   1096   1102   1104     1   109.5600471 388.275200
   1097   1096   1102     1   109.8000471 387.438400
   1097   1096   1098     1   107.5800459 329.699200
   1098   1096   1102     1   109.8000471 387.438400
   1100   1099   1108     1   109.7800468 425.094400
   1100   1099   1101     1   108.4600466 328.025600
   1101   1099   1108     1   109.7800468 425.094400
   1103   1102   2248     1   109.7800468 425.094400
   1103   1102   1104     1   108.4600466 328.025600
   1104   1102   2248     1   109.7800468 425.094400
   1106   1105   2278     1   109.7800468 425.094400
   1106   1105   1107     1   108.4600466 328.025600
   1107   1105   2278     1   109.7800468 425.094400
   1110   1111   1112     1   108.0100461 406.684800
   1110   1111   1113     1   108.0100461 406.684800
   1110   1114   1115     1   108.0100461 406.684800
   1110   1114   1116     1   108.0100461 406.684800
   1110   1117   1118     1   108.0100461 406.684800
   1110   1117   1119     1   108.0100461 406.684800
   1111   1110   1139     1   110.1100470 384.091200
   1111   1123   1124     1   109.8000471 387.438400
   1111   1123   1125     1   109.8000471 387.438400
   1112   1111   1123     1   110.5600475 386.601600
   1112   1111   1113     1   109.7500473 328.025600
   1113   1111   1123     1   110.5600475 386.601600
   1114   1110   1139     1   110.1100470 384.091200
   1114   1126   1127     1   109.8000471 387.438400
   1114   1126   1128     1   109.8000471 387.438400
   1115   1114   1126     1   110.5600475 386.601600
   1115   1114   1116     1   109.7500473 328.025600
   1116   1114   1126     1   110.5600475 386.601600
   1117   1110   1139     1   110.1100470 384.091200
   1117   1120   1121     1   109.8000471 387.438400
   1117   1120   1122     1   109.8000471 387.438400
   1118   1117   1120     1   110.5600475 386.601600
   1118   1117   1119     1   109.7500473 328.025600
   1119   1117   1120     1   110.5600475 386.601600
   1120   1129   1130     1   109.5600471 388.275200
   1120   1129   1131     1   109.5600471 388.275200
   1121   1120   1129     1   109.8000471 387.438400
   1121   1120   1122     1   107.5800459 329.699200
   1122   1120   1129     1   109.8000471 387.438400
   1123   1135   1136     1   109.5600471 388.275200
   1123   1135   1137     1   109.5600471 388.275200
   1124   1123   1135     1   109.8000471 387.438400
   1124   1123   1125     1   107.5800459 329.699200
   1125   1123   1135     1   109.8000471 387.438400
   1126   1132   1133     1   109.5600471 388.275200
   1126   1132   1134     1   109.5600471 388.275200
   1127   1126   1132     1   109.8000471 387.438400
   1127   1126   1128     1   107.5800459 329.699200
   1128   1126   1132     1   109.8000471 387.438400
   1130   1129   1138     1   109.7800468 425.094400
   1130   1129   1131     1   108.4600466 328.025600
   1131   1129   1138     1   109.7800468 425.094400
   1133   1132   2308     1   109.7800468 425.094400
   1133   1132   1134     1   108.4600466 328.025600
   1134   1132   2308     1   109.7800468 425.094400
   1136   1135   2338     1   109.7800468 425.094400
   1136   1135   1137     1   108.4600466 328.025600
   1137   1135   2338     1   109.7800468 425.094400
   1140   1141   1142     1   108.0100461 406.684800
   1140   1141   1143     1   108.0100461 406.684800
   1140   1144   1145     1   108.0100461 406.684800
   1140   1144   1146     1   108.0100461 406.684800
   1140   1147   1148     1   108.0100461 406.684800
   1140   1147   1149     1   108.0100461 406.684800
   1141   1140   1169     1   110.1100470 384.091200
   1141   1153   1154     1   109.8000471 387.438400
   1141   1153   1155     1   109.8000471 387.438400
   1142   1141   1153     1   110.5600475 386.601600
   1142   1141   1143     1   109.7500473 328.025600
   1143   1141   1153     1   110.5600475 386.601600
   1144   1140   1169     1   110.1100470 384.091200
   1144   1156   1157     1   109.8000471 387.438400
   1144   1156   1158     1   109.8000471 387.438400
   1145   1144   1156     1   110.5600475 386.601600
   1145   1144   1146     1   109.7500473 328.025600
   1146   1144   1156     1   110.5600475 386.601600
   1147   1140   1169     1   110.1100470 384.091200
   1147   1150   1151     1   109.8000471 387.438400
   1147   1150   1152     1   109.8000471 387.438400
   1148   1147   1150     1   110.5600475 386.601600
   1148   1147   1149     1   109.7500473 328.025600
   1149   1147   1150     1   110.5600475 386.601600
   1150   1159   1160     1   109.5600471 388.275200
   1150   1159   1161     1   109.5600471 388.275200
   1151   1150   1159     1   109.8000471 387.438400
   1151   1150   1152     1   107.5800459 329.699200
   1152   1150   1159     1   109.8000471 387.438400
   1153   1165   1166     1   109.5600471 388.275200
   1153   1165   1167     1   109.5600471 388.275200
   1154   1153   1165     1   109.8000471 387.438400
   1154   1153   1155     1   107.5800459 329.699200
   1155   1153   1165     1   109.8000471 387.438400
   1156   1162   1163     1   109.5600471 388.275200
   1156   1162   1164     1   109.5600471 388.275200
   1157   1156   1162     1   109.8000471 387.438400
   1157   1156   1158     1   107.5800459 329.699200
   1158   1156   1162     1   109.8000471 387.438400
   1160   1159   1168     1   109.7800468 425.094400
   1160   1159   1161     1   108.4600466 328.025600
   1161   1159   1168     1   109.7800468 425.094400
   1163   1162   2368     1   109.7800468 425.094400
   1163   1162   1164     1   108.4600466 328.025600
   1164   1162   2368     1   109.7800468 425.094400
   1166   1165   2398     1   109.7800468 425.094400
   1166   1165   1167     1   108.4600466 328.025600
   1167   1165   2398     1   109.7800468 425.094400
   1170   1171   1172     1   108.0100461 406.684800
   1170   1171   1173     1   108.0100461 406.684800
   1170   1174   1175     1   108.0100461 406.684800
   1170   1174   1176     1   108.0100461 406.684800
   1170   1177   1178     1   108.0100461 406.684800
   1170   1177   1179     1   108.0100461 406.684800
   1171   1170   1199     1   110.1100470 384.091200
   1171   1183   1184     1   109.8000471 387.438400
   1171   1183   1185     1   109.8000471 387.438400
   1172   1171   1183     1   110.5600475 386.601600
   1172   1171   1173     1   109.7500473 328.025600
   1173   1171   1183     1   110.5600475 386.601600
   1174   1170   1199     1   110.1100470 384.091200
   1174   1186   1187     1   109.8000471 387.438400
   1174   1186   1188     1   109.8000471 387.438400
   1175   1174   1186     1   110.5600475 386.601600
   1175   1174   1176     1   109.7500473 328.025600
   1176   1174   1186     1   110.5600475 386.601600
   1177   1170   1199     1   110.1100470 384.091200
   1177   1180   1181     1   109.8000471 387.438400
   1177   1180   1182     1   109.8000471 387.438400
   1178   1177   1180     1   110.5600475 386.601600
   1178   1177   1179     1   109.7500473 328.025600
   1179   1177   1180     1   110.5600475 386.601600
   1180   1189   1190     1   109.5600471 388.275200
   1180   1189   1191     1   109.5600471 388.275200
   1181   1180   1189     1   109.8000471 387.438400
   1181   1180   1182     1   107.5800459 329.699200
   1182   1180   1189     1   109.8000471 387.438400
   1183   1195   1196     1   109.5600471 388.275200
   1183   1195   1197     1   109.5600471 388.275200
   1184   1183   1195     1   109.8000471 387.438400
   1184   1183   1185     1   107.5800459 329.699200
   1185   1183   1195     1   109.8000471 387.438400
   1186   1192   1193     1   109.5600471 388.275200
   1186   1192   1194     1   109.5600471 388.275200
   1187   1186   1192     1   109.8000471 387.438400
   1187   1186   1188     1   107.5800459 329.699200
   1188   1186   1192     1   109.8000471 387.438400
   1190   1189   1198     1   109.7800468 425.094400
   1190   1189   1191     1   108.4600466 328.025600
   1191   1189   1198     1   109.7800468 425.094400
   1193   1192   2428     1   109.7800468 425.094400
   1193   1192   1194     1   108.4600466 328.025600
   1194   1192   2428     1   109.7800468 425.094400
   1196   1195   2458     1   109.7800468 425.094400
   1196   1195   1197     1   108.4600466 328.025600
   1197   1195   2458     1   109.7800468 425.094400
   1200   1201   1202     1   108.0100461 406.684800
   1200   1201   1203     1   108.0100461 406.684800
   1200   1204   1205     1   108.0100461 406.684800
   1200   1204   1206     1   108.0100461 406.684800
   1200   1207   1208     1   108.0100461 406.684800
   1200   1207   1209     1   108.0100461 406.684800
   1201   1200   1229     1   110.1100470 384.091200
   1201   1213   1214     1   109.8000471 387.438400
   1201   1213   1215     1   109.8000471 387.438400
   1202   1201   1213     1   110.5600475 386.601600
   1202   1201   1203     1   109.7500473 328.025600
   1203   1201   1213     1   110.5600475 386.601600
   1204   1200   1229     1   110.1100470 384.091200
   1204   1216   1217     1   109.8000471 387.438400
   1204   1216   1218     1   109.8000471 387.438400
   1205   1204   1216     1   110.5600475 386.601600
   1205   1204   1206     1   109.7500473 328.025600
   1206   1204   1216     1   110.5600475 386.601600
   1207   1200   1229     1   110.1100470 384.091200
   1207   1210   1211     1   109.8000471 387.438400
   1207   1210   1212     1   109.8000471 387.438400
   1208   1207   1210     1   110.5600475 386.601600
   1208   1207   1209     1   109.7500473 328.025600
   1209   1207   1210     1   110.5600475 386.601600
   1210   1219   1220     1   109.5600471 388.275200
   1210   1219   1221     1   109.5600471 388.275200
   1211   1210   1219     1   109.8000471 387.438400
   1211   1210   1212     1   107.5800459 329.699200
   1212   1210   1219     1   109.8000471 387.438400
   1213   1225   1226     1   109.5600471 388.275200
   1213   1225   1227     1   109.5600471 388.275200
   1214   1213   1225     1   109.8000471 387.438400
   1214   1213   1215     1   107.5800459 329.699200
   1215   1213   1225     1   109.8000471 387.438400
   1216   1222   1223     1   109.5600471 388.275200
   1216   1222   1224     1   109.5600471 388.275200
   1217   1216   1222     1   109.8000471 387.438400
   1217   1216   1218     1   107.5800459 329.699200
   1218   1216   1222     1   109.8000471 387.438400
   1220   1219   1228     1   109.7800468 425.094400
   1220   1219   1221     1   108.4600466 328.025600
   1221   1219   1228     1   109.7800468 425.094400
   1223   1222   2488     1   109.7800468 425.094400
   1223   1222   1224     1   108.4600466 328.025600
   1224   1222   2488     1   109.7800468 425.094400
   1226   1225   2518     1   109.7800468 425.094400
   1226   1225   1227     1   108.4600466 328.025600
   1227   1225   2518     1   109.7800468 425.094400
   1230   1231   1232     1   108.0100461 406.684800
   1230   1231   1233     1   108.0100461 406.684800
   1230   1234   1235     1   108.0100461 406.684800
   1230   1234   1236     1   108.0100461 406.684800
   1230   1237   1238     1   108.0100461 406.684800
   1230   1237   1239     1   108.0100461 406.684800
   1231   1230   1259     1   110.1100470 384.091200
   1231   1243   1244     1   109.8000471 387.438400
   1231   1243   1245     1   109.8000471 387.438400
   1232   1231   1243     1   110.5600475 386.601600
   1232   1231   1233     1   109.7500473 328.025600
   1233   1231   1243     1   110.5600475 386.601600
   1234   1230   1259     1   110.1100470 384.091200
   1234   1246   1247     1   109.8000471 387.438400
   1234   1246   1248     1   109.8000471 387.438400
   1235   1234   1246     1   110.5600475 386.601600
   1235   1234   1236     1   109.7500473 328.025600
   1236   1234   1246     1   110.5600475 386.601600
   1237   1230   1259     1   110.1100470 384.091200
   1237   1240   1241     1   109.8000471 387.438400
   1237   1240   1242     1   109.8000471 387.438400
   1238   1237   1240     1   110.5600475 386.601600
   1238   1237   1239     1   109.7500473 328.025600
   1239   1237   1240     1   110.5600475 386.601600
   1240   1249   1250     1   109.5600471 388.275200
   1240   1249   1251     1   109.5600471 388.275200
   1241   1240   1249     1   109.8000471 387.438400
   1241   1240   1242     1   107.5800459 329.699200
   1242   1240   1249     1   109.8000471 387.438400
   1243   1255   1256     1   109.5600471 388.275200
   1243   1255   1257     1   109.5600471 388.275200
   1244   1243   1255     1   109.8000471 387.438400
   1244   1243   1245     1   107.5800459 329.699200
   1245   1243   1255     1   109.8000471 387.438400
   1246   1252   1253     1   109.5600471 388.275200
   1246   1252   1254     1   109.5600471 388.275200
   1247   1246   1252     1   109.8000471 387.438400
   1247   1246   1248     1   107.5800459 329.699200
   1248   1246   1252     1   109.8000471 387.438400
   1250   1249   1258     1   109.7800468 425.094400
   1250   1249   1251     1   108.4600466 328.025600
   1251   1249   1258     1   109.7800468 425.094400
   1253   1252   2548     1   109.7800468 425.094400
   1253   1252   1254     1   108.4600466 328.025600
   1254   1252   2548     1   109.7800468 425.094400
   1256   1255   2578     1   109.7800468 425.094400
   1256   1255   1257     1   108.4600466 328.025600
   1257   1255   2578     1   109.7800468 425.094400
   1260   1261   1262     1   108.0100461 406.684800
   1260   1261   1263     1   108.0100461 406.684800
   1260   1264   1265     1   108.0100461 406.684800
   1260   1264   1266     1   108.0100461 406.684800
   1260   1267   1268     1   108.0100461 406.684800
   1260   1267   1269     1   108.0100461 406.684800
   1261   1260   1289     1   110.1100470 384.091200
   1261   1273   1274     1   109.8000471 387.438400
   1261   1273   1275     1   109.8000471 387.438400
   1262   1261   1273     1   110.5600475 386.601600
   1262   1261   1263     1   109.7500473 328.025600
   1263   1261   1273     1   110.5600475 386.601600
   1264   1260   1289     1   110.1100470 384.091200
   1264   1276   1277     1   109.8000471 387.438400
   1264   1276   1278     1   109.8000471 387.438400
   1265   1264   1276     1   110.5600475 386.601600
   1265   1264   1266     1   109.7500473 328.025600
   1266   1264   1276     1   110.5600475 386.601600
   1267   1260   1289     1   110.1100470 384.091200
   1267   1270   1271     1   109.8000471 387.438400
   1267   1270   1272     1   109.8000471 387.438400
   1268   1267   1270     1   110.5600475 386.601600
   1268   1267   1269     1   109.7500473 328.025600
   1269   1267   1270     1   110.5600475 386.601600
   1270   1279   1280     1   109.5600471 388.275200
   1270   1279   1281     1   109.5600471 388.275200
   1271   1270   1279     1   109.8000471 387.438400
   1271   1270   1272     1   107.5800459 329.699200
   1272   1270   1279     1   109.8000471 387.438400
   1273   1285   1286     1   109.5600471 388.275200
   1273   1285   1287     1   109.5600471 388.275200
   1274   1273   1285     1   109.8000471 387.438400
   1274   1273   1275     1   107.5800459 329.699200
   1275   1273   1285     1   109.8000471 387.438400
   1276   1282   1283     1   109.5600471 388.275200
   1276   1282   1284     1   109.5600471 388.275200
   1277   1276   1282     1   109.8000471 387.438400
   1277   1276   1278     1   107.5800459 329.699200
   1278   1276   1282     1   109.8000471 387.438400
   1280   1279   1288     1   109.7800468 425.094400
   1280   1279   1281     1   108.4600466 328.025600
   1281   1279   1288     1   109.7800468 425.094400
   1283   1282   2608     1   109.7800468 425.094400
   1283   1282   1284     1   108.4600466 328.025600
   1284   1282   2608     1   109.7800468 425.094400
   1286   1285   2638     1   109.7800468 425.094400
   1286   1285   1287     1   108.4600466 328.025600
   1287   1285   2638     1   109.7800468 425.094400
   1290   1291   1292     1   108.0100461 406.684800
   1290   1291   1293     1   108.0100461 406.684800
   1290   1294   1295     1   108.0100461 406.684800
   1290   1294   1296     1   108.0100461 406.684800
   1290   1297   1298     1   108.0100461 406.684800
   1290   1297   1299     1   108.0100461 406.684800
   1291   1290   1319     1   110.1100470 384.091200
   1291   1303   1304     1   109.8000471 387.438400
   1291   1303   1305     1   109.8000471 387.438400
   1292   1291   1303     1   110.5600475 386.601600
   1292   1291   1293     1   109.7500473 328.025600
   1293   1291   1303     1   110.5600475 386.601600
   1294   1290   1319     1   110.1100470 384.091200
   1294   1306   1307     1   109.8000471 387.438400
   1294   1306   1308     1   109.8000471 387.438400
   1295   1294   1306     1   110.5600475 386.601600
   1295   1294   1296     1   109.7500473 328.025600
   1296   1294   1306     1   110.5600475 386.601600
   1297   1290   1319     1   110.1100470 384.091200
   1297   1300   1301     1   109.8000471 387.438400
   1297   1300   1302     1   109.8000471 387.438400
   1298   1297   1300     1   110.5600475 386.601600
   1298   1297   1299     1   109.7500473 328.025600
   1299   1297   1300     1   110.5600475 386.601600
   1300   1309   1310     1   109.5600471 388.275200
   1300   1309   1311     1   109.5600471 388.275200
   1301   1300   1309     1   109.8000471 387.438400
   1301   1300   1302     1   107.5800459 329.699200
   1302   1300   1309     1   109.8000471 387.438400
   1303   1315   1316     1   109.5600471 388.275200
   1303   1315   1317     1   109.5600471 388.275200
   1304   1303   1315     1   109.8000471 387.438400
   1304   1303   1305     1   107.5800459 329.699200
   1305   1303   1315     1   109.8000471 387.438400
   1306   1312   1313     1   109.5600471 388.275200
   1306   1312   1314     1   109.5600471 388.275200
   1307   1306   1312     1   109.8000471 387.438400
   1307   1306   1308     1   107.5800459 329.699200
   1308   1306   1312     1   109.8000471 387.438400
   1310   1309   1318     1   109.7800468 425.094400
   1310   1309   1311     1   108.4600466 328.025600
   1311   1309   1318     1   109.7800468 425.094400
   1313   1312   2668     1   109.7800468 425.094400
   1313   1312   1314     1   108.4600466 328.025600
   1314   1312   2668     1   109.7800468 425.094400
   1316   1315   2698     1   109.7800468 425.094400
   1316   1315   1317     1   108.4600466 328.025600
   1317   1315   2698     1   109.7800468 425.094400
   1320   1321   1322     1   108.0100461 406.684800
   1320   1321   1323     1   108.0100461 406.684800
   1320   1324   1325     1   108.0100461 406.684800
   1320   1324   1326     1   108.0100461 406.684800
   1320   1327   1328     1   108.0100461 406.684800
   1320   1327   1329     1   108.0100461 406.684800
   1321   1320   1349     1   110.1100470 384.091200
   1321   1333   1334     1   109.8000471 387.438400
   1321   1333   1335     1   109.8000471 387.438400
   1322   1321   1333     1   110.5600475 386.601600
   1322   1321   1323     1   109.7500473 328.025600
   1323   1321   1333     1   110.5600475 386.601600
   1324   1320   1349     1   110.1100470 384.091200
   1324   1336   1337     1   109.8000471 387.438400
   1324   1336   1338     1   109.8000471 387.438400
   1325   1324   1336     1   110.5600475 386.601600
   1325   1324   1326     1   109.7500473 328.025600
   1326   1324   1336     1   110.5600475 386.601600
   1327   1320   1349     1   110.1100470 384.091200
   1327   1330   1331     1   109.8000471 387.438400
   1327   1330   1332     1   109.8000471 387.438400
   1328   1327   1330     1   110.5600475 386.601600
   1328   1327   1329     1   109.7500473 328.025600
   1329   1327   1330     1   110.5600475 386.601600
   1330   1339   1340     1   109.5600471 388.275200
   1330   1339   1341     1   109.5600471 388.275200
   1331   1330   1339     1   109.8000471 387.438400
   1331   1330   1332     1   107.5800459 329.699200
   1332   1330   1339     1   109.8000471 387.438400
   1333   1345   1346     1   109.5600471 388.275200
   1333   1345   1347     1   109.5600471 388.275200
   1334   1333   1345     1   109.8000471 387.438400
   1334   1333   1335     1   107.5800459 329.699200
   1335   1333   1345     1   109.8000471 387.438400
   1336   1342   1343     1   109.5600471 388.275200
   1336   1342   1344     1   109.5600471 388.275200
   1337   1336   1342     1   109.8000471 387.438400
   1337   1336   1338     1   107.5800459 329.699200
   1338   1336   1342     1   109.8000471 387.438400
   1340   1339   1348     1   109.7800468 425.094400
   1340   1339   1341     1   108.4600466 328.025600
   1341   1339   1348     1   109.7800468 425.094400
   1343   1342   2728     1   109.7800468 425.094400
   1343   1342   1344     1   108.4600466 328.025600
   1344   1342   2728     1   109.7800468 425.094400
   1346   1345   2758     1   109.7800468 425.094400
   1346   1345   1347     1   108.4600466 328.025600
   1347   1345   2758     1   109.7800468 425.094400
   1350   1351   1352     1   108.0100461 406.684800
   1350   1351   1353     1   108.0100461 406.684800
   1350   1354   1355     1   108.0100461 406.684800
   1350   1354   1356     1   108.0100461 406.684800
   1350   1357   1358     1   108.0100461 406.684800
   1350   1357   1359     1   108.0100461 406.684800
   1351   1350   1379     1   110.1100470 384.091200
   1351   1363   1364     1   109.8000471 387.438400
   1351   1363   1365     1   109.8000471 387.438400
   1352   1351   1363     1   110.5600475 386.601600
   1352   1351   1353     1   109.7500473 328.025600
   1353   1351   1363     1   110.5600475 386.601600
   1354   1350   1379     1   110.1100470 384.091200
   1354   1366   1367     1   109.8000471 387.438400
   1354   1366   1368     1   109.8000471 387.438400
   1355   1354   1366     1   110.5600475 386.601600
   1355   1354   1356     1   109.7500473 328.025600
   1356   1354   1366     1   110.5600475 386.601600
   1357   1350   1379     1   110.1100470 384.091200
   1357   1360   1361     1   109.8000471 387.438400
   1357   1360   1362     1   109.8000471 387.438400
   1358   1357   1360     1   110.5600475 386.601600
   1358   1357   1359     1   109.7500473 328.025600
   1359   1357   1360     1   110.5600475 386.601600
   1360   1369   1370     1   109.5600471 388.275200
   1360   1369   1371     1   109.5600471 388.275200
   1361   1360   1369     1   109.8000471 387.438400
   1361   1360   1362     1   107.5800459 329.699200
   1362   1360   1369     1   109.8000471 387.438400
   1363   1375   1376     1   109.5600471 388.275200
   1363   1375   1377     1   109.5600471 388.275200
   1364   1363   1375     1   109.8000471 387.438400
   1364   1363   1365     1   107.5800459 329.699200
   1365   1363   1375     1   109.8000471 387.438400
   1366   1372   1373     1   109.5600471 388.275200
   1366   1372   1374     1   109.5600471 388.275200
   1367   1366   1372     1   109.8000471 387.438400
   1367   1366   1368     1   107.5800459 329.699200
   1368   1366   1372     1   109.8000471 387.438400
   1370   1369   1378     1   109.7800468 425.094400
   1370   1369   1371     1   108.4600466 328.025600
   1371   1369   1378     1   109.7800468 425.094400
   1373   1372   2788     1   109.7800468 425.094400
   1373   1372   1374     1   108.4600466 328.025600
   1374   1372   2788     1   109.7800468 425.094400
   1376   1375   2818     1   109.7800468 425.094400
   1376   1375   1377     1   108.4600466 328.025600
   1377   1375   2818     1   109.7800468 425.094400
   1380   1381   1382     1   108.0100461 406.684800
   1380   1381   1383     1   108.0100461 406.684800
   1380   1384   1385     1   108.0100461 406.684800
   1380   1384   1386     1   108.0100461 406.684800
   1380   1387   1388     1   108.0100461 406.684800
   1380   1387   1389     1   108.0100461 406.684800
   1381   1380   1409     1   110.1100470 384.091200
   1381   1393   1394     1   109.8000471 387.438400
   1381   1393   1395     1   109.8000471 387.438400
   1382   1381   1393     1   110.5600475 386.601600
   1382   1381   1383     1   109.7500473 328.025600
   1383   1381   1393     1   110.5600475 386.601600
   1384   1380   1409     1   110.1100470 384.091200
   1384   1396   1397     1   109.8000471 387.438400
   1384   1396   1398     1   109.8000471 387.438400
   1385   1384   1396     1   110.5600475 386.601600
   1385   1384   1386     1   109.7500473 328.025600
   1386   1384   1396     1   110.5600475 386.601600
   1387   1380   1409     1   110.1100470 384.091200
   1387   1390   1391     1   109.8000471 387.438400
   1387   1390   1392     1   109.8000471 387.438400
   1388   1387   1390     1   110.5600475 386.601600
   1388   1387   1389     1   109.7500473 328.025600
   1389   1387   1390     1   110.5600475 386.601600
   1390   1399   1400     1   109.5600471 388.275200
   1390   1399   1401     1   109.5600471 388.275200
   1391   1390   1399     1   109.8000471 387.438400
   1391   1390   1392     1   107.5800459 329.699200
   1392   1390   1399     1   109.8000471 387.438400
   1393   1405   1406     1   109.5600471 388.275200
   1393   1405   1407     1   109.5600471 388.275200
   1394   1393   1405     1   109.8000471 387.438400
   1394   1393   1395     1   107.5800459 329.699200
   1395   1393   1405     1   109.8000471 387.438400
   1396   1402   1403     1   109.5600471 388.275200
   1396   1402   1404     1   109.5600471 388.275200
   1397   1396   1402     1   109.8000471 387.438400
   1397   1396   1398     1   107.5800459 329.699200
   1398   1396   1402     1   109.8000471 387.438400
   1400   1399   1408     1   109.7800468 425.094400
   1400   1399   1401     1   108.4600466 328.025600
   1401   1399   1408     1   109.7800468 425.094400
   1403   1402   2848     1   109.7800468 425.094400
   1403   1402   1404     1   108.4600466 328.025600
   1404   1402   2848     1   109.7800468 425.094400
   1406   1405   2878     1   109.7800468 425.094400
   1406   1405   1407     1   108.4600466 328.025600
   1407   1405   2878     1   109.7800468 425.094400
   1410   1411   1412     1   108.0100461 406.684800
   1410   1411   1413     1   108.0100461 406.684800
   1410   1414   1415     1   108.0100461 406.684800
   1410   1414   1416     1   108.0100461 406.684800
   1410   1417   1418     1   108.0100461 406.684800
   1410   1417   1419     1   108.0100461 406.684800
   1411   1410   1439     1   110.1100470 384.091200
   1411   1423   1424     1   109.8000471 387.438400
   1411   1423   1425     1   109.8000471 387.438400
   1412   1411   1423     1   110.5600475 386.601600
   1412   1411   1413     1   109.7500473 328.025600
   1413   1411   1423     1   110.5600475 386.601600
   1414   1410   1439     1   110.1100470 384.091200
   1414   1426   1427     1   109.8000471 387.438400
   1414   1426   1428     1   109.8000471 387.438400
   1415   1414   1426     1   110.5600475 386.601600
   1415   1414   1416     1   109.7500473 328.025600
   1416   1414   1426     1   110.5600475 386.601600
   1417   1410   1439     1   110.1100470 384.091200
   1417   1420   1421     1   109.8000471 387.438400
   1417   1420   1422     1   109.8000471 387.438400
   1418   1417   1420     1   110.5600475 386.601600
   1418   1417   1419     1   109.7500473 328.025600
   1419   1417   1420     1   110.5600475 386.601600
   1420   1429   1430     1   109.5600471 388.275200
   1420   1429   1431     1   109.5600471 388.275200
   1421   1420   1429     1   109.8000471 387.438400
   1421   1420   1422     1   107.5800459 329.699200
   1422   1420   1429     1   109.8000471 387.438400
   1423   1435   1436     1   109.5600471 388.275200
   1423   1435   1437     1   109.5600471 388.275200
   1424   1423   1435     1   109.8000471 387.438400
   1424   1423   1425     1   107.5800459 329.699200
   1425   1423   1435     1   109.8000471 387.438400
   1426   1432   1433     1   109.5600471 388.275200
   1426   1432   1434     1   109.5600471 388.275200
   1427   1426   1432     1   109.8000471 387.438400
   1427   1426   1428     1   107.5800459 329.699200
   1428   1426   1432     1   109.8000471 387.438400
   1430   1429   1438     1   109.7800468 425.094400
   1430   1429   1431     1   108.4600466 328.025600
   1431   1429   1438     1   109.7800468 425.094400
   1433   1432   2908     1   109.7800468 425.094400
   1433   1432   1434     1   108.4600466 328.025600
   1434   1432   2908     1   109.7800468 425.094400
   1436   1435   2938     1   109.7800468 425.094400
   1436   1435   1437     1   108.4600466 328.025600
   1437   1435   2938     1   109.7800468 425.094400
   1440   1441   1442     1   108.0100461 406.684800
   1440   1441   1443     1   108.0100461 406.684800
   1440   1444   1445     1   108.0100461 406.684800
   1440   1444   1446     1   108.0100461 406.684800
   1440   1447   1448     1   108.0100461 406.684800
   1440   1447   1449     1   108.0100461 406.684800
   1441   1440   1469     1   110.1100470 384.091200
   1441   1453   1454     1   109.8000471 387.438400
   1441   1453   1455     1   109.8000471 387.438400
   1442   1441   1453     1   110.5600475 386.601600
   1442   1441   1443     1   109.7500473 328.025600
   1443   1441   1453     1   110.5600475 386.601600
   1444   1440   1469     1   110.1100470 384.091200
   1444   1456   1457     1   109.8000471 387.438400
   1444   1456   1458     1   109.8000471 387.438400
   1445   1444   1456     1   110.5600475 386.601600
   1445   1444   1446     1   109.7500473 328.025600
   1446   1444   1456     1   110.5600475 386.601600
   1447   1440   1469     1   110.1100470 384.091200
   1447   1450   1451     1   109.8000471 387.438400
   1447   1450   1452     1   109.8000471 387.438400
   1448   1447   1450     1   110.5600475 386.601600
   1448   1447   1449     1   109.7500473 328.025600
   1449   1447   1450     1   110.5600475 386.601600
   1450   1459   1460     1   109.5600471 388.275200
   1450   1459   1461     1   109.5600471 388.275200
   1451   1450   1459     1   109.8000471 387.438400
   1451   1450   1452     1   107.5800459 329.699200
   1452   1450   1459     1   109.8000471 387.438400
   1453   1465   1466     1   109.5600471 388.275200
   1453   1465   1467     1   109.5600471 388.275200
   1454   1453   1465     1   109.8000471 387.438400
   1454   1453   1455     1   107.5800459 329.699200
   1455   1453   1465     1   109.8000471 387.438400
   1456   1462   1463     1   109.5600471 388.275200
   1456   1462   1464     1   109.5600471 388.275200
   1457   1456   1462     1   109.8000471 387.438400
   1457   1456   1458     1   107.5800459 329.699200
   1458   1456   1462     1   109.8000471 387.438400
   1460   1459   1468     1   109.7800468 425.094400
   1460   1459   1461     1   108.4600466 328.025600
   1461   1459   1468     1   109.7800468 425.094400
   1463   1462   2968     1   109.7800468 425.094400
   1463   1462   1464     1   108.4600466 328.025600
   1464   1462   2968     1   109.7800468 425.094400
   1466   1465   2998     1   109.7800468 425.094400
   1466   1465   1467     1   108.4600466 328.025600
   1467   1465   2998     1   109.7800468 425.094400
   1470   1471   1472     1   108.0100461 406.684800
   1470   1471   1473     1   108.0100461 406.684800
   1470   1474   1475     1   108.0100461 406.684800
   1470   1474   1476     1   108.0100461 406.684800
   1470   1477   1478     1   108.0100461 406.684800
   1470   1477   1479     1   108.0100461 406.684800
   1471   1470   1499     1   110.1100470 384.091200
   1471   1483   1484     1   109.8000471 387.438400
   1471   1483   1485     1   109.8000471 387.438400
   1472   1471   1483     1   110.5600475 386.601600
   1472   1471   1473     1   109.7500473 328.025600
   1473   1471   1483     1   110.5600475 386.601600
   1474   1470   1499     1   110.1100470 384.091200
   1474   1486   1487     1   109.8000471 387.438400
   1474   1486   1488     1   109.8000471 387.438400
   1475   1474   1486     1   110.5600475 386.601600
   1475   1474   1476     1   109.7500473 328.025600
   1476   1474   1486     1   110.5600475 386.601600
   1477   1470   1499     1   110.1100470 384.091200
   1477   1480   1481     1   109.8000471 387.438400
   1477   1480   1482     1   109.8000471 387.438400
   1478   1477   1480     1   110.5600475 386.601600
   1478   1477   1479     1   109.7500473 328.025600
   1479   1477   1480     1   110.5600475 386.601600
   1480   1489   1490     1   109.5600471 388.275200
   1480   1489   1491     1   109.5600471 388.275200
   1481   1480   1489     1   109.8000471 387.438400
   1481   1480   1482     1   107.5800459 329.699200
   1482   1480   1489     1   109.8000471 387.438400
   1483   1495   1496     1   109.5600471 388.275200
   1483   1495   1497     1   109.5600471 388.275200
   1484   1483   1495     1   109.8000471 387.438400
   1484   1483   1485     1   107.5800459 329.699200
   1485   1483   1495     1   109.8000471 387.438400
   1486   1492   1493     1   109.5600471 388.275200
   1486   1492   1494     1   109.5600471 388.275200
   1487   1486   1492     1   109.8000471 387.438400
   1487   1486   1488     1   107.5800459 329.699200
   1488   1486   1492     1   109.8000471 387.438400
   1490   1489   1498     1   109.7800468 425.094400
   1490   1489   1491     1   108.4600466 328.025600
   1491   1489   1498     1   109.7800468 425.094400
   1493   1492   3028     1   109.7800468 425.094400
   1493   1492   1494     1   108.4600466 328.025600
   1494   1492   3028     1   109.7800468 425.094400
   1496   1495   3058     1   109.7800468 425.094400
   1496   1495   1497     1   108.4600466 328.025600
   1497   1495   3058     1   109.7800468 425.094400
   1500   1501   1502     1   108.0100461 406.684800
   1500   1501   1503     1   108.0100461 406.684800
   1500   1504   1505     1   108.0100461 406.684800
   1500   1504   1506     1   108.0100461 406.684800
   1500   1507   1508     1   108.0100461 406.684800
   1500   1507   1509     1   108.0100461 406.684800
   1501   1500   1529     1   110.1100470 384.091200
   1501   1513   1514     1   109.8000471 387.438400
   1501   1513   1515     1   109.8000471 387.438400
   1502   1501   1513     1   110.5600475 386.601600
   1502   1501   1503     1   109.7500473 328.025600
   1503   1501   1513     1   110.5600475 386.601600
   1504   1500   1529     1   110.1100470 384.091200
   1504   1516   1517     1   109.8000471 387.438400
   1504   1516   1518     1   109.8000471 387.438400
   1505   1504   1516     1   110.5600475 386.601600
   1505   1504   1506     1   109.7500473 328.025600
   1506   1504   1516     1   110.5600475 386.601600
   1507   1500   1529     1   110.1100470 384.091200
   1507   1510   1511     1   109.8000471 387.438400
   1507   1510   1512     1   109.8000471 387.438400
   1508   1507   1510     1   110.5600475 386.601600
   1508   1507   1509     1   109.7500473 328.025600
   1509   1507   1510     1   110.5600475 386.601600
   1510   1519   1520     1   109.5600471 388.275200
   1510   1519   1521     1   109.5600471 388.275200
   1511   1510   1519     1   109.8000471 387.438400
   1511   1510   1512     1   107.5800459 329.699200
   1512   1510   1519     1   109.8000471 387.438400
   1513   1525   1526     1   109.5600471 388.275200
   1513   1525   1527     1   109.5600471 388.275200
   1514   1513   1525     1   109.8000471 387.438400
   1514   1513   1515     1   107.5800459 329.699200
   1515   1513   1525     1   109.8000471 387.438400
   1516   1522   1523     1   109.5600471 388.275200
   1516   1522   1524     1   109.5600471 388.275200
   1517   1516   1522     1   109.8000471 387.438400
   1517   1516   1518     1   107.5800459 329.699200
   1518   1516   1522     1   109.8000471 387.438400
   1520   1519   1528     1   109.7800468 425.094400
   1520   1519   1521     1   108.4600466 328.025600
   1521   1519   1528     1   109.7800468 425.094400
   1523   1522   3088     1   109.7800468 425.094400
   1523   1522   1524     1   108.4600466 328.025600
   1524   1522   3088     1   109.7800468 425.094400
   1526   1525   3118     1   109.7800468 425.094400
   1526   1525   1527     1   108.4600466 328.025600
   1527   1525   3118     1   109.7800468 425.094400
   1530   1531   1532     1   108.0100461 406.684800
   1530   1531   1533     1   108.0100461 406.684800
   1530   1534   1535     1   108.0100461 406.684800
   1530   1534   1536     1   108.0100461 406.684800
   1530   1537   1538     1   108.0100461 406.684800
   1530   1537   1539     1   108.0100461 406.684800
   1531   1530   1559     1   110.1100470 384.091200
   1531   1543   1544     1   109.8000471 387.438400
   1531   1543   1545     1   109.8000471 387.438400
   1532   1531   1543     1   110.5600475 386.601600
   1532   1531   1533     1   109.7500473 328.025600
   1533   1531   1543     1   110.5600475 386.601600
   1534   1530   1559     1   110.1100470 384.091200
   1534   1546   1547     1   109.8000471 387.438400
   1534   1546   1548     1   109.8000471 387.438400
   1535   1534   1546     1   110.5600475 386.601600
   1535   1534   1536     1   109.7500473 328.025600
   1536   1534   1546     1   110.5600475 386.601600
   1537   1530   1559     1   110.1100470 384.091200
   1537   1540   1541     1   109.8000471 387.438400
   1537   1540   1542     1   109.8000471 387.438400
   1538   1537   1540     1   110.5600475 386.601600
   1538   1537   1539     1   109.7500473 328.025600
   1539   1537   1540     1   110.5600475 386.601600
   1540   1549   1550     1   109.5600471 388.275200
   1540   1549   1551     1   109.5600471 388.275200
   1541   1540   1549     1   109.8000471 387.438400
   1541   1540   1542     1   107.5800459 329.699200
   1542   1540   1549     1   109.8000471 387.438400
   1543   1555   1556     1   109.5600471 388.275200
   1543   1555   1557     1   109.5600471 388.275200
   1544   1543   1555     1   109.8000471 387.438400
   1544   1543   1545     1   107.5800459 329.699200
   1545   1543   1555     1   109.8000471 387.438400
   1546   1552   1553     1   109.5600471 388.275200
   1546   1552   1554     1   109.5600471 388.275200
   1547   1546   1552     1   109.8000471 387.438400
   1547   1546   1548     1   107.5800459 329.699200
   1548   1546   1552     1   109.8000471 387.438400
   1550   1549   1558     1   109.7800468 425.094400
   1550   1549   1551     1   108.4600466 328.025600
   1551   1549   1558     1   109.7800468 425.094400
   1553   1552   3148     1   109.7800468 425.094400
   1553   1552   1554     1   108.4600466 328.025600
   1554   1552   3148     1   109.7800468 425.094400
   1556   1555   3178     1   109.7800468 425.094400
   1556   1555   1557     1   108.4600466 328.025600
   1557   1555   3178     1   109.7800468 425.094400
   1560   1561   1562     1   108.0100461 406.684800
   1560   1561   1563     1   108.0100461 406.684800
   1560   1564   1565     1   108.0100461 406.684800
   1560   1564   1566     1   108.0100461 406.684800
   1560   1567   1568     1   108.0100461 406.684800
   1560   1567   1569     1   108.0100461 406.684800
   1561   1560   1589     1   110.1100470 384.091200
   1561   1573   1574     1   109.8000471 387.438400
   1561   1573   1575     1   109.8000471 387.438400
   1562   1561   1573     1   110.5600475 386.601600
   1562   1561   1563     1   109.7500473 328.025600
   1563   1561   1573     1   110.5600475 386.601600
   1564   1560   1589     1   110.1100470 384.091200
   1564   1576   1577     1   109.8000471 387.438400
   1564   1576   1578     1   109.8000471 387.438400
   1565   1564   1576     1   110.5600475 386.601600
   1565   1564   1566     1   109.7500473 328.025600
   1566   1564   1576     1   110.5600475 386.601600
   1567   1560   1589     1   110.1100470 384.091200
   1567   1570   1571     1   109.8000471 387.438400
   1567   1570   1572     1   109.8000471 387.438400
   1568   1567   1570     1   110.5600475 386.601600
   1568   1567   1569     1   109.7500473 328.025600
   1569   1567   1570     1   110.5600475 386.601600
   1570   1579   1580     1   109.5600471 388.275200
   1570   1579   1581     1   109.5600471 388.275200
   1571   1570   1579     1   109.8000471 387.438400
   1571   1570   1572     1   107.5800459 329.699200
   1572   1570   1579     1   109.8000471 387.438400
   1573   1585   1586     1   109.5600471 388.275200
   1573   1585   1587     1   109.5600471 388.275200
   1574   1573   1585     1   109.8000471 387.438400
   1574   1573   1575     1   107.5800459 329.699200
   1575   1573   1585     1   109.8000471 387.438400
   1576   1582   1583     1   109.5600471 388.275200
   1576   1582   1584     1   109.5600471 388.275200
   1577   1576   1582     1   109.8000471 387.438400
   1577   1576   1578     1   107.5800459 329.699200
   1578   1576   1582     1   109.8000471 387.438400
   1580   1579   1588     1   109.7800468 425.094400
   1580   1579   1581     1   108.4600466 328.025600
   1581   1579   1588     1   109.7800468 425.094400
   1583   1582   3208     1   109.7800468 425.094400
   1583   1582   1584     1   108.4600466 328.025600
   1584   1582   3208     1   109.7800468 425.094400
   1586   1585   3238     1   109.7800468 425.094400
   1586   1585   1587     1   108.4600466 328.025600
   1587   1585   3238     1   109.7800468 425.094400
   1590   1591   1592     1   108.0100461 406.684800
   1590   1591   1593     1   108.0100461 406.684800
   1590   1594   1595     1   108.0100461 406.684800
   1590   1594   1596     1   108.0100461 406.684800
   1590   1597   1598     1   108.0100461 406.684800
   1590   1597   1599     1   108.0100461 406.684800
   1591   1590   1619     1   110.1100470 384.091200
   1591   1603   1604     1   109.8000471 387.438400
   1591   1603   1605     1   109.8000471 387.438400
   1592   1591   1603     1   110.5600475 386.601600
   1592   1591   1593     1   109.7500473 328.025600
   1593   1591   1603     1   110.5600475 386.601600
   1594   1590   1619     1   110.1100470 384.091200
   1594   1606   1607     1   109.8000471 387.438400
   1594   1606   1608     1   109.8000471 387.438400
   1595   1594   1606     1   110.5600475 386.601600
   1595   1594   1596     1   109.7500473 328.025600
   1596   1594   1606     1   110.5600475 386.601600
   1597   1590   1619     1   110.1100470 384.091200
   1597   1600   1601     1   109.8000471 387.438400
   1597   1600   1602     1   109.8000471 387.438400
   1598   1597   1600     1   110.5600475 386.601600
   1598   1597   1599     1   109.7500473 328.025600
   1599   1597   1600     1   110.5600475 386.601600
   1600   1609   1610     1   109.5600471 388.275200
   1600   1609   1611     1   109.5600471 388.275200
   1601   1600   1609     1   109.8000471 387.438400
   1601   1600   1602     1   107.5800459 329.699200
   1602   1600   1609     1   109.8000471 387.438400
   1603   1615   1616     1   109.5600471 388.275200
   1603   1615   1617     1   109.5600471 388.275200
   1604   1603   1615     1   109.8000471 387.438400
   1604   1603   1605     1   107.5800459 329.699200
   1605   1603   1615     1   109.8000471 387.438400
   1606   1612   1613     1   109.5600471 388.275200
   1606   1612   1614     1   109.5600471 388.275200
   1607   1606   1612     1   109.8000471 387.438400
   1607   1606   1608     1   107.5800459 329.699200
   1608   1606   1612     1   109.8000471 387.438400
   1610   1609   1618     1   109.7800468 425.094400
   1610   1609   1611     1   108.4600466 328.025600
   1611   1609   1618     1   109.7800468 425.094400
   1613   1612   3268     1   109.7800468 425.094400
   1613   1612   1614     1   108.4600466 328.025600
   1614   1612   3268     1   109.7800468 425.094400
   1616   1615   3298     1   109.7800468 425.094400
   1616   1615   1617     1   108.4600466 328.025600
   1617   1615   3298     1   109.7800468 425.094400
   1620   1621   1622     1   108.0100461 406.684800
   1620   1621   1623     1   108.0100461 406.684800
   1620   1624   1625     1   108.0100461 406.684800
   1620   1624   1626     1   108.0100461 406.684800
   1620   1627   1628     1   108.0100461 406.684800
   1620   1627   1629     1   108.0100461 406.684800
   1621   1620   1649     1   110.1100470 384.091200
   1621   1633   1634     1   109.8000471 387.438400
   1621   1633   1635     1   109.8000471 387.438400
   1622   1621   1633     1   110.5600475 386.601600
   1622   1621   1623     1   109.7500473 328.025600
   1623   1621   1633     1   110.5600475 386.601600
   1624   1620   1649     1   110.1100470 384.091200
   1624   1636   1637     1   109.8000471 387.438400
   1624   1636   1638     1   109.8000471 387.438400
   1625   1624   1636     1   110.5600475 386.601600
   1625   1624   1626     1   109.7500473 328.025600
   1626   1624   1636     1   110.5600475 386.601600
   1627   1620   1649     1   110.1100470 384.091200
   1627   1630   1631     1   109.8000471 387.438400
   1627   1630   1632     1   109.8000471 387.438400
   1628   1627   1630     1   110.5600475 386.601600
   1628   1627   1629     1   109.7500473 328.025600
   1629   1627   1630     1   110.5600475 386.601600
   1630   1639   1640     1   109.5600471 388.275200
   1630   1639   1641     1   109.5600471 388.275200
   1631   1630   1639     1   109.8000471 387.438400
   1631   1630   1632     1   107.5800459 329.699200
   1632   1630   1639     1   109.8000471 387.438400
   1633   1645   1646     1   109.5600471 388.275200
   1633   1645   1647     1   109.5600471 388.275200
   1634   1633   1645     1   109.8000471 387.438400
   1634   1633   1635     1   107.5800459 329.699200
   1635   1633   1645     1   109.8000471 387.438400
   1636   1642   1643     1   109.5600471 388.275200
   1636   1642   1644     1   109.5600471 388.275200
   1637   1636   1642     1   109.8000471 387.438400
   1637   1636   1638     1   107.5800459 329.699200
   1638   1636   1642     1   109.8000471 387.438400
   1640   1639   1648     1   109.7800468 425.094400
   1640   1639   1641     1   108.4600466 328.025600
   1641   1639   1648     1   109.7800468 425.094400
   1643   1642   3328     1   109.7800468 425.094400
   1643   1642   1644     1   108.4600466 328.025600
   1644   1642   3328     1   109.7800468 425.094400
   1646   1645   3358     1   109.7800468 425.094400
   1646   1645   1647     1   108.4600466 328.025600
   1647   1645   3358     1   109.7800468 425.094400
   1650   1651   1652     1   108.0100461 406.684800
   1650   1651   1653     1   108.0100461 406.684800
   1650   1654   1655     1   108.0100461 406.684800
   1650   1654   1656     1   108.0100461 406.684800
   1650   1657   1658     1   108.0100461 406.684800
   1650   1657   1659     1   108.0100461 406.684800
   1651   1650   1679     1   110.1100470 384.091200
   1651   1663   1664     1   109.8000471 387.438400
   1651   1663   1665     1   109.8000471 387.438400
   1652   1651   1663     1   110.5600475 386.601600
   1652   1651   1653     1   109.7500473 328.025600
   1653   1651   1663     1   110.5600475 386.601600
   1654   1650   1679     1   110.1100470 384.091200
   1654   1666   1667     1   109.8000471 387.438400
   1654   1666   1668     1   109.8000471 387.438400
   1655   1654   1666     1   110.5600475 386.601600
   1655   1654   1656     1   109.7500473 328.025600
   1656   1654   1666     1   110.5600475 386.601600
   1657   1650   1679     1   110.1100470 384.091200
   1657   1660   1661     1   109.8000471 387.438400
   1657   1660   1662     1   109.8000471 387.438400
   1658   1657   1660     1   110.5600475 386.601600
   1658   1657   1659     1   109.7500473 328.025600
   1659   1657   1660     1   110.5600475 386.601600
   1660   1669   1670     1   109.5600471 388.275200
   1660   1669   1671     1   109.5600471 388.275200
   1661   1660   1669     1   109.8000471 387.438400
   1661   1660   1662     1   107.5800459 329.699200
   1662   1660   1669     1   109.8000471 387.438400
   1663   1675   1676     1   109.5600471 388.275200
   1663   1675   1677     1   109.5600471 388.275200
   1664   1663   1675     1   109.8000471 387.438400
   1664   1663   1665     1   107.5800459 329.699200
   1665   1663   1675     1   109.8000471 387.438400
   1666   1672   1673     1   109.5600471 388.275200
   1666   1672   1674     1   109.5600471 388.275200
   1667   1666   1672     1   109.8000471 387.438400
   1667   1666   1668     1   107.5800459 329.699200
   1668   1666   1672     1   109.8000471 387.438400
   1670   1669   1678     1   109.7800468 425.094400
   1670   1669   1671     1   108.4600466 328.025600
   1671   1669   1678     1   109.7800468 425.094400
   1673   1672   3388     1   109.7800468 425.094400
   1673   1672   1674     1   108.4600466 328.025600
   1674   1672   3388     1   109.7800468 425.094400
   1676   1675   3418     1   109.7800468 425.094400
   1676   1675   1677     1   108.4600466 328.025600
   1677   1675   3418     1   109.7800468 425.094400
   1680   1681   1682     1   108.0100461 406.684800
   1680   1681   1683     1   108.0100461 406.684800
   1680   1684   1685     1   108.0100461 406.684800
   1680   1684   1686     1   108.0100461 406.684800
   1680   1687   1688     1   108.0100461 406.684800
   1680   1687   1689     1   108.0100461 406.684800
   1681   1680   1709     1   110.1100470 384.091200
   1681   1693   1694     1   109.8000471 387.438400
   1681   1693   1695     1   109.8000471 387.438400
   1682   1681   1693     1   110.5600475 386.601600
   1682   1681   1683     1   109.7500473 328.025600
   1683   1681   1693     1   110.5600475 386.601600
   1684   1680   1709     1   110.1100470 384.091200
   1684   1696   1697     1   109.8000471 387.438400
   1684   1696   1698     1   109.8000471 387.438400
   1685   1684   1696     1   110.5600475 386.601600
   1685   1684   1686     1   109.7500473 328.025600
   1686   1684   1696     1   110.5600475 386.601600
   1687   1680   1709     1   110.1100470 384.091200
   1687   1690   1691     1   109.8000471 387.438400
   1687   1690   1692     1   109.8000471 387.438400
   1688   1687   1690     1   110.5600475 386.601600
   1688   1687   1689     1   109.7500473 328.025600
   1689   1687   1690     1   110.5600475 386.601600
   1690   1699   1700     1   109.5600471 388.275200
   1690   1699   1701     1   109.5600471 388.275200
   1691   1690   1699     1   109.8000471 387.438400
   1691   1690   1692     1   107.5800459 329.699200
   1692   1690   1699     1   109.8000471 387.438400
   1693   1705   1706     1   109.5600471 388.275200
   1693   1705   1707     1   109.5600471 388.275200
   1694   1693   1705     1   109.8000471 387.438400
   1694   1693   1695     1   107.5800459 329.699200
   1695   1693   1705     1   109.8000471 387.438400
   1696   1702   1703     1   109.5600471 388.275200
   1696   1702   1704     1   109.5600471 388.275200
   1697   1696   1702     1   109.8000471 387.438400
   1697   1696   1698     1   107.5800459 329.699200
   1698   1696   1702     1   109.8000471 387.438400
   1700   1699   1708     1   109.7800468 425.094400
   1700   1699   1701     1   108.4600466 328.025600
   1701   1699   1708     1   109.7800468 425.094400
   1703   1702   3448     1   109.7800468 425.094400
   1703   1702   1704     1   108.4600466 328.025600
   1704   1702   3448     1   109.7800468 425.094400
   1706   1705   3478     1   109.7800468 425.094400
   1706   1705   1707     1   108.4600466 328.025600
   1707   1705   3478     1   109.7800468 425.094400
   1710   1711   1712     1   108.0100461 406.684800
   1710   1711   1713     1   108.0100461 406.684800
   1710   1714   1715     1   108.0100461 406.684800
   1710   1714   1716     1   108.0100461 406.684800
   1710   1717   1718     1   108.0100461 406.684800
   1710   1717   1719     1   108.0100461 406.684800
   1711   1710   1739     1   110.1100470 384.091200
   1711   1723   1724     1   109.8000471 387.438400
   1711   1723   1725     1   109.8000471 387.438400
   1712   1711   1723     1   110.5600475 386.601600
   1712   1711   1713     1   109.7500473 328.025600
   1713   1711   1723     1   110.5600475 386.601600
   1714   1710   1739     1   110.1100470 384.091200
   1714   1726   1727     1   109.8000471 387.438400
   1714   1726   1728     1   109.8000471 387.438400
   1715   1714   1726     1   110.5600475 386.601600
   1715   1714   1716     1   109.7500473 328.025600
   1716   1714   1726     1   110.5600475 386.601600
   1717   1710   1739     1   110.1100470 384.091200
   1717   1720   1721     1   109.8000471 387.438400
   1717   1720   1722     1   109.8000471 387.438400
   1718   1717   1720     1   110.5600475 386.601600
   1718   1717   1719     1   109.7500473 328.025600
   1719   1717   1720     1   110.5600475 386.601600
   1720   1729   1730     1   109.5600471 388.275200
   1720   1729   1731     1   109.5600471 388.275200
   1721   1720   1729     1   109.8000471 387.438400
   1721   1720   1722     1   107.5800459 329.699200
   1722   1720   1729     1   109.8000471 387.438400
   1723   1735   1736     1   109.5600471 388.275200
   1723   1735   1737     1   109.5600471 388.275200
   1724   1723   1735     1   109.8000471 387.438400
   1724   1723   1725     1   107.5800459 329.699200
   1725   1723   1735     1   109.8000471 387.438400
   1726   1732   1733     1   109.5600471 388.275200
   1726   1732   1734     1   109.5600471 388.275200
   1727   1726   1732     1   109.8000471 387.438400
   1727   1726   1728     1   107.5800459 329.699200
   1728   1726   1732     1   109.8000471 387.438400
   1730   1729   1738     1   109.7800468 425.094400
   1730   1729   1731     1   108.4600466 328.025600
   1731   1729   1738     1   109.7800468 425.094400
   1733   1732   3508     1   109.7800468 425.094400
   1733   1732   1734     1   108.4600466 328.025600
   1734   1732   3508     1   109.7800468 425.094400
   1736   1735   3538     1   109.7800468 425.094400
   1736   1735   1737     1   108.4600466 328.025600
   1737   1735   3538     1   109.7800468 425.094400
   1740   1741   1742     1   108.0100461 406.684800
   1740   1741   1743     1   108.0100461 406.684800
   1740   1744   1745     1   108.0100461 406.684800
   1740   1744   1746     1   108.0100461 406.684800
   1740   1747   1748     1   108.0100461 406.684800
   1740   1747   1749     1   108.0100461 406.684800
   1741   1740   1769     1   110.1100470 384.091200
   1741   1753   1754     1   109.8000471 387.438400
   1741   1753   1755     1   109.8000471 387.438400
   1742   1741   1753     1   110.5600475 386.601600
   1742   1741   1743     1   109.7500473 328.025600
   1743   1741   1753     1   110.5600475 386.601600
   1744   1740   1769     1   110.1100470 384.091200
   1744   1756   1757     1   109.8000471 387.438400
   1744   1756   1758     1   109.8000471 387.438400
   1745   1744   1756     1   110.5600475 386.601600
   1745   1744   1746     1   109.7500473 328.025600
   1746   1744   1756     1   110.5600475 386.601600
   1747   1740   1769     1   110.1100470 384.091200
   1747   1750   1751     1   109.8000471 387.438400
   1747   1750   1752     1   109.8000471 387.438400
   1748   1747   1750     1   110.5600475 386.601600
   1748   1747   1749     1   109.7500473 328.025600
   1749   1747   1750     1   110.5600475 386.601600
   1750   1759   1760     1   109.5600471 388.275200
   1750   1759   1761     1   109.5600471 388.275200
   1751   1750   1759     1   109.8000471 387.438400
   1751   1750   1752     1   107.5800459 329.699200
   1752   1750   1759     1   109.8000471 387.438400
   1753   1765   1766     1   109.5600471 388.275200
   1753   1765   1767     1   109.5600471 388.275200
   1754   1753   1765     1   109.8000471 387.438400
   1754   1753   1755     1   107.5800459 329.699200
   1755   1753   1765     1   109.8000471 387.438400
   1756   1762   1763     1   109.5600471 388.275200
   1756   1762   1764     1   109.5600471 388.275200
   1757   1756   1762     1   109.8000471 387.438400
   1757   1756   1758     1   107.5800459 329.699200
   1758   1756   1762     1   109.8000471 387.438400
   1760   1759   1768     1   109.7800468 425.094400
   1760   1759   1761     1   108.4600466 328.025600
   1761   1759   1768     1   109.7800468 425.094400
   1763   1762   3568     1   109.7800468 425.094400
   1763   1762   1764     1   108.4600466 328.025600
   1764   1762   3568     1   109.7800468 425.094400
   1766   1765   3598     1   109.7800468 425.094400
   1766   1765   1767     1   108.4600466 328.025600
   1767   1765   3598     1   109.7800468 425.094400
   1770   1771   1772     1   108.0100461 406.684800
   1770   1771   1773     1   108.0100461 406.684800
   1770   1774   1775     1   108.0100461 406.684800
   1770   1774   1776     1   108.0100461 406.684800
   1770   1777   1778     1   108.0100461 406.684800
   1770   1777   1779     1   108.0100461 406.684800
   1771   1770   1799     1   110.1100470 384.091200
   1771   1783   1784     1   109.8000471 387.438400
   1771   1783   1785     1   109.8000471 387.438400
   1772   1771   1783     1   110.5600475 386.601600
   1772   1771   1773     1   109.7500473 328.025600
   1773   1771   1783     1   110.5600475 386.601600
   1774   1770   1799     1   110.1100470 384.091200
   1774   1786   1787     1   109.8000471 387.438400
   1774   1786   1788     1   109.8000471 387.438400
   1775   1774   1786     1   110.5600475 386.601600
   1775   1774   1776     1   109.7500473 328.025600
   1776   1774   1786     1   110.5600475 386.601600
   1777   1770   1799     1   110.1100470 384.091200
   1777   1780   1781     1   109.8000471 387.438400
   1777   1780   1782     1   109.8000471 387.438400
   1778   1777   1780     1   110.5600475 386.601600
   1778   1777   1779     1   109.7500473 328.025600
   1779   1777   1780     1   110.5600475 386.601600
   1780   1789   1790     1   109.5600471 388.275200
   1780   1789   1791     1   109.5600471 388.275200
   1781   1780   1789     1   109.8000471 387.438400
   1781   1780   1782     1   107.5800459 329.699200
   1782   1780   1789     1   109.8000471 387.438400
   1783   1795   1796     1   109.5600471 388.275200
   1783   1795   1797     1   109.5600471 388.275200
   1784   1783   1795     1   109.8000471 387.438400
   1784   1783   1785     1   107.5800459 329.699200
   1785   1783   1795     1   109.8000471 387.438400
   1786   1792   1793     1   109.5600471 388.275200
   1786   1792   1794     1   109.5600471 388.275200
   1787   1786   1792     1   109.8000471 387.438400
   1787   1786   1788     1   107.5800459 329.699200
   1788   1786   1792     1   109.8000471 387.438400
   1790   1789   1798     1   109.7800468 425.094400
   1790   1789   1791     1   108.4600466 328.025600
   1791   1789   1798     1   109.7800468 425.094400
   1793   1792   3628     1   109.7800468 425.094400
   1793   1792   1794     1   108.4600466 328.025600
   1794   1792   3628     1   109.7800468 425.094400
   1796   1795   3658     1   109.7800468 425.094400
   1796   1795   1797     1   108.4600466 328.025600
   1797   1795   3658     1   109.7800468 425.094400
   1800   1801   1802     1   108.0100461 406.684800
   1800   1801   1803     1   108.0100461 406.684800
   1800   1804   1805     1   108.0100461 406.684800
   1800   1804   1806     1   108.0100461 406.684800
   1800   1807   1808     1   108.0100461 406.684800
   1800   1807   1809     1   108.0100461 406.684800
   1801   1800   1829     1   110.1100470 384.091200
   1801   1813   1814     1   109.8000471 387.438400
   1801   1813   1815     1   109.8000471 387.438400
   1802   1801   1813     1   110.5600475 386.601600
   1802   1801   1803     1   109.7500473 328.025600
   1803   1801   1813     1   110.5600475 386.601600
   1804   1800   1829     1   110.1100470 384.091200
   1804   1816   1817     1   109.8000471 387.438400
   1804   1816   1818     1   109.8000471 387.438400
   1805   1804   1816     1   110.5600475 386.601600
   1805   1804   1806     1   109.7500473 328.025600
   1806   1804   1816     1   110.5600475 386.601600
   1807   1800   1829     1   110.1100470 384.091200
   1807   1810   1811     1   109.8000471 387.438400
   1807   1810   1812     1   109.8000471 387.438400
   1808   1807   1810     1   110.5600475 386.601600
   1808   1807   1809     1   109.7500473 328.025600
   1809   1807   1810     1   110.5600475 386.601600
   1810   1819   1820     1   109.5600471 388.275200
   1810   1819   1821     1   109.5600471 388.275200
   1811   1810   1819     1   109.8000471 387.438400
   1811   1810   1812     1   107.5800459 329.699200
   1812   1810   1819     1   109.8000471 387.438400
   1813   1825   1826     1   109.5600471 388.275200
   1813   1825   1827     1   109.5600471 388.275200
   1814   1813   1825     1   109.8000471 387.438400
   1814   1813   1815     1   107.5800459 329.699200
   1815   1813   1825     1   109.8000471 387.438400
   1816   1822   1823     1   109.5600471 388.275200
   1816   1822   1824     1   109.5600471 388.275200
   1817   1816   1822     1   109.8000471 387.438400
   1817   1816   1818     1   107.5800459 329.699200
   1818   1816   1822     1   109.8000471 387.438400
   1820   1819   1828     1   109.7800468 425.094400
   1820   1819   1821     1   108.4600466 328.025600
   1821   1819   1828     1   109.7800468 425.094400
   1823   1822   3688     1   109.7800468 425.094400
   1823   1822   1824     1   108.4600466 328.025600
   1824   1822   3688     1   109.7800468 425.094400
   1826   1825   3718     1   109.7800468 425.094400
   1826   1825   1827     1   108.4600466 328.025600
   1827   1825   3718     1   109.7800468 425.094400
   1830   1831   1832     1   108.0100461 406.684800
   1830   1831   1833     1   108.0100461 406.684800
   1830   1834   1835     1   108.0100461 406.684800
   1830   1834   1836     1   108.0100461 406.684800
   1830   1837   1838     1   108.0100461 406.684800
   1830   1837   1839     1   108.0100461 406.684800
   1831   1830   1859     1   110.1100470 384.091200
   1831   1843   1844     1   109.8000471 387.438400
   1831   1843   1845     1   109.8000471 387.438400
   1832   1831   1843     1   110.5600475 386.601600
   1832   1831   1833     1   109.7500473 328.025600
   1833   1831   1843     1   110.5600475 386.601600
   1834   1830   1859     1   110.1100470 384.091200
   1834   1846   1847     1   109.8000471 387.438400
   1834   1846   1848     1   109.8000471 387.438400
   1835   1834   1846     1   110.5600475 386.601600
   1835   1834   1836     1   109.7500473 328.025600
   1836   1834   1846     1   110.5600475 386.601600
   1837   1830   1859     1   110.1100470 384.091200
   1837   1840   1841     1   109.8000471 387.438400
   1837   1840   1842     1   109.8000471 387.438400
   1838   1837   1840     1   110.5600475 386.601600
   1838   1837   1839     1   109.7500473 328.025600
   1839   1837   1840     1   110.5600475 386.601600
   1840   1849   1850     1   109.5600471 388.275200
   1840   1849   1851     1   109.5600471 388.275200
   1841   1840   1849     1   109.8000471 387.438400
   1841   1840   1842     1   107.5800459 329.699200
   1842   1840   1849     1   109.8000471 387.438400
   1843   1855   1856     1   109.5600471 388.275200
   1843   1855   1857     1   109.5600471 388.275200
   1844   1843   1855     1   109.8000471 387.438400
   1844   1843   1845     1   107.5800459 329.699200
   1845   1843   1855     1   109.8000471 387.438400
   1846   1852   1853     1   109.5600471 388.275200
   1846   1852   1854     1   109.5600471 388.275200
   1847   1846   1852     1   109.8000471 387.438400
   1847   1846   1848     1   107.5800459 329.699200
   1848   1846   1852     1   109.8000471 387.438400
   1850   1849   1858     1   109.7800468 425.094400
   1850   1849   1851     1   108.4600466 328.025600
   1851   1849   1858     1   109.7800468 425.094400
   1853   1852   3748     1   109.7800468 425.094400
   1853   1852   1854     1   108.4600466 328.025600
   1854   1852   3748     1   109.7800468 425.094400
   1856   1855   3778     1   109.7800468 425.094400
   1856   1855   1857     1   108.4600466 328.025600
   1857   1855   3778     1   109.7800468 425.094400
   1860   1861   1862     1   108.0100461 406.684800
   1860   1861   1863     1   108.0100461 406.684800
   1860   1864   1865     1   108.0100461 406.684800
   1860   1864   1866     1   108.0100461 406.684800
   1860   1867   1868     1   108.0100461 406.684800
   1860   1867   1869     1   108.0100461 406.684800
   1861   1860   1889     1   110.1100470 384.091200
   1861   1873   1874     1   109.8000471 387.438400
   1861   1873   1875     1   109.8000471 387.438400
   1862   1861   1873     1   110.5600475 386.601600
   1862   1861   1863     1   109.7500473 328.025600
   1863   1861   1873     1   110.5600475 386.601600
   1864   1860   1889     1   110.1100470 384.091200
   1864   1876   1877     1   109.8000471 387.438400
   1864   1876   1878     1   109.8000471 387.438400
   1865   1864   1876     1   110.5600475 386.601600
   1865   1864   1866     1   109.7500473 328.025600
   1866   1864   1876     1   110.5600475 386.601600
   1867   1860   1889     1   110.1100470 384.091200
   1867   1870   1871     1   109.8000471 387.438400
   1867   1870   1872     1   109.8000471 387.438400
   1868   1867   1870     1   110.5600475 386.601600
   1868   1867   1869     1   109.7500473 328.025600
   1869   1867   1870     1   110.5600475 386.601600
   1870   1879   1880     1   109.5600471 388.275200
   1870   1879   1881     1   109.5600471 388.275200
   1871   1870   1879     1   109.8000471 387.438400
   1871   1870   1872     1   107.5800459 329.699200
   1872   1870   1879     1   109.8000471 387.438400
   1873   1885   1886     1   109.5600471 388.275200
   1873   1885   1887     1   109.5600471 388.275200
   1874   1873   1885     1   109.8000471 387.438400
   1874   1873   1875     1   107.5800459 329.699200
   1875   1873   1885     1   109.8000471 387.438400
   1876   1882   1883     1   109.5600471 388.275200
   1876   1882   1884     1   109.5600471 388.275200
   1877   1876   1882     1   109.8000471 387.438400
   1877   1876   1878     1   107.5800459 329.699200
   1878   1876   1882     1   109.8000471 387.438400
   1880   1879   1888     1   109.7800468 425.094400
   1880   1879   1881     1   108.4600466 328.025600
   1881   1879   1888     1   109.7800468 425.094400
   1883   1882   3808     1   109.7800468 425.094400
   1883   1882   1884     1   108.4600466 328.025600
   1884   1882   3808     1   109.7800468 425.094400
   1886   1885   3838     1   109.7800468 425.094400
   1886   1885   1887     1   108.4600466 328.025600
   1887   1885   3838     1   109.7800468 425.094400
   1890   1891   1892     1   108.0100461 406.684800
   1890   1891   1893     1   108.0100461 406.684800
   1890   1894   1895     1   108.0100461 406.684800
   1890   1894   1896     1   108.0100461 406.684800
   1890   1897   1898     1   108.0100461 406.684800
   1890   1897   1899     1   108.0100461 406.684800
   1891   1890   1919     1   110.1100470 384.091200
   1891   1903   1904     1   109.8000471 387.438400
   1891   1903   1905     1   109.8000471 387.438400
   1892   1891   1903     1   110.5600475 386.601600
   1892   1891   1893     1   109.7500473 328.025600
   1893   1891   1903     1   110.5600475 386.601600
   1894   1890   1919     1   110.1100470 384.091200
   1894   1906   1907     1   109.8000471 387.438400
   1894   1906   1908     1   109.8000471 387.438400
   1895   1894   1906     1   110.5600475 386.601600
   1895   1894   1896     1   109.7500473 328.025600
   1896   1894   1906     1   110.5600475 386.601600
   1897   1890   1919     1   110.1100470 384.091200
   1897   1900   1901     1   109.8000471 387.438400
   1897   1900   1902     1   109.8000471 387.438400
   1898   1897   1900     1   110.5600475 386.601600
   1898   1897   1899     1   109.7500473 328.025600
   1899   1897   1900     1   110.5600475 386.601600
   1900   1909   1910     1   109.5600471 388.275200
   1900   1909   1911     1   109.5600471 388.275200
   1901   1900   1909     1   109.8000471 387.438400
   1901   1900   1902     1   107.5800459 329.699200
   1902   1900   1909     1   109.8000471 387.438400
   1903   1915   1916     1   109.5600471 388.275200
   1903   1915   1917     1   109.5600471 388.275200
   1904   1903   1915     1   109.8000471 387.438400
   1904   1903   1905     1   107.5800459 329.699200
   1905   1903   1915     1   109.8000471 387.438400
   1906   1912   1913     1   109.5600471 388.275200
   1906   1912   1914     1   109.5600471 388.275200
   1907   1906   1912     1   109.8000471 387.438400
   1907   1906   1908     1   107.5800459 329.699200
   1908   1906   1912     1   109.8000471 387.438400
   1910   1909   1918     1   109.7800468 425.094400
   1910   1909   1911     1   108.4600466 328.025600
   1911   1909   1918     1   109.7800468 425.094400
   1913   1912   3868     1   109.7800468 425.094400
   1913   1912   1914     1   108.4600466 328.025600
   1914   1912   3868     1   109.7800468 425.094400
   1916   1915   3898     1   109.7800468 425.094400
   1916   1915   1917     1   108.4600466 328.025600
   1917   1915   3898     1   109.7800468 425.094400
   1920   1921   1922     1   108.0100461 406.684800
   1920   1921   1923     1   108.0100461 406.684800
   1920   1924   1925     1   108.0100461 406.684800
   1920   1924   1926     1   108.0100461 406.684800
   1920   1927   1928     1   108.0100461 406.684800
   1920   1927   1929     1   108.0100461 406.684800
   1921   1920   1949     1   110.1100470 384.091200
   1921   1933   1934     1   109.8000471 387.438400
   1921   1933   1935     1   109.8000471 387.438400
   1922   1921   1933     1   110.5600475 386.601600
   1922   1921   1923     1   109.7500473 328.025600
   1923   1921   1933     1   110.5600475 386.601600
   1924   1920   1949     1   110.1100470 384.091200
   1924   1936   1937     1   109.8000471 387.438400
   1924   1936   1938     1   109.8000471 387.438400
   1925   1924   1936     1   110.5600475 386.601600
   1925   1924   1926     1   109.7500473 328.025600
   1926   1924   1936     1   110.5600475 386.601600
   1927   1920   1949     1   110.1100470 384.091200
   1927   1930   1931     1   109.8000471 387.438400
   1927   1930   1932     1   109.8000471 387.438400
   1928   1927   1930     1   110.5600475 386.601600
   1928   1927   1929     1   109.7500473 328.025600
   1929   1927   1930     1   110.5600475 386.601600
   1930   1939   1940     1   109.5600471 388.275200
   1930   1939   1941     1   109.5600471 388.275200
   1931   1930   1939     1   109.8000471 387.438400
   1931   1930   1932     1   107.5800459 329.699200
   1932   1930   1939     1   109.8000471 387.438400
   1933   1945   1946     1   109.5600471 388.275200
   1933   1945   1947     1   109.5600471 388.275200
   1934   1933   1945     1   109.8000471 387.438400
   1934   1933   1935     1   107.5800459 329.699200
   1935   1933   1945     1   109.8000471 387.438400
   1936   1942   1943     1   109.5600471 388.275200
   1936   1942   1944     1   109.5600471 388.275200
   1937   1936   1942     1   109.8000471 387.438400
   1937   1936   1938     1   107.5800459 329.699200
   1938   1936   1942     1   109.8000471 387.438400
   1940   1939   1948     1   109.7800468 425.094400
   1940   1939   1941     1   108.4600466 328.025600
   1941   1939   1948     1   109.7800468 425.094400
   1943   1942   3928     1   109.7800468 425.094400
   1943   1942   1944     1   108.4600466 328.025600
   1944   1942   3928     1   109.7800468 425.094400
   1946   1945   3958     1   109.7800468 425.094400
   1946   1945   1947     1   108.4600466 328.025600
   1947   1945   3958     1   109.7800468 425.094400
   1950   1951   1952     1   108.0100461 406.684800
   1950   1951   1953     1   108.0100461 406.684800
   1950   1954   1955     1   108.0100461 406.684800
   1950   1954   1956     1   108.0100461 406.684800
   1950   1957   1958     1   108.0100461 406.684800
   1950   1957   1959     1   108.0100461 406.684800
   1951   1950   1979     1   110.1100470 384.091200
   1951   1963   1964     1   109.8000471 387.438400
   1951   1963   1965     1   109.8000471 387.438400
   1952   1951   1963     1   110.5600475 386.601600
   1952   1951   1953     1   109.7500473 328.025600
   1953   1951   1963     1   110.5600475 386.601600
   1954   1950   1979     1   110.1100470 384.091200
   1954   1966   1967     1   109.8000471 387.438400
   1954   1966   1968     1   109.8000471 387.438400
   1955   1954   1966     1   110.5600475 386.601600
   1955   1954   1956     1   109.7500473 328.025600
   1956   1954   1966     1   110.5600475 386.601600
   1957   1950   1979     1   110.1100470 384.091200
   1957   1960   1961     1   109.8000471 387.438400
   1957   1960   1962     1   109.8000471 387.438400
   1958   1957   1960     1   110.5600475 386.601600
   1958   1957   1959     1   109.7500473 328.025600
   1959   1957   1960     1   110.5600475 386.601600
   1960   1969   1970     1   109.5600471 388.275200
   1960   1969   1971     1   109.5600471 388.275200
   1961   1960   1969     1   109.8000471 387.438400
   1961   1960   1962     1   107.5800459 329.699200
   1962   1960   1969     1   109.8000471 387.438400
   1963   1975   1976     1   109.5600471 388.275200
   1963   1975   1977     1   109.5600471 388.275200
   1964   1963   1975     1   109.8000471 387.438400
   1964   1963   1965     1   107.5800459 329.699200
   1965   1963   1975     1   109.8000471 387.438400
   1966   1972   1973     1   109.5600471 388.275200
   1966   1972   1974     1   109.5600471 388.275200
   1967   1966   1972     1   109.8000471 387.438400
   1967   1966   1968     1   107.5800459 329.699200
   1968   1966   1972     1   109.8000471 387.438400
   1970   1969   1978     1   109.7800468 425.094400
   1970   1969   1971     1   108.4600466 328.025600
   1971   1969   1978     1   109.7800468 425.094400
   1973   1972   3988     1   109.7800468 425.094400
   1973   1972   1974     1   108.4600466 328.025600
   1974   1972   3988     1   109.7800468 425.094400
   1976   1975   4018     1   109.7800468 425.094400
   1976   1975   1977     1   108.4600466 328.025600
   1977   1975   4018     1   109.7800468 425.094400
   1980   1981   1982     1   108.0100461 406.684800
   1980   1981   1983     1   108.0100461 406.684800
   1980   1984   1985     1   108.0100461 406.684800
   1980   1984   1986     1   108.0100461 406.684800
   1980   1987   1988     1   108.0100461 406.684800
   1980   1987   1989     1   108.0100461 406.684800
   1981   1980   2009     1   110.1100470 384.091200
   1981   1993   1994     1   109.8000471 387.438400
   1981   1993   1995     1   109.8000471 387.438400
   1982   1981   1993     1   110.5600475 386.601600
   1982   1981   1983     1   109.7500473 328.025600
   1983   1981   1993     1   110.5600475 386.601600
   1984   1980   2009     1   110.1100470 384.091200
   1984   1996   1997     1   109.8000471 387.438400
   1984   1996   1998     1   109.8000471 387.438400
   1985   1984   1996     1   110.5600475 386.601600
   1985   1984   1986     1   109.7500473 328.025600
   1986   1984   1996     1   110.5600475 386.601600
   1987   1980   2009     1   110.1100470 384.091200
   1987   1990   1991     1   109.8000471 387.438400
   1987   1990   1992     1   109.8000471 387.438400
   1988   1987   1990     1   110.5600475 386.601600
   1988   1987   1989     1   109.7500473 328.025600
   1989   1987   1990     1   110.5600475 386.601600
   1990   1999   2000     1   109.5600471 388.275200
   1990   1999   2001     1   109.5600471 388.275200
   1991   1990   1999     1   109.8000471 387.438400
   1991   1990   1992     1   107.5800459 329.699200
   1992   1990   1999     1   109.8000471 387.438400
   1993   2005   2006     1   109.5600471 388.275200
   1993   2005   2007     1   109.5600471 388.275200
   1994   1993   2005     1   109.8000471 387.438400
   1994   1993   1995     1   107.5800459 329.699200
   1995   1993   2005     1   109.8000471 387.438400
   1996   2002   2003     1   109.5600471 388.275200
   1996   2002   2004     1   109.5600471 388.275200
   1997   1996   2002     1   109.8000471 387.438400
   1997   1996   1998     1   107.5800459 329.699200
   1998   1996   2002     1   109.8000471 387.438400
   2000   1999   2008     1   109.7800468 425.094400
   2000   1999   2001     1   108.4600466 328.025600
   2001   1999   2008     1   109.7800468 425.094400
   2003   2002   4048     1   109.7800468 425.094400
   2003   2002   2004     1   108.4600466 328.025600
   2004   2002   4048     1   109.7800468 425.094400
   2006   2005   4078     1   109.7800468 425.094400
   2006   2005   2007     1   108.4600466 328.025600
   2007   2005   4078     1   109.7800468 425.094400
   2010   2011   2012     1   108.0100461 406.684800
   2010   2011   2013     1   108.0100461 406.684800
   2010   2014   2015     1   108.0100461 406.684800
   2010   2014   2016     1   108.0100461 406.684800
   2010   2017   2018     1   108.0100461 406.684800
   2010   2017   2019     1   108.0100461 406.684800
   2011   2010   2039     1   110.1100470 384.091200
   2011   2023   2024     1   109.8000471 387.438400
   2011   2023   2025     1   109.8000471 387.438400
   2012   2011   2023     1   110.5600475 386.601600
   2012   2011   2013     1   109.7500473 328.025600
   2013   2011   2023     1   110.5600475 386.601600
   2014   2010   2039     1   110.1100470 384.091200
   2014   2026   2027     1   109.8000471 387.438400
   2014   2026   2028     1   109.8000471 387.438400
   2015   2014   2026     1   110.5600475 386.601600
   2015   2014   2016     1   109.7500473 328.025600
   2016   2014   2026     1   110.5600475 386.601600
   2017   2010   2039     1   110.1100470 384.091200
   2017   2020   2021     1   109.8000471 387.438400
   2017   2020   2022     1   109.8000471 387.438400
   2018   2017   2020     1   110.5600475 386.601600
   2018   2017   2019     1   109.7500473 328.025600
   2019   2017   2020     1   110.5600475 386.601600
   2020   2029   2030     1   109.5600471 388.275200
   2020   2029   2031     1   109.5600471 388.275200
   2021   2020   2029     1   109.8000471 387.438400
   2021   2020   2022     1   107.5800459 329.699200
   2022   2020   2029     1   109.8000471 387.438400
   2023   2035   2036     1   109.5600471 388.275200
   2023   2035   2037     1   109.5600471 388.275200
   2024   2023   2035     1   109.8000471 387.438400
   2024   2023   2025     1   107.5800459 329.699200
   2025   2023   2035     1   109.8000471 387.438400
   2026   2032   2033     1   109.5600471 388.275200
   2026   2032   2034     1   109.5600471 388.275200
   2027   2026   2032     1   109.8000471 387.438400
   2027   2026   2028     1   107.5800459 329.699200
   2028   2026   2032     1   109.8000471 387.438400
   2030   2029   2038     1   109.7800468 425.094400
   2030   2029   2031     1   108.4600466 328.025600
   2031   2029   2038     1   109.7800468 425.094400
   2033   2032   4108     1   109.7800468 425.094400
   2033   2032   2034     1   108.4600466 328.025600
   2034   2032   4108     1   109.7800468 425.094400
   2036   2035   4138     1   109.7800468 425.094400
   2036   2035   2037     1   108.4600466 328.025600
   2037   2035   4138     1   109.7800468 425.094400
   2040   2041   2042     1   108.0100461 406.684800
   2040   2041   2043     1   108.0100461 406.684800
   2040   2044   2045     1   108.0100461 406.684800
   2040   2044   2046     1   108.0100461 406.684800
   2040   2047   2048     1   108.0100461 406.684800
   2040   2047   2049     1   108.0100461 406.684800
   2041   2040   2069     1   110.1100470 384.091200
   2041   2053   2054     1   109.8000471 387.438400
   2041   2053   2055     1   109.8000471 387.438400
   2042   2041   2053     1   110.5600475 386.601600
   2042   2041   2043     1   109.7500473 328.025600
   2043   2041   2053     1   110.5600475 386.601600
   2044   2040   2069     1   110.1100470 384.091200
   2044   2056   2057     1   109.8000471 387.438400
   2044   2056   2058     1   109.8000471 387.438400
   2045   2044   2056     1   110.5600475 386.601600
   2045   2044   2046     1   109.7500473 328.025600
   2046   2044   2056     1   110.5600475 386.601600
   2047   2040   2069     1   110.1100470 384.091200
   2047   2050   2051     1   109.8000471 387.438400
   2047   2050   2052     1   109.8000471 387.438400
   2048   2047   2050     1   110.5600475 386.601600
   2048   2047   2049     1   109.7500473 328.025600
   2049   2047   2050     1   110.5600475 386.601600
   2050   2059   2060     1   109.5600471 388.275200
   2050   2059   2061     1   109.5600471 388.275200
   2051   2050   2059     1   109.8000471 387.438400
   2051   2050   2052     1   107.5800459 329.699200
   2052   2050   2059     1   109.8000471 387.438400
   2053   2065   2066     1   109.5600471 388.275200
   2053   2065   2067     1   109.5600471 388.275200
   2054   2053   2065     1   109.8000471 387.438400
   2054   2053   2055     1   107.5800459 329.699200
   2055   2053   2065     1   109.8000471 387.438400
   2056   2062   2063     1   109.5600471 388.275200
   2056   2062   2064     1   109.5600471 388.275200
   2057   2056   2062     1   109.8000471 387.438400
   2057   2056   2058     1   107.5800459 329.699200
   2058   2056   2062     1   109.8000471 387.438400
   2060   2059   2068     1   109.7800468 425.094400
   2060   2059   2061     1   108.4600466 328.025600
   2061   2059   2068     1   109.7800468 425.094400
   2063   2062   4168     1   109.7800468 425.094400
   2063   2062   2064     1   108.4600466 328.025600
   2064   2062   4168     1   109.7800468 425.094400
   2066   2065   4198     1   109.7800468 425.094400
   2066   2065   2067     1   108.4600466 328.025600
   2067   2065   4198     1   109.7800468 425.094400
   2070   2071   2072     1   108.0100461 406.684800
   2070   2071   2073     1   108.0100461 406.684800
   2070   2074   2075     1   108.0100461 406.684800
   2070   2074   2076     1   108.0100461 406.684800
   2070   2077   2078     1   108.0100461 406.684800
   2070   2077   2079     1   108.0100461 406.684800
   2071   2070   2099     1   110.1100470 384.091200
   2071   2083   2084     1   109.8000471 387.438400
   2071   2083   2085     1   109.8000471 387.438400
   2072   2071   2083     1   110.5600475 386.601600
   2072   2071   2073     1   109.7500473 328.025600
   2073   2071   2083     1   110.5600475 386.601600
   2074   2070   2099     1   110.1100470 384.091200
   2074   2086   2087     1   109.8000471 387.438400
   2074   2086   2088     1   109.8000471 387.438400
   2075   2074   2086     1   110.5600475 386.601600
   2075   2074   2076     1   109.7500473 328.025600
   2076   2074   2086     1   110.5600475 386.601600
   2077   2070   2099     1   110.1100470 384.091200
   2077   2080   2081     1   109.8000471 387.438400
   2077   2080   2082     1   109.8000471 387.438400
   2078   2077   2080     1   110.5600475 386.601600
   2078   2077   2079     1   109.7500473 328.025600
   2079   2077   2080     1   110.5600475 386.601600
   2080   2089   2090     1   109.5600471 388.275200
   2080   2089   2091     1   109.5600471 388.275200
   2081   2080   2089     1   109.8000471 387.438400
   2081   2080   2082     1   107.5800459 329.699200
   2082   2080   2089     1   109.8000471 387.438400
   2083   2095   2096     1   109.5600471 388.275200
   2083   2095   2097     1   109.5600471 388.275200
   2084   2083   2095     1   109.8000471 387.438400
   2084   2083   2085     1   107.5800459 329.699200
   2085   2083   2095     1   109.8000471 387.438400
   2086   2092   2093     1   109.5600471 388.275200
   2086   2092   2094     1   109.5600471 388.275200
   2087   2086   2092     1   109.8000471 387.438400
   2087   2086   2088     1   107.5800459 329.699200
   2088   2086   2092     1   109.8000471 387.438400
   2090   2089   2098     1   109.7800468 425.094400
   2090   2089   2091     1   108.4600466 328.025600
   2091   2089   2098     1   109.7800468 425.094400
   2093   2092   4228     1   109.7800468 425.094400
   2093   2092   2094     1   108.4600466 328.025600
   2094   2092   4228     1   109.7800468 425.094400
   2096   2095   4258     1   109.7800468 425.094400
   2096   2095   2097     1   108.4600466 328.025600
   2097   2095   4258     1   109.7800468 425.094400
   2100   2101   2102     1   108.0100461 406.684800
   2100   2101   2103     1   108.0100461 406.684800
   2100   2104   2105     1   108.0100461 406.684800
   2100   2104   2106     1   108.0100461 406.684800
   2100   2107   2108     1   108.0100461 406.684800
   2100   2107   2109     1   108.0100461 406.684800
   2101   2100   2129     1   110.1100470 384.091200
   2101   2113   2114     1   109.8000471 387.438400
   2101   2113   2115     1   109.8000471 387.438400
   2102   2101   2113     1   110.5600475 386.601600
   2102   2101   2103     1   109.7500473 328.025600
   2103   2101   2113     1   110.5600475 386.601600
   2104   2100   2129     1   110.1100470 384.091200
   2104   2116   2117     1   109.8000471 387.438400
   2104   2116   2118     1   109.8000471 387.438400
   2105   2104   2116     1   110.5600475 386.601600
   2105   2104   2106     1   109.7500473 328.025600
   2106   2104   2116     1   110.5600475 386.601600
   2107   2100   2129     1   110.1100470 384.091200
   2107   2110   2111     1   109.8000471 387.438400
   2107   2110   2112     1   109.8000471 387.438400
   2108   2107   2110     1   110.5600475 386.601600
   2108   2107   2109     1   109.7500473 328.025600
   2109   2107   2110     1   110.5600475 386.601600
   2110   2119   2120     1   109.5600471 388.275200
   2110   2119   2121     1   109.5600471 388.275200
   2111   2110   2119     1   109.8000471 387.438400
   2111   2110   2112     1   107.5800459 329.699200
   2112   2110   2119     1   109.8000471 387.438400
   2113   2125   2126     1   109.5600471 388.275200
   2113   2125   2127     1   109.5600471 388.275200
   2114   2113   2125     1   109.8000471 387.438400
   2114   2113   2115     1   107.5800459 329.699200
   2115   2113   2125     1   109.8000471 387.438400
   2116   2122   2123     1   109.5600471 388.275200
   2116   2122   2124     1   109.5600471 388.275200
   2117   2116   2122     1   109.8000471 387.438400
   2117   2116   2118     1   107.5800459 329.699200
   2118   2116   2122     1   109.8000471 387.438400
   2120   2119   2128     1   109.7800468 425.094400
   2120   2119   2121     1   108.4600466 328.025600
   2121   2119   2128     1   109.7800468 425.094400
   2123   2122   4288     1   109.7800468 425.094400
   2123   2122   2124     1   108.4600466 328.025600
   2124   2122   4288     1   109.7800468 425.094400
   2126   2125   4318     1   109.7800468 425.094400
   2126   2125   2127     1   108.4600466 328.025600
   2127   2125   4318     1   109.7800468 425.094400
   2130   2131   2132     1   108.0100461 406.684800
   2130   2131   2133     1   108.0100461 406.684800
   2130   2134   2135     1   108.0100461 406.684800
   2130   2134   2136     1   108.0100461 406.684800
   2130   2137   2138     1   108.0100461 406.684800
   2130   2137   2139     1   108.0100461 406.684800
   2131   2130   2159     1   110.1100470 384.091200
   2131   2143   2144     1   109.8000471 387.438400
   2131   2143   2145     1   109.8000471 387.438400
   2132   2131   2143     1   110.5600475 386.601600
   2132   2131   2133     1   109.7500473 328.025600
   2133   2131   2143     1   110.5600475 386.601600
   2134   2130   2159     1   110.1100470 384.091200
   2134   2146   2147     1   109.8000471 387.438400
   2134   2146   2148     1   109.8000471 387.438400
   2135   2134   2146     1   110.5600475 386.601600
   2135   2134   2136     1   109.7500473 328.025600
   2136   2134   2146     1   110.5600475 386.601600
   2137   2130   2159     1   110.1100470 384.091200
   2137   2140   2141     1   109.8000471 387.438400
   2137   2140   2142     1   109.8000471 387.438400
   2138   2137   2140     1   110.5600475 386.601600
   2138   2137   2139     1   109.7500473 328.025600
   2139   2137   2140     1   110.5600475 386.601600
   2140   2149   2150     1   109.5600471 388.275200
   2140   2149   2151     1   109.5600471 388.275200
   2141   2140   2149     1   109.8000471 387.438400
   2141   2140   2142     1   107.5800459 329.699200
   2142   2140   2149     1   109.8000471 387.438400
   2143   2155   2156     1   109.5600471 388.275200
   2143   2155   2157     1   109.5600471 388.275200
   2144   2143   2155     1   109.8000471 387.438400
   2144   2143   2145     1   107.5800459 329.699200
   2145   2143   2155     1   109.8000471 387.438400
   2146   2152   2153     1   109.5600471 388.275200
   2146   2152   2154     1   109.5600471 388.275200
   2147   2146   2152     1   109.8000471 387.438400
   2147   2146   2148     1   107.5800459 329.699200
   2148   2146   2152     1   109.8000471 387.438400
   2150   2149   2158     1   109.7800468 425.094400
   2150   2149   2151     1   108.4600466 328.025600
   2151   2149   2158     1   109.7800468 425.094400
   2153   2152   4348     1   109.7800468 425.094400
   2153   2152   2154     1   108.4600466 328.025600
   2154   2152   4348     1   109.7800468 425.094400
   2156   2155   4378     1   109.7800468 425.094400
   2156   2155   2157     1   108.4600466 328.025600
   2157   2155   4378     1   109.7800468 425.094400
   2160   2161   2162     1   108.0100461 406.684800
   2160   2161   2163     1   108.0100461 406.684800
   2160   2164   2165     1   108.0100461 406.684800
   2160   2164   2166     1   108.0100461 406.684800
   2160   2167   2168     1   108.0100461 406.684800
   2160   2167   2169     1   108.0100461 406.684800
   2161   2160   2189     1   110.1100470 384.091200
   2161   2173   2174     1   109.8000471 387.438400
   2161   2173   2175     1   109.8000471 387.438400
   2162   2161   2173     1   110.5600475 386.601600
   2162   2161   2163     1   109.7500473 328.025600
   2163   2161   2173     1   110.5600475 386.601600
   2164   2160   2189     1   110.1100470 384.091200
   2164   2176   2177     1   109.8000471 387.438400
   2164   2176   2178     1   109.8000471 387.438400
   2165   2164   2176     1   110.5600475 386.601600
   2165   2164   2166     1   109.7500473 328.025600
   2166   2164   2176     1   110.5600475 386.601600
   2167   2160   2189     1   110.1100470 384.091200
   2167   2170   2171     1   109.8000471 387.438400
   2167   2170   2172     1   109.8000471 387.438400
   2168   2167   2170     1   110.5600475 386.601600
   2168   2167   2169     1   109.7500473 328.025600
   2169   2167   2170     1   110.5600475 386.601600
   2170   2179   2180     1   109.5600471 388.275200
   2170   2179   2181     1   109.5600471 388.275200
   2171   2170   2179     1   109.8000471 387.438400
   2171   2170   2172     1   107.5800459 329.699200
   2172   2170   2179     1   109.8000471 387.438400
   2173   2185   2186     1   109.5600471 388.275200
   2173   2185   2187     1   109.5600471 388.275200
   2174   2173   2185     1   109.8000471 387.438400
   2174   2173   2175     1   107.5800459 329.699200
   2175   2173   2185     1   109.8000471 387.438400
   2176   2182   2183     1   109.5600471 388.275200
   2176   2182   2184     1   109.5600471 388.275200
   2177   2176   2182     1   109.8000471 387.438400
   2177   2176   2178     1   107.5800459 329.699200
   2178   2176   2182     1   109.8000471 387.438400
   2180   2179   2188     1   109.7800468 425.094400
   2180   2179   2181     1   108.4600466 328.025600
   2181   2179   2188     1   109.7800468 425.094400
   2183   2182   4408     1   109.7800468 425.094400
   2183   2182   2184     1   108.4600466 328.025600
   2184   2182   4408     1   109.7800468 425.094400
   2186   2185   4438     1   109.7800468 425.094400
   2186   2185   2187     1   108.4600466 328.025600
   2187   2185   4438     1   109.7800468 425.094400
   2190   2191   2192     1   108.0100461 406.684800
   2190   2191   2193     1   108.0100461 406.684800
   2190   2194   2195     1   108.0100461 406.684800
   2190   2194   2196     1   108.0100461 406.684800
   2190   2197   2198     1   108.0100461 406.684800
   2190   2197   2199     1   108.0100461 406.684800
   2191   2190   2219     1   110.1100470 384.091200
   2191   2203   2204     1   109.8000471 387.438400
   2191   2203   2205     1   109.8000471 387.438400
   2192   2191   2203     1   110.5600475 386.601600
   2192   2191   2193     1   109.7500473 328.025600
   2193   2191   2203     1   110.5600475 386.601600
   2194   2190   2219     1   110.1100470 384.091200
   2194   2206   2207     1   109.8000471 387.438400
   2194   2206   2208     1   109.8000471 387.438400
   2195   2194   2206     1   110.5600475 386.601600
   2195   2194   2196     1   109.7500473 328.025600
   2196   2194   2206     1   110.5600475 386.601600
   2197   2190   2219     1   110.1100470 384.091200
   2197   2200   2201     1   109.8000471 387.438400
   2197   2200   2202     1   109.8000471 387.438400
   2198   2197   2200     1   110.5600475 386.601600
   2198   2197   2199     1   109.7500473 328.025600
   2199   2197   2200     1   110.5600475 386.601600
   2200   2209   2210     1   109.5600471 388.275200
   2200   2209   2211     1   109.5600471 388.275200
   2201   2200   2209     1   109.8000471 387.438400
   2201   2200   2202     1   107.5800459 329.699200
   2202   2200   2209     1   109.8000471 387.438400
   2203   2215   2216     1   109.5600471 388.275200
   2203   2215   2217     1   109.5600471 388.275200
   2204   2203   2215     1   109.8000471 387.438400
   2204   2203   2205     1   107.5800459 329.699200
   2205   2203   2215     1   109.8000471 387.438400
   2206   2212   2213     1   109.5600471 388.275200
   2206   2212   2214     1   109.5600471 388.275200
   2207   2206   2212     1   109.8000471 387.438400
   2207   2206   2208     1   107.5800459 329.699200
   2208   2206   2212     1   109.8000471 387.438400
   2210   2209   2218     1   109.7800468 425.094400
   2210   2209   2211     1   108.4600466 328.025600
   2211   2209   2218     1   109.7800468 425.094400
   2213   2212   4468     1   109.7800468 425.094400
   2213   2212   2214     1   108.4600466 328.025600
   2214   2212   4468     1   109.7800468 425.094400
   2216   2215   4498     1   109.7800468 425.094400
   2216   2215   2217     1   108.4600466 328.025600
   2217   2215   4498     1   109.7800468 425.094400
   2220   2221   2222     1   108.0100461 406.684800
   2220   2221   2223     1   108.0100461 406.684800
   2220   2224   2225     1   108.0100461 406.684800
   2220   2224   2226     1   108.0100461 406.684800
   2220   2227   2228     1   108.0100461 406.684800
   2220   2227   2229     1   108.0100461 406.684800
   2221   2220   2249     1   110.1100470 384.091200
   2221   2233   2234     1   109.8000471 387.438400
   2221   2233   2235     1   109.8000471 387.438400
   2222   2221   2233     1   110.5600475 386.601600
   2222   2221   2223     1   109.7500473 328.025600
   2223   2221   2233     1   110.5600475 386.601600
   2224   2220   2249     1   110.1100470 384.091200
   2224   2236   2237     1   109.8000471 387.438400
   2224   2236   2238     1   109.8000471 387.438400
   2225   2224   2236     1   110.5600475 386.601600
   2225   2224   2226     1   109.7500473 328.025600
   2226   2224   2236     1   110.5600475 386.601600
   2227   2220   2249     1   110.1100470 384.091200
   2227   2230   2231     1   109.8000471 387.438400
   2227   2230   2232     1   109.8000471 387.438400
   2228   2227   2230     1   110.5600475 386.601600
   2228   2227   2229     1   109.7500473 328.025600
   2229   2227   2230     1   110.5600475 386.601600
   2230   2239   2240     1   109.5600471 388.275200
   2230   2239   2241     1   109.5600471 388.275200
   2231   2230   2239     1   109.8000471 387.438400
   2231   2230   2232     1   107.5800459 329.699200
   2232   2230   2239     1   109.8000471 387.438400
   2233   2245   2246     1   109.5600471 388.275200
   2233   2245   2247     1   109.5600471 388.275200
   2234   2233   2245     1   109.8000471 387.438400
   2234   2233   2235     1   107.5800459 329.699200
   2235   2233   2245     1   109.8000471 387.438400
   2236   2242   2243     1   109.5600471 388.275200
   2236   2242   2244     1   109.5600471 388.275200
   2237   2236   2242     1   109.8000471 387.438400
   2237   2236   2238     1   107.5800459 329.699200
   2238   2236   2242     1   109.8000471 387.438400
   2240   2239   2248     1   109.7800468 425.094400
   2240   2239   2241     1   108.4600466 328.025600
   2241   2239   2248     1   109.7800468 425.094400
   2243   2242   4528     1   109.7800468 425.094400
   2243   2242   2244     1   108.4600466 328.025600
   2244   2242   4528     1   109.7800468 425.094400
   2246   2245   4558     1   109.7800468 425.094400
   2246   2245   2247     1   108.4600466 328.025600
   2247   2245   4558     1   109.7800468 425.094400
   2250   2251   2252     1   108.0100461 406.684800
   2250   2251   2253     1   108.0100461 406.684800
   2250   2254   2255     1   108.0100461 406.684800
   2250   2254   2256     1   108.0100461 406.684800
   2250   2257   2258     1   108.0100461 406.684800
   2250   2257   2259     1   108.0100461 406.684800
   2251   2250   2279     1   110.1100470 384.091200
   2251   2263   2264     1   109.8000471 387.438400
   2251   2263   2265     1   109.8000471 387.438400
   2252   2251   2263     1   110.5600475 386.601600
   2252   2251   2253     1   109.7500473 328.025600
   2253   2251   2263     1   110.5600475 386.601600
   2254   2250   2279     1   110.1100470 384.091200
   2254   2266   2267     1   109.8000471 387.438400
   2254   2266   2268     1   109.8000471 387.438400
   2255   2254   2266     1   110.5600475 386.601600
   2255   2254   2256     1   109.7500473 328.025600
   2256   2254   2266     1   110.5600475 386.601600
   2257   2250   2279     1   110.1100470 384.091200
   2257   2260   2261     1   109.8000471 387.438400
   2257   2260   2262     1   109.8000471 387.438400
   2258   2257   2260     1   110.5600475 386.601600
   2258   2257   2259     1   109.7500473 328.025600
   2259   2257   2260     1   110.5600475 386.601600
   2260   2269   2270     1   109.5600471 388.275200
   2260   2269   2271     1   109.5600471 388.275200
   2261   2260   2269     1   109.8000471 387.438400
   2261   2260   2262     1   107.5800459 329.699200
   2262   2260   2269     1   109.8000471 387.438400
   2263   2275   2276     1   109.5600471 388.275200
   2263   2275   2277     1   109.5600471 388.275200
   2264   2263   2275     1   109.8000471 387.438400
   2264   2263   2265     1   107.5800459 329.699200
   2265   2263   2275     1   109.8000471 387.438400
   2266   2272   2273     1   109.5600471 388.275200
   2266   2272   2274     1   109.5600471 388.275200
   2267   2266   2272     1   109.8000471 387.438400
   2267   2266   2268     1   107.5800459 329.699200
   2268   2266   2272     1   109.8000471 387.438400
   2270   2269   2278     1   109.7800468 425.094400
   2270   2269   2271     1   108.4600466 328.025600
   2271   2269   2278     1   109.7800468 425.094400
   2273   2272   4588     1   109.7800468 425.094400
   2273   2272   2274     1   108.4600466 328.025600
   2274   2272   4588     1   109.7800468 425.094400
   2276   2275   4618     1   109.7800468 425.094400
   2276   2275   2277     1   108.4600466 328.025600
   2277   2275   4618     1   109.7800468 425.094400
   2280   2281   2282     1   108.0100461 406.684800
   2280   2281   2283     1   108.0100461 406.684800
   2280   2284   2285     1   108.0100461 406.684800
   2280   2284   2286     1   108.0100461 406.684800
   2280   2287   2288     1   108.0100461 406.684800
   2280   2287   2289     1   108.0100461 406.684800
   2281   2280   2309     1   110.1100470 384.091200
   2281   2293   2294     1   109.8000471 387.438400
   2281   2293   2295     1   109.8000471 387.438400
   2282   2281   2293     1   110.5600475 386.601600
   2282   2281   2283     1   109.7500473 328.025600
   2283   2281   2293     1   110.5600475 386.601600
   2284   2280   2309     1   110.1100470 384.091200
   2284   2296   2297     1   109.8000471 387.438400
   2284   2296   2298     1   109.8000471 387.438400
   2285   2284   2296     1   110.5600475 386.601600
   2285   2284   2286     1   109.7500473 328.025600
   2286   2284   2296     1   110.5600475 386.601600
   2287   2280   2309     1   110.1100470 384.091200
   2287   2290   2291     1   109.8000471 387.438400
   2287   2290   2292     1   109.8000471 387.438400
   2288   2287   2290     1   110.5600475 386.601600
   2288   2287   2289     1   109.7500473 328.025600
   2289   2287   2290     1   110.5600475 386.601600
   2290   2299   2300     1   109.5600471 388.275200
   2290   2299   2301     1   109.5600471 388.275200
   2291   2290   2299     1   109.8000471 387.438400
   2291   2290   2292     1   107.5800459 329.699200
   2292   2290   2299     1   109.8000471 387.438400
   2293   2305   2306     1   109.5600471 388.275200
   2293   2305   2307     1   109.5600471 388.275200
   2294   2293   2305     1   109.8000471 387.438400
   2294   2293   2295     1   107.5800459 329.699200
   2295   2293   2305     1   109.8000471 387.438400
   2296   2302   2303     1   109.5600471 388.275200
   2296   2302   2304     1   109.5600471 388.275200
   2297   2296   2302     1   109.8000471 387.438400
   2297   2296   2298     1   107.5800459 329.699200
   2298   2296   2302     1   109.8000471 387.438400
   2300   2299   2308     1   109.7800468 425.094400
   2300   2299   2301     1   108.4600466 328.025600
   2301   2299   2308     1   109.7800468 425.094400
   2303   2302   4648     1   109.7800468 425.094400
   2303   2302   2304     1   108.4600466 328.025600
   2304   2302   4648     1   109.7800468 425.094400
   2306   2305   4678     1   109.7800468 425.094400
   2306   2305   2307     1   108.4600466 328.025600
   2307   2305   4678     1   109.7800468 425.094400
   2310   2311   2312     1   108.0100461 406.684800
   2310   2311   2313     1   108.0100461 406.684800
   2310   2314   2315     1   108.0100461 406.684800
   2310   2314   2316     1   108.0100461 406.684800
   2310   2317   2318     1   108.0100461 406.684800
   2310   2317   2319     1   108.0100461 406.684800
   2311   2310   2339     1   110.1100470 384.091200
   2311   2323   2324     1   109.8000471 387.438400
   2311   2323   2325     1   109.8000471 387.438400
   2312   2311   2323     1   110.5600475 386.601600
   2312   2311   2313     1   109.7500473 328.025600
   2313   2311   2323     1   110.5600475 386.601600
   2314   2310   2339     1   110.1100470 384.091200
   2314   2326   2327     1   109.8000471 387.438400
   2314   2326   2328     1   109.8000471 387.438400
   2315   2314   2326     1   110.5600475 386.601600
   2315   2314   2316     1   109.7500473 328.025600
   2316   2314   2326     1   110.5600475 386.601600
   2317   2310   2339     1   110.1100470 384.091200
   2317   2320   2321     1   109.8000471 387.438400
   2317   2320   2322     1   109.8000471 387.438400
   2318   2317   2320     1   110.5600475 386.601600
   2318   2317   2319     1   109.7500473 328.025600
   2319   2317   2320     1   110.5600475 386.601600
   2320   2329   2330     1   109.5600471 388.275200
   2320   2329   2331     1   109.5600471 388.275200
   2321   2320   2329     1   109.8000471 387.438400
   2321   2320   2322     1   107.5800459 329.699200
   2322   2320   2329     1   109.8000471 387.438400
   2323   2335   2336     1   109.5600471 388.275200
   2323   2335   2337     1   109.5600471 388.275200
   2324   2323   2335     1   109.8000471 387.438400
   2324   2323   2325     1   107.5800459 329.699200
   2325   2323   2335     1   109.8000471 387.438400
   2326   2332   2333     1   109.5600471 388.275200
   2326   2332   2334     1   109.5600471 388.275200
   2327   2326   2332     1   109.8000471 387.438400
   2327   2326   2328     1   107.5800459 329.699200
   2328   2326   2332     1   109.8000471 387.438400
   2330   2329   2338     1   109.7800468 425.094400
   2330   2329   2331     1   108.4600466 328.025600
   2331   2329   2338     1   109.7800468 425.094400
   2333   2332   4708     1   109.7800468 425.094400
   2333   2332   2334     1   108.4600466 328.025600
   2334   2332   4708     1   109.7800468 425.094400
   2336   2335   4738     1   109.7800468 425.094400
   2336   2335   2337     1   108.4600466 328.025600
   2337   2335   4738     1   109.7800468 425.094400
   2340   2341   2342     1   108.0100461 406.684800
   2340   2341   2343     1   108.0100461 406.684800
   2340   2344   2345     1   108.0100461 406.684800
   2340   2344   2346     1   108.0100461 406.684800
   2340   2347   2348     1   108.0100461 406.684800
   2340   2347   2349     1   108.0100461 406.684800
   2341   2340   2369     1   110.1100470 384.091200
   2341   2353   2354     1   109.8000471 387.438400
   2341   2353   2355     1   109.8000471 387.438400
   2342   2341   2353     1   110.5600475 386.601600
   2342   2341   2343     1   109.7500473 328.025600
   2343   2341   2353     1   110.5600475 386.601600
   2344   2340   2369     1   110.1100470 384.091200
   2344   2356   2357     1   109.8000471 387.438400
   2344   2356   2358     1   109.8000471 387.438400
   2345   2344   2356     1   110.5600475 386.601600
   2345   2344   2346     1   109.7500473 328.025600
   2346   2344   2356     1   110.5600475 386.601600
   2347   2340   2369     1   110.1100470 384.091200
   2347   2350   2351     1   109.8000471 387.438400
   2347   2350   2352     1   109.8000471 387.438400
   2348   2347   2350     1   110.5600475 386.601600
   2348   2347   2349     1   109.7500473 328.025600
   2349   2347   2350     1   110.5600475 386.601600
   2350   2359   2360     1   109.5600471 388.275200
   2350   2359   2361     1   109.5600471 388.275200
   2351   2350   2359     1   109.8000471 387.438400
   2351   2350   2352     1   107.5800459 329.699200
   2352   2350   2359     1   109.8000471 387.438400
   2353   2365   2366     1   109.5600471 388.275200
   2353   2365   2367     1   109.5600471 388.275200
   2354   2353   2365     1   109.8000471 387.438400
   2354   2353   2355     1   107.5800459 329.699200
   2355   2353   2365     1   109.8000471 387.438400
   2356   2362   2363     1   109.5600471 388.275200
   2356   2362   2364     1   109.5600471 388.275200
   2357   2356   2362     1   109.8000471 387.438400
   2357   2356   2358     1   107.5800459 329.699200
   2358   2356   2362     1   109.8000471 387.438400
   2360   2359   2368     1   109.7800468 425.094400
   2360   2359   2361     1   108.4600466 328.025600
   2361   2359   2368     1   109.7800468 425.094400
   2363   2362   4768     1   109.7800468 425.094400
   2363   2362   2364     1   108.4600466 328.025600
   2364   2362   4768     1   109.7800468 425.094400
   2366   2365   4798     1   109.7800468 425.094400
   2366   2365   2367     1   108.4600466 328.025600
   2367   2365   4798     1   109.7800468 425.094400
   2370   2371   2372     1   108.0100461 406.684800
   2370   2371   2373     1   108.0100461 406.684800
   2370   2374   2375     1   108.0100461 406.684800
   2370   2374   2376     1   108.0100461 406.684800
   2370   2377   2378     1   108.0100461 406.684800
   2370   2377   2379     1   108.0100461 406.684800
   2371   2370   2399     1   110.1100470 384.091200
   2371   2383   2384     1   109.8000471 387.438400
   2371   2383   2385     1   109.8000471 387.438400
   2372   2371   2383     1   110.5600475 386.601600
   2372   2371   2373     1   109.7500473 328.025600
   2373   2371   2383     1   110.5600475 386.601600
   2374   2370   2399     1   110.1100470 384.091200
   2374   2386   2387     1   109.8000471 387.438400
   2374   2386   2388     1   109.8000471 387.438400
   2375   2374   2386     1   110.5600475 386.601600
   2375   2374   2376     1   109.7500473 328.025600
   2376   2374   2386     1   110.5600475 386.601600
   2377   2370   2399     1   110.1100470 384.091200
   2377   2380   2381     1   109.8000471 387.438400
   2377   2380   2382     1   109.8000471 387.438400
   2378   2377   2380     1   110.5600475 386.601600
   2378   2377   2379     1   109.7500473 328.025600
   2379   2377   2380     1   110.5600475 386.601600
   2380   2389   2390     1   109.5600471 388.275200
   2380   2389   2391     1   109.5600471 388.275200
   2381   2380   2389     1   109.8000471 387.438400
   2381   2380   2382     1   107.5800459 329.699200
   2382   2380   2389     1   109.8000471 387.438400
   2383   2395   2396     1   109.5600471 388.275200
   2383   2395   2397     1   109.5600471 388.275200
   2384   2383   2395     1   109.8000471 387.438400
   2384   2383   2385     1   107.5800459 329.699200
   2385   2383   2395     1   109.8000471 387.438400
   2386   2392   2393     1   109.5600471 388.275200
   2386   2392   2394     1   109.5600471 388.275200
   2387   2386   2392     1   109.8000471 387.438400
   2387   2386   2388     1   107.5800459 329.699200
   2388   2386   2392     1   109.8000471 387.438400
   2390   2389   2398     1   109.7800468 425.094400
   2390   2389   2391     1   108.4600466 328.025600
   2391   2389   2398     1   109.7800468 425.094400
   2393   2392   4828     1   109.7800468 425.094400
   2393   2392   2394     1   108.4600466 328.025600
   2394   2392   4828     1   109.7800468 425.094400
   2396   2395   4858     1   109.7800468 425.094400
   2396   2395   2397     1   108.4600466 328.025600
   2397   2395   4858     1   109.7800468 425.094400
   2400   2401   2402     1   108.0100461 406.684800
   2400   2401   2403     1   108.0100461 406.684800
   2400   2404   2405     1   108.0100461 406.684800
   2400   2404   2406     1   108.0100461 406.684800
   2400   2407   2408     1   108.0100461 406.684800
   2400   2407   2409     1   108.0100461 406.684800
   2401   2400   2429     1   110.1100470 384.091200
   2401   2413   2414     1   109.8000471 387.438400
   2401   2413   2415     1   109.8000471 387.438400
   2402   2401   2413     1   110.5600475 386.601600
   2402   2401   2403     1   109.7500473 328.025600
   2403   2401   2413     1   110.5600475 386.601600
   2404   2400   2429     1   110.1100470 384.091200
   2404   2416   2417     1   109.8000471 387.438400
   2404   2416   2418     1   109.8000471 387.438400
   2405   2404   2416     1   110.5600475 386.601600
   2405   2404   2406     1   109.7500473 328.025600
   2406   2404   2416     1   110.5600475 386.601600
   2407   2400   2429     1   110.1100470 384.091200
   2407   2410   2411     1   109.8000471 387.438400
   2407   2410   2412     1   109.8000471 387.438400
   2408   2407   2410     1   110.5600475 386.601600
   2408   2407   2409     1   109.7500473 328.025600
   2409   2407   2410     1   110.5600475 386.601600
   2410   2419   2420     1   109.5600471 388.275200
   2410   2419   2421     1   109.5600471 388.275200
   2411   2410   2419     1   109.8000471 387.438400
   2411   2410   2412     1   107.5800459 329.699200
   2412   2410   2419     1   109.8000471 387.438400
   2413   2425   2426     1   109.5600471 388.275200
   2413   2425   2427     1   109.5600471 388.275200
   2414   2413   2425     1   109.8000471 387.438400
   2414   2413   2415     1   107.5800459 329.699200
   2415   2413   2425     1   109.8000471 387.438400
   2416   2422   2423     1   109.5600471 388.275200
   2416   2422   2424     1   109.5600471 388.275200
   2417   2416   2422     1   109.8000471 387.438400
   2417   2416   2418     1   107.5800459 329.699200
   2418   2416   2422     1   109.8000471 387.438400
   2420   2419   2428     1   109.7800468 425.094400
   2420   2419   2421     1   108.4600466 328.025600
   2421   2419   2428     1   109.7800468 425.094400
   2423   2422   4888     1   109.7800468 425.094400
   2423   2422   2424     1   108.4600466 328.025600
   2424   2422   4888     1   109.7800468 425.094400
   2426   2425   4918     1   109.7800468 425.094400
   2426   2425   2427     1   108.4600466 328.025600
   2427   2425   4918     1   109.7800468 425.094400
   2430   2431   2432     1   108.0100461 406.684800
   2430   2431   2433     1   108.0100461 406.684800
   2430   2434   2435     1   108.0100461 406.684800
   2430   2434   2436     1   108.0100461 406.684800
   2430   2437   2438     1   108.0100461 406.684800
   2430   2437   2439     1   108.0100461 406.684800
   2431   2430   2459     1   110.1100470 384.091200
   2431   2443   2444     1   109.8000471 387.438400
   2431   2443   2445     1   109.8000471 387.438400
   2432   2431   2443     1   110.5600475 386.601600
   2432   2431   2433     1   109.7500473 328.025600
   2433   2431   2443     1   110.5600475 386.601600
   2434   2430   2459     1   110.1100470 384.091200
   2434   2446   2447     1   109.8000471 387.438400
   2434   2446   2448     1   109.8000471 387.438400
   2435   2434   2446     1   110.5600475 386.601600
   2435   2434   2436     1   109.7500473 328.025600
   2436   2434   2446     1   110.5600475 386.601600
   2437   2430   2459     1   110.1100470 384.091200
   2437   2440   2441     1   109.8000471 387.438400
   2437   2440   2442     1   109.8000471 387.438400
   2438   2437   2440     1   110.5600475 386.601600
   2438   2437   2439     1   109.7500473 328.025600
   2439   2437   2440     1   110.5600475 386.601600
   2440   2449   2450     1   109.5600471 388.275200
   2440   2449   2451     1   109.5600471 388.275200
   2441   2440   2449     1   109.8000471 387.438400
   2441   2440   2442     1   107.5800459 329.699200
   2442   2440   2449     1   109.8000471 387.438400
   2443   2455   2456     1   109.5600471 388.275200
   2443   2455   2457     1   109.5600471 388.275200
   2444   2443   2455     1   109.8000471 387.438400
   2444   2443   2445     1   107.5800459 329.699200
   2445   2443   2455     1   109.8000471 387.438400
   2446   2452   2453     1   109.5600471 388.275200
   2446   2452   2454     1   109.5600471 388.275200
   2447   2446   2452     1   109.8000471 387.438400
   2447   2446   2448     1   107.5800459 329.699200
   2448   2446   2452     1   109.8000471 387.438400
   2450   2449   2458     1   109.7800468 425.094400
   2450   2449   2451     1   108.4600466 328.025600
   2451   2449   2458     1   109.7800468 425.094400
   2453   2452   4948     1   109.7800468 425.094400
   2453   2452   2454     1   108.4600466 328.025600
   2454   2452   4948     1   109.7800468 425.094400
   2456   2455   4978     1   109.7800468 425.094400
   2456   2455   2457     1   108.4600466 328.025600
   2457   2455   4978     1   109.7800468 425.094400
   2460   2461   2462     1   108.0100461 406.684800
   2460   2461   2463     1   108.0100461 406.684800
   2460   2464   2465     1   108.0100461 406.684800
   2460   2464   2466     1   108.0100461 406.684800
   2460   2467   2468     1   108.0100461 406.684800
   2460   2467   2469     1   108.0100461 406.684800
   2461   2460   2489     1   110.1100470 384.091200
   2461   2473   2474     1   109.8000471 387.438400
   2461   2473   2475     1   109.8000471 387.438400
   2462   2461   2473     1   110.5600475 386.601600
   2462   2461   2463     1   109.7500473 328.025600
   2463   2461   2473     1   110.5600475 386.601600
   2464   2460   2489     1   110.1100470 384.091200
   2464   2476   2477     1   109.8000471 387.438400
   2464   2476   2478     1   109.8000471 387.438400
   2465   2464   2476     1   110.5600475 386.601600
   2465   2464   2466     1   109.7500473 328.025600
   2466   2464   2476     1   110.5600475 386.601600
   2467   2460   2489     1   110.1100470 384.091200
   2467   2470   2471     1   109.8000471 387.438400
   2467   2470   2472     1   109.8000471 387.438400
   2468   2467   2470     1   110.5600475 386.601600
   2468   2467   2469     1   109.7500473 328.025600
   2469   2467   2470     1   110.5600475 386.601600
   2470   2479   2480     1   109.5600471 388.275200
   2470   2479   2481     1   109.5600471 388.275200
   2471   2470   2479     1   109.8000471 387.438400
   2471   2470   2472     1   107.5800459 329.699200
   2472   2470   2479     1   109.8000471 387.438400
   2473   2485   2486     1   109.5600471 388.275200
   2473   2485   2487     1   109.5600471 388.275200
   2474   2473   2485     1   109.8000471 387.438400
   2474   2473   2475     1   107.5800459 329.699200
   2475   2473   2485     1   109.8000471 387.438400
   2476   2482   2483     1   109.5600471 388.275200
   2476   2482   2484     1   109.5600471 388.275200
   2477   2476   2482     1   109.8000471 387.438400
   2477   2476   2478     1   107.5800459 329.699200
   2478   2476   2482     1   109.8000471 387.438400
   2480   2479   2488     1   109.7800468 425.094400
   2480   2479   2481     1   108.4600466 328.025600
   2481   2479   2488     1   109.7800468 425.094400
   2483   2482   5008     1   109.7800468 425.094400
   2483   2482   2484     1   108.4600466 328.025600
   2484   2482   5008     1   109.7800468 425.094400
   2486   2485   5038     1   109.7800468 425.094400
   2486   2485   2487     1   108.4600466 328.025600
   2487   2485   5038     1   109.7800468 425.094400
   2490   2491   2492     1   108.0100461 406.684800
   2490   2491   2493     1   108.0100461 406.684800
   2490   2494   2495     1   108.0100461 406.684800
   2490   2494   2496     1   108.0100461 406.684800
   2490   2497   2498     1   108.0100461 406.684800
   2490   2497   2499     1   108.0100461 406.684800
   2491   2490   2519     1   110.1100470 384.091200
   2491   2503   2504     1   109.8000471 387.438400
   2491   2503   2505     1   109.8000471 387.438400
   2492   2491   2503     1   110.5600475 386.601600
   2492   2491   2493     1   109.7500473 328.025600
   2493   2491   2503     1   110.5600475 386.601600
   2494   2490   2519     1   110.1100470 384.091200
   2494   2506   2507     1   109.8000471 387.438400
   2494   2506   2508     1   109.8000471 387.438400
   2495   2494   2506     1   110.5600475 386.601600
   2495   2494   2496     1   109.7500473 328.025600
   2496   2494   2506     1   110.5600475 386.601600
   2497   2490   2519     1   110.1100470 384.091200
   2497   2500   2501     1   109.8000471 387.438400
   2497   2500   2502     1   109.8000471 387.438400
   2498   2497   2500     1   110.5600475 386.601600
   2498   2497   2499     1   109.7500473 328.025600
   2499   2497   2500     1   110.5600475 386.601600
   2500   2509   2510     1   109.5600471 388.275200
   2500   2509   2511     1   109.5600471 388.275200
   2501   2500   2509     1   109.8000471 387.438400
   2501   2500   2502     1   107.5800459 329.699200
   2502   2500   2509     1   109.8000471 387.438400
   2503   2515   2516     1   109.5600471 388.275200
   2503   2515   2517     1   109.5600471 388.275200
   2504   2503   2515     1   109.8000471 387.438400
   2504   2503   2505     1   107.5800459 329.699200
   2505   2503   2515     1   109.8000471 387.438400
   2506   2512   2513     1   109.5600471 388.275200
   2506   2512   2514     1   109.5600471 388.275200
   2507   2506   2512     1   109.8000471 387.438400
   2507   2506   2508     1   107.5800459 329.699200
   2508   2506   2512     1   109.8000471 387.438400
   2510   2509   2518     1   109.7800468 425.094400
   2510   2509   2511     1   108.4600466 328.025600
   2511   2509   2518     1   109.7800468 425.094400
   2513   2512   5068     1   109.7800468 425.094400
   2513   2512   2514     1   108.4600466 328.025600
   2514   2512   5068     1   109.7800468 425.094400
   2516   2515   5098     1   109.7800468 425.094400
   2516   2515   2517     1   108.4600466 328.025600
   2517   2515   5098     1   109.7800468 425.094400
   2520   2521   2522     1   108.0100461 406.684800
   2520   2521   2523     1   108.0100461 406.684800
   2520   2524   2525     1   108.0100461 406.684800
   2520   2524   2526     1   108.0100461 406.684800
   2520   2527   2528     1   108.0100461 406.684800
   2520   2527   2529     1   108.0100461 406.684800
   2521   2520   2549     1   110.1100470 384.091200
   2521   2533   2534     1   109.8000471 387.438400
   2521   2533   2535     1   109.8000471 387.438400
   2522   2521   2533     1   110.5600475 386.601600
   2522   2521   2523     1   109.7500473 328.025600
   2523   2521   2533     1   110.5600475 386.601600
   2524   2520   2549     1   110.1100470 384.091200
   2524   2536   2537     1   109.8000471 387.438400
   2524   2536   2538     1   109.8000471 387.438400
   2525   2524   2536     1   110.5600475 386.601600
   2525   2524   2526     1   109.7500473 328.025600
   2526   2524   2536     1   110.5600475 386.601600
   2527   2520   2549     1   110.1100470 384.091200
   2527   2530   2531     1   109.8000471 387.438400
   2527   2530   2532     1   109.8000471 387.438400
   2528   2527   2530     1   110.5600475 386.601600
   2528   2527   2529     1   109.7500473 328.025600
   2529   2527   2530     1   110.5600475 386.601600
   2530   2539   2540     1   109.5600471 388.275200
   2530   2539   2541     1   109.5600471 388.275200
   2531   2530   2539     1   109.8000471 387.438400
   2531   2530   2532     1   107.5800459 329.699200
   2532   2530   2539     1   109.8000471 387.438400
   2533   2545   2546     1   109.5600471 388.275200
   2533   2545   2547     1   109.5600471 388.275200
   2534   2533   2545     1   109.8000471 387.438400
   2534   2533   2535     1   107.5800459 329.699200
   2535   2533   2545     1   109.8000471 387.438400
   2536   2542   2543     1   109.5600471 388.275200
   2536   2542   2544     1   109.5600471 388.275200
   2537   2536   2542     1   109.8000471 387.438400
   2537   2536   2538     1   107.5800459 329.699200
   2538   2536   2542     1   109.8000471 387.438400
   2540   2539   2548     1   109.7800468 425.094400
   2540   2539   2541     1   108.4600466 328.025600
   2541   2539   2548     1   109.7800468 425.094400
   2543   2542   5128     1   109.7800468 425.094400
   2543   2542   2544     1   108.4600466 328.025600
   2544   2542   5128     1   109.7800468 425.094400
   2546   2545   5158     1   109.7800468 425.094400
   2546   2545   2547     1   108.4600466 328.025600
   2547   2545   5158     1   109.7800468 425.094400
   2550   2551   2552     1   108.0100461 406.684800
   2550   2551   2553     1   108.0100461 406.684800
   2550   2554   2555     1   108.0100461 406.684800
   2550   2554   2556     1   108.0100461 406.684800
   2550   2557   2558     1   108.0100461 406.684800
   2550   2557   2559     1   108.0100461 406.684800
   2551   2550   2579     1   110.1100470 384.091200
   2551   2563   2564     1   109.8000471 387.438400
   2551   2563   2565     1   109.8000471 387.438400
   2552   2551   2563     1   110.5600475 386.601600
   2552   2551   2553     1   109.7500473 328.025600
   2553   2551   2563     1   110.5600475 386.601600
   2554   2550   2579     1   110.1100470 384.091200
   2554   2566   2567     1   109.8000471 387.438400
   2554   2566   2568     1   109.8000471 387.438400
   2555   2554   2566     1   110.5600475 386.601600
   2555   2554   2556     1   109.7500473 328.025600
   2556   2554   2566     1   110.5600475 386.601600
   2557   2550   2579     1   110.1100470 384.091200
   2557   2560   2561     1   109.8000471 387.438400
   2557   2560   2562     1   109.8000471 387.438400
   2558   2557   2560     1   110.5600475 386.601600
   2558   2557   2559     1   109.7500473 328.025600
   2559   2557   2560     1   110.5600475 386.601600
   2560   2569   2570     1   109.5600471 388.275200
   2560   2569   2571     1   109.5600471 388.275200
   2561   2560   2569     1   109.8000471 387.438400
   2561   2560   2562     1   107.5800459 329.699200
   2562   2560   2569     1   109.8000471 387.438400
   2563   2575   2576     1   109.5600471 388.275200
   2563   2575   2577     1   109.5600471 388.275200
   2564   2563   2575     1   109.8000471 387.438400
   2564   2563   2565     1   107.5800459 329.699200
   2565   2563   2575     1   109.8000471 387.438400
   2566   2572   2573     1   109.5600471 388.275200
   2566   2572   2574     1   109.5600471 388.275200
   2567   2566   2572     1   109.8000471 387.438400
   2567   2566   2568     1   107.5800459 329.699200
   2568   2566   2572     1   109.8000471 387.438400
   2570   2569   2578     1   109.7800468 425.094400
   2570   2569   2571     1   108.4600466 328.025600
   2571   2569   2578     1   109.7800468 425.094400
   2573   2572   5188     1   109.7800468 425.094400
   2573   2572   2574     1   108.4600466 328.025600
   2574   2572   5188     1   109.7800468 425.094400
   2576   2575   5218     1   109.7800468 425.094400
   2576   2575   2577     1   108.4600466 328.025600
   2577   2575   5218     1   109.7800468 425.094400
   2580   2581   2582     1   108.0100461 406.684800
   2580   2581   2583     1   108.0100461 406.684800
   2580   2584   2585     1   108.0100461 406.684800
   2580   2584   2586     1   108.0100461 406.684800
   2580   2587   2588     1   108.0100461 406.684800
   2580   2587   2589     1   108.0100461 406.684800
   2581   2580   2609     1   110.1100470 384.091200
   2581   2593   2594     1   109.8000471 387.438400
   2581   2593   2595     1   109.8000471 387.438400
   2582   2581   2593     1   110.5600475 386.601600
   2582   2581   2583     1   109.7500473 328.025600
   2583   2581   2593     1   110.5600475 386.601600
   2584   2580   2609     1   110.1100470 384.091200
   2584   2596   2597     1   109.8000471 387.438400
   2584   2596   2598     1   109.8000471 387.438400
   2585   2584   2596     1   110.5600475 386.601600
   2585   2584   2586     1   109.7500473 328.025600
   2586   2584   2596     1   110.5600475 386.601600
   2587   2580   2609     1   110.1100470 384.091200
   2587   2590   2591     1   109.8000471 387.438400
   2587   2590   2592     1   109.8000471 387.438400
   2588   2587   2590     1   110.5600475 386.601600
   2588   2587   2589     1   109.7500473 328.025600
   2589   2587   2590     1   110.5600475 386.601600
   2590   2599   2600     1   109.5600471 388.275200
   2590   2599   2601     1   109.5600471 388.275200
   2591   2590   2599     1   109.8000471 387.438400
   2591   2590   2592     1   107.5800459 329.699200
   2592   2590   2599     1   109.8000471 387.438400
   2593   2605   2606     1   109.5600471 388.275200
   2593   2605   2607     1   109.5600471 388.275200
   2594   2593   2605     1   109.8000471 387.438400
   2594   2593   2595     1   107.5800459 329.699200
   2595   2593   2605     1   109.8000471 387.438400
   2596   2602   2603     1   109.5600471 388.275200
   2596   2602   2604     1   109.5600471 388.275200
   2597   2596   2602     1   109.8000471 387.438400
   2597   2596   2598     1   107.5800459 329.699200
   2598   2596   2602     1   109.8000471 387.438400
   2600   2599   2608     1   109.7800468 425.094400
   2600   2599   2601     1   108.4600466 328.025600
   2601   2599   2608     1   109.7800468 425.094400
   2603   2602   5248     1   109.7800468 425.094400
   2603   2602   2604     1   108.4600466 328.025600
   2604   2602   5248     1   109.7800468 425.094400
   2606   2605   5278     1   109.7800468 425.094400
   2606   2605   2607     1   108.4600466 328.025600
   2607   2605   5278     1   109.7800468 425.094400
   2610   2611   2612     1   108.0100461 406.684800
   2610   2611   2613     1   108.0100461 406.684800
   2610   2614   2615     1   108.0100461 406.684800
   2610   2614   2616     1   108.0100461 406.684800
   2610   2617   2618     1   108.0100461 406.684800
   2610   2617   2619     1   108.0100461 406.684800
   2611   2610   2639     1   110.1100470 384.091200
   2611   2623   2624     1   109.8000471 387.438400
   2611   2623   2625     1   109.8000471 387.438400
   2612   2611   2623     1   110.5600475 386.601600
   2612   2611   2613     1   109.7500473 328.025600
   2613   2611   2623     1   110.5600475 386.601600
   2614   2610   2639     1   110.1100470 384.091200
   2614   2626   2627     1   109.8000471 387.438400
   2614   2626   2628     1   109.8000471 387.438400
   2615   2614   2626     1   110.5600475 386.601600
   2615   2614   2616     1   109.7500473 328.025600
   2616   2614   2626     1   110.5600475 386.601600
   2617   2610   2639     1   110.1100470 384.091200
   2617   2620   2621     1   109.8000471 387.438400
   2617   2620   2622     1   109.8000471 387.438400
   2618   2617   2620     1   110.5600475 386.601600
   2618   2617   2619     1   109.7500473 328.025600
   2619   2617   2620     1   110.5600475 386.601600
   2620   2629   2630     1   109.5600471 388.275200
   2620   2629   2631     1   109.5600471 388.275200
   2621   2620   2629     1   109.8000471 387.438400
   2621   2620   2622     1   107.5800459 329.699200
   2622   2620   2629     1   109.8000471 387.438400
   2623   2635   2636     1   109.5600471 388.275200
   2623   2635   2637     1   109.5600471 388.275200
   2624   2623   2635     1   109.8000471 387.438400
   2624   2623   2625     1   107.5800459 329.699200
   2625   2623   2635     1   109.8000471 387.438400
   2626   2632   2633     1   109.5600471 388.275200
   2626   2632   2634     1   109.5600471 388.275200
   2627   2626   2632     1   109.8000471 387.438400
   2627   2626   2628     1   107.5800459 329.699200
   2628   2626   2632     1   109.8000471 387.438400
   2630   2629   2638     1   109.7800468 425.094400
   2630   2629   2631     1   108.4600466 328.025600
   2631   2629   2638     1   109.7800468 425.094400
   2633   2632   5308     1   109.7800468 425.094400
   2633   2632   2634     1   108.4600466 328.025600
   2634   2632   5308     1   109.7800468 425.094400
   2636   2635   5338     1   109.7800468 425.094400
   2636   2635   2637     1   108.4600466 328.025600
   2637   2635   5338     1   109.7800468 425.094400
   2640   2641   2642     1   108.0100461 406.684800
   2640   2641   2643     1   108.0100461 406.684800
   2640   2644   2645     1   108.0100461 406.684800
   2640   2644   2646     1   108.0100461 406.684800
   2640   2647   2648     1   108.0100461 406.684800
   2640   2647   2649     1   108.0100461 406.684800
   2641   2640   2669     1   110.1100470 384.091200
   2641   2653   2654     1   109.8000471 387.438400
   2641   2653   2655     1   109.8000471 387.438400
   2642   2641   2653     1   110.5600475 386.601600
   2642   2641   2643     1   109.7500473 328.025600
   2643   2641   2653     1   110.5600475 386.601600
   2644   2640   2669     1   110.1100470 384.091200
   2644   2656   2657     1   109.8000471 387.438400
   2644   2656   2658     1   109.8000471 387.438400
   2645   2644   2656     1   110.5600475 386.601600
   2645   2644   2646     1   109.7500473 328.025600
   2646   2644   2656     1   110.5600475 386.601600
   2647   2640   2669     1   110.1100470 384.091200
   2647   2650   2651     1   109.8000471 387.438400
   2647   2650   2652     1   109.8000471 387.438400
   2648   2647   2650     1   110.5600475 386.601600
   2648   2647   2649     1   109.7500473 328.025600
   2649   2647   2650     1   110.5600475 386.601600
   2650   2659   2660     1   109.5600471 388.275200
   2650   2659   2661     1   109.5600471 388.275200
   2651   2650   2659     1   109.8000471 387.438400
   2651   2650   2652     1   107.5800459 329.699200
   2652   2650   2659     1   109.8000471 387.438400
   2653   2665   2666     1   109.5600471 388.275200
   2653   2665   2667     1   109.5600471 388.275200
   2654   2653   2665     1   109.8000471 387.438400
   2654   2653   2655     1   107.5800459 329.699200
   2655   2653   2665     1   109.8000471 387.438400
   2656   2662   2663     1   109.5600471 388.275200
   2656   2662   2664     1   109.5600471 388.275200
   2657   2656   2662     1   109.8000471 387.438400
   2657   2656   2658     1   107.5800459 329.699200
   2658   2656   2662     1   109.8000471 387.438400
   2660   2659   2668     1   109.7800468 425.094400
   2660   2659   2661     1   108.4600466 328.025600
   2661   2659   2668     1   109.7800468 425.094400
   2663   2662   5368     1   109.7800468 425.094400
   2663   2662   2664     1   108.4600466 328.025600
   2664   2662   5368     1   109.7800468 425.094400
   2666   2665   5398     1   109.7800468 425.094400
   2666   2665   2667     1   108.4600466 328.025600
   2667   2665   5398     1   109.7800468 425.094400
   2670   2671   2672     1   108.0100461 406.684800
   2670   2671   2673     1   108.0100461 406.684800
   2670   2674   2675     1   108.0100461 406.684800
   2670   2674   2676     1   108.0100461 406.684800
   2670   2677   2678     1   108.0100461 406.684800
   2670   2677   2679     1   108.0100461 406.684800
   2671   2670   2699     1   110.1100470 384.091200
   2671   2683   2684     1   109.8000471 387.438400
   2671   2683   2685     1   109.8000471 387.438400
   2672   2671   2683     1   110.5600475 386.601600
   2672   2671   2673     1   109.7500473 328.025600
   2673   2671   2683     1   110.5600475 386.601600
   2674   2670   2699     1   110.1100470 384.091200
   2674   2686   2687     1   109.8000471 387.438400
   2674   2686   2688     1   109.8000471 387.438400
   2675   2674   2686     1   110.5600475 386.601600
   2675   2674   2676     1   109.7500473 328.025600
   2676   2674   2686     1   110.5600475 386.601600
   2677   2670   2699     1   110.1100470 384.091200
   2677   2680   2681     1   109.8000471 387.438400
   2677   2680   2682     1   109.8000471 387.438400
   2678   2677   2680     1   110.5600475 386.601600
   2678   2677   2679     1   109.7500473 328.025600
   2679   2677   2680     1   110.5600475 386.601600
   2680   2689   2690     1   109.5600471 388.275200
   2680   2689   2691     1   109.5600471 388.275200
   2681   2680   2689     1   109.8000471 387.438400
   2681   2680   2682     1   107.5800459 329.699200
   2682   2680   2689     1   109.8000471 387.438400
   2683   2695   2696     1   109.5600471 388.275200
   2683   2695   2697     1   109.5600471 388.275200
   2684   2683   2695     1   109.8000471 387.438400
   2684   2683   2685     1   107.5800459 329.699200
   2685   2683   2695     1   109.8000471 387.438400
   2686   2692   2693     1   109.5600471 388.275200
   2686   2692   2694     1   109.5600471 388.275200
   2687   2686   2692     1   109.8000471 387.438400
   2687   2686   2688     1   107.5800459 329.699200
   2688   2686   2692     1   109.8000471 387.438400
   2690   2689   2698     1   109.7800468 425.094400
   2690   2689   2691     1   108.4600466 328.025600
   2691   2689   2698     1   109.7800468 425.094400
   2693   2692   5428     1   109.7800468 425.094400
   2693   2692   2694     1   108.4600466 328.025600
   2694   2692   5428     1   109.7800468 425.094400
   2696   2695   5458     1   109.7800468 425.094400
   2696   2695   2697     1   108.4600466 328.025600
   2697   2695   5458     1   109.7800468 425.094400
   2700   2701   2702     1   108.0100461 406.684800
   2700   2701   2703     1   108.0100461 406.684800
   2700   2704   2705     1   108.0100461 406.684800
   2700   2704   2706     1   108.0100461 406.684800
   2700   2707   2708     1   108.0100461 406.684800
   2700   2707   2709     1   108.0100461 406.684800
   2701   2700   2729     1   110.1100470 384.091200
   2701   2713   2714     1   109.8000471 387.438400
   2701   2713   2715     1   109.8000471 387.438400
   2702   2701   2713     1   110.5600475 386.601600
   2702   2701   2703     1   109.7500473 328.025600
   2703   2701   2713     1   110.5600475 386.601600
   2704   2700   2729     1   110.1100470 384.091200
   2704   2716   2717     1   109.8000471 387.438400
   2704   2716   2718     1   109.8000471 387.438400
   2705   2704   2716     1   110.5600475 386.601600
   2705   2704   2706     1   109.7500473 328.025600
   2706   2704   2716     1   110.5600475 386.601600
   2707   2700   2729     1   110.1100470 384.091200
   2707   2710   2711     1   109.8000471 387.438400
   2707   2710   2712     1   109.8000471 387.438400
   2708   2707   2710     1   110.5600475 386.601600
   2708   2707   2709     1   109.7500473 328.025600
   2709   2707   2710     1   110.5600475 386.601600
   2710   2719   2720     1   109.5600471 388.275200
   2710   2719   2721     1   109.5600471 388.275200
   2711   2710   2719     1   109.8000471 387.438400
   2711   2710   2712     1   107.5800459 329.699200
   2712   2710   2719     1   109.8000471 387.438400
   2713   2725   2726     1   109.5600471 388.275200
   2713   2725   2727     1   109.5600471 388.275200
   2714   2713   2725     1   109.8000471 387.438400
   2714   2713   2715     1   107.5800459 329.699200
   2715   2713   2725     1   109.8000471 387.438400
   2716   2722   2723     1   109.5600471 388.275200
   2716   2722   2724     1   109.5600471 388.275200
   2717   2716   2722     1   109.8000471 387.438400
   2717   2716   2718     1   107.5800459 329.699200
   2718   2716   2722     1   109.8000471 387.438400
   2720   2719   2728     1   109.7800468 425.094400
   2720   2719   2721     1   108.4600466 328.025600
   2721   2719   2728     1   109.7800468 425.094400
   2723   2722   5488     1   109.7800468 425.094400
   2723   2722   2724     1   108.4600466 328.025600
   2724   2722   5488     1   109.7800468 425.094400
   2726   2725   5518     1   109.7800468 425.094400
   2726   2725   2727     1   108.4600466 328.025600
   2727   2725   5518     1   109.7800468 425.094400
   2730   2731   2732     1   108.0100461 406.684800
   2730   2731   2733     1   108.0100461 406.684800
   2730   2734   2735     1   108.0100461 406.684800
   2730   2734   2736     1   108.0100461 406.684800
   2730   2737   2738     1   108.0100461 406.684800
   2730   2737   2739     1   108.0100461 406.684800
   2731   2730   2759     1   110.1100470 384.091200
   2731   2743   2744     1   109.8000471 387.438400
   2731   2743   2745     1   109.8000471 387.438400
   2732   2731   2743     1   110.5600475 386.601600
   2732   2731   2733     1   109.7500473 328.025600
   2733   2731   2743     1   110.5600475 386.601600
   2734   2730   2759     1   110.1100470 384.091200
   2734   2746   2747     1   109.8000471 387.438400
   2734   2746   2748     1   109.8000471 387.438400
   2735   2734   2746     1   110.5600475 386.601600
   2735   2734   2736     1   109.7500473 328.025600
   2736   2734   2746     1   110.5600475 386.601600
   2737   2730   2759     1   110.1100470 384.091200
   2737   2740   2741     1   109.8000471 387.438400
   2737   2740   2742     1   109.8000471 387.438400
   2738   2737   2740     1   110.5600475 386.601600
   2738   2737   2739     1   109.7500473 328.025600
   2739   2737   2740     1   110.5600475 386.601600
   2740   2749   2750     1   109.5600471 388.275200
   2740   2749   2751     1   109.5600471 388.275200
   2741   2740   2749     1   109.8000471 387.438400
   2741   2740   2742     1   107.5800459 329.699200
   2742   2740   2749     1   109.8000471 387.438400
   2743   2755   2756     1   109.5600471 388.275200
   2743   2755   2757     1   109.5600471 388.275200
   2744   2743   2755     1   109.8000471 387.438400
   2744   2743   2745     1   107.5800459 329.699200
   2745   2743   2755     1   109.8000471 387.438400
   2746   2752   2753     1   109.5600471 388.275200
   2746   2752   2754     1   109.5600471 388.275200
   2747   2746   2752     1   109.8000471 387.438400
   2747   2746   2748     1   107.5800459 329.699200
   2748   2746   2752     1   109.8000471 387.438400
   2750   2749   2758     1   109.7800468 425.094400
   2750   2749   2751     1   108.4600466 328.025600
   2751   2749   2758     1   109.7800468 425.094400
   2753   2752   5548     1   109.7800468 425.094400
   2753   2752   2754     1   108.4600466 328.025600
   2754   2752   5548     1   109.7800468 425.094400
   2756   2755   5578     1   109.7800468 425.094400
   2756   2755   2757     1   108.4600466 328.025600
   2757   2755   5578     1   109.7800468 425.094400
   2760   2761   2762     1   108.0100461 406.684800
   2760   2761   2763     1   108.0100461 406.684800
   2760   2764   2765     1   108.0100461 406.684800
   2760   2764   2766     1   108.0100461 406.684800
   2760   2767   2768     1   108.0100461 406.684800
   2760   2767   2769     1   108.0100461 406.684800
   2761   2760   2789     1   110.1100470 384.091200
   2761   2773   2774     1   109.8000471 387.438400
   2761   2773   2775     1   109.8000471 387.438400
   2762   2761   2773     1   110.5600475 386.601600
   2762   2761   2763     1   109.7500473 328.025600
   2763   2761   2773     1   110.5600475 386.601600
   2764   2760   2789     1   110.1100470 384.091200
   2764   2776   2777     1   109.8000471 387.438400
   2764   2776   2778     1   109.8000471 387.438400
   2765   2764   2776     1   110.5600475 386.601600
   2765   2764   2766     1   109.7500473 328.025600
   2766   2764   2776     1   110.5600475 386.601600
   2767   2760   2789     1   110.1100470 384.091200
   2767   2770   2771     1   109.8000471 387.438400
   2767   2770   2772     1   109.8000471 387.438400
   2768   2767   2770     1   110.5600475 386.601600
   2768   2767   2769     1   109.7500473 328.025600
   2769   2767   2770     1   110.5600475 386.601600
   2770   2779   2780     1   109.5600471 388.275200
   2770   2779   2781     1   109.5600471 388.275200
   2771   2770   2779     1   109.8000471 387.438400
   2771   2770   2772     1   107.5800459 329.699200
   2772   2770   2779     1   109.8000471 387.438400
   2773   2785   2786     1   109.5600471 388.275200
   2773   2785   2787     1   109.5600471 388.275200
   2774   2773   2785     1   109.8000471 387.438400
   2774   2773   2775     1   107.5800459 329.699200
   2775   2773   2785     1   109.8000471 387.438400
   2776   2782   2783     1   109.5600471 388.275200
   2776   2782   2784     1   109.5600471 388.275200
   2777   2776   2782     1   109.8000471 387.438400
   2777   2776   2778     1   107.5800459 329.699200
   2778   2776   2782     1   109.8000471 387.438400
   2780   2779   2788     1   109.7800468 425.094400
   2780   2779   2781     1   108.4600466 328.025600
   2781   2779   2788     1   109.7800468 425.094400
   2783   2782   5608     1   109.7800468 425.094400
   2783   2782   2784     1   108.4600466 328.025600
   2784   2782   5608     1   109.7800468 425.094400
   2786   2785   5638     1   109.7800468 425.094400
   2786   2785   2787     1   108.4600466 328.025600
   2787   2785   5638     1   109.7800468 425.094400
   2790   2791   2792     1   108.0100461 406.684800
   2790   2791   2793     1   108.0100461 406.684800
   2790   2794   2795     1   108.0100461 406.684800
   2790   2794   2796     1   108.0100461 406.684800
   2790   2797   2798     1   108.0100461 406.684800
   2790   2797   2799     1   108.0100461 406.684800
   2791   2790   2819     1   110.1100470 384.091200
   2791   2803   2804     1   109.8000471 387.438400
   2791   2803   2805     1   109.8000471 387.438400
   2792   2791   2803     1   110.5600475 386.601600
   2792   2791   2793     1   109.7500473 328.025600
   2793   2791   2803     1   110.5600475 386.601600
   2794   2790   2819     1   110.1100470 384.091200
   2794   2806   2807     1   109.8000471 387.438400
   2794   2806   2808     1   109.8000471 387.438400
   2795   2794   2806     1   110.5600475 386.601600
   2795   2794   2796     1   109.7500473 328.025600
   2796   2794   2806     1   110.5600475 386.601600
   2797   2790   2819     1   110.1100470 384.091200
   2797   2800   2801     1   109.8000471 387.438400
   2797   2800   2802     1   109.8000471 387.438400
   2798   2797   2800     1   110.5600475 386.601600
   2798   2797   2799     1   109.7500473 328.025600
   2799   2797   2800     1   110.5600475 386.601600
   2800   2809   2810     1   109.5600471 388.275200
   2800   2809   2811     1   109.5600471 388.275200
   2801   2800   2809     1   109.8000471 387.438400
   2801   2800   2802     1   107.5800459 329.699200
   2802   2800   2809     1   109.8000471 387.438400
   2803   2815   2816     1   109.5600471 388.275200
   2803   2815   2817     1   109.5600471 388.275200
   2804   2803   2815     1   109.8000471 387.438400
   2804   2803   2805     1   107.5800459 329.699200
   2805   2803   2815     1   109.8000471 387.438400
   2806   2812   2813     1   109.5600471 388.275200
   2806   2812   2814     1   109.5600471 388.275200
   2807   2806   2812     1   109.8000471 387.438400
   2807   2806   2808     1   107.5800459 329.699200
   2808   2806   2812     1   109.8000471 387.438400
   2810   2809   2818     1   109.7800468 425.094400
   2810   2809   2811     1   108.4600466 328.025600
   2811   2809   2818     1   109.7800468 425.094400
   2813   2812   5668     1   109.7800468 425.094400
   2813   2812   2814     1   108.4600466 328.025600
   2814   2812   5668     1   109.7800468 425.094400
   2816   2815   5698     1   109.7800468 425.094400
   2816   2815   2817     1   108.4600466 328.025600
   2817   2815   5698     1   109.7800468 425.094400
   2820   2821   2822     1   108.0100461 406.684800
   2820   2821   2823     1   108.0100461 406.684800
   2820   2824   2825     1   108.0100461 406.684800
   2820   2824   2826     1   108.0100461 406.684800
   2820   2827   2828     1   108.0100461 406.684800
   2820   2827   2829     1   108.0100461 406.684800
   2821   2820   2849     1   110.1100470 384.091200
   2821   2833   2834     1   109.8000471 387.438400
   2821   2833   2835     1   109.8000471 387.438400
   2822   2821   2833     1   110.5600475 386.601600
   2822   2821   2823     1   109.7500473 328.025600
   2823   2821   2833     1   110.5600475 386.601600
   2824   2820   2849     1   110.1100470 384.091200
   2824   2836   2837     1   109.8000471 387.438400
   2824   2836   2838     1   109.8000471 387.438400
   2825   2824   2836     1   110.5600475 386.601600
   2825   2824   2826     1   109.7500473 328.025600
   2826   2824   2836     1   110.5600475 386.601600
   2827   2820   2849     1   110.1100470 384.091200
   2827   2830   2831     1   109.8000471 387.438400
   2827   2830   2832     1   109.8000471 387.438400
   2828   2827   2830     1   110.5600475 386.601600
   2828   2827   2829     1   109.7500473 328.025600
   2829   2827   2830     1   110.5600475 386.601600
   2830   2839   2840     1   109.5600471 388.275200
   2830   2839   2841     1   109.5600471 388.275200
   2831   2830   2839     1   109.8000471 387.438400
   2831   2830   2832     1   107.5800459 329.699200
   2832   2830   2839     1   109.8000471 387.438400
   2833   2845   2846     1   109.5600471 388.275200
   2833   2845   2847     1   109.5600471 388.275200
   2834   2833   2845     1   109.8000471 387.438400
   2834   2833   2835     1   107.5800459 329.699200
   2835   2833   2845     1   109.8000471 387.438400
   2836   2842   2843     1   109.5600471 388.275200
   2836   2842   2844     1   109.5600471 388.275200
   2837   2836   2842     1   109.8000471 387.438400
   2837   2836   2838     1   107.5800459 329.699200
   2838   2836   2842     1   109.8000471 387.438400
   2840   2839   2848     1   109.7800468 425.094400
   2840   2839   2841     1   108.4600466 328.025600
   2841   2839   2848     1   109.7800468 425.094400
   2843   2842   5712     1   109.7800468 425.094400
   2843   2842   2844     1   108.4600466 328.025600
   2844   2842   5712     1   109.7800468 425.094400
   2846   2845   5726     1   109.7800468 425.094400
   2846   2845   2847     1   108.4600466 328.025600
   2847   2845   5726     1   109.7800468 425.094400
   2850   2851   2852     1   108.0100461 406.684800
   2850   2851   2853     1   108.0100461 406.684800
   2850   2854   2855     1   108.0100461 406.684800
   2850   2854   2856     1   108.0100461 406.684800
   2850   2857   2858     1   108.0100461 406.684800
   2850   2857   2859     1   108.0100461 406.684800
   2851   2850   2879     1   110.1100470 384.091200
   2851   2863   2864     1   109.8000471 387.438400
   2851   2863   2865     1   109.8000471 387.438400
   2852   2851   2863     1   110.5600475 386.601600
   2852   2851   2853     1   109.7500473 328.025600
   2853   2851   2863     1   110.5600475 386.601600
   2854   2850   2879     1   110.1100470 384.091200
   2854   2866   2867     1   109.8000471 387.438400
   2854   2866   2868     1   109.8000471 387.438400
   2855   2854   2866     1   110.5600475 386.601600
   2855   2854   2856     1   109.7500473 328.025600
   2856   2854   2866     1   110.5600475 386.601600
   2857   2850   2879     1   110.1100470 384.091200
   2857   2860   2861     1   109.8000471 387.438400
   2857   2860   2862     1   109.8000471 387.438400
   2858   2857   2860     1   110.5600475 386.601600
   2858   2857   2859     1   109.7500473 328.025600
   2859   2857   2860     1   110.5600475 386.601600
   2860   2869   2870     1   109.5600471 388.275200
   2860   2869   2871     1   109.5600471 388.275200
   2861   2860   2869     1   109.8000471 387.438400
   2861   2860   2862     1   107.5800459 329.699200
   2862   2860   2869     1   109.8000471 387.438400
   2863   2875   2876     1   109.5600471 388.275200
   2863   2875   2877     1   109.5600471 388.275200
   2864   2863   2875     1   109.8000471 387.438400
   2864   2863   2865     1   107.5800459 329.699200
   2865   2863   2875     1   109.8000471 387.438400
   2866   2872   2873     1   109.5600471 388.275200
   2866   2872   2874     1   109.5600471 388.275200
   2867   2866   2872     1   109.8000471 387.438400
   2867   2866   2868     1   107.5800459 329.699200
   2868   2866   2872     1   109.8000471 387.438400
   2870   2869   2878     1   109.7800468 425.094400
   2870   2869   2871     1   108.4600466 328.025600
   2871   2869   2878     1   109.7800468 425.094400
   2873   2872   5740     1   109.7800468 425.094400
   2873   2872   2874     1   108.4600466 328.025600
   2874   2872   5740     1   109.7800468 425.094400
   2876   2875   5754     1   109.7800468 425.094400
   2876   2875   2877     1   108.4600466 328.025600
   2877   2875   5754     1   109.7800468 425.094400
   2880   2881   2882     1   108.0100461 406.684800
   2880   2881   2883     1   108.0100461 406.684800
   2880   2884   2885     1   108.0100461 406.684800
   2880   2884   2886     1   108.0100461 406.684800
   2880   2887   2888     1   108.0100461 406.684800
   2880   2887   2889     1   108.0100461 406.684800
   2881   2880   2909     1   110.1100470 384.091200
   2881   2893   2894     1   109.8000471 387.438400
   2881   2893   2895     1   109.8000471 387.438400
   2882   2881   2893     1   110.5600475 386.601600
   2882   2881   2883     1   109.7500473 328.025600
   2883   2881   2893     1   110.5600475 386.601600
   2884   2880   2909     1   110.1100470 384.091200
   2884   2896   2897     1   109.8000471 387.438400
   2884   2896   2898     1   109.8000471 387.438400
   2885   2884   2896     1   110.5600475 386.601600
   2885   2884   2886     1   109.7500473 328.025600
   2886   2884   2896     1   110.5600475 386.601600
   2887   2880   2909     1   110.1100470 384.091200
   2887   2890   2891     1   109.8000471 387.438400
   2887   2890   2892     1   109.8000471 387.438400
   2888   2887   2890     1   110.5600475 386.601600
   2888   2887   2889     1   109.7500473 328.025600
   2889   2887   2890     1   110.5600475 386.601600
   2890   2899   2900     1   109.5600471 388.275200
   2890   2899   2901     1   109.5600471 388.275200
   2891   2890   2899     1   109.8000471 387.438400
   2891   2890   2892     1   107.5800459 329.699200
   2892   2890   2899     1   109.8000471 387.438400
   2893   2905   2906     1   109.5600471 388.275200
   2893   2905   2907     1   109.5600471 388.275200
   2894   2893   2905     1   109.8000471 387.438400
   2894   2893   2895     1   107.5800459 329.699200
   2895   2893   2905     1   109.8000471 387.438400
   2896   2902   2903     1   109.5600471 388.275200
   2896   2902   2904     1   109.5600471 388.275200
   2897   2896   2902     1   109.8000471 387.438400
   2897   2896   2898     1   107.5800459 329.699200
   2898   2896   2902     1   109.8000471 387.438400
   2900   2899   2908     1   109.7800468 425.094400
   2900   2899   2901     1   108.4600466 328.025600
   2901   2899   2908     1   109.7800468 425.094400
   2903   2902   5768     1   109.7800468 425.094400
   2903   2902   2904     1   108.4600466 328.025600
   2904   2902   5768     1   109.7800468 425.094400
   2906   2905   5782     1   109.7800468 425.094400
   2906   2905   2907     1   108.4600466 328.025600
   2907   2905   5782     1   109.7800468 425.094400
   2910   2911   2912     1   108.0100461 406.684800
   2910   2911   2913     1   108.0100461 406.684800
   2910   2914   2915     1   108.0100461 406.684800
   2910   2914   2916     1   108.0100461 406.684800
   2910   2917   2918     1   108.0100461 406.684800
   2910   2917   2919     1   108.0100461 406.684800
   2911   2910   2939     1   110.1100470 384.091200
   2911   2923   2924     1   109.8000471 387.438400
   2911   2923   2925     1   109.8000471 387.438400
   2912   2911   2923     1   110.5600475 386.601600
   2912   2911   2913     1   109.7500473 328.025600
   2913   2911   2923     1   110.5600475 386.601600
   2914   2910   2939     1   110.1100470 384.091200
   2914   2926   2927     1   109.8000471 387.438400
   2914   2926   2928     1   109.8000471 387.438400
   2915   2914   2926     1   110.5600475 386.601600
   2915   2914   2916     1   109.7500473 328.025600
   2916   2914   2926     1   110.5600475 386.601600
   2917   2910   2939     1   110.1100470 384.091200
   2917   2920   2921     1   109.8000471 387.438400
   2917   2920   2922     1   109.8000471 387.438400
   2918   2917   2920     1   110.5600475 386.601600
   2918   2917   2919     1   109.7500473 328.025600
   2919   2917   2920     1   110.5600475 386.601600
   2920   2929   2930     1   109.5600471 388.275200
   2920   2929   2931     1   109.5600471 388.275200
   2921   2920   2929     1   109.8000471 387.438400
   2921   2920   2922     1   107.5800459 329.699200
   2922   2920   2929     1   109.8000471 387.438400
   2923   2935   2936     1   109.5600471 388.275200
   2923   2935   2937     1   109.5600471 388.275200
   2924   2923   2935     1   109.8000471 387.438400
   2924   2923   2925     1   107.5800459 329.699200
   2925   2923   2935     1   109.8000471 387.438400
   2926   2932   2933     1   109.5600471 388.275200
   2926   2932   2934     1   109.5600471 388.275200
   2927   2926   2932     1   109.8000471 387.438400
   2927   2926   2928     1   107.5800459 329.699200
   2928   2926   2932     1   109.8000471 387.438400
   2930   2929   2938     1   109.7800468 425.094400
   2930   2929   2931     1   108.4600466 328.025600
   2931   2929   2938     1   109.7800468 425.094400
   2933   2932   5796     1   109.7800468 425.094400
   2933   2932   2934     1   108.4600466 328.025600
   2934   2932   5796     1   109.7800468 425.094400
   2936   2935   5810     1   109.7800468 425.094400
   2936   2935   2937     1   108.4600466 328.025600
   2937   2935   5810     1   109.7800468 425.094400
   2940   2941   2942     1   108.0100461 406.684800
   2940   2941   2943     1   108.0100461 406.684800
   2940   2944   2945     1   108.0100461 406.684800
   2940   2944   2946     1   108.0100461 406.684800
   2940   2947   2948     1   108.0100461 406.684800
   2940   2947   2949     1   108.0100461 406.684800
   2941   2940   2969     1   110.1100470 384.091200
   2941   2953   2954     1   109.8000471 387.438400
   2941   2953   2955     1   109.8000471 387.438400
   2942   2941   2953     1   110.5600475 386.601600
   2942   2941   2943     1   109.7500473 328.025600
   2943   2941   2953     1   110.5600475 386.601600
   2944   2940   2969     1   110.1100470 384.091200
   2944   2956   2957     1   109.8000471 387.438400
   2944   2956   2958     1   109.8000471 387.438400
   2945   2944   2956     1   110.5600475 386.601600
   2945   2944   2946     1   109.7500473 328.025600
   2946   2944   2956     1   110.5600475 386.601600
   2947   2940   2969     1   110.1100470 384.091200
   2947   2950   2951     1   109.8000471 387.438400
   2947   2950   2952     1   109.8000471 387.438400
   2948   2947   2950     1   110.5600475 386.601600
   2948   2947   2949     1   109.7500473 328.025600
   2949   2947   2950     1   110.5600475 386.601600
   2950   2959   2960     1   109.5600471 388.275200
   2950   2959   2961     1   109.5600471 388.275200
   2951   2950   2959     1   109.8000471 387.438400
   2951   2950   2952     1   107.5800459 329.699200
   2952   2950   2959     1   109.8000471 387.438400
   2953   2965   2966     1   109.5600471 388.275200
   2953   2965   2967     1   109.5600471 388.275200
   2954   2953   2965     1   109.8000471 387.438400
   2954   2953   2955     1   107.5800459 329.699200
   2955   2953   2965     1   109.8000471 387.438400
   2956   2962   2963     1   109.5600471 388.275200
   2956   2962   2964     1   109.5600471 388.275200
   2957   2956   2962     1   109.8000471 387.438400
   2957   2956   2958     1   107.5800459 329.699200
   2958   2956   2962     1   109.8000471 387.438400
   2960   2959   2968     1   109.7800468 425.094400
   2960   2959   2961     1   108.4600466 328.025600
   2961   2959   2968     1   109.7800468 425.094400
   2963   2962   5824     1   109.7800468 425.094400
   2963   2962   2964     1   108.4600466 328.025600
   2964   2962   5824     1   109.7800468 425.094400
   2966   2965   5838     1   109.7800468 425.094400
   2966   2965   2967     1   108.4600466 328.025600
   2967   2965   5838     1   109.7800468 425.094400
   2970   2971   2972     1   108.0100461 406.684800
   2970   2971   2973     1   108.0100461 406.684800
   2970   2974   2975     1   108.0100461 406.684800
   2970   2974   2976     1   108.0100461 406.684800
   2970   2977   2978     1   108.0100461 406.684800
   2970   2977   2979     1   108.0100461 406.684800
   2971   2970   2999     1   110.1100470 384.091200
   2971   2983   2984     1   109.8000471 387.438400
   2971   2983   2985     1   109.8000471 387.438400
   2972   2971   2983     1   110.5600475 386.601600
   2972   2971   2973     1   109.7500473 328.025600
   2973   2971   2983     1   110.5600475 386.601600
   2974   2970   2999     1   110.1100470 384.091200
   2974   2986   2987     1   109.8000471 387.438400
   2974   2986   2988     1   109.8000471 387.438400
   2975   2974   2986     1   110.5600475 386.601600
   2975   2974   2976     1   109.7500473 328.025600
   2976   2974   2986     1   110.5600475 386.601600
   2977   2970   2999     1   110.1100470 384.091200
   2977   2980   2981     1   109.8000471 387.438400
   2977   2980   2982     1   109.8000471 387.438400
   2978   2977   2980     1   110.5600475 386.601600
   2978   2977   2979     1   109.7500473 328.025600
   2979   2977   2980     1   110.5600475 386.601600
   2980   2989   2990     1   109.5600471 388.275200
   2980   2989   2991     1   109.5600471 388.275200
   2981   2980   2989     1   109.8000471 387.438400
   2981   2980   2982     1   107.5800459 329.699200
   2982   2980   2989     1   109.8000471 387.438400
   2983   2995   2996     1   109.5600471 388.275200
   2983   2995   2997     1   109.5600471 388.275200
   2984   2983   2995     1   109.8000471 387.438400
   2984   2983   2985     1   107.5800459 329.699200
   2985   2983   2995     1   109.8000471 387.438400
   2986   2992   2993     1   109.5600471 388.275200
   2986   2992   2994     1   109.5600471 388.275200
   2987   2986   2992     1   109.8000471 387.438400
   2987   2986   2988     1   107.5800459 329.699200
   2988   2986   2992     1   109.8000471 387.438400
   2990   2989   2998     1   109.7800468 425.094400
   2990   2989   2991     1   108.4600466 328.025600
   2991   2989   2998     1   109.7800468 425.094400
   2993   2992   5852     1   109.7800468 425.094400
   2993   2992   2994     1   108.4600466 328.025600
   2994   2992   5852     1   109.7800468 425.094400
   2996   2995   5866     1   109.7800468 425.094400
   2996   2995   2997     1   108.4600466 328.025600
   2997   2995   5866     1   109.7800468 425.094400
   3000   3001   3002     1   108.0100461 406.684800
   3000   3001   3003     1   108.0100461 406.684800
   3000   3004   3005     1   108.0100461 406.684800
   3000   3004   3006     1   108.0100461 406.684800
   3000   3007   3008     1   108.0100461 406.684800
   3000   3007   3009     1   108.0100461 406.684800
   3001   3000   3029     1   110.1100470 384.091200
   3001   3013   3014     1   109.8000471 387.438400
   3001   3013   3015     1   109.8000471 387.438400
   3002   3001   3013     1   110.5600475 386.601600
   3002   3001   3003     1   109.7500473 328.025600
   3003   3001   3013     1   110.5600475 386.601600
   3004   3000   3029     1   110.1100470 384.091200
   3004   3016   3017     1   109.8000471 387.438400
   3004   3016   3018     1   109.8000471 387.438400
   3005   3004   3016     1   110.5600475 386.601600
   3005   3004   3006     1   109.7500473 328.025600
   3006   3004   3016     1   110.5600475 386.601600
   3007   3000   3029     1   110.1100470 384.091200
   3007   3010   3011     1   109.8000471 387.438400
   3007   3010   3012     1   109.8000471 387.438400
   3008   3007   3010     1   110.5600475 386.601600
   3008   3007   3009     1   109.7500473 328.025600
   3009   3007   3010     1   110.5600475 386.601600
   3010   3019   3020     1   109.5600471 388.275200
   3010   3019   3021     1   109.5600471 388.275200
   3011   3010   3019     1   109.8000471 387.438400
   3011   3010   3012     1   107.5800459 329.699200
   3012   3010   3019     1   109.8000471 387.438400
   3013   3025   3026     1   109.5600471 388.275200
   3013   3025   3027     1   109.5600471 388.275200
   3014   3013   3025     1   109.8000471 387.438400
   3014   3013   3015     1   107.5800459 329.699200
   3015   3013   3025     1   109.8000471 387.438400
   3016   3022   3023     1   109.5600471 388.275200
   3016   3022   3024     1   109.5600471 388.275200
   3017   3016   3022     1   109.8000471 387.438400
   3017   3016   3018     1   107.5800459 329.699200
   3018   3016   3022     1   109.8000471 387.438400
   3020   3019   3028     1   109.7800468 425.094400
   3020   3019   3021     1   108.4600466 328.025600
   3021   3019   3028     1   109.7800468 425.094400
   3023   3022   5880     1   109.7800468 425.094400
   3023   3022   3024     1   108.4600466 328.025600
   3024   3022   5880     1   109.7800468 425.094400
   3026   3025   5894     1   109.7800468 425.094400
   3026   3025   3027     1   108.4600466 328.025600
   3027   3025   5894     1   109.7800468 425.094400
   3030   3031   3032     1   108.0100461 406.684800
   3030   3031   3033     1   108.0100461 406.684800
   3030   3034   3035     1   108.0100461 406.684800
   3030   3034   3036     1   108.0100461 406.684800
   3030   3037   3038     1   108.0100461 406.684800
   3030   3037   3039     1   108.0100461 406.684800
   3031   3030   3059     1   110.1100470 384.091200
   3031   3043   3044     1   109.8000471 387.438400
   3031   3043   3045     1   109.8000471 387.438400
   3032   3031   3043     1   110.5600475 386.601600
   3032   3031   3033     1   109.7500473 328.025600
   3033   3031   3043     1   110.5600475 386.601600
   3034   3030   3059     1   110.1100470 384.091200
   3034   3046   3047     1   109.8000471 387.438400
   3034   3046   3048     1   109.8000471 387.438400
   3035   3034   3046     1   110.5600475 386.601600
   3035   3034   3036     1   109.7500473 328.025600
   3036   3034   3046     1   110.5600475 386.601600
   3037   3030   3059     1   110.1100470 384.091200
   3037   3040   3041     1   109.8000471 387.438400
   3037   3040   3042     1   109.8000471 387.438400
   3038   3037   3040     1   110.5600475 386.601600
   3038   3037   3039     1   109.7500473 328.025600
   3039   3037   3040     1   110.5600475 386.601600
   3040   3049   3050     1   109.5600471 388.275200
   3040   3049   3051     1   109.5600471 388.275200
   3041   3040   3049     1   109.8000471 387.438400
   3041   3040   3042     1   107.5800459 329.699200
   3042   3040   3049     1   109.8000471 387.438400
   3043   3055   3056     1   109.5600471 388.275200
   3043   3055   3057     1   109.5600471 388.275200
   3044   3043   3055     1   109.8000471 387.438400
   3044   3043   3045     1   107.5800459 329.699200
   3045   3043   3055     1   109.8000471 387.438400
   3046   3052   3053     1   109.5600471 388.275200
   3046   3052   3054     1   109.5600471 388.275200
   3047   3046   3052     1   109.8000471 387.438400
   3047   3046   3048     1   107.5800459 329.699200
   3048   3046   3052     1   109.8000471 387.438400
   3050   3049   3058     1   109.7800468 425.094400
   3050   3049   3051     1   108.4600466 328.025600
   3051   3049   3058     1   109.7800468 425.094400
   3053   3052   5908     1   109.7800468 425.094400
   3053   3052   3054     1   108.4600466 328.025600
   3054   3052   5908     1   109.7800468 425.094400
   3056   3055   5922     1   109.7800468 425.094400
   3056   3055   3057     1   108.4600466 328.025600
   3057   3055   5922     1   109.7800468 425.094400
   3060   3061   3062     1   108.0100461 406.684800
   3060   3061   3063     1   108.0100461 406.684800
   3060   3064   3065     1   108.0100461 406.684800
   3060   3064   3066     1   108.0100461 406.684800
   3060   3067   3068     1   108.0100461 406.684800
   3060   3067   3069     1   108.0100461 406.684800
   3061   3060   3089     1   110.1100470 384.091200
   3061   3073   3074     1   109.8000471 387.438400
   3061   3073   3075     1   109.8000471 387.438400
   3062   3061   3073     1   110.5600475 386.601600
   3062   3061   3063     1   109.7500473 328.025600
   3063   3061   3073     1   110.5600475 386.601600
   3064   3060   3089     1   110.1100470 384.091200
   3064   3076   3077     1   109.8000471 387.438400
   3064   3076   3078     1   109.8000471 387.438400
   3065   3064   3076     1   110.5600475 386.601600
   3065   3064   3066     1   109.7500473 328.025600
   3066   3064   3076     1   110.5600475 386.601600
   3067   3060   3089     1   110.1100470 384.091200
   3067   3070   3071     1   109.8000471 387.438400
   3067   3070   3072     1   109.8000471 387.438400
   3068   3067   3070     1   110.5600475 386.601600
   3068   3067   3069     1   109.7500473 328.025600
   3069   3067   3070     1   110.5600475 386.601600
   3070   3079   3080     1   109.5600471 388.275200
   3070   3079   3081     1   109.5600471 388.275200
   3071   3070   3079     1   109.8000471 387.438400
   3071   3070   3072     1   107.5800459 329.699200
   3072   3070   3079     1   109.8000471 387.438400
   3073   3085   3086     1   109.5600471 388.275200
   3073   3085   3087     1   109.5600471 388.275200
   3074   3073   3085     1   109.8000471 387.438400
   3074   3073   3075     1   107.5800459 329.699200
   3075   3073   3085     1   109.8000471 387.438400
   3076   3082   3083     1   109.5600471 388.275200
   3076   3082   3084     1   109.5600471 388.275200
   3077   3076   3082     1   109.8000471 387.438400
   3077   3076   3078     1   107.5800459 329.699200
   3078   3076   3082     1   109.8000471 387.438400
   3080   3079   3088     1   109.7800468 425.094400
   3080   3079   3081     1   108.4600466 328.025600
   3081   3079   3088     1   109.7800468 425.094400
   3083   3082   5936     1   109.7800468 425.094400
   3083   3082   3084     1   108.4600466 328.025600
   3084   3082   5936     1   109.7800468 425.094400
   3086   3085   5950     1   109.7800468 425.094400
   3086   3085   3087     1   108.4600466 328.025600
   3087   3085   5950     1   109.7800468 425.094400
   3090   3091   3092     1   108.0100461 406.684800
   3090   3091   3093     1   108.0100461 406.684800
   3090   3094   3095     1   108.0100461 406.684800
   3090   3094   3096     1   108.0100461 406.684800
   3090   3097   3098     1   108.0100461 406.684800
   3090   3097   3099     1   108.0100461 406.684800
   3091   3090   3119     1   110.1100470 384.091200
   3091   3103   3104     1   109.8000471 387.438400
   3091   3103   3105     1   109.8000471 387.438400
   3092   3091   3103     1   110.5600475 386.601600
   3092   3091   3093     1   109.7500473 328.025600
   3093   3091   3103     1   110.5600475 386.601600
   3094   3090   3119     1   110.1100470 384.091200
   3094   3106   3107     1   109.8000471 387.438400
   3094   3106   3108     1   109.8000471 387.438400
   3095   3094   3106     1   110.5600475 386.601600
   3095   3094   3096     1   109.7500473 328.025600
   3096   3094   3106     1   110.5600475 386.601600
   3097   3090   3119     1   110.1100470 384.091200
   3097   3100   3101     1   109.8000471 387.438400
   3097   3100   3102     1   109.8000471 387.438400
   3098   3097   3100     1   110.5600475 386.601600
   3098   3097   3099     1   109.7500473 328.025600
   3099   3097   3100     1   110.5600475 386.601600
   3100   3109   3110     1   109.5600471 388.275200
   3100   3109   3111     1   109.5600471 388.275200
   3101   3100   3109     1   109.8000471 387.438400
   3101   3100   3102     1   107.5800459 329.699200
   3102   3100   3109     1   109.8000471 387.438400
   3103   3115   3116     1   109.5600471 388.275200
   3103   3115   3117     1   109.5600471 388.275200
   3104   3103   3115     1   109.8000471 387.438400
   3104   3103   3105     1   107.5800459 329.699200
   3105   3103   3115     1   109.8000471 387.438400
   3106   3112   3113     1   109.5600471 388.275200
   3106   3112   3114     1   109.5600471 388.275200
   3107   3106   3112     1   109.8000471 387.438400
   3107   3106   3108     1   107.5800459 329.699200
   3108   3106   3112     1   109.8000471 387.438400
   3110   3109   3118     1   109.7800468 425.094400
   3110   3109   3111     1   108.4600466 328.025600
   3111   3109   3118     1   109.7800468 425.094400
   3113   3112   5964     1   109.7800468 425.094400
   3113   3112   3114     1   108.4600466 328.025600
   3114   3112   5964     1   109.7800468 425.094400
   3116   3115   5978     1   109.7800468 425.094400
   3116   3115   3117     1   108.4600466 328.025600
   3117   3115   5978     1   109.7800468 425.094400
   3120   3121   3122     1   108.0100461 406.684800
   3120   3121   3123     1   108.0100461 406.684800
   3120   3124   3125     1   108.0100461 406.684800
   3120   3124   3126     1   108.0100461 406.684800
   3120   3127   3128     1   108.0100461 406.684800
   3120   3127   3129     1   108.0100461 406.684800
   3121   3120   3149     1   110.1100470 384.091200
   3121   3133   3134     1   109.8000471 387.438400
   3121   3133   3135     1   109.8000471 387.438400
   3122   3121   3133     1   110.5600475 386.601600
   3122   3121   3123     1   109.7500473 328.025600
   3123   3121   3133     1   110.5600475 386.601600
   3124   3120   3149     1   110.1100470 384.091200
   3124   3136   3137     1   109.8000471 387.438400
   3124   3136   3138     1   109.8000471 387.438400
   3125   3124   3136     1   110.5600475 386.601600
   3125   3124   3126     1   109.7500473 328.025600
   3126   3124   3136     1   110.5600475 386.601600
   3127   3120   3149     1   110.1100470 384.091200
   3127   3130   3131     1   109.8000471 387.438400
   3127   3130   3132     1   109.8000471 387.438400
   3128   3127   3130     1   110.5600475 386.601600
   3128   3127   3129     1   109.7500473 328.025600
   3129   3127   3130     1   110.5600475 386.601600
   3130   3139   3140     1   109.5600471 388.275200
   3130   3139   3141     1   109.5600471 388.275200
   3131   3130   3139     1   109.8000471 387.438400
   3131   3130   3132     1   107.5800459 329.699200
   3132   3130   3139     1   109.8000471 387.438400
   3133   3145   3146     1   109.5600471 388.275200
   3133   3145   3147     1   109.5600471 388.275200
   3134   3133   3145     1   109.8000471 387.438400
   3134   3133   3135     1   107.5800459 329.699200
   3135   3133   3145     1   109.8000471 387.438400
   3136   3142   3143     1   109.5600471 388.275200
   3136   3142   3144     1   109.5600471 388.275200
   3137   3136   3142     1   109.8000471 387.438400
   3137   3136   3138     1   107.5800459 329.699200
   3138   3136   3142     1   109.8000471 387.438400
   3140   3139   3148     1   109.7800468 425.094400
   3140   3139   3141     1   108.4600466 328.025600
   3141   3139   3148     1   109.7800468 425.094400
   3143   3142   5992     1   109.7800468 425.094400
   3143   3142   3144     1   108.4600466 328.025600
   3144   3142   5992     1   109.7800468 425.094400
   3146   3145   6006     1   109.7800468 425.094400
   3146   3145   3147     1   108.4600466 328.025600
   3147   3145   6006     1   109.7800468 425.094400
   3150   3151   3152     1   108.0100461 406.684800
   3150   3151   3153     1   108.0100461 406.684800
   3150   3154   3155     1   108.0100461 406.684800
   3150   3154   3156     1   108.0100461 406.684800
   3150   3157   3158     1   108.0100461 406.684800
   3150   3157   3159     1   108.0100461 406.684800
   3151   3150   3179     1   110.1100470 384.091200
   3151   3163   3164     1   109.8000471 387.438400
   3151   3163   3165     1   109.8000471 387.438400
   3152   3151   3163     1   110.5600475 386.601600
   3152   3151   3153     1   109.7500473 328.025600
   3153   3151   3163     1   110.5600475 386.601600
   3154   3150   3179     1   110.1100470 384.091200
   3154   3166   3167     1   109.8000471 387.438400
   3154   3166   3168     1   109.8000471 387.438400
   3155   3154   3166     1   110.5600475 386.601600
   3155   3154   3156     1   109.7500473 328.025600
   3156   3154   3166     1   110.5600475 386.601600
   3157   3150   3179     1   110.1100470 384.091200
   3157   3160   3161     1   109.8000471 387.438400
   3157   3160   3162     1   109.8000471 387.438400
   3158   3157   3160     1   110.5600475 386.601600
   3158   3157   3159     1   109.7500473 328.025600
   3159   3157   3160     1   110.5600475 386.601600
   3160   3169   3170     1   109.5600471 388.275200
   3160   3169   3171     1   109.5600471 388.275200
   3161   3160   3169     1   109.8000471 387.438400
   3161   3160   3162     1   107.5800459 329.699200
   3162   3160   3169     1   109.8000471 387.438400
   3163   3175   3176     1   109.5600471 388.275200
   3163   3175   3177     1   109.5600471 388.275200
   3164   3163   3175     1   109.8000471 387.438400
   3164   3163   3165     1   107.5800459 329.699200
   3165   3163   3175     1   109.8000471 387.438400
   3166   3172   3173     1   109.5600471 388.275200
   3166   3172   3174     1   109.5600471 388.275200
   3167   3166   3172     1   109.8000471 387.438400
   3167   3166   3168     1   107.5800459 329.699200
   3168   3166   3172     1   109.8000471 387.438400
   3170   3169   3178     1   109.7800468 425.094400
   3170   3169   3171     1   108.4600466 328.025600
   3171   3169   3178     1   109.7800468 425.094400
   3173   3172   6020     1   109.7800468 425.094400
   3173   3172   3174     1   108.4600466 328.025600
   3174   3172   6020     1   109.7800468 425.094400
   3176   3175   6034     1   109.7800468 425.094400
   3176   3175   3177     1   108.4600466 328.025600
   3177   3175   6034     1   109.7800468 425.094400
   3180   3181   3182     1   108.0100461 406.684800
   3180   3181   3183     1   108.0100461 406.684800
   3180   3184   3185     1   108.0100461 406.684800
   3180   3184   3186     1   108.0100461 406.684800
   3180   3187   3188     1   108.0100461 406.684800
   3180   3187   3189     1   108.0100461 406.684800
   3181   3180   3209     1   110.1100470 384.091200
   3181   3193   3194     1   109.8000471 387.438400
   3181   3193   3195     1   109.8000471 387.438400
   3182   3181   3193     1   110.5600475 386.601600
   3182   3181   3183     1   109.7500473 328.025600
   3183   3181   3193     1   110.5600475 386.601600
   3184   3180   3209     1   110.1100470 384.091200
   3184   3196   3197     1   109.8000471 387.438400
   3184   3196   3198     1   109.8000471 387.438400
   3185   3184   3196     1   110.5600475 386.601600
   3185   3184   3186     1   109.7500473 328.025600
   3186   3184   3196     1   110.5600475 386.601600
   3187   3180   3209     1   110.1100470 384.091200
   3187   3190   3191     1   109.8000471 387.438400
   3187   3190   3192     1   109.8000471 387.438400
   3188   3187   3190     1   110.5600475 386.601600
   3188   3187   3189     1   109.7500473 328.025600
   3189   3187   3190     1   110.5600475 386.601600
   3190   3199   3200     1   109.5600471 388.275200
   3190   3199   3201     1   109.5600471 388.275200
   3191   3190   3199     1   109.8000471 387.438400
   3191   3190   3192     1   107.5800459 329.699200
   3192   3190   3199     1   109.8000471 387.438400
   3193   3205   3206     1   109.5600471 388.275200
   3193   3205   3207     1   109.5600471 388.275200
   3194   3193   3205     1   109.8000471 387.438400
   3194   3193   3195     1   107.5800459 329.699200
   3195   3193   3205     1   109.8000471 387.438400
   3196   3202   3203     1   109.5600471 388.275200
   3196   3202   3204     1   109.5600471 388.275200
   3197   3196   3202     1   109.8000471 387.438400
   3197   3196   3198     1   107.5800459 329.699200
   3198   3196   3202     1   109.8000471 387.438400
   3200   3199   3208     1   109.7800468 425.094400
   3200   3199   3201     1   108.4600466 328.025600
   3201   3199   3208     1   109.7800468 425.094400
   3203   3202   6048     1   109.7800468 425.094400
   3203   3202   3204     1   108.4600466 328.025600
   3204   3202   6048     1   109.7800468 425.094400
   3206   3205   6062     1   109.7800468 425.094400
   3206   3205   3207     1   108.4600466 328.025600
   3207   3205   6062     1   109.7800468 425.094400
   3210   3211   3212     1   108.0100461 406.684800
   3210   3211   3213     1   108.0100461 406.684800
   3210   3214   3215     1   108.0100461 406.684800
   3210   3214   3216     1   108.0100461 406.684800
   3210   3217   3218     1   108.0100461 406.684800
   3210   3217   3219     1   108.0100461 406.684800
   3211   3210   3239     1   110.1100470 384.091200
   3211   3223   3224     1   109.8000471 387.438400
   3211   3223   3225     1   109.8000471 387.438400
   3212   3211   3223     1   110.5600475 386.601600
   3212   3211   3213     1   109.7500473 328.025600
   3213   3211   3223     1   110.5600475 386.601600
   3214   3210   3239     1   110.1100470 384.091200
   3214   3226   3227     1   109.8000471 387.438400
   3214   3226   3228     1   109.8000471 387.438400
   3215   3214   3226     1   110.5600475 386.601600
   3215   3214   3216     1   109.7500473 328.025600
   3216   3214   3226     1   110.5600475 386.601600
   3217   3210   3239     1   110.1100470 384.091200
   3217   3220   3221     1   109.8000471 387.438400
   3217   3220   3222     1   109.8000471 387.438400
   3218   3217   3220     1   110.5600475 386.601600
   3218   3217   3219     1   109.7500473 328.025600
   3219   3217   3220     1   110.5600475 386.601600
   3220   3229   3230     1   109.5600471 388.275200
   3220   3229   3231     1   109.5600471 388.275200
   3221   3220   3229     1   109.8000471 387.438400
   3221   3220   3222     1   107.5800459 329.699200
   3222   3220   3229     1   109.8000471 387.438400
   3223   3235   3236     1   109.5600471 388.275200
   3223   3235   3237     1   109.5600471 388.275200
   3224   3223   3235     1   109.8000471 387.438400
   3224   3223   3225     1   107.5800459 329.699200
   3225   3223   3235     1   109.8000471 387.438400
   3226   3232   3233     1   109.5600471 388.275200
   3226   3232   3234     1   109.5600471 388.275200
   3227   3226   3232     1   109.8000471 387.438400
   3227   3226   3228     1   107.5800459 329.699200
   3228   3226   3232     1   109.8000471 387.438400
   3230   3229   3238     1   109.7800468 425.094400
   3230   3229   3231     1   108.4600466 328.025600
   3231   3229   3238     1   109.7800468 425.094400
   3233   3232   6076     1   109.7800468 425.094400
   3233   3232   3234     1   108.4600466 328.025600
   3234   3232   6076     1   109.7800468 425.094400
   3236   3235   6090     1   109.7800468 425.094400
   3236   3235   3237     1   108.4600466 328.025600
   3237   3235   6090     1   109.7800468 425.094400
   3240   3241   3242     1   108.0100461 406.684800
   3240   3241   3243     1   108.0100461 406.684800
   3240   3244   3245     1   108.0100461 406.684800
   3240   3244   3246     1   108.0100461 406.684800
   3240   3247   3248     1   108.0100461 406.684800
   3240   3247   3249     1   108.0100461 406.684800
   3241   3240   3269     1   110.1100470 384.091200
   3241   3253   3254     1   109.8000471 387.438400
   3241   3253   3255     1   109.8000471 387.438400
   3242   3241   3253     1   110.5600475 386.601600
   3242   3241   3243     1   109.7500473 328.025600
   3243   3241   3253     1   110.5600475 386.601600
   3244   3240   3269     1   110.1100470 384.091200
   3244   3256   3257     1   109.8000471 387.438400
   3244   3256   3258     1   109.8000471 387.438400
   3245   3244   3256     1   110.5600475 386.601600
   3245   3244   3246     1   109.7500473 328.025600
   3246   3244   3256     1   110.5600475 386.601600
   3247   3240   3269     1   110.1100470 384.091200
   3247   3250   3251     1   109.8000471 387.438400
   3247   3250   3252     1   109.8000471 387.438400
   3248   3247   3250     1   110.5600475 386.601600
   3248   3247   3249     1   109.7500473 328.025600
   3249   3247   3250     1   110.5600475 386.601600
   3250   3259   3260     1   109.5600471 388.275200
   3250   3259   3261     1   109.5600471 388.275200
   3251   3250   3259     1   109.8000471 387.438400
   3251   3250   3252     1   107.5800459 329.699200
   3252   3250   3259     1   109.8000471 387.438400
   3253   3265   3266     1   109.5600471 388.275200
   3253   3265   3267     1   109.5600471 388.275200
   3254   3253   3265     1   109.8000471 387.438400
   3254   3253   3255     1   107.5800459 329.699200
   3255   3253   3265     1   109.8000471 387.438400
   3256   3262   3263     1   109.5600471 388.275200
   3256   3262   3264     1   109.5600471 388.275200
   3257   3256   3262     1   109.8000471 387.438400
   3257   3256   3258     1   107.5800459 329.699200
   3258   3256   3262     1   109.8000471 387.438400
   3260   3259   3268     1   109.7800468 425.094400
   3260   3259   3261     1   108.4600466 328.025600
   3261   3259   3268     1   109.7800468 425.094400
   3263   3262   6104     1   109.7800468 425.094400
   3263   3262   3264     1   108.4600466 328.025600
   3264   3262   6104     1   109.7800468 425.094400
   3266   3265   6118     1   109.7800468 425.094400
   3266   3265   3267     1   108.4600466 328.025600
   3267   3265   6118     1   109.7800468 425.094400
   3270   3271   3272     1   108.0100461 406.684800
   3270   3271   3273     1   108.0100461 406.684800
   3270   3274   3275     1   108.0100461 406.684800
   3270   3274   3276     1   108.0100461 406.684800
   3270   3277   3278     1   108.0100461 406.684800
   3270   3277   3279     1   108.0100461 406.684800
   3271   3270   3299     1   110.1100470 384.091200
   3271   3283   3284     1   109.8000471 387.438400
   3271   3283   3285     1   109.8000471 387.438400
   3272   3271   3283     1   110.5600475 386.601600
   3272   3271   3273     1   109.7500473 328.025600
   3273   3271   3283     1   110.5600475 386.601600
   3274   3270   3299     1   110.1100470 384.091200
   3274   3286   3287     1   109.8000471 387.438400
   3274   3286   3288     1   109.8000471 387.438400
   3275   3274   3286     1   110.5600475 386.601600
   3275   3274   3276     1   109.7500473 328.025600
   3276   3274   3286     1   110.5600475 386.601600
   3277   3270   3299     1   110.1100470 384.091200
   3277   3280   3281     1   109.8000471 387.438400
   3277   3280   3282     1   109.8000471 387.438400
   3278   3277   3280     1   110.5600475 386.601600
   3278   3277   3279     1   109.7500473 328.025600
   3279   3277   3280     1   110.5600475 386.601600
   3280   3289   3290     1   109.5600471 388.275200
   3280   3289   3291     1   109.5600471 388.275200
   3281   3280   3289     1   109.8000471 387.438400
   3281   3280   3282     1   107.5800459 329.699200
   3282   3280   3289     1   109.8000471 387.438400
   3283   3295   3296     1   109.5600471 388.275200
   3283   3295   3297     1   109.5600471 388.275200
   3284   3283   3295     1   109.8000471 387.438400
   3284   3283   3285     1   107.5800459 329.699200
   3285   3283   3295     1   109.8000471 387.438400
   3286   3292   3293     1   109.5600471 388.275200
   3286   3292   3294     1   109.5600471 388.275200
   3287   3286   3292     1   109.8000471 387.438400
   3287   3286   3288     1   107.5800459 329.699200
   3288   3286   3292     1   109.8000471 387.438400
   3290   3289   3298     1   109.7800468 425.094400
   3290   3289   3291     1   108.4600466 328.025600
   3291   3289   3298     1   109.7800468 425.094400
   3293   3292   6132     1   109.7800468 425.094400
   3293   3292   3294     1   108.4600466 328.025600
   3294   3292   6132     1   109.7800468 425.094400
   3296   3295   6146     1   109.7800468 425.094400
   3296   3295   3297     1   108.4600466 328.025600
   3297   3295   6146     1   109.7800468 425.094400
   3300   3301   3302     1   108.0100461 406.684800
   3300   3301   3303     1   108.0100461 406.684800
   3300   3304   3305     1   108.0100461 406.684800
   3300   3304   3306     1   108.0100461 406.684800
   3300   3307   3308     1   108.0100461 406.684800
   3300   3307   3309     1   108.0100461 406.684800
   3301   3300   3329     1   110.1100470 384.091200
   3301   3313   3314     1   109.8000471 387.438400
   3301   3313   3315     1   109.8000471 387.438400
   3302   3301   3313     1   110.5600475 386.601600
   3302   3301   3303     1   109.7500473 328.025600
   3303   3301   3313     1   110.5600475 386.601600
   3304   3300   3329     1   110.1100470 384.091200
   3304   3316   3317     1   109.8000471 387.438400
   3304   3316   3318     1   109.8000471 387.438400
   3305   3304   3316     1   110.5600475 386.601600
   3305   3304   3306     1   109.7500473 328.025600
   3306   3304   3316     1   110.5600475 386.601600
   3307   3300   3329     1   110.1100470 384.091200
   3307   3310   3311     1   109.8000471 387.438400
   3307   3310   3312     1   109.8000471 387.438400
   3308   3307   3310     1   110.5600475 386.601600
   3308   3307   3309     1   109.7500473 328.025600
   3309   3307   3310     1   110.5600475 386.601600
   3310   3319   3320     1   109.5600471 388.275200
   3310   3319   3321     1   109.5600471 388.275200
   3311   3310   3319     1   109.8000471 387.438400
   3311   3310   3312     1   107.5800459 329.699200
   3312   3310   3319     1   109.8000471 387.438400
   3313   3325   3326     1   109.5600471 388.275200
   3313   3325   3327     1   109.5600471 388.275200
   3314   3313   3325     1   109.8000471 387.438400
   3314   3313   3315     1   107.5800459 329.699200
   3315   3313   3325     1   109.8000471 387.438400
   3316   3322   3323     1   109.5600471 388.275200
   3316   3322   3324     1   109.5600471 388.275200
   3317   3316   3322     1   109.8000471 387.438400
   3317   3316   3318     1   107.5800459 329.699200
   3318   3316   3322     1   109.8000471 387.438400
   3320   3319   3328     1   109.7800468 425.094400
   3320   3319   3321     1   108.4600466 328.025600
   3321   3319   3328     1   109.7800468 425.094400
   3323   3322   6160     1   109.7800468 425.094400
   3323   3322   3324     1   108.4600466 328.025600
   3324   3322   6160     1   109.7800468 425.094400
   3326   3325   6174     1   109.7800468 425.094400
   3326   3325   3327     1   108.4600466 328.025600
   3327   3325   6174     1   109.7800468 425.094400
   3330   3331   3332     1   108.0100461 406.684800
   3330   3331   3333     1   108.0100461 406.684800
   3330   3334   3335     1   108.0100461 406.684800
   3330   3334   3336     1   108.0100461 406.684800
   3330   3337   3338     1   108.0100461 406.684800
   3330   3337   3339     1   108.0100461 406.684800
   3331   3330   3359     1   110.1100470 384.091200
   3331   3343   3344     1   109.8000471 387.438400
   3331   3343   3345     1   109.8000471 387.438400
   3332   3331   3343     1   110.5600475 386.601600
   3332   3331   3333     1   109.7500473 328.025600
   3333   3331   3343     1   110.5600475 386.601600
   3334   3330   3359     1   110.1100470 384.091200
   3334   3346   3347     1   109.8000471 387.438400
   3334   3346   3348     1   109.8000471 387.438400
   3335   3334   3346     1   110.5600475 386.601600
   3335   3334   3336     1   109.7500473 328.025600
   3336   3334   3346     1   110.5600475 386.601600
   3337   3330   3359     1   110.1100470 384.091200
   3337   3340   3341     1   109.8000471 387.438400
   3337   3340   3342     1   109.8000471 387.438400
   3338   3337   3340     1   110.5600475 386.601600
   3338   3337   3339     1   109.7500473 328.025600
   3339   3337   3340     1   110.5600475 386.601600
   3340   3349   3350     1   109.5600471 388.275200
   3340   3349   3351     1   109.5600471 388.275200
   3341   3340   3349     1   109.8000471 387.438400
   3341   3340   3342     1   107.5800459 329.699200
   3342   3340   3349     1   109.8000471 387.438400
   3343   3355   3356     1   109.5600471 388.275200
   3343   3355   3357     1   109.5600471 388.275200
   3344   3343   3355     1   109.8000471 387.438400
   3344   3343   3345     1   107.5800459 329.699200
   3345   3343   3355     1   109.8000471 387.438400
   3346   3352   3353     1   109.5600471 388.275200
   3346   3352   3354     1   109.5600471 388.275200
   3347   3346   3352     1   109.8000471 387.438400
   3347   3346   3348     1   107.5800459 329.699200
   3348   3346   3352     1   109.8000471 387.438400
   3350   3349   3358     1   109.7800468 425.094400
   3350   3349   3351     1   108.4600466 328.025600
   3351   3349   3358     1   109.7800468 425.094400
   3353   3352   6188     1   109.7800468 425.094400
   3353   3352   3354     1   108.4600466 328.025600
   3354   3352   6188     1   109.7800468 425.094400
   3356   3355   6202     1   109.7800468 425.094400
   3356   3355   3357     1   108.4600466 328.025600
   3357   3355   6202     1   109.7800468 425.094400
   3360   3361   3362     1   108.0100461 406.684800
   3360   3361   3363     1   108.0100461 406.684800
   3360   3364   3365     1   108.0100461 406.684800
   3360   3364   3366     1   108.0100461 406.684800
   3360   3367   3368     1   108.0100461 406.684800
   3360   3367   3369     1   108.0100461 406.684800
   3361   3360   3389     1   110.1100470 384.091200
   3361   3373   3374     1   109.8000471 387.438400
   3361   3373   3375     1   109.8000471 387.438400
   3362   3361   3373     1   110.5600475 386.601600
   3362   3361   3363     1   109.7500473 328.025600
   3363   3361   3373     1   110.5600475 386.601600
   3364   3360   3389     1   110.1100470 384.091200
   3364   3376   3377     1   109.8000471 387.438400
   3364   3376   3378     1   109.8000471 387.438400
   3365   3364   3376     1   110.5600475 386.601600
   3365   3364   3366     1   109.7500473 328.025600
   3366   3364   3376     1   110.5600475 386.601600
   3367   3360   3389     1   110.1100470 384.091200
   3367   3370   3371     1   109.8000471 387.438400
   3367   3370   3372     1   109.8000471 387.438400
   3368   3367   3370     1   110.5600475 386.601600
   3368   3367   3369     1   109.7500473 328.025600
   3369   3367   3370     1   110.5600475 386.601600
   3370   3379   3380     1   109.5600471 388.275200
   3370   3379   3381     1   109.5600471 388.275200
   3371   3370   3379     1   109.8000471 387.438400
   3371   3370   3372     1   107.5800459 329.699200
   3372   3370   3379     1   109.8000471 387.438400
   3373   3385   3386     1   109.5600471 388.275200
   3373   3385   3387     1   109.5600471 388.275200
   3374   3373   3385     1   109.8000471 387.438400
   3374   3373   3375     1   107.5800459 329.699200
   3375   3373   3385     1   109.8000471 387.438400
   3376   3382   3383     1   109.5600471 388.275200
   3376   3382   3384     1   109.5600471 388.275200
   3377   3376   3382     1   109.8000471 387.438400
   3377   3376   3378     1   107.5800459 329.699200
   3378   3376   3382     1   109.8000471 387.438400
   3380   3379   3388     1   109.7800468 425.094400
   3380   3379   3381     1   108.4600466 328.025600
   3381   3379   3388     1   109.7800468 425.094400
   3383   3382   6216     1   109.7800468 425.094400
   3383   3382   3384     1   108.4600466 328.025600
   3384   3382   6216     1   109.7800468 425.094400
   3386   3385   6230     1   109.7800468 425.094400
   3386   3385   3387     1   108.4600466 328.025600
   3387   3385   6230     1   109.7800468 425.094400
   3390   3391   3392     1   108.0100461 406.684800
   3390   3391   3393     1   108.0100461 406.684800
   3390   3394   3395     1   108.0100461 406.684800
   3390   3394   3396     1   108.0100461 406.684800
   3390   3397   3398     1   108.0100461 406.684800
   3390   3397   3399     1   108.0100461 406.684800
   3391   3390   3419     1   110.1100470 384.091200
   3391   3403   3404     1   109.8000471 387.438400
   3391   3403   3405     1   109.8000471 387.438400
   3392   3391   3403     1   110.5600475 386.601600
   3392   3391   3393     1   109.7500473 328.025600
   3393   3391   3403     1   110.5600475 386.601600
   3394   3390   3419     1   110.1100470 384.091200
   3394   3406   3407     1   109.8000471 387.438400
   3394   3406   3408     1   109.8000471 387.438400
   3395   3394   3406     1   110.5600475 386.601600
   3395   3394   3396     1   109.7500473 328.025600
   3396   3394   3406     1   110.5600475 386.601600
   3397   3390   3419     1   110.1100470 384.091200
   3397   3400   3401     1   109.8000471 387.438400
   3397   3400   3402     1   109.8000471 387.438400
   3398   3397   3400     1   110.5600475 386.601600
   3398   3397   3399     1   109.7500473 328.025600
   3399   3397   3400     1   110.5600475 386.601600
   3400   3409   3410     1   109.5600471 388.275200
   3400   3409   3411     1   109.5600471 388.275200
   3401   3400   3409     1   109.8000471 387.438400
   3401   3400   3402     1   107.5800459 329.699200
   3402   3400   3409     1   109.8000471 387.438400
   3403   3415   3416     1   109.5600471 388.275200
   3403   3415   3417     1   109.5600471 388.275200
   3404   3403   3415     1   109.8000471 387.438400
   3404   3403   3405     1   107.5800459 329.699200
   3405   3403   3415     1   109.8000471 387.438400
   3406   3412   3413     1   109.5600471 388.275200
   3406   3412   3414     1   109.5600471 388.275200
   3407   3406   3412     1   109.8000471 387.438400
   3407   3406   3408     1   107.5800459 329.699200
   3408   3406   3412     1   109.8000471 387.438400
   3410   3409   3418     1   109.7800468 425.094400
   3410   3409   3411     1   108.4600466 328.025600
   3411   3409   3418     1   109.7800468 425.094400
   3413   3412   6244     1   109.7800468 425.094400
   3413   3412   3414     1   108.4600466 328.025600
   3414   3412   6244     1   109.7800468 425.094400
   3416   3415   6258     1   109.7800468 425.094400
   3416   3415   3417     1   108.4600466 328.025600
   3417   3415   6258     1   109.7800468 425.094400
   3420   3421   3422     1   108.0100461 406.684800
   3420   3421   3423     1   108.0100461 406.684800
   3420   3424   3425     1   108.0100461 406.684800
   3420   3424   3426     1   108.0100461 406.684800
   3420   3427   3428     1   108.0100461 406.684800
   3420   3427   3429     1   108.0100461 406.684800
   3421   3420   3449     1   110.1100470 384.091200
   3421   3433   3434     1   109.8000471 387.438400
   3421   3433   3435     1   109.8000471 387.438400
   3422   3421   3433     1   110.5600475 386.601600
   3422   3421   3423     1   109.7500473 328.025600
   3423   3421   3433     1   110.5600475 386.601600
   3424   3420   3449     1   110.1100470 384.091200
   3424   3436   3437     1   109.8000471 387.438400
   3424   3436   3438     1   109.8000471 387.438400
   3425   3424   3436     1   110.5600475 386.601600
   3425   3424   3426     1   109.7500473 328.025600
   3426   3424   3436     1   110.5600475 386.601600
   3427   3420   3449     1   110.1100470 384.091200
   3427   3430   3431     1   109.8000471 387.438400
   3427   3430   3432     1   109.8000471 387.438400
   3428   3427   3430     1   110.5600475 386.601600
   3428   3427   3429     1   109.7500473 328.025600
   3429   3427   3430     1   110.5600475 386.601600
   3430   3439   3440     1   109.5600471 388.275200
   3430   3439   3441     1   109.5600471 388.275200
   3431   3430   3439     1   109.8000471 387.438400
   3431   3430   3432     1   107.5800459 329.699200
   3432   3430   3439     1   109.8000471 387.438400
   3433   3445   3446     1   109.5600471 388.275200
   3433   3445   3447     1   109.5600471 388.275200
   3434   3433   3445     1   109.8000471 387.438400
   3434   3433   3435     1   107.5800459 329.699200
   3435   3433   3445     1   109.8000471 387.438400
   3436   3442   3443     1   109.5600471 388.275200
   3436   3442   3444     1   109.5600471 388.275200
   3437   3436   3442     1   109.8000471 387.438400
   3437   3436   3438     1   107.5800459 329.699200
   3438   3436   3442     1   109.8000471 387.438400
   3440   3439   3448     1   109.7800468 425.094400
   3440   3439   3441     1   108.4600466 328.025600
   3441   3439   3448     1   109.7800468 425.094400
   3443   3442   6272     1   109.7800468 425.094400
   3443   3442   3444     1   108.4600466 328.025600
   3444   3442   6272     1   109.7800468 425.094400
   3446   3445   6286     1   109.7800468 425.094400
   3446   3445   3447     1   108.4600466 328.025600
   3447   3445   6286     1   109.7800468 425.094400
   3450   3451   3452     1   108.0100461 406.684800
   3450   3451   3453     1   108.0100461 406.684800
   3450   3454   3455     1   108.0100461 406.684800
   3450   3454   3456     1   108.0100461 406.684800
   3450   3457   3458     1   108.0100461 406.684800
   3450   3457   3459     1   108.0100461 406.684800
   3451   3450   3479     1   110.1100470 384.091200
   3451   3463   3464     1   109.8000471 387.438400
   3451   3463   3465     1   109.8000471 387.438400
   3452   3451   3463     1   110.5600475 386.601600
   3452   3451   3453     1   109.7500473 328.025600
   3453   3451   3463     1   110.5600475 386.601600
   3454   3450   3479     1   110.1100470 384.091200
   3454   3466   3467     1   109.8000471 387.438400
   3454   3466   3468     1   109.8000471 387.438400
   3455   3454   3466     1   110.5600475 386.601600
   3455   3454   3456     1   109.7500473 328.025600
   3456   3454   3466     1   110.5600475 386.601600
   3457   3450   3479     1   110.1100470 384.091200
   3457   3460   3461     1   109.8000471 387.438400
   3457   3460   3462     1   109.8000471 387.438400
   3458   3457   3460     1   110.5600475 386.601600
   3458   3457   3459     1   109.7500473 328.025600
   3459   3457   3460     1   110.5600475 386.601600
   3460   3469   3470     1   109.5600471 388.275200
   3460   3469   3471     1   109.5600471 388.275200
   3461   3460   3469     1   109.8000471 387.438400
   3461   3460   3462     1   107.5800459 329.699200
   3462   3460   3469     1   109.8000471 387.438400
   3463   3475   3476     1   109.5600471 388.275200
   3463   3475   3477     1   109.5600471 388.275200
   3464   3463   3475     1   109.8000471 387.438400
   3464   3463   3465     1   107.5800459 329.699200
   3465   3463   3475     1   109.8000471 387.438400
   3466   3472   3473     1   109.5600471 388.275200
   3466   3472   3474     1   109.5600471 388.275200
   3467   3466   3472     1   109.8000471 387.438400
   3467   3466   3468     1   107.5800459 329.699200
   3468   3466   3472     1   109.8000471 387.438400
   3470   3469   3478     1   109.7800468 425.094400
   3470   3469   3471     1   108.4600466 328.025600
   3471   3469   3478     1   109.7800468 425.094400
   3473   3472   6300     1   109.7800468 425.094400
   3473   3472   3474     1   108.4600466 328.025600
   3474   3472   6300     1   109.7800468 425.094400
   3476   3475   6314     1   109.7800468 425.094400
   3476   3475   3477     1   108.4600466 328.025600
   3477   3475   6314     1   109.7800468 425.094400
   3480   3481   3482     1   108.0100461 406.684800
   3480   3481   3483     1   108.0100461 406.684800
   3480   3484   3485     1   108.0100461 406.684800
   3480   3484   3486     1   108.0100461 406.684800
   3480   3487   3488     1   108.0100461 406.684800
   3480   3487   3489     1   108.0100461 406.684800
   3481   3480   3509     1   110.1100470 384.091200
   3481   3493   3494     1   109.8000471 387.438400
   3481   3493   3495     1   109.8000471 387.438400
   3482   3481   3493     1   110.5600475 386.601600
   3482   3481   3483     1   109.7500473 328.025600
   3483   3481   3493     1   110.5600475 386.601600
   3484   3480   3509     1   110.1100470 384.091200
   3484   3496   3497     1   109.8000471 387.438400
   3484   3496   3498     1   109.8000471 387.438400
   3485   3484   3496     1   110.5600475 386.601600
   3485   3484   3486     1   109.7500473 328.025600
   3486   3484   3496     1   110.5600475 386.601600
   3487   3480   3509     1   110.1100470 384.091200
   3487   3490   3491     1   109.8000471 387.438400
   3487   3490   3492     1   109.8000471 387.438400
   3488   3487   3490     1   110.5600475 386.601600
   3488   3487   3489     1   109.7500473 328.025600
   3489   3487   3490     1   110.5600475 386.601600
   3490   3499   3500     1   109.5600471 388.275200
   3490   3499   3501     1   109.5600471 388.275200
   3491   3490   3499     1   109.8000471 387.438400
   3491   3490   3492     1   107.5800459 329.699200
   3492   3490   3499     1   109.8000471 387.438400
   3493   3505   3506     1   109.5600471 388.275200
   3493   3505   3507     1   109.5600471 388.275200
   3494   3493   3505     1   109.8000471 387.438400
   3494   3493   3495     1   107.5800459 329.699200
   3495   3493   3505     1   109.8000471 387.438400
   3496   3502   3503     1   109.5600471 388.275200
   3496   3502   3504     1   109.5600471 388.275200
   3497   3496   3502     1   109.8000471 387.438400
   3497   3496   3498     1   107.5800459 329.699200
   3498   3496   3502     1   109.8000471 387.438400
   3500   3499   3508     1   109.7800468 425.094400
   3500   3499   3501     1   108.4600466 328.025600
   3501   3499   3508     1   109.7800468 425.094400
   3503   3502   6328     1   109.7800468 425.094400
   3503   3502   3504     1   108.4600466 328.025600
   3504   3502   6328     1   109.7800468 425.094400
   3506   3505   6342     1   109.7800468 425.094400
   3506   3505   3507     1   108.4600466 328.025600
   3507   3505   6342     1   109.7800468 425.094400
   3510   3511   3512     1   108.0100461 406.684800
   3510   3511   3513     1   108.0100461 406.684800
   3510   3514   3515     1   108.0100461 406.684800
   3510   3514   3516     1   108.0100461 406.684800
   3510   3517   3518     1   108.0100461 406.684800
   3510   3517   3519     1   108.0100461 406.684800
   3511   3510   3539     1   110.1100470 384.091200
   3511   3523   3524     1   109.8000471 387.438400
   3511   3523   3525     1   109.8000471 387.438400
   3512   3511   3523     1   110.5600475 386.601600
   3512   3511   3513     1   109.7500473 328.025600
   3513   3511   3523     1   110.5600475 386.601600
   3514   3510   3539     1   110.1100470 384.091200
   3514   3526   3527     1   109.8000471 387.438400
   3514   3526   3528     1   109.8000471 387.438400
   3515   3514   3526     1   110.5600475 386.601600
   3515   3514   3516     1   109.7500473 328.025600
   3516   3514   3526     1   110.5600475 386.601600
   3517   3510   3539     1   110.1100470 384.091200
   3517   3520   3521     1   109.8000471 387.438400
   3517   3520   3522     1   109.8000471 387.438400
   3518   3517   3520     1   110.5600475 386.601600
   3518   3517   3519     1   109.7500473 328.025600
   3519   3517   3520     1   110.5600475 386.601600
   3520   3529   3530     1   109.5600471 388.275200
   3520   3529   3531     1   109.5600471 388.275200
   3521   3520   3529     1   109.8000471 387.438400
   3521   3520   3522     1   107.5800459 329.699200
   3522   3520   3529     1   109.8000471 387.438400
   3523   3535   3536     1   109.5600471 388.275200
   3523   3535   3537     1   109.5600471 388.275200
   3524   3523   3535     1   109.8000471 387.438400
   3524   3523   3525     1   107.5800459 329.699200
   3525   3523   3535     1   109.8000471 387.438400
   3526   3532   3533     1   109.5600471 388.275200
   3526   3532   3534     1   109.5600471 388.275200
   3527   3526   3532     1   109.8000471 387.438400
   3527   3526   3528     1   107.5800459 329.699200
   3528   3526   3532     1   109.8000471 387.438400
   3530   3529   3538     1   109.7800468 425.094400
   3530   3529   3531     1   108.4600466 328.025600
   3531   3529   3538     1   109.7800468 425.094400
   3533   3532   6356     1   109.7800468 425.094400
   3533   3532   3534     1   108.4600466 328.025600
   3534   3532   6356     1   109.7800468 425.094400
   3536   3535   6370     1   109.7800468 425.094400
   3536   3535   3537     1   108.4600466 328.025600
   3537   3535   6370     1   109.7800468 425.094400
   3540   3541   3542     1   108.0100461 406.684800
   3540   3541   3543     1   108.0100461 406.684800
   3540   3544   3545     1   108.0100461 406.684800
   3540   3544   3546     1   108.0100461 406.684800
   3540   3547   3548     1   108.0100461 406.684800
   3540   3547   3549     1   108.0100461 406.684800
   3541   3540   3569     1   110.1100470 384.091200
   3541   3553   3554     1   109.8000471 387.438400
   3541   3553   3555     1   109.8000471 387.438400
   3542   3541   3553     1   110.5600475 386.601600
   3542   3541   3543     1   109.7500473 328.025600
   3543   3541   3553     1   110.5600475 386.601600
   3544   3540   3569     1   110.1100470 384.091200
   3544   3556   3557     1   109.8000471 387.438400
   3544   3556   3558     1   109.8000471 387.438400
   3545   3544   3556     1   110.5600475 386.601600
   3545   3544   3546     1   109.7500473 328.025600
   3546   3544   3556     1   110.5600475 386.601600
   3547   3540   3569     1   110.1100470 384.091200
   3547   3550   3551     1   109.8000471 387.438400
   3547   3550   3552     1   109.8000471 387.438400
   3548   3547   3550     1   110.5600475 386.601600
   3548   3547   3549     1   109.7500473 328.025600
   3549   3547   3550     1   110.5600475 386.601600
   3550   3559   3560     1   109.5600471 388.275200
   3550   3559   3561     1   109.5600471 388.275200
   3551   3550   3559     1   109.8000471 387.438400
   3551   3550   3552     1   107.5800459 329.699200
   3552   3550   3559     1   109.8000471 387.438400
   3553   3565   3566     1   109.5600471 388.275200
   3553   3565   3567     1   109.5600471 388.275200
   3554   3553   3565     1   109.8000471 387.438400
   3554   3553   3555     1   107.5800459 329.699200
   3555   3553   3565     1   109.8000471 387.438400
   3556   3562   3563     1   109.5600471 388.275200
   3556   3562   3564     1   109.5600471 388.275200
   3557   3556   3562     1   109.8000471 387.438400
   3557   3556   3558     1   107.5800459 329.699200
   3558   3556   3562     1   109.8000471 387.438400
   3560   3559   3568     1   109.7800468 425.094400
   3560   3559   3561     1   108.4600466 328.025600
   3561   3559   3568     1   109.7800468 425.094400
   3563   3562   6384     1   109.7800468 425.094400
   3563   3562   3564     1   108.4600466 328.025600
   3564   3562   6384     1   109.7800468 425.094400
   3566   3565   6398     1   109.7800468 425.094400
   3566   3565   3567     1   108.4600466 328.025600
   3567   3565   6398     1   109.7800468 425.094400
   3570   3571   3572     1   108.0100461 406.684800
   3570   3571   3573     1   108.0100461 406.684800
   3570   3574   3575     1   108.0100461 406.684800
   3570   3574   3576     1   108.0100461 406.684800
   3570   3577   3578     1   108.0100461 406.684800
   3570   3577   3579     1   108.0100461 406.684800
   3571   3570   3599     1   110.1100470 384.091200
   3571   3583   3584     1   109.8000471 387.438400
   3571   3583   3585     1   109.8000471 387.438400
   3572   3571   3583     1   110.5600475 386.601600
   3572   3571   3573     1   109.7500473 328.025600
   3573   3571   3583     1   110.5600475 386.601600
   3574   3570   3599     1   110.1100470 384.091200
   3574   3586   3587     1   109.8000471 387.438400
   3574   3586   3588     1   109.8000471 387.438400
   3575   3574   3586     1   110.5600475 386.601600
   3575   3574   3576     1   109.7500473 328.025600
   3576   3574   3586     1   110.5600475 386.601600
   3577   3570   3599     1   110.1100470 384.091200
   3577   3580   3581     1   109.8000471 387.438400
   3577   3580   3582     1   109.8000471 387.438400
   3578   3577   3580     1   110.5600475 386.601600
   3578   3577   3579     1   109.7500473 328.025600
   3579   3577   3580     1   110.5600475 386.601600
   3580   3589   3590     1   109.5600471 388.275200
   3580   3589   3591     1   109.5600471 388.275200
   3581   3580   3589     1   109.8000471 387.438400
   3581   3580   3582     1   107.5800459 329.699200
   3582   3580   3589     1   109.8000471 387.438400
   3583   3595   3596     1   109.5600471 388.275200
   3583   3595   3597     1   109.5600471 388.275200
   3584   3583   3595     1   109.8000471 387.438400
   3584   3583   3585     1   107.5800459 329.699200
   3585   3583   3595     1   109.8000471 387.438400
   3586   3592   3593     1   109.5600471 388.275200
   3586   3592   3594     1   109.5600471 388.275200
   3587   3586   3592     1   109.8000471 387.438400
   3587   3586   3588     1   107.5800459 329.699200
   3588   3586   3592     1   109.8000471 387.438400
   3590   3589   3598     1   109.7800468 425.094400
   3590   3589   3591     1   108.4600466 328.025600
   3591   3589   3598     1   109.7800468 425.094400
   3593   3592   6412     1   109.7800468 425.094400
   3593   3592   3594     1   108.4600466 328.025600
   3594   3592   6412     1   109.7800468 425.094400
   3596   3595   6426     1   109.7800468 425.094400
   3596   3595   3597     1   108.4600466 328.025600
   3597   3595   6426     1   109.7800468 425.094400
   3600   3601   3602     1   108.0100461 406.684800
   3600   3601   3603     1   108.0100461 406.684800
   3600   3604   3605     1   108.0100461 406.684800
   3600   3604   3606     1   108.0100461 406.684800
   3600   3607   3608     1   108.0100461 406.684800
   3600   3607   3609     1   108.0100461 406.684800
   3601   3600   3629     1   110.1100470 384.091200
   3601   3613   3614     1   109.8000471 387.438400
   3601   3613   3615     1   109.8000471 387.438400
   3602   3601   3613     1   110.5600475 386.601600
   3602   3601   3603     1   109.7500473 328.025600
   3603   3601   3613     1   110.5600475 386.601600
   3604   3600   3629     1   110.1100470 384.091200
   3604   3616   3617     1   109.8000471 387.438400
   3604   3616   3618     1   109.8000471 387.438400
   3605   3604   3616     1   110.5600475 386.601600
   3605   3604   3606     1   109.7500473 328.025600
   3606   3604   3616     1   110.5600475 386.601600
   3607   3600   3629     1   110.1100470 384.091200
   3607   3610   3611     1   109.8000471 387.438400
   3607   3610   3612     1   109.8000471 387.438400
   3608   3607   3610     1   110.5600475 386.601600
   3608   3607   3609     1   109.7500473 328.025600
   3609   3607   3610     1   110.5600475 386.601600
   3610   3619   3620     1   109.5600471 388.275200
   3610   3619   3621     1   109.5600471 388.275200
   3611   3610   3619     1   109.8000471 387.438400
   3611   3610   3612     1   107.5800459 329.699200
   3612   3610   3619     1   109.8000471 387.438400
   3613   3625   3626     1   109.5600471 388.275200
   3613   3625   3627     1   109.5600471 388.275200
   3614   3613   3625     1   109.8000471 387.438400
   3614   3613   3615     1   107.5800459 329.699200
   3615   3613   3625     1   109.8000471 387.438400
   3616   3622   3623     1   109.5600471 388.275200
   3616   3622   3624     1   109.5600471 388.275200
   3617   3616   3622     1   109.8000471 387.438400
   3617   3616   3618     1   107.5800459 329.699200
   3618   3616   3622     1   109.8000471 387.438400
   3620   3619   3628     1   109.7800468 425.094400
   3620   3619   3621     1   108.4600466 328.025600
   3621   3619   3628     1   109.7800468 425.094400
   3623   3622   6440     1   109.7800468 425.094400
   3623   3622   3624     1   108.4600466 328.025600
   3624   3622   6440     1   109.7800468 425.094400
   3626   3625   6454     1   109.7800468 425.094400
   3626   3625   3627     1   108.4600466 328.025600
   3627   3625   6454     1   109.7800468 425.094400
   3630   3631   3632     1   108.0100461 406.684800
   3630   3631   3633     1   108.0100461 406.684800
   3630   3634   3635     1   108.0100461 406.684800
   3630   3634   3636     1   108.0100461 406.684800
   3630   3637   3638     1   108.0100461 406.684800
   3630   3637   3639     1   108.0100461 406.684800
   3631   3630   3659     1   110.1100470 384.091200
   3631   3643   3644     1   109.8000471 387.438400
   3631   3643   3645     1   109.8000471 387.438400
   3632   3631   3643     1   110.5600475 386.601600
   3632   3631   3633     1   109.7500473 328.025600
   3633   3631   3643     1   110.5600475 386.601600
   3634   3630   3659     1   110.1100470 384.091200
   3634   3646   3647     1   109.8000471 387.438400
   3634   3646   3648     1   109.8000471 387.438400
   3635   3634   3646     1   110.5600475 386.601600
   3635   3634   3636     1   109.7500473 328.025600
   3636   3634   3646     1   110.5600475 386.601600
   3637   3630   3659     1   110.1100470 384.091200
   3637   3640   3641     1   109.8000471 387.438400
   3637   3640   3642     1   109.8000471 387.438400
   3638   3637   3640     1   110.5600475 386.601600
   3638   3637   3639     1   109.7500473 328.025600
   3639   3637   3640     1   110.5600475 386.601600
   3640   3649   3650     1   109.5600471 388.275200
   3640   3649   3651     1   109.5600471 388.275200
   3641   3640   3649     1   109.8000471 387.438400
   3641   3640   3642     1   107.5800459 329.699200
   3642   3640   3649     1   109.8000471 387.438400
   3643   3655   3656     1   109.5600471 388.275200
   3643   3655   3657     1   109.5600471 388.275200
   3644   3643   3655     1   109.8000471 387.438400
   3644   3643   3645     1   107.5800459 329.699200
   3645   3643   3655     1   109.8000471 387.438400
   3646   3652   3653     1   109.5600471 388.275200
   3646   3652   3654     1   109.5600471 388.275200
   3647   3646   3652     1   109.8000471 387.438400
   3647   3646   3648     1   107.5800459 329.699200
   3648   3646   3652     1   109.8000471 387.438400
   3650   3649   3658     1   109.7800468 425.094400
   3650   3649   3651     1   108.4600466 328.025600
   3651   3649   3658     1   109.7800468 425.094400
   3653   3652   6468     1   109.7800468 425.094400
   3653   3652   3654     1   108.4600466 328.025600
   3654   3652   6468     1   109.7800468 425.094400
   3656   3655   6482     1   109.7800468 425.094400
   3656   3655   3657     1   108.4600466 328.025600
   3657   3655   6482     1   109.7800468 425.094400
   3660   3661   3662     1   108.0100461 406.684800
   3660   3661   3663     1   108.0100461 406.684800
   3660   3664   3665     1   108.0100461 406.684800
   3660   3664   3666     1   108.0100461 406.684800
   3660   3667   3668     1   108.0100461 406.684800
   3660   3667   3669     1   108.0100461 406.684800
   3661   3660   3689     1   110.1100470 384.091200
   3661   3673   3674     1   109.8000471 387.438400
   3661   3673   3675     1   109.8000471 387.438400
   3662   3661   3673     1   110.5600475 386.601600
   3662   3661   3663     1   109.7500473 328.025600
   3663   3661   3673     1   110.5600475 386.601600
   3664   3660   3689     1   110.1100470 384.091200
   3664   3676   3677     1   109.8000471 387.438400
   3664   3676   3678     1   109.8000471 387.438400
   3665   3664   3676     1   110.5600475 386.601600
   3665   3664   3666     1   109.7500473 328.025600
   3666   3664   3676     1   110.5600475 386.601600
   3667   3660   3689     1   110.1100470 384.091200
   3667   3670   3671     1   109.8000471 387.438400
   3667   3670   3672     1   109.8000471 387.438400
   3668   3667   3670     1   110.5600475 386.601600
   3668   3667   3669     1   109.7500473 328.025600
   3669   3667   3670     1   110.5600475 386.601600
   3670   3679   3680     1   109.5600471 388.275200
   3670   3679   3681     1   109.5600471 388.275200
   3671   3670   3679     1   109.8000471 387.438400
   3671   3670   3672     1   107.5800459 329.699200
   3672   3670   3679     1   109.8000471 387.438400
   3673   3685   3686     1   109.5600471 388.275200
   3673   3685   3687     1   109.5600471 388.275200
   3674   3673   3685     1   109.8000471 387.438400
   3674   3673   3675     1   107.5800459 329.699200
   3675   3673   3685     1   109.8000471 387.438400
   3676   3682   3683     1   109.5600471 388.275200
   3676   3682   3684     1   109.5600471 388.275200
   3677   3676   3682     1   109.8000471 387.438400
   3677   3676   3678     1   107.5800459 329.699200
   3678   3676   3682     1   109.8000471 387.438400
   3680   3679   3688     1   109.7800468 425.094400
   3680   3679   3681     1   108.4600466 328.025600
   3681   3679   3688     1   109.7800468 425.094400
   3683   3682   6496     1   109.7800468 425.094400
   3683   3682   3684     1   108.4600466 328.025600
   3684   3682   6496     1   109.7800468 425.094400
   3686   3685   6510     1   109.7800468 425.094400
   3686   3685   3687     1   108.4600466 328.025600
   3687   3685   6510     1   109.7800468 425.094400
   3690   3691   3692     1   108.0100461 406.684800
   3690   3691   3693     1   108.0100461 406.684800
   3690   3694   3695     1   108.0100461 406.684800
   3690   3694   3696     1   108.0100461 406.684800
   3690   3697   3698     1   108.0100461 406.684800
   3690   3697   3699     1   108.0100461 406.684800
   3691   3690   3719     1   110.1100470 384.091200
   3691   3703   3704     1   109.8000471 387.438400
   3691   3703   3705     1   109.8000471 387.438400
   3692   3691   3703     1   110.5600475 386.601600
   3692   3691   3693     1   109.7500473 328.025600
   3693   3691   3703     1   110.5600475 386.601600
   3694   3690   3719     1   110.1100470 384.091200
   3694   3706   3707     1   109.8000471 387.438400
   3694   3706   3708     1   109.8000471 387.438400
   3695   3694   3706     1   110.5600475 386.601600
   3695   3694   3696     1   109.7500473 328.025600
   3696   3694   3706     1   110.5600475 386.601600
   3697   3690   3719     1   110.1100470 384.091200
   3697   3700   3701     1   109.8000471 387.438400
   3697   3700   3702     1   109.8000471 387.438400
   3698   3697   3700     1   110.5600475 386.601600
   3698   3697   3699     1   109.7500473 328.025600
   3699   3697   3700     1   110.5600475 386.601600
   3700   3709   3710     1   109.5600471 388.275200
   3700   3709   3711     1   109.5600471 388.275200
   3701   3700   3709     1   109.8000471 387.438400
   3701   3700   3702     1   107.5800459 329.699200
   3702   3700   3709     1   109.8000471 387.438400
   3703   3715   3716     1   109.5600471 388.275200
   3703   3715   3717     1   109.5600471 388.275200
   3704   3703   3715     1   109.8000471 387.438400
   3704   3703   3705     1   107.5800459 329.699200
   3705   3703   3715     1   109.8000471 387.438400
   3706   3712   3713     1   109.5600471 388.275200
   3706   3712   3714     1   109.5600471 388.275200
   3707   3706   3712     1   109.8000471 387.438400
   3707   3706   3708     1   107.5800459 329.699200
   3708   3706   3712     1   109.8000471 387.438400
   3710   3709   3718     1   109.7800468 425.094400
   3710   3709   3711     1   108.4600466 328.025600
   3711   3709   3718     1   109.7800468 425.094400
   3713   3712   6524     1   109.7800468 425.094400
   3713   3712   3714     1   108.4600466 328.025600
   3714   3712   6524     1   109.7800468 425.094400
   3716   3715   6538     1   109.7800468 425.094400
   3716   3715   3717     1   108.4600466 328.025600
   3717   3715   6538     1   109.7800468 425.094400
   3720   3721   3722     1   108.0100461 406.684800
   3720   3721   3723     1   108.0100461 406.684800
   3720   3724   3725     1   108.0100461 406.684800
   3720   3724   3726     1   108.0100461 406.684800
   3720   3727   3728     1   108.0100461 406.684800
   3720   3727   3729     1   108.0100461 406.684800
   3721   3720   3749     1   110.1100470 384.091200
   3721   3733   3734     1   109.8000471 387.438400
   3721   3733   3735     1   109.8000471 387.438400
   3722   3721   3733     1   110.5600475 386.601600
   3722   3721   3723     1   109.7500473 328.025600
   3723   3721   3733     1   110.5600475 386.601600
   3724   3720   3749     1   110.1100470 384.091200
   3724   3736   3737     1   109.8000471 387.438400
   3724   3736   3738     1   109.8000471 387.438400
   3725   3724   3736     1   110.5600475 386.601600
   3725   3724   3726     1   109.7500473 328.025600
   3726   3724   3736     1   110.5600475 386.601600
   3727   3720   3749     1   110.1100470 384.091200
   3727   3730   3731     1   109.8000471 387.438400
   3727   3730   3732     1   109.8000471 387.438400
   3728   3727   3730     1   110.5600475 386.601600
   3728   3727   3729     1   109.7500473 328.025600
   3729   3727   3730     1   110.5600475 386.601600
   3730   3739   3740     1   109.5600471 388.275200
   3730   3739   3741     1   109.5600471 388.275200
   3731   3730   3739     1   109.8000471 387.438400
   3731   3730   3732     1   107.5800459 329.699200
   3732   3730   3739     1   109.8000471 387.438400
   3733   3745   3746     1   109.5600471 388.275200
   3733   3745   3747     1   109.5600471 388.275200
   3734   3733   3745     1   109.8000471 387.438400
   3734   3733   3735     1   107.5800459 329.699200
   3735   3733   3745     1   109.8000471 387.438400
   3736   3742   3743     1   109.5600471 388.275200
   3736   3742   3744     1   109.5600471 388.275200
   3737   3736   3742     1   109.8000471 387.438400
   3737   3736   3738     1   107.5800459 329.699200
   3738   3736   3742     1   109.8000471 387.438400
   3740   3739   3748     1   109.7800468 425.094400
   3740   3739   3741     1   108.4600466 328.025600
   3741   3739   3748     1   109.7800468 425.094400
   3743   3742   6552     1   109.7800468 425.094400
   3743   3742   3744     1   108.4600466 328.025600
   3744   3742   6552     1   109.7800468 425.094400
   3746   3745   6566     1   109.7800468 425.094400
   3746   3745   3747     1   108.4600466 328.025600
   3747   3745   6566     1   109.7800468 425.094400
   3750   3751   3752     1   108.0100461 406.684800
   3750   3751   3753     1   108.0100461 406.684800
   3750   3754   3755     1   108.0100461 406.684800
   3750   3754   3756     1   108.0100461 406.684800
   3750   3757   3758     1   108.0100461 406.684800
   3750   3757   3759     1   108.0100461 406.684800
   3751   3750   3779     1   110.1100470 384.091200
   3751   3763   3764     1   109.8000471 387.438400
   3751   3763   3765     1   109.8000471 387.438400
   3752   3751   3763     1   110.5600475 386.601600
   3752   3751   3753     1   109.7500473 328.025600
   3753   3751   3763     1   110.5600475 386.601600
   3754   3750   3779     1   110.1100470 384.091200
   3754   3766   3767     1   109.8000471 387.438400
   3754   3766   3768     1   109.8000471 387.438400
   3755   3754   3766     1   110.5600475 386.601600
   3755   3754   3756     1   109.7500473 328.025600
   3756   3754   3766     1   110.5600475 386.601600
   3757   3750   3779     1   110.1100470 384.091200
   3757   3760   3761     1   109.8000471 387.438400
   3757   3760   3762     1   109.8000471 387.438400
   3758   3757   3760     1   110.5600475 386.601600
   3758   3757   3759     1   109.7500473 328.025600
   3759   3757   3760     1   110.5600475 386.601600
   3760   3769   3770     1   109.5600471 388.275200
   3760   3769   3771     1   109.5600471 388.275200
   3761   3760   3769     1   109.8000471 387.438400
   3761   3760   3762     1   107.5800459 329.699200
   3762   3760   3769     1   109.8000471 387.438400
   3763   3775   3776     1   109.5600471 388.275200
   3763   3775   3777     1   109.5600471 388.275200
   3764   3763   3775     1   109.8000471 387.438400
   3764   3763   3765     1   107.5800459 329.699200
   3765   3763   3775     1   109.8000471 387.438400
   3766   3772   3773     1   109.5600471 388.275200
   3766   3772   3774     1   109.5600471 388.275200
   3767   3766   3772     1   109.8000471 387.438400
   3767   3766   3768     1   107.5800459 329.699200
   3768   3766   3772     1   109.8000471 387.438400
   3770   3769   3778     1   109.7800468 425.094400
   3770   3769   3771     1   108.4600466 328.025600
   3771   3769   3778     1   109.7800468 425.094400
   3773   3772   6580     1   109.7800468 425.094400
   3773   3772   3774     1   108.4600466 328.025600
   3774   3772   6580     1   109.7800468 425.094400
   3776   3775   6594     1   109.7800468 425.094400
   3776   3775   3777     1   108.4600466 328.025600
   3777   3775   6594     1   109.7800468 425.094400
   3780   3781   3782     1   108.0100461 406.684800
   3780   3781   3783     1   108.0100461 406.684800
   3780   3784   3785     1   108.0100461 406.684800
   3780   3784   3786     1   108.0100461 406.684800
   3780   3787   3788     1   108.0100461 406.684800
   3780   3787   3789     1   108.0100461 406.684800
   3781   3780   3809     1   110.1100470 384.091200
   3781   3793   3794     1   109.8000471 387.438400
   3781   3793   3795     1   109.8000471 387.438400
   3782   3781   3793     1   110.5600475 386.601600
   3782   3781   3783     1   109.7500473 328.025600
   3783   3781   3793     1   110.5600475 386.601600
   3784   3780   3809     1   110.1100470 384.091200
   3784   3796   3797     1   109.8000471 387.438400
   3784   3796   3798     1   109.8000471 387.438400
   3785   3784   3796     1   110.5600475 386.601600
   3785   3784   3786     1   109.7500473 328.025600
   3786   3784   3796     1   110.5600475 386.601600
   3787   3780   3809     1   110.1100470 384.091200
   3787   3790   3791     1   109.8000471 387.438400
   3787   3790   3792     1   109.8000471 387.438400
   3788   3787   3790     1   110.5600475 386.601600
   3788   3787   3789     1   109.7500473 328.025600
   3789   3787   3790     1   110.5600475 386.601600
   3790   3799   3800     1   109.5600471 388.275200
   3790   3799   3801     1   109.5600471 388.275200
   3791   3790   3799     1   109.8000471 387.438400
   3791   3790   3792     1   107.5800459 329.699200
   3792   3790   3799     1   109.8000471 387.438400
   3793   3805   3806     1   109.5600471 388.275200
   3793   3805   3807     1   109.5600471 388.275200
   3794   3793   3805     1   109.8000471 387.438400
   3794   3793   3795     1   107.5800459 329.699200
   3795   3793   3805     1   109.8000471 387.438400
   3796   3802   3803     1   109.5600471 388.275200
   3796   3802   3804     1   109.5600471 388.275200
   3797   3796   3802     1   109.8000471 387.438400
   3797   3796   3798     1   107.5800459 329.699200
   3798   3796   3802     1   109.8000471 387.438400
   3800   3799   3808     1   109.7800468 425.094400
   3800   3799   3801     1   108.4600466 328.025600
   3801   3799   3808     1   109.7800468 425.094400
   3803   3802   6608     1   109.7800468 425.094400
   3803   3802   3804     1   108.4600466 328.025600
   3804   3802   6608     1   109.7800468 425.094400
   3806   3805   6622     1   109.7800468 425.094400
   3806   3805   3807     1   108.4600466 328.025600
   3807   3805   6622     1   109.7800468 425.094400
   3810   3811   3812     1   108.0100461 406.684800
   3810   3811   3813     1   108.0100461 406.684800
   3810   3814   3815     1   108.0100461 406.684800
   3810   3814   3816     1   108.0100461 406.684800
   3810   3817   3818     1   108.0100461 406.684800
   3810   3817   3819     1   108.0100461 406.684800
   3811   3810   3839     1   110.1100470 384.091200
   3811   3823   3824     1   109.8000471 387.438400
   3811   3823   3825     1   109.8000471 387.438400
   3812   3811   3823     1   110.5600475 386.601600
   3812   3811   3813     1   109.7500473 328.025600
   3813   3811   3823     1   110.5600475 386.601600
   3814   3810   3839     1   110.1100470 384.091200
   3814   3826   3827     1   109.8000471 387.438400
   3814   3826   3828     1   109.8000471 387.438400
   3815   3814   3826     1   110.5600475 386.601600
   3815   3814   3816     1   109.7500473 328.025600
   3816   3814   3826     1   110.5600475 386.601600
   3817   3810   3839     1   110.1100470 384.091200
   3817   3820   3821     1   109.8000471 387.438400
   3817   3820   3822     1   109.8000471 387.438400
   3818   3817   3820     1   110.5600475 386.601600
   3818   3817   3819     1   109.7500473 328.025600
   3819   3817   3820     1   110.5600475 386.601600
   3820   3829   3830     1   109.5600471 388.275200
   3820   3829   3831     1   109.5600471 388.275200
   3821   3820   3829     1   109.8000471 387.438400
   3821   3820   3822     1   107.5800459 329.699200
   3822   3820   3829     1   109.8000471 387.438400
   3823   3835   3836     1   109.5600471 388.275200
   3823   3835   3837     1   109.5600471 388.275200
   3824   3823   3835     1   109.8000471 387.438400
   3824   3823   3825     1   107.5800459 329.699200
   3825   3823   3835     1   109.8000471 387.438400
   3826   3832   3833     1   109.5600471 388.275200
   3826   3832   3834     1   109.5600471 388.275200
   3827   3826   3832     1   109.8000471 387.438400
   3827   3826   3828     1   107.5800459 329.699200
   3828   3826   3832     1   109.8000471 387.438400
   3830   3829   3838     1   109.7800468 425.094400
   3830   3829   3831     1   108.4600466 328.025600
   3831   3829   3838     1   109.7800468 425.094400
   3833   3832   6636     1   109.7800468 425.094400
   3833   3832   3834     1   108.4600466 328.025600
   3834   3832   6636     1   109.7800468 425.094400
   3836   3835   6650     1   109.7800468 425.094400
   3836   3835   3837     1   108.4600466 328.025600
   3837   3835   6650     1   109.7800468 425.094400
   3840   3841   3842     1   108.0100461 406.684800
   3840   3841   3843     1   108.0100461 406.684800
   3840   3844   3845     1   108.0100461 406.684800
   3840   3844   3846     1   108.0100461 406.684800
   3840   3847   3848     1   108.0100461 406.684800
   3840   3847   3849     1   108.0100461 406.684800
   3841   3840   3869     1   110.1100470 384.091200
   3841   3853   3854     1   109.8000471 387.438400
   3841   3853   3855     1   109.8000471 387.438400
   3842   3841   3853     1   110.5600475 386.601600
   3842   3841   3843     1   109.7500473 328.025600
   3843   3841   3853     1   110.5600475 386.601600
   3844   3840   3869     1   110.1100470 384.091200
   3844   3856   3857     1   109.8000471 387.438400
   3844   3856   3858     1   109.8000471 387.438400
   3845   3844   3856     1   110.5600475 386.601600
   3845   3844   3846     1   109.7500473 328.025600
   3846   3844   3856     1   110.5600475 386.601600
   3847   3840   3869     1   110.1100470 384.091200
   3847   3850   3851     1   109.8000471 387.438400
   3847   3850   3852     1   109.8000471 387.438400
   3848   3847   3850     1   110.5600475 386.601600
   3848   3847   3849     1   109.7500473 328.025600
   3849   3847   3850     1   110.5600475 386.601600
   3850   3859   3860     1   109.5600471 388.275200
   3850   3859   3861     1   109.5600471 388.275200
   3851   3850   3859     1   109.8000471 387.438400
   3851   3850   3852     1   107.5800459 329.699200
   3852   3850   3859     1   109.8000471 387.438400
   3853   3865   3866     1   109.5600471 388.275200
   3853   3865   3867     1   109.5600471 388.275200
   3854   3853   3865     1   109.8000471 387.438400
   3854   3853   3855     1   107.5800459 329.699200
   3855   3853   3865     1   109.8000471 387.438400
   3856   3862   3863     1   109.5600471 388.275200
   3856   3862   3864     1   109.5600471 388.275200
   3857   3856   3862     1   109.8000471 387.438400
   3857   3856   3858     1   107.5800459 329.699200
   3858   3856   3862     1   109.8000471 387.438400
   3860   3859   3868     1   109.7800468 425.094400
   3860   3859   3861     1   108.4600466 328.025600
   3861   3859   3868     1   109.7800468 425.094400
   3863   3862   6664     1   109.7800468 425.094400
   3863   3862   3864     1   108.4600466 328.025600
   3864   3862   6664     1   109.7800468 425.094400
   3866   3865   6678     1   109.7800468 425.094400
   3866   3865   3867     1   108.4600466 328.025600
   3867   3865   6678     1   109.7800468 425.094400
   3870   3871   3872     1   108.0100461 406.684800
   3870   3871   3873     1   108.0100461 406.684800
   3870   3874   3875     1   108.0100461 406.684800
   3870   3874   3876     1   108.0100461 406.684800
   3870   3877   3878     1   108.0100461 406.684800
   3870   3877   3879     1   108.0100461 406.684800
   3871   3870   3899     1   110.1100470 384.091200
   3871   3883   3884     1   109.8000471 387.438400
   3871   3883   3885     1   109.8000471 387.438400
   3872   3871   3883     1   110.5600475 386.601600
   3872   3871   3873     1   109.7500473 328.025600
   3873   3871   3883     1   110.5600475 386.601600
   3874   3870   3899     1   110.1100470 384.091200
   3874   3886   3887     1   109.8000471 387.438400
   3874   3886   3888     1   109.8000471 387.438400
   3875   3874   3886     1   110.5600475 386.601600
   3875   3874   3876     1   109.7500473 328.025600
   3876   3874   3886     1   110.5600475 386.601600
   3877   3870   3899     1   110.1100470 384.091200
   3877   3880   3881     1   109.8000471 387.438400
   3877   3880   3882     1   109.8000471 387.438400
   3878   3877   3880     1   110.5600475 386.601600
   3878   3877   3879     1   109.7500473 328.025600
   3879   3877   3880     1   110.5600475 386.601600
   3880   3889   3890     1   109.5600471 388.275200
   3880   3889   3891     1   109.5600471 388.275200
   3881   3880   3889     1   109.8000471 387.438400
   3881   3880   3882     1   107.5800459 329.699200
   3882   3880   3889     1   109.8000471 387.438400
   3883   3895   3896     1   109.5600471 388.275200
   3883   3895   3897     1   109.5600471 388.275200
   3884   3883   3895     1   109.8000471 387.438400
   3884   3883   3885     1   107.5800459 329.699200
   3885   3883   3895     1   109.8000471 387.438400
   3886   3892   3893     1   109.5600471 388.275200
   3886   3892   3894     1   109.5600471 388.275200
   3887   3886   3892     1   109.8000471 387.438400
   3887   3886   3888     1   107.5800459 329.699200
   3888   3886   3892     1   109.8000471 387.438400
   3890   3889   3898     1   109.7800468 425.094400
   3890   3889   3891     1   108.4600466 328.025600
   3891   3889   3898     1   109.7800468 425.094400
   3893   3892   6692     1   109.7800468 425.094400
   3893   3892   3894     1   108.4600466 328.025600
   3894   3892   6692     1   109.7800468 425.094400
   3896   3895   6706     1   109.7800468 425.094400
   3896   3895   3897     1   108.4600466 328.025600
   3897   3895   6706     1   109.7800468 425.094400
   3900   3901   3902     1   108.0100461 406.684800
   3900   3901   3903     1   108.0100461 406.684800
   3900   3904   3905     1   108.0100461 406.684800
   3900   3904   3906     1   108.0100461 406.684800
   3900   3907   3908     1   108.0100461 406.684800
   3900   3907   3909     1   108.0100461 406.684800
   3901   3900   3929     1   110.1100470 384.091200
   3901   3913   3914     1   109.8000471 387.438400
   3901   3913   3915     1   109.8000471 387.438400
   3902   3901   3913     1   110.5600475 386.601600
   3902   3901   3903     1   109.7500473 328.025600
   3903   3901   3913     1   110.5600475 386.601600
   3904   3900   3929     1   110.1100470 384.091200
   3904   3916   3917     1   109.8000471 387.438400
   3904   3916   3918     1   109.8000471 387.438400
   3905   3904   3916     1   110.5600475 386.601600
   3905   3904   3906     1   109.7500473 328.025600
   3906   3904   3916     1   110.5600475 386.601600
   3907   3900   3929     1   110.1100470 384.091200
   3907   3910   3911     1   109.8000471 387.438400
   3907   3910   3912     1   109.8000471 387.438400
   3908   3907   3910     1   110.5600475 386.601600
   3908   3907   3909     1   109.7500473 328.025600
   3909   3907   3910     1   110.5600475 386.601600
   3910   3919   3920     1   109.5600471 388.275200
   3910   3919   3921     1   109.5600471 388.275200
   3911   3910   3919     1   109.8000471 387.438400
   3911   3910   3912     1   107.5800459 329.699200
   3912   3910   3919     1   109.8000471 387.438400
   3913   3925   3926     1   109.5600471 388.275200
   3913   3925   3927     1   109.5600471 388.275200
   3914   3913   3925     1   109.8000471 387.438400
   3914   3913   3915     1   107.5800459 329.699200
   3915   3913   3925     1   109.8000471 387.438400
   3916   3922   3923     1   109.5600471 388.275200
   3916   3922   3924     1   109.5600471 388.275200
   3917   3916   3922     1   109.8000471 387.438400
   3917   3916   3918     1   107.5800459 329.699200
   3918   3916   3922     1   109.8000471 387.438400
   3920   3919   3928     1   109.7800468 425.094400
   3920   3919   3921     1   108.4600466 328.025600
   3921   3919   3928     1   109.7800468 425.094400
   3923   3922   6720     1   109.7800468 425.094400
   3923   3922   3924     1   108.4600466 328.025600
   3924   3922   6720     1   109.7800468 425.094400
   3926   3925   6734     1   109.7800468 425.094400
   3926   3925   3927     1   108.4600466 328.025600
   3927   3925   6734     1   109.7800468 425.094400
   3930   3931   3932     1   108.0100461 406.684800
   3930   3931   3933     1   108.0100461 406.684800
   3930   3934   3935     1   108.0100461 406.684800
   3930   3934   3936     1   108.0100461 406.684800
   3930   3937   3938     1   108.0100461 406.684800
   3930   3937   3939     1   108.0100461 406.684800
   3931   3930   3959     1   110.1100470 384.091200
   3931   3943   3944     1   109.8000471 387.438400
   3931   3943   3945     1   109.8000471 387.438400
   3932   3931   3943     1   110.5600475 386.601600
   3932   3931   3933     1   109.7500473 328.025600
   3933   3931   3943     1   110.5600475 386.601600
   3934   3930   3959     1   110.1100470 384.091200
   3934   3946   3947     1   109.8000471 387.438400
   3934   3946   3948     1   109.8000471 387.438400
   3935   3934   3946     1   110.5600475 386.601600
   3935   3934   3936     1   109.7500473 328.025600
   3936   3934   3946     1   110.5600475 386.601600
   3937   3930   3959     1   110.1100470 384.091200
   3937   3940   3941     1   109.8000471 387.438400
   3937   3940   3942     1   109.8000471 387.438400
   3938   3937   3940     1   110.5600475 386.601600
   3938   3937   3939     1   109.7500473 328.025600
   3939   3937   3940     1   110.5600475 386.601600
   3940   3949   3950     1   109.5600471 388.275200
   3940   3949   3951     1   109.5600471 388.275200
   3941   3940   3949     1   109.8000471 387.438400
   3941   3940   3942     1   107.5800459 329.699200
   3942   3940   3949     1   109.8000471 387.438400
   3943   3955   3956     1   109.5600471 388.275200
   3943   3955   3957     1   109.5600471 388.275200
   3944   3943   3955     1   109.8000471 387.438400
   3944   3943   3945     1   107.5800459 329.699200
   3945   3943   3955     1   109.8000471 387.438400
   3946   3952   3953     1   109.5600471 388.275200
   3946   3952   3954     1   109.5600471 388.275200
   3947   3946   3952     1   109.8000471 387.438400
   3947   3946   3948     1   107.5800459 329.699200
   3948   3946   3952     1   109.8000471 387.438400
   3950   3949   3958     1   109.7800468 425.094400
   3950   3949   3951     1   108.4600466 328.025600
   3951   3949   3958     1   109.7800468 425.094400
   3953   3952   6748     1   109.7800468 425.094400
   3953   3952   3954     1   108.4600466 328.025600
   3954   3952   6748     1   109.7800468 425.094400
   3956   3955   6762     1   109.7800468 425.094400
   3956   3955   3957     1   108.4600466 328.025600
   3957   3955   6762     1   109.7800468 425.094400
   3960   3961   3962     1   108.0100461 406.684800
   3960   3961   3963     1   108.0100461 406.684800
   3960   3964   3965     1   108.0100461 406.684800
   3960   3964   3966     1   108.0100461 406.684800
   3960   3967   3968     1   108.0100461 406.684800
   3960   3967   3969     1   108.0100461 406.684800
   3961   3960   3989     1   110.1100470 384.091200
   3961   3973   3974     1   109.8000471 387.438400
   3961   3973   3975     1   109.8000471 387.438400
   3962   3961   3973     1   110.5600475 386.601600
   3962   3961   3963     1   109.7500473 328.025600
   3963   3961   3973     1   110.5600475 386.601600
   3964   3960   3989     1   110.1100470 384.091200
   3964   3976   3977     1   109.8000471 387.438400
   3964   3976   3978     1   109.8000471 387.438400
   3965   3964   3976     1   110.5600475 386.601600
   3965   3964   3966     1   109.7500473 328.025600
   3966   3964   3976     1   110.5600475 386.601600
   3967   3960   3989     1   110.1100470 384.091200
   3967   3970   3971     1   109.8000471 387.438400
   3967   3970   3972     1   109.8000471 387.438400
   3968   3967   3970     1   110.5600475 386.601600
   3968   3967   3969     1   109.7500473 328.025600
   3969   3967   3970     1   110.5600475 386.601600
   3970   3979   3980     1   109.5600471 388.275200
   3970   3979   3981     1   109.5600471 388.275200
   3971   3970   3979     1   109.8000471 387.438400
   3971   3970   3972     1   107.5800459 329.699200
   3972   3970   3979     1   109.8000471 387.438400
   3973   3985   3986     1   109.5600471 388.275200
   3973   3985   3987     1   109.5600471 388.275200
   3974   3973   3985     1   109.8000471 387.438400
   3974   3973   3975     1   107.5800459 329.699200
   3975   3973   3985     1   109.8000471 387.438400
   3976   3982   3983     1   109.5600471 388.275200
   3976   3982   3984     1   109.5600471 388.275200
   3977   3976   3982     1   109.8000471 387.438400
   3977   3976   3978     1   107.5800459 329.699200
   3978   3976   3982     1   109.8000471 387.438400
   3980   3979   3988     1   109.7800468 425.094400
   3980   3979   3981     1   108.4600466 328.025600
   3981   3979   3988     1   109.7800468 425.094400
   3983   3982   6776     1   109.7800468 425.094400
   3983   3982   3984     1   108.4600466 328.025600
   3984   3982   6776     1   109.7800468 425.094400
   3986   3985   6790     1   109.7800468 425.094400
   3986   3985   3987     1   108.4600466 328.025600
   3987   3985   6790     1   109.7800468 425.094400
   3990   3991   3992     1   108.0100461 406.684800
   3990   3991   3993     1   108.0100461 406.684800
   3990   3994   3995     1   108.0100461 406.684800
   3990   3994   3996     1   108.0100461 406.684800
   3990   3997   3998     1   108.0100461 406.684800
   3990   3997   3999     1   108.0100461 406.684800
   3991   3990   4019     1   110.1100470 384.091200
   3991   4003   4004     1   109.8000471 387.438400
   3991   4003   4005     1   109.8000471 387.438400
   3992   3991   4003     1   110.5600475 386.601600
   3992   3991   3993     1   109.7500473 328.025600
   3993   3991   4003     1   110.5600475 386.601600
   3994   3990   4019     1   110.1100470 384.091200
   3994   4006   4007     1   109.8000471 387.438400
   3994   4006   4008     1   109.8000471 387.438400
   3995   3994   4006     1   110.5600475 386.601600
   3995   3994   3996     1   109.7500473 328.025600
   3996   3994   4006     1   110.5600475 386.601600
   3997   3990   4019     1   110.1100470 384.091200
   3997   4000   4001     1   109.8000471 387.438400
   3997   4000   4002     1   109.8000471 387.438400
   3998   3997   4000     1   110.5600475 386.601600
   3998   3997   3999     1   109.7500473 328.025600
   3999   3997   4000     1   110.5600475 386.601600
   4000   4009   4010     1   109.5600471 388.275200
   4000   4009   4011     1   109.5600471 388.275200
   4001   4000   4009     1   109.8000471 387.438400
   4001   4000   4002     1   107.5800459 329.699200
   4002   4000   4009     1   109.8000471 387.438400
   4003   4015   4016     1   109.5600471 388.275200
   4003   4015   4017     1   109.5600471 388.275200
   4004   4003   4015     1   109.8000471 387.438400
   4004   4003   4005     1   107.5800459 329.699200
   4005   4003   4015     1   109.8000471 387.438400
   4006   4012   4013     1   109.5600471 388.275200
   4006   4012   4014     1   109.5600471 388.275200
   4007   4006   4012     1   109.8000471 387.438400
   4007   4006   4008     1   107.5800459 329.699200
   4008   4006   4012     1   109.8000471 387.438400
   4010   4009   4018     1   109.7800468 425.094400
   4010   4009   4011     1   108.4600466 328.025600
   4011   4009   4018     1   109.7800468 425.094400
   4013   4012   6804     1   109.7800468 425.094400
   4013   4012   4014     1   108.4600466 328.025600
   4014   4012   6804     1   109.7800468 425.094400
   4016   4015   6818     1   109.7800468 425.094400
   4016   4015   4017     1   108.4600466 328.025600
   4017   4015   6818     1   109.7800468 425.094400
   4020   4021   4022     1   108.0100461 406.684800
   4020   4021   4023     1   108.0100461 406.684800
   4020   4024   4025     1   108.0100461 406.684800
   4020   4024   4026     1   108.0100461 406.684800
   4020   4027   4028     1   108.0100461 406.684800
   4020   4027   4029     1   108.0100461 406.684800
   4021   4020   4049     1   110.1100470 384.091200
   4021   4033   4034     1   109.8000471 387.438400
   4021   4033   4035     1   109.8000471 387.438400
   4022   4021   4033     1   110.5600475 386.601600
   4022   4021   4023     1   109.7500473 328.025600
   4023   4021   4033     1   110.5600475 386.601600
   4024   4020   4049     1   110.1100470 384.091200
   4024   4036   4037     1   109.8000471 387.438400
   4024   4036   4038     1   109.8000471 387.438400
   4025   4024   4036     1   110.5600475 386.601600
   4025   4024   4026     1   109.7500473 328.025600
   4026   4024   4036     1   110.5600475 386.601600
   4027   4020   4049     1   110.1100470 384.091200
   4027   4030   4031     1   109.8000471 387.438400
   4027   4030   4032     1   109.8000471 387.438400
   4028   4027   4030     1   110.5600475 386.601600
   4028   4027   4029     1   109.7500473 328.025600
   4029   4027   4030     1   110.5600475 386.601600
   4030   4039   4040     1   109.5600471 388.275200
   4030   4039   4041     1   109.5600471 388.275200
   4031   4030   4039     1   109.8000471 387.438400
   4031   4030   4032     1   107.5800459 329.699200
   4032   4030   4039     1   109.8000471 387.438400
   4033   4045   4046     1   109.5600471 388.275200
   4033   4045   4047     1   109.5600471 388.275200
   4034   4033   4045     1   109.8000471 387.438400
   4034   4033   4035     1   107.5800459 329.699200
   4035   4033   4045     1   109.8000471 387.438400
   4036   4042   4043     1   109.5600471 388.275200
   4036   4042   4044     1   109.5600471 388.275200
   4037   4036   4042     1   109.8000471 387.438400
   4037   4036   4038     1   107.5800459 329.699200
   4038   4036   4042     1   109.8000471 387.438400
   4040   4039   4048     1   109.7800468 425.094400
   4040   4039   4041     1   108.4600466 328.025600
   4041   4039   4048     1   109.7800468 425.094400
   4043   4042   6832     1   109.7800468 425.094400
   4043   4042   4044     1   108.4600466 328.025600
   4044   4042   6832     1   109.7800468 425.094400
   4046   4045   6846     1   109.7800468 425.094400
   4046   4045   4047     1   108.4600466 328.025600
   4047   4045   6846     1   109.7800468 425.094400
   4050   4051   4052     1   108.0100461 406.684800
   4050   4051   4053     1   108.0100461 406.684800
   4050   4054   4055     1   108.0100461 406.684800
   4050   4054   4056     1   108.0100461 406.684800
   4050   4057   4058     1   108.0100461 406.684800
   4050   4057   4059     1   108.0100461 406.684800
   4051   4050   4079     1   110.1100470 384.091200
   4051   4063   4064     1   109.8000471 387.438400
   4051   4063   4065     1   109.8000471 387.438400
   4052   4051   4063     1   110.5600475 386.601600
   4052   4051   4053     1   109.7500473 328.025600
   4053   4051   4063     1   110.5600475 386.601600
   4054   4050   4079     1   110.1100470 384.091200
   4054   4066   4067     1   109.8000471 387.438400
   4054   4066   4068     1   109.8000471 387.438400
   4055   4054   4066     1   110.5600475 386.601600
   4055   4054   4056     1   109.7500473 328.025600
   4056   4054   4066     1   110.5600475 386.601600
   4057   4050   4079     1   110.1100470 384.091200
   4057   4060   4061     1   109.8000471 387.438400
   4057   4060   4062     1   109.8000471 387.438400
   4058   4057   4060     1   110.5600475 386.601600
   4058   4057   4059     1   109.7500473 328.025600
   4059   4057   4060     1   110.5600475 386.601600
   4060   4069   4070     1   109.5600471 388.275200
   4060   4069   4071     1   109.5600471 388.275200
   4061   4060   4069     1   109.8000471 387.438400
   4061   4060   4062     1   107.5800459 329.699200
   4062   4060   4069     1   109.8000471 387.438400
   4063   4075   4076     1   109.5600471 388.275200
   4063   4075   4077     1   109.5600471 388.275200
   4064   4063   4075     1   109.8000471 387.438400
   4064   4063   4065     1   107.5800459 329.699200
   4065   4063   4075     1   109.8000471 387.438400
   4066   4072   4073     1   109.5600471 388.275200
   4066   4072   4074     1   109.5600471 388.275200
   4067   4066   4072     1   109.8000471 387.438400
   4067   4066   4068     1   107.5800459 329.699200
   4068   4066   4072     1   109.8000471 387.438400
   4070   4069   4078     1   109.7800468 425.094400
   4070   4069   4071     1   108.4600466 328.025600
   4071   4069   4078     1   109.7800468 425.094400
   4073   4072   6860     1   109.7800468 425.094400
   4073   4072   4074     1   108.4600466 328.025600
   4074   4072   6860     1   109.7800468 425.094400
   4076   4075   6874     1   109.7800468 425.094400
   4076   4075   4077     1   108.4600466 328.025600
   4077   4075   6874     1   109.7800468 425.094400
   4080   4081   4082     1   108.0100461 406.684800
   4080   4081   4083     1   108.0100461 406.684800
   4080   4084   4085     1   108.0100461 406.684800
   4080   4084   4086     1   108.0100461 406.684800
   4080   4087   4088     1   108.0100461 406.684800
   4080   4087   4089     1   108.0100461 406.684800
   4081   4080   4109     1   110.1100470 384.091200
   4081   4093   4094     1   109.8000471 387.438400
   4081   4093   4095     1   109.8000471 387.438400
   4082   4081   4093     1   110.5600475 386.601600
   4082   4081   4083     1   109.7500473 328.025600
   4083   4081   4093     1   110.5600475 386.601600
   4084   4080   4109     1   110.1100470 384.091200
   4084   4096   4097     1   109.8000471 387.438400
   4084   4096   4098     1   109.8000471 387.438400
   4085   4084   4096     1   110.5600475 386.601600
   4085   4084   4086     1   109.7500473 328.025600
   4086   4084   4096     1   110.5600475 386.601600
   4087   4080   4109     1   110.1100470 384.091200
   4087   4090   4091     1   109.8000471 387.438400
   4087   4090   4092     1   109.8000471 387.438400
   4088   4087   4090     1   110.5600475 386.601600
   4088   4087   4089     1   109.7500473 328.025600
   4089   4087   4090     1   110.5600475 386.601600
   4090   4099   4100     1   109.5600471 388.275200
   4090   4099   4101     1   109.5600471 388.275200
   4091   4090   4099     1   109.8000471 387.438400
   4091   4090   4092     1   107.5800459 329.699200
   4092   4090   4099     1   109.8000471 387.438400
   4093   4105   4106     1   109.5600471 388.275200
   4093   4105   4107     1   109.5600471 388.275200
   4094   4093   4105     1   109.8000471 387.438400
   4094   4093   4095     1   107.5800459 329.699200
   4095   4093   4105     1   109.8000471 387.438400
   4096   4102   4103     1   109.5600471 388.275200
   4096   4102   4104     1   109.5600471 388.275200
   4097   4096   4102     1   109.8000471 387.438400
   4097   4096   4098     1   107.5800459 329.699200
   4098   4096   4102     1   109.8000471 387.438400
   4100   4099   4108     1   109.7800468 425.094400
   4100   4099   4101     1   108.4600466 328.025600
   4101   4099   4108     1   109.7800468 425.094400
   4103   4102   6888     1   109.7800468 425.094400
   4103   4102   4104     1   108.4600466 328.025600
   4104   4102   6888     1   109.7800468 425.094400
   4106   4105   6902     1   109.7800468 425.094400
   4106   4105   4107     1   108.4600466 328.025600
   4107   4105   6902     1   109.7800468 425.094400
   4110   4111   4112     1   108.0100461 406.684800
   4110   4111   4113     1   108.0100461 406.684800
   4110   4114   4115     1   108.0100461 406.684800
   4110   4114   4116     1   108.0100461 406.684800
   4110   4117   4118     1   108.0100461 406.684800
   4110   4117   4119     1   108.0100461 406.684800
   4111   4110   4139     1   110.1100470 384.091200
   4111   4123   4124     1   109.8000471 387.438400
   4111   4123   4125     1   109.8000471 387.438400
   4112   4111   4123     1   110.5600475 386.601600
   4112   4111   4113     1   109.7500473 328.025600
   4113   4111   4123     1   110.5600475 386.601600
   4114   4110   4139     1   110.1100470 384.091200
   4114   4126   4127     1   109.8000471 387.438400
   4114   4126   4128     1   109.8000471 387.438400
   4115   4114   4126     1   110.5600475 386.601600
   4115   4114   4116     1   109.7500473 328.025600
   4116   4114   4126     1   110.5600475 386.601600
   4117   4110   4139     1   110.1100470 384.091200
   4117   4120   4121     1   109.8000471 387.438400
   4117   4120   4122     1   109.8000471 387.438400
   4118   4117   4120     1   110.5600475 386.601600
   4118   4117   4119     1   109.7500473 328.025600
   4119   4117   4120     1   110.5600475 386.601600
   4120   4129   4130     1   109.5600471 388.275200
   4120   4129   4131     1   109.5600471 388.275200
   4121   4120   4129     1   109.8000471 387.438400
   4121   4120   4122     1   107.5800459 329.699200
   4122   4120   4129     1   109.8000471 387.438400
   4123   4135   4136     1   109.5600471 388.275200
   4123   4135   4137     1   109.5600471 388.275200
   4124   4123   4135     1   109.8000471 387.438400
   4124   4123   4125     1   107.5800459 329.699200
   4125   4123   4135     1   109.8000471 387.438400
   4126   4132   4133     1   109.5600471 388.275200
   4126   4132   4134     1   109.5600471 388.275200
   4127   4126   4132     1   109.8000471 387.438400
   4127   4126   4128     1   107.5800459 329.699200
   4128   4126   4132     1   109.8000471 387.438400
   4130   4129   4138     1   109.7800468 425.094400
   4130   4129   4131     1   108.4600466 328.025600
   4131   4129   4138     1   109.7800468 425.094400
   4133   4132   6916     1   109.7800468 425.094400
   4133   4132   4134     1   108.4600466 328.025600
   4134   4132   6916     1   109.7800468 425.094400
   4136   4135   6930     1   109.7800468 425.094400
   4136   4135   4137     1   108.4600466 328.025600
   4137   4135   6930     1   109.7800468 425.094400
   4140   4141   4142     1   108.0100461 406.684800
   4140   4141   4143     1   108.0100461 406.684800
   4140   4144   4145     1   108.0100461 406.684800
   4140   4144   4146     1   108.0100461 406.684800
   4140   4147   4148     1   108.0100461 406.684800
   4140   4147   4149     1   108.0100461 406.684800
   4141   4140   4169     1   110.1100470 384.091200
   4141   4153   4154     1   109.8000471 387.438400
   4141   4153   4155     1   109.8000471 387.438400
   4142   4141   4153     1   110.5600475 386.601600
   4142   4141   4143     1   109.7500473 328.025600
   4143   4141   4153     1   110.5600475 386.601600
   4144   4140   4169     1   110.1100470 384.091200
   4144   4156   4157     1   109.8000471 387.438400
   4144   4156   4158     1   109.8000471 387.438400
   4145   4144   4156     1   110.5600475 386.601600
   4145   4144   4146     1   109.7500473 328.025600
   4146   4144   4156     1   110.5600475 386.601600
   4147   4140   4169     1   110.1100470 384.091200
   4147   4150   4151     1   109.8000471 387.438400
   4147   4150   4152     1   109.8000471 387.438400
   4148   4147   4150     1   110.5600475 386.601600
   4148   4147   4149     1   109.7500473 328.025600
   4149   4147   4150     1   110.5600475 386.601600
   4150   4159   4160     1   109.5600471 388.275200
   4150   4159   4161     1   109.5600471 388.275200
   4151   4150   4159     1   109.8000471 387.438400
   4151   4150   4152     1   107.5800459 329.699200
   4152   4150   4159     1   109.8000471 387.438400
   4153   4165   4166     1   109.5600471 388.275200
   4153   4165   4167     1   109.5600471 388.275200
   4154   4153   4165     1   109.8000471 387.438400
   4154   4153   4155     1   107.5800459 329.699200
   4155   4153   4165     1   109.8000471 387.438400
   4156   4162   4163     1   109.5600471 388.275200
   4156   4162   4164     1   109.5600471 388.275200
   4157   4156   4162     1   109.8000471 387.438400
   4157   4156   4158     1   107.5800459 329.699200
   4158   4156   4162     1   109.8000471 387.438400
   4160   4159   4168     1   109.7800468 425.094400
   4160   4159   4161     1   108.4600466 328.025600
   4161   4159   4168     1   109.7800468 425.094400
   4163   4162   6944     1   109.7800468 425.094400
   4163   4162   4164     1   108.4600466 328.025600
   4164   4162   6944     1   109.7800468 425.094400
   4166   4165   6958     1   109.7800468 425.094400
   4166   4165   4167     1   108.4600466 328.025600
   4167   4165   6958     1   109.7800468 425.094400
   4170   4171   4172     1   108.0100461 406.684800
   4170   4171   4173     1   108.0100461 406.684800
   4170   4174   4175     1   108.0100461 406.684800
   4170   4174   4176     1   108.0100461 406.684800
   4170   4177   4178     1   108.0100461 406.684800
   4170   4177   4179     1   108.0100461 406.684800
   4171   4170   4199     1   110.1100470 384.091200
   4171   4183   4184     1   109.8000471 387.438400
   4171   4183   4185     1   109.8000471 387.438400
   4172   4171   4183     1   110.5600475 386.601600
   4172   4171   4173     1   109.7500473 328.025600
   4173   4171   4183     1   110.5600475 386.601600
   4174   4170   4199     1   110.1100470 384.091200
   4174   4186   4187     1   109.8000471 387.438400
   4174   4186   4188     1   109.8000471 387.438400
   4175   4174   4186     1   110.5600475 386.601600
   4175   4174   4176     1   109.7500473 328.025600
   4176   4174   4186     1   110.5600475 386.601600
   4177   4170   4199     1   110.1100470 384.091200
   4177   4180   4181     1   109.8000471 387.438400
   4177   4180   4182     1   109.8000471 387.438400
   4178   4177   4180     1   110.5600475 386.601600
   4178   4177   4179     1   109.7500473 328.025600
   4179   4177   4180     1   110.5600475 386.601600
   4180   4189   4190     1   109.5600471 388.275200
   4180   4189   4191     1   109.5600471 388.275200
   4181   4180   4189     1   109.8000471 387.438400
   4181   4180   4182     1   107.5800459 329.699200
   4182   4180   4189     1   109.8000471 387.438400
   4183   4195   4196     1   109.5600471 388.275200
   4183   4195   4197     1   109.5600471 388.275200
   4184   4183   4195     1   109.8000471 387.438400
   4184   4183   4185     1   107.5800459 329.699200
   4185   4183   4195     1   109.8000471 387.438400
   4186   4192   4193     1   109.5600471 388.275200
   4186   4192   4194     1   109.5600471 388.275200
   4187   4186   4192     1   109.8000471 387.438400
   4187   4186   4188     1   107.5800459 329.699200
   4188   4186   4192     1   109.8000471 387.438400
   4190   4189   4198     1   109.7800468 425.094400
   4190   4189   4191     1   108.4600466 328.025600
   4191   4189   4198     1   109.7800468 425.094400
   4193   4192   6972     1   109.7800468 425.094400
   4193   4192   4194     1   108.4600466 328.025600
   4194   4192   6972     1   109.7800468 425.094400
   4196   4195   6986     1   109.7800468 425.094400
   4196   4195   4197     1   108.4600466 328.025600
   4197   4195   6986     1   109.7800468 425.094400
   4200   4201   4202     1   108.0100461 406.684800
   4200   4201   4203     1   108.0100461 406.684800
   4200   4204   4205     1   108.0100461 406.684800
   4200   4204   4206     1   108.0100461 406.684800
   4200   4207   4208     1   108.0100461 406.684800
   4200   4207   4209     1   108.0100461 406.684800
   4201   4200   4229     1   110.1100470 384.091200
   4201   4213   4214     1   109.8000471 387.438400
   4201   4213   4215     1   109.8000471 387.438400
   4202   4201   4213     1   110.5600475 386.601600
   4202   4201   4203     1   109.7500473 328.025600
   4203   4201   4213     1   110.5600475 386.601600
   4204   4200   4229     1   110.1100470 384.091200
   4204   4216   4217     1   109.8000471 387.438400
   4204   4216   4218     1   109.8000471 387.438400
   4205   4204   4216     1   110.5600475 386.601600
   4205   4204   4206     1   109.7500473 328.025600
   4206   4204   4216     1   110.5600475 386.601600
   4207   4200   4229     1   110.1100470 384.091200
   4207   4210   4211     1   109.8000471 387.438400
   4207   4210   4212     1   109.8000471 387.438400
   4208   4207   4210     1   110.5600475 386.601600
   4208   4207   4209     1   109.7500473 328.025600
   4209   4207   4210     1   110.5600475 386.601600
   4210   4219   4220     1   109.5600471 388.275200
   4210   4219   4221     1   109.5600471 388.275200
   4211   4210   4219     1   109.8000471 387.438400
   4211   4210   4212     1   107.5800459 329.699200
   4212   4210   4219     1   109.8000471 387.438400
   4213   4225   4226     1   109.5600471 388.275200
   4213   4225   4227     1   109.5600471 388.275200
   4214   4213   4225     1   109.8000471 387.438400
   4214   4213   4215     1   107.5800459 329.699200
   4215   4213   4225     1   109.8000471 387.438400
   4216   4222   4223     1   109.5600471 388.275200
   4216   4222   4224     1   109.5600471 388.275200
   4217   4216   4222     1   109.8000471 387.438400
   4217   4216   4218     1   107.5800459 329.699200
   4218   4216   4222     1   109.8000471 387.438400
   4220   4219   4228     1   109.7800468 425.094400
   4220   4219   4221     1   108.4600466 328.025600
   4221   4219   4228     1   109.7800468 425.094400
   4223   4222   7000     1   109.7800468 425.094400
   4223   4222   4224     1   108.4600466 328.025600
   4224   4222   7000     1   109.7800468 425.094400
   4226   4225   7014     1   109.7800468 425.094400
   4226   4225   4227     1   108.4600466 328.025600
   4227   4225   7014     1   109.7800468 425.094400
   4230   4231   4232     1   108.0100461 406.684800
   4230   4231   4233     1   108.0100461 406.684800
   4230   4234   4235     1   108.0100461 406.684800
   4230   4234   4236     1   108.0100461 406.684800
   4230   4237   4238     1   108.0100461 406.684800
   4230   4237   4239     1   108.0100461 406.684800
   4231   4230   4259     1   110.1100470 384.091200
   4231   4243   4244     1   109.8000471 387.438400
   4231   4243   4245     1   109.8000471 387.438400
   4232   4231   4243     1   110.5600475 386.601600
   4232   4231   4233     1   109.7500473 328.025600
   4233   4231   4243     1   110.5600475 386.601600
   4234   4230   4259     1   110.1100470 384.091200
   4234   4246   4247     1   109.8000471 387.438400
   4234   4246   4248     1   109.8000471 387.438400
   4235   4234   4246     1   110.5600475 386.601600
   4235   4234   4236     1   109.7500473 328.025600
   4236   4234   4246     1   110.5600475 386.601600
   4237   4230   4259     1   110.1100470 384.091200
   4237   4240   4241     1   109.8000471 387.438400
   4237   4240   4242     1   109.8000471 387.438400
   4238   4237   4240     1   110.5600475 386.601600
   4238   4237   4239     1   109.7500473 328.025600
   4239   4237   4240     1   110.5600475 386.601600
   4240   4249   4250     1   109.5600471 388.275200
   4240   4249   4251     1   109.5600471 388.275200
   4241   4240   4249     1   109.8000471 387.438400
   4241   4240   4242     1   107.5800459 329.699200
   4242   4240   4249     1   109.8000471 387.438400
   4243   4255   4256     1   109.5600471 388.275200
   4243   4255   4257     1   109.5600471 388.275200
   4244   4243   4255     1   109.8000471 387.438400
   4244   4243   4245     1   107.5800459 329.699200
   4245   4243   4255     1   109.8000471 387.438400
   4246   4252   4253     1   109.5600471 388.275200
   4246   4252   4254     1   109.5600471 388.275200
   4247   4246   4252     1   109.8000471 387.438400
   4247   4246   4248     1   107.5800459 329.699200
   4248   4246   4252     1   109.8000471 387.438400
   4250   4249   4258     1   109.7800468 425.094400
   4250   4249   4251     1   108.4600466 328.025600
   4251   4249   4258     1   109.7800468 425.094400
   4253   4252   7028     1   109.7800468 425.094400
   4253   4252   4254     1   108.4600466 328.025600
   4254   4252   7028     1   109.7800468 425.094400
   4256   4255   7042     1   109.7800468 425.094400
   4256   4255   4257     1   108.4600466 328.025600
   4257   4255   7042     1   109.7800468 425.094400
   4260   4261   4262     1   108.0100461 406.684800
   4260   4261   4263     1   108.0100461 406.684800
   4260   4264   4265     1   108.0100461 406.684800
   4260   4264   4266     1   108.0100461 406.684800
   4260   4267   4268     1   108.0100461 406.684800
   4260   4267   4269     1   108.0100461 406.684800
   4261   4260   4289     1   110.1100470 384.091200
   4261   4273   4274     1   109.8000471 387.438400
   4261   4273   4275     1   109.8000471 387.438400
   4262   4261   4273     1   110.5600475 386.601600
   4262   4261   4263     1   109.7500473 328.025600
   4263   4261   4273     1   110.5600475 386.601600
   4264   4260   4289     1   110.1100470 384.091200
   4264   4276   4277     1   109.8000471 387.438400
   4264   4276   4278     1   109.8000471 387.438400
   4265   4264   4276     1   110.5600475 386.601600
   4265   4264   4266     1   109.7500473 328.025600
   4266   4264   4276     1   110.5600475 386.601600
   4267   4260   4289     1   110.1100470 384.091200
   4267   4270   4271     1   109.8000471 387.438400
   4267   4270   4272     1   109.8000471 387.438400
   4268   4267   4270     1   110.5600475 386.601600
   4268   4267   4269     1   109.7500473 328.025600
   4269   4267   4270     1   110.5600475 386.601600
   4270   4279   4280     1   109.5600471 388.275200
   4270   4279   4281     1   109.5600471 388.275200
   4271   4270   4279     1   109.8000471 387.438400
   4271   4270   4272     1   107.5800459 329.699200
   4272   4270   4279     1   109.8000471 387.438400
   4273   4285   4286     1   109.5600471 388.275200
   4273   4285   4287     1   109.5600471 388.275200
   4274   4273   4285     1   109.8000471 387.438400
   4274   4273   4275     1   107.5800459 329.699200
   4275   4273   4285     1   109.8000471 387.438400
   4276   4282   4283     1   109.5600471 388.275200
   4276   4282   4284     1   109.5600471 388.275200
   4277   4276   4282     1   109.8000471 387.438400
   4277   4276   4278     1   107.5800459 329.699200
   4278   4276   4282     1   109.8000471 387.438400
   4280   4279   4288     1   109.7800468 425.094400
   4280   4279   4281     1   108.4600466 328.025600
   4281   4279   4288     1   109.7800468 425.094400
   4283   4282   7056     1   109.7800468 425.094400
   4283   4282   4284     1   108.4600466 328.025600
   4284   4282   7056     1   109.7800468 425.094400
   4286   4285   7070     1   109.7800468 425.094400
   4286   4285   4287     1   108.4600466 328.025600
   4287   4285   7070     1   109.7800468 425.094400
   4290   4291   4292     1   108.0100461 406.684800
   4290   4291   4293     1   108.0100461 406.684800
   4290   4294   4295     1   108.0100461 406.684800
   4290   4294   4296     1   108.0100461 406.684800
   4290   4297   4298     1   108.0100461 406.684800
   4290   4297   4299     1   108.0100461 406.684800
   4291   4290   4319     1   110.1100470 384.091200
   4291   4303   4304     1   109.8000471 387.438400
   4291   4303   4305     1   109.8000471 387.438400
   4292   4291   4303     1   110.5600475 386.601600
   4292   4291   4293     1   109.7500473 328.025600
   4293   4291   4303     1   110.5600475 386.601600
   4294   4290   4319     1   110.1100470 384.091200
   4294   4306   4307     1   109.8000471 387.438400
   4294   4306   4308     1   109.8000471 387.438400
   4295   4294   4306     1   110.5600475 386.601600
   4295   4294   4296     1   109.7500473 328.025600
   4296   4294   4306     1   110.5600475 386.601600
   4297   4290   4319     1   110.1100470 384.091200
   4297   4300   4301     1   109.8000471 387.438400
   4297   4300   4302     1   109.8000471 387.438400
   4298   4297   4300     1   110.5600475 386.601600
   4298   4297   4299     1   109.7500473 328.025600
   4299   4297   4300     1   110.5600475 386.601600
   4300   4309   4310     1   109.5600471 388.275200
   4300   4309   4311     1   109.5600471 388.275200
   4301   4300   4309     1   109.8000471 387.438400
   4301   4300   4302     1   107.5800459 329.699200
   4302   4300   4309     1   109.8000471 387.438400
   4303   4315   4316     1   109.5600471 388.275200
   4303   4315   4317     1   109.5600471 388.275200
   4304   4303   4315     1   109.8000471 387.438400
   4304   4303   4305     1   107.5800459 329.699200
   4305   4303   4315     1   109.8000471 387.438400
   4306   4312   4313     1   109.5600471 388.275200
   4306   4312   4314     1   109.5600471 388.275200
   4307   4306   4312     1   109.8000471 387.438400
   4307   4306   4308     1   107.5800459 329.699200
   4308   4306   4312     1   109.8000471 387.438400
   4310   4309   4318     1   109.7800468 425.094400
   4310   4309   4311     1   108.4600466 328.025600
   4311   4309   4318     1   109.7800468 425.094400
   4313   4312   7084     1   109.7800468 425.094400
   4313   4312   4314     1   108.4600466 328.025600
   4314   4312   7084     1   109.7800468 425.094400
   4316   4315   7098     1   109.7800468 425.094400
   4316   4315   4317     1   108.4600466 328.025600
   4317   4315   7098     1   109.7800468 425.094400
   4320   4321   4322     1   108.0100461 406.684800
   4320   4321   4323     1   108.0100461 406.684800
   4320   4324   4325     1   108.0100461 406.684800
   4320   4324   4326     1   108.0100461 406.684800
   4320   4327   4328     1   108.0100461 406.684800
   4320   4327   4329     1   108.0100461 406.684800
   4321   4320   4349     1   110.1100470 384.091200
   4321   4333   4334     1   109.8000471 387.438400
   4321   4333   4335     1   109.8000471 387.438400
   4322   4321   4333     1   110.5600475 386.601600
   4322   4321   4323     1   109.7500473 328.025600
   4323   4321   4333     1   110.5600475 386.601600
   4324   4320   4349     1   110.1100470 384.091200
   4324   4336   4337     1   109.8000471 387.438400
   4324   4336   4338     1   109.8000471 387.438400
   4325   4324   4336     1   110.5600475 386.601600
   4325   4324   4326     1   109.7500473 328.025600
   4326   4324   4336     1   110.5600475 386.601600
   4327   4320   4349     1   110.1100470 384.091200
   4327   4330   4331     1   109.8000471 387.438400
   4327   4330   4332     1   109.8000471 387.438400
   4328   4327   4330     1   110.5600475 386.601600
   4328   4327   4329     1   109.7500473 328.025600
   4329   4327   4330     1   110.5600475 386.601600
   4330   4339   4340     1   109.5600471 388.275200
   4330   4339   4341     1   109.5600471 388.275200
   4331   4330   4339     1   109.8000471 387.438400
   4331   4330   4332     1   107.5800459 329.699200
   4332   4330   4339     1   109.8000471 387.438400
   4333   4345   4346     1   109.5600471 388.275200
   4333   4345   4347     1   109.5600471 388.275200
   4334   4333   4345     1   109.8000471 387.438400
   4334   4333   4335     1   107.5800459 329.699200
   4335   4333   4345     1   109.8000471 387.438400
   4336   4342   4343     1   109.5600471 388.275200
   4336   4342   4344     1   109.5600471 388.275200
   4337   4336   4342     1   109.8000471 387.438400
   4337   4336   4338     1   107.5800459 329.699200
   4338   4336   4342     1   109.8000471 387.438400
   4340   4339   4348     1   109.7800468 425.094400
   4340   4339   4341     1   108.4600466 328.025600
   4341   4339   4348     1   109.7800468 425.094400
   4343   4342   7112     1   109.7800468 425.094400
   4343   4342   4344     1   108.4600466 328.025600
   4344   4342   7112     1   109.7800468 425.094400
   4346   4345   7126     1   109.7800468 425.094400
   4346   4345   4347     1   108.4600466 328.025600
   4347   4345   7126     1   109.7800468 425.094400
   4350   4351   4352     1   108.0100461 406.684800
   4350   4351   4353     1   108.0100461 406.684800
   4350   4354   4355     1   108.0100461 406.684800
   4350   4354   4356     1   108.0100461 406.684800
   4350   4357   4358     1   108.0100461 406.684800
   4350   4357   4359     1   108.0100461 406.684800
   4351   4350   4379     1   110.1100470 384.091200
   4351   4363   4364     1   109.8000471 387.438400
   4351   4363   4365     1   109.8000471 387.438400
   4352   4351   4363     1   110.5600475 386.601600
   4352   4351   4353     1   109.7500473 328.025600
   4353   4351   4363     1   110.5600475 386.601600
   4354   4350   4379     1   110.1100470 384.091200
   4354   4366   4367     1   109.8000471 387.438400
   4354   4366   4368     1   109.8000471 387.438400
   4355   4354   4366     1   110.5600475 386.601600
   4355   4354   4356     1   109.7500473 328.025600
   4356   4354   4366     1   110.5600475 386.601600
   4357   4350   4379     1   110.1100470 384.091200
   4357   4360   4361     1   109.8000471 387.438400
   4357   4360   4362     1   109.8000471 387.438400
   4358   4357   4360     1   110.5600475 386.601600
   4358   4357   4359     1   109.7500473 328.025600
   4359   4357   4360     1   110.5600475 386.601600
   4360   4369   4370     1   109.5600471 388.275200
   4360   4369   4371     1   109.5600471 388.275200
   4361   4360   4369     1   109.8000471 387.438400
   4361   4360   4362     1   107.5800459 329.699200
   4362   4360   4369     1   109.8000471 387.438400
   4363   4375   4376     1   109.5600471 388.275200
   4363   4375   4377     1   109.5600471 388.275200
   4364   4363   4375     1   109.8000471 387.438400
   4364   4363   4365     1   107.5800459 329.699200
   4365   4363   4375     1   109.8000471 387.438400
   4366   4372   4373     1   109.5600471 388.275200
   4366   4372   4374     1   109.5600471 388.275200
   4367   4366   4372     1   109.8000471 387.438400
   4367   4366   4368     1   107.5800459 329.699200
   4368   4366   4372     1   109.8000471 387.438400
   4370   4369   4378     1   109.7800468 425.094400
   4370   4369   4371     1   108.4600466 328.025600
   4371   4369   4378     1   109.7800468 425.094400
   4373   4372   7140     1   109.7800468 425.094400
   4373   4372   4374     1   108.4600466 328.025600
   4374   4372   7140     1   109.7800468 425.094400
   4376   4375   7154     1   109.7800468 425.094400
   4376   4375   4377     1   108.4600466 328.025600
   4377   4375   7154     1   109.7800468 425.094400
   4380   4381   4382     1   108.0100461 406.684800
   4380   4381   4383     1   108.0100461 406.684800
   4380   4384   4385     1   108.0100461 406.684800
   4380   4384   4386     1   108.0100461 406.684800
   4380   4387   4388     1   108.0100461 406.684800
   4380   4387   4389     1   108.0100461 406.684800
   4381   4380   4409     1   110.1100470 384.091200
   4381   4393   4394     1   109.8000471 387.438400
   4381   4393   4395     1   109.8000471 387.438400
   4382   4381   4393     1   110.5600475 386.601600
   4382   4381   4383     1   109.7500473 328.025600
   4383   4381   4393     1   110.5600475 386.601600
   4384   4380   4409     1   110.1100470 384.091200
   4384   4396   4397     1   109.8000471 387.438400
   4384   4396   4398     1   109.8000471 387.438400
   4385   4384   4396     1   110.5600475 386.601600
   4385   4384   4386     1   109.7500473 328.025600
   4386   4384   4396     1   110.5600475 386.601600
   4387   4380   4409     1   110.1100470 384.091200
   4387   4390   4391     1   109.8000471 387.438400
   4387   4390   4392     1   109.8000471 387.438400
   4388   4387   4390     1   110.5600475 386.601600
   4388   4387   4389     1   109.7500473 328.025600
   4389   4387   4390     1   110.5600475 386.601600
   4390   4399   4400     1   109.5600471 388.275200
   4390   4399   4401     1   109.5600471 388.275200
   4391   4390   4399     1   109.8000471 387.438400
   4391   4390   4392     1   107.5800459 329.699200
   4392   4390   4399     1   109.8000471 387.438400
   4393   4405   4406     1   109.5600471 388.275200
   4393   4405   4407     1   109.5600471 388.275200
   4394   4393   4405     1   109.8000471 387.438400
   4394   4393   4395     1   107.5800459 329.699200
   4395   4393   4405     1   109.8000471 387.438400
   4396   4402   4403     1   109.5600471 388.275200
   4396   4402   4404     1   109.5600471 388.275200
   4397   4396   4402     1   109.8000471 387.438400
   4397   4396   4398     1   107.5800459 329.699200
   4398   4396   4402     1   109.8000471 387.438400
   4400   4399   4408     1   109.7800468 425.094400
   4400   4399   4401     1   108.4600466 328.025600
   4401   4399   4408     1   109.7800468 425.094400
   4403   4402   7168     1   109.7800468 425.094400
   4403   4402   4404     1   108.4600466 328.025600
   4404   4402   7168     1   109.7800468 425.094400
   4406   4405   7182     1   109.7800468 425.094400
   4406   4405   4407     1   108.4600466 328.025600
   4407   4405   7182     1   109.7800468 425.094400
   4410   4411   4412     1   108.0100461 406.684800
   4410   4411   4413     1   108.0100461 406.684800
   4410   4414   4415     1   108.0100461 406.684800
   4410   4414   4416     1   108.0100461 406.684800
   4410   4417   4418     1   108.0100461 406.684800
   4410   4417   4419     1   108.0100461 406.684800
   4411   4410   4439     1   110.1100470 384.091200
   4411   4423   4424     1   109.8000471 387.438400
   4411   4423   4425     1   109.8000471 387.438400
   4412   4411   4423     1   110.5600475 386.601600
   4412   4411   4413     1   109.7500473 328.025600
   4413   4411   4423     1   110.5600475 386.601600
   4414   4410   4439     1   110.1100470 384.091200
   4414   4426   4427     1   109.8000471 387.438400
   4414   4426   4428     1   109.8000471 387.438400
   4415   4414   4426     1   110.5600475 386.601600
   4415   4414   4416     1   109.7500473 328.025600
   4416   4414   4426     1   110.5600475 386.601600
   4417   4410   4439     1   110.1100470 384.091200
   4417   4420   4421     1   109.8000471 387.438400
   4417   4420   4422     1   109.8000471 387.438400
   4418   4417   4420     1   110.5600475 386.601600
   4418   4417   4419     1   109.7500473 328.025600
   4419   4417   4420     1   110.5600475 386.601600
   4420   4429   4430     1   109.5600471 388.275200
   4420   4429   4431     1   109.5600471 388.275200
   4421   4420   4429     1   109.8000471 387.438400
   4421   4420   4422     1   107.5800459 329.699200
   4422   4420   4429     1   109.8000471 387.438400
   4423   4435   4436     1   109.5600471 388.275200
   4423   4435   4437     1   109.5600471 388.275200
   4424   4423   4435     1   109.8000471 387.438400
   4424   4423   4425     1   107.5800459 329.699200
   4425   4423   4435     1   109.8000471 387.438400
   4426   4432   4433     1   109.5600471 388.275200
   4426   4432   4434     1   109.5600471 388.275200
   4427   4426   4432     1   109.8000471 387.438400
   4427   4426   4428     1   107.5800459 329.699200
   4428   4426   4432     1   109.8000471 387.438400
   4430   4429   4438     1   109.7800468 425.094400
   4430   4429   4431     1   108.4600466 328.025600
   4431   4429   4438     1   109.7800468 425.094400
   4433   4432   7196     1   109.7800468 425.094400
   4433   4432   4434     1   108.4600466 328.025600
   4434   4432   7196     1   109.7800468 425.094400
   4436   4435   7210     1   109.7800468 425.094400
   4436   4435   4437     1   108.4600466 328.025600
   4437   4435   7210     1   109.7800468 425.094400
   4440   4441   4442     1   108.0100461 406.684800
   4440   4441   4443     1   108.0100461 406.684800
   4440   4444   4445     1   108.0100461 406.684800
   4440   4444   4446     1   108.0100461 406.684800
   4440   4447   4448     1   108.0100461 406.684800
   4440   4447   4449     1   108.0100461 406.684800
   4441   4440   4469     1   110.1100470 384.091200
   4441   4453   4454     1   109.8000471 387.438400
   4441   4453   4455     1   109.8000471 387.438400
   4442   4441   4453     1   110.5600475 386.601600
   4442   4441   4443     1   109.7500473 328.025600
   4443   4441   4453     1   110.5600475 386.601600
   4444   4440   4469     1   110.1100470 384.091200
   4444   4456   4457     1   109.8000471 387.438400
   4444   4456   4458     1   109.8000471 387.438400
   4445   4444   4456     1   110.5600475 386.601600
   4445   4444   4446     1   109.7500473 328.025600
   4446   4444   4456     1   110.5600475 386.601600
   4447   4440   4469     1   110.1100470 384.091200
   4447   4450   4451     1   109.8000471 387.438400
   4447   4450   4452     1   109.8000471 387.438400
   4448   4447   4450     1   110.5600475 386.601600
   4448   4447   4449     1   109.7500473 328.025600
   4449   4447   4450     1   110.5600475 386.601600
   4450   4459   4460     1   109.5600471 388.275200
   4450   4459   4461     1   109.5600471 388.275200
   4451   4450   4459     1   109.8000471 387.438400
   4451   4450   4452     1   107.5800459 329.699200
   4452   4450   4459     1   109.8000471 387.438400
   4453   4465   4466     1   109.5600471 388.275200
   4453   4465   4467     1   109.5600471 388.275200
   4454   4453   4465     1   109.8000471 387.438400
   4454   4453   4455     1   107.5800459 329.699200
   4455   4453   4465     1   109.8000471 387.438400
   4456   4462   4463     1   109.5600471 388.275200
   4456   4462   4464     1   109.5600471 388.275200
   4457   4456   4462     1   109.8000471 387.438400
   4457   4456   4458     1   107.5800459 329.699200
   4458   4456   4462     1   109.8000471 387.438400
   4460   4459   4468     1   109.7800468 425.094400
   4460   4459   4461     1   108.4600466 328.025600
   4461   4459   4468     1   109.7800468 425.094400
   4463   4462   7224     1   109.7800468 425.094400
   4463   4462   4464     1   108.4600466 328.025600
   4464   4462   7224     1   109.7800468 425.094400
   4466   4465   7238     1   109.7800468 425.094400
   4466   4465   4467     1   108.4600466 328.025600
   4467   4465   7238     1   109.7800468 425.094400
   4470   4471   4472     1   108.0100461 406.684800
   4470   4471   4473     1   108.0100461 406.684800
   4470   4474   4475     1   108.0100461 406.684800
   4470   4474   4476     1   108.0100461 406.684800
   4470   4477   4478     1   108.0100461 406.684800
   4470   4477   4479     1   108.0100461 406.684800
   4471   4470   4499     1   110.1100470 384.091200
   4471   4483   4484     1   109.8000471 387.438400
   4471   4483   4485     1   109.8000471 387.438400
   4472   4471   4483     1   110.5600475 386.601600
   4472   4471   4473     1   109.7500473 328.025600
   4473   4471   4483     1   110.5600475 386.601600
   4474   4470   4499     1   110.1100470 384.091200
   4474   4486   4487     1   109.8000471 387.438400
   4474   4486   4488     1   109.8000471 387.438400
   4475   4474   4486     1   110.5600475 386.601600
   4475   4474   4476     1   109.7500473 328.025600
   4476   4474   4486     1   110.5600475 386.601600
   4477   4470   4499     1   110.1100470 384.091200
   4477   4480   4481     1   109.8000471 387.438400
   4477   4480   4482     1   109.8000471 387.438400
   4478   4477   4480     1   110.5600475 386.601600
   4478   4477   4479     1   109.7500473 328.025600
   4479   4477   4480     1   110.5600475 386.601600
   4480   4489   4490     1   109.5600471 388.275200
   4480   4489   4491     1   109.5600471 388.275200
   4481   4480   4489     1   109.8000471 387.438400
   4481   4480   4482     1   107.5800459 329.699200
   4482   4480   4489     1   109.8000471 387.438400
   4483   4495   4496     1   109.5600471 388.275200
   4483   4495   4497     1   109.5600471 388.275200
   4484   4483   4495     1   109.8000471 387.438400
   4484   4483   4485     1   107.5800459 329.699200
   4485   4483   4495     1   109.8000471 387.438400
   4486   4492   4493     1   109.5600471 388.275200
   4486   4492   4494     1   109.5600471 388.275200
   4487   4486   4492     1   109.8000471 387.438400
   4487   4486   4488     1   107.5800459 329.699200
   4488   4486   4492     1   109.8000471 387.438400
   4490   4489   4498     1   109.7800468 425.094400
   4490   4489   4491     1   108.4600466 328.025600
   4491   4489   4498     1   109.7800468 425.094400
   4493   4492   7252     1   109.7800468 425.094400
   4493   4492   4494     1   108.4600466 328.025600
   4494   4492   7252     1   109.7800468 425.094400
   4496   4495   7266     1   109.7800468 425.094400
   4496   4495   4497     1   108.4600466 328.025600
   4497   4495   7266     1   109.7800468 425.094400
   4500   4501   4502     1   108.0100461 406.684800
   4500   4501   4503     1   108.0100461 406.684800
   4500   4504   4505     1   108.0100461 406.684800
   4500   4504   4506     1   108.0100461 406.684800
   4500   4507   4508     1   108.0100461 406.684800
   4500   4507   4509     1   108.0100461 406.684800
   4501   4500   4529     1   110.1100470 384.091200
   4501   4513   4514     1   109.8000471 387.438400
   4501   4513   4515     1   109.8000471 387.438400
   4502   4501   4513     1   110.5600475 386.601600
   4502   4501   4503     1   109.7500473 328.025600
   4503   4501   4513     1   110.5600475 386.601600
   4504   4500   4529     1   110.1100470 384.091200
   4504   4516   4517     1   109.8000471 387.438400
   4504   4516   4518     1   109.8000471 387.438400
   4505   4504   4516     1   110.5600475 386.601600
   4505   4504   4506     1   109.7500473 328.025600
   4506   4504   4516     1   110.5600475 386.601600
   4507   4500   4529     1   110.1100470 384.091200
   4507   4510   4511     1   109.8000471 387.438400
   4507   4510   4512     1   109.8000471 387.438400
   4508   4507   4510     1   110.5600475 386.601600
   4508   4507   4509     1   109.7500473 328.025600
   4509   4507   4510     1   110.5600475 386.601600
   4510   4519   4520     1   109.5600471 388.275200
   4510   4519   4521     1   109.5600471 388.275200
   4511   4510   4519     1   109.8000471 387.438400
   4511   4510   4512     1   107.5800459 329.699200
   4512   4510   4519     1   109.8000471 387.438400
   4513   4525   4526     1   109.5600471 388.275200
   4513   4525   4527     1   109.5600471 388.275200
   4514   4513   4525     1   109.8000471 387.438400
   4514   4513   4515     1   107.5800459 329.699200
   4515   4513   4525     1   109.8000471 387.438400
   4516   4522   4523     1   109.5600471 388.275200
   4516   4522   4524     1   109.5600471 388.275200
   4517   4516   4522     1   109.8000471 387.438400
   4517   4516   4518     1   107.5800459 329.699200
   4518   4516   4522     1   109.8000471 387.438400
   4520   4519   4528     1   109.7800468 425.094400
   4520   4519   4521     1   108.4600466 328.025600
   4521   4519   4528     1   109.7800468 425.094400
   4523   4522   7280     1   109.7800468 425.094400
   4523   4522   4524     1   108.4600466 328.025600
   4524   4522   7280     1   109.7800468 425.094400
   4526   4525   7294     1   109.7800468 425.094400
   4526   4525   4527     1   108.4600466 328.025600
   4527   4525   7294     1   109.7800468 425.094400
   4530   4531   4532     1   108.0100461 406.684800
   4530   4531   4533     1   108.0100461 406.684800
   4530   4534   4535     1   108.0100461 406.684800
   4530   4534   4536     1   108.0100461 406.684800
   4530   4537   4538     1   108.0100461 406.684800
   4530   4537   4539     1   108.0100461 406.684800
   4531   4530   4559     1   110.1100470 384.091200
   4531   4543   4544     1   109.8000471 387.438400
   4531   4543   4545     1   109.8000471 387.438400
   4532   4531   4543     1   110.5600475 386.601600
   4532   4531   4533     1   109.7500473 328.025600
   4533   4531   4543     1   110.5600475 386.601600
   4534   4530   4559     1   110.1100470 384.091200
   4534   4546   4547     1   109.8000471 387.438400
   4534   4546   4548     1   109.8000471 387.438400
   4535   4534   4546     1   110.5600475 386.601600
   4535   4534   4536     1   109.7500473 328.025600
   4536   4534   4546     1   110.5600475 386.601600
   4537   4530   4559     1   110.1100470 384.091200
   4537   4540   4541     1   109.8000471 387.438400
   4537   4540   4542     1   109.8000471 387.438400
   4538   4537   4540     1   110.5600475 386.601600
   4538   4537   4539     1   109.7500473 328.025600
   4539   4537   4540     1   110.5600475 386.601600
   4540   4549   4550     1   109.5600471 388.275200
   4540   4549   4551     1   109.5600471 388.275200
   4541   4540   4549     1   109.8000471 387.438400
   4541   4540   4542     1   107.5800459 329.699200
   4542   4540   4549     1   109.8000471 387.438400
   4543   4555   4556     1   109.5600471 388.275200
   4543   4555   4557     1   109.5600471 388.275200
   4544   4543   4555     1   109.8000471 387.438400
   4544   4543   4545     1   107.5800459 329.699200
   4545   4543   4555     1   109.8000471 387.438400
   4546   4552   4553     1   109.5600471 388.275200
   4546   4552   4554     1   109.5600471 388.275200
   4547   4546   4552     1   109.8000471 387.438400
   4547   4546   4548     1   107.5800459 329.699200
   4548   4546   4552     1   109.8000471 387.438400
   4550   4549   4558     1   109.7800468 425.094400
   4550   4549   4551     1   108.4600466 328.025600
   4551   4549   4558     1   109.7800468 425.094400
   4553   4552   7308     1   109.7800468 425.094400
   4553   4552   4554     1   108.4600466 328.025600
   4554   4552   7308     1   109.7800468 425.094400
   4556   4555   7322     1   109.7800468 425.094400
   4556   4555   4557     1   108.4600466 328.025600
   4557   4555   7322     1   109.7800468 425.094400
   4560   4561   4562     1   108.0100461 406.684800
   4560   4561   4563     1   108.0100461 406.684800
   4560   4564   4565     1   108.0100461 406.684800
   4560   4564   4566     1   108.0100461 406.684800
   4560   4567   4568     1   108.0100461 406.684800
   4560   4567   4569     1   108.0100461 406.684800
   4561   4560   4589     1   110.1100470 384.091200
   4561   4573   4574     1   109.8000471 387.438400
   4561   4573   4575     1   109.8000471 387.438400
   4562   4561   4573     1   110.5600475 386.601600
   4562   4561   4563     1   109.7500473 328.025600
   4563   4561   4573     1   110.5600475 386.601600
   4564   4560   4589     1   110.1100470 384.091200
   4564   4576   4577     1   109.8000471 387.438400
   4564   4576   4578     1   109.8000471 387.438400
   4565   4564   4576     1   110.5600475 386.601600
   4565   4564   4566     1   109.7500473 328.025600
   4566   4564   4576     1   110.5600475 386.601600
   4567   4560   4589     1   110.1100470 384.091200
   4567   4570   4571     1   109.8000471 387.438400
   4567   4570   4572     1   109.8000471 387.438400
   4568   4567   4570     1   110.5600475 386.601600
   4568   4567   4569     1   109.7500473 328.025600
   4569   4567   4570     1   110.5600475 386.601600
   4570   4579   4580     1   109.5600471 388.275200
   4570   4579   4581     1   109.5600471 388.275200
   4571   4570   4579     1   109.8000471 387.438400
   4571   4570   4572     1   107.5800459 329.699200
   4572   4570   4579     1   109.8000471 387.438400
   4573   4585   4586     1   109.5600471 388.275200
   4573   4585   4587     1   109.5600471 388.275200
   4574   4573   4585     1   109.8000471 387.438400
   4574   4573   4575     1   107.5800459 329.699200
   4575   4573   4585     1   109.8000471 387.438400
   4576   4582   4583     1   109.5600471 388.275200
   4576   4582   4584     1   109.5600471 388.275200
   4577   4576   4582     1   109.8000471 387.438400
   4577   4576   4578     1   107.5800459 329.699200
   4578   4576   4582     1   109.8000471 387.438400
   4580   4579   4588     1   109.7800468 425.094400
   4580   4579   4581     1   108.4600466 328.025600
   4581   4579   4588     1   109.7800468 425.094400
   4583   4582   7336     1   109.7800468 425.094400
   4583   4582   4584     1   108.4600466 328.025600
   4584   4582   7336     1   109.7800468 425.094400
   4586   4585   7350     1   109.7800468 425.094400
   4586   4585   4587     1   108.4600466 328.025600
   4587   4585   7350     1   109.7800468 425.094400
   4590   4591   4592     1   108.0100461 406.684800
   4590   4591   4593     1   108.0100461 406.684800
   4590   4594   4595     1   108.0100461 406.684800
   4590   4594   4596     1   108.0100461 406.684800
   4590   4597   4598     1   108.0100461 406.684800
   4590   4597   4599     1   108.0100461 406.684800
   4591   4590   4619     1   110.1100470 384.091200
   4591   4603   4604     1   109.8000471 387.438400
   4591   4603   4605     1   109.8000471 387.438400
   4592   4591   4603     1   110.5600475 386.601600
   4592   4591   4593     1   109.7500473 328.025600
   4593   4591   4603     1   110.5600475 386.601600
   4594   4590   4619     1   110.1100470 384.091200
   4594   4606   4607     1   109.8000471 387.438400
   4594   4606   4608     1   109.8000471 387.438400
   4595   4594   4606     1   110.5600475 386.601600
   4595   4594   4596     1   109.7500473 328.025600
   4596   4594   4606     1   110.5600475 386.601600
   4597   4590   4619     1   110.1100470 384.091200
   4597   4600   4601     1   109.8000471 387.438400
   4597   4600   4602     1   109.8000471 387.438400
   4598   4597   4600     1   110.5600475 386.601600
   4598   4597   4599     1   109.7500473 328.025600
   4599   4597   4600     1   110.5600475 386.601600
   4600   4609   4610     1   109.5600471 388.275200
   4600   4609   4611     1   109.5600471 388.275200
   4601   4600   4609     1   109.8000471 387.438400
   4601   4600   4602     1   107.5800459 329.699200
   4602   4600   4609     1   109.8000471 387.438400
   4603   4615   4616     1   109.5600471 388.275200
   4603   4615   4617     1   109.5600471 388.275200
   4604   4603   4615     1   109.8000471 387.438400
   4604   4603   4605     1   107.5800459 329.699200
   4605   4603   4615     1   109.8000471 387.438400
   4606   4612   4613     1   109.5600471 388.275200
   4606   4612   4614     1   109.5600471 388.275200
   4607   4606   4612     1   109.8000471 387.438400
   4607   4606   4608     1   107.5800459 329.699200
   4608   4606   4612     1   109.8000471 387.438400
   4610   4609   4618     1   109.7800468 425.094400
   4610   4609   4611     1   108.4600466 328.025600
   4611   4609   4618     1   109.7800468 425.094400
   4613   4612   7364     1   109.7800468 425.094400
   4613   4612   4614     1   108.4600466 328.025600
   4614   4612   7364     1   109.7800468 425.094400
   4616   4615   7378     1   109.7800468 425.094400
   4616   4615   4617     1   108.4600466 328.025600
   4617   4615   7378     1   109.7800468 425.094400
   4620   4621   4622     1   108.0100461 406.684800
   4620   4621   4623     1   108.0100461 406.684800
   4620   4624   4625     1   108.0100461 406.684800
   4620   4624   4626     1   108.0100461 406.684800
   4620   4627   4628     1   108.0100461 406.684800
   4620   4627   4629     1   108.0100461 406.684800
   4621   4620   4649     1   110.1100470 384.091200
   4621   4633   4634     1   109.8000471 387.438400
   4621   4633   4635     1   109.8000471 387.438400
   4622   4621   4633     1   110.5600475 386.601600
   4622   4621   4623     1   109.7500473 328.025600
   4623   4621   4633     1   110.5600475 386.601600
   4624   4620   4649     1   110.1100470 384.091200
   4624   4636   4637     1   109.8000471 387.438400
   4624   4636   4638     1   109.8000471 387.438400
   4625   4624   4636     1   110.5600475 386.601600
   4625   4624   4626     1   109.7500473 328.025600
   4626   4624   4636     1   110.5600475 386.601600
   4627   4620   4649     1   110.1100470 384.091200
   4627   4630   4631     1   109.8000471 387.438400
   4627   4630   4632     1   109.8000471 387.438400
   4628   4627   4630     1   110.5600475 386.601600
   4628   4627   4629     1   109.7500473 328.025600
   4629   4627   4630     1   110.5600475 386.601600
   4630   4639   4640     1   109.5600471 388.275200
   4630   4639   4641     1   109.5600471 388.275200
   4631   4630   4639     1   109.8000471 387.438400
   4631   4630   4632     1   107.5800459 329.699200
   4632   4630   4639     1   109.8000471 387.438400
   4633   4645   4646     1   109.5600471 388.275200
   4633   4645   4647     1   109.5600471 388.275200
   4634   4633   4645     1   109.8000471 387.438400
   4634   4633   4635     1   107.5800459 329.699200
   4635   4633   4645     1   109.8000471 387.438400
   4636   4642   4643     1   109.5600471 388.275200
   4636   4642   4644     1   109.5600471 388.275200
   4637   4636   4642     1   109.8000471 387.438400
   4637   4636   4638     1   107.5800459 329.699200
   4638   4636   4642     1   109.8000471 387.438400
   4640   4639   4648     1   109.7800468 425.094400
   4640   4639   4641     1   108.4600466 328.025600
   4641   4639   4648     1   109.7800468 425.094400
   4643   4642   7392     1   109.7800468 425.094400
   4643   4642   4644     1   108.4600466 328.025600
   4644   4642   7392     1   109.7800468 425.094400
   4646   4645   7406     1   109.7800468 425.094400
   4646   4645   4647     1   108.4600466 328.025600
   4647   4645   7406     1   109.7800468 425.094400
   4650   4651   4652     1   108.0100461 406.684800
   4650   4651   4653     1   108.0100461 406.684800
   4650   4654   4655     1   108.0100461 406.684800
   4650   4654   4656     1   108.0100461 406.684800
   4650   4657   4658     1   108.0100461 406.684800
   4650   4657   4659     1   108.0100461 406.684800
   4651   4650   4679     1   110.1100470 384.091200
   4651   4663   4664     1   109.8000471 387.438400
   4651   4663   4665     1   109.8000471 387.438400
   4652   4651   4663     1   110.5600475 386.601600
   4652   4651   4653     1   109.7500473 328.025600
   4653   4651   4663     1   110.5600475 386.601600
   4654   4650   4679     1   110.1100470 384.091200
   4654   4666   4667     1   109.8000471 387.438400
   4654   4666   4668     1   109.8000471 387.438400
   4655   4654   4666     1   110.5600475 386.601600
   4655   4654   4656     1   109.7500473 328.025600
   4656   4654   4666     1   110.5600475 386.601600
   4657   4650   4679     1   110.1100470 384.091200
   4657   4660   4661     1   109.8000471 387.438400
   4657   4660   4662     1   109.8000471 387.438400
   4658   4657   4660     1   110.5600475 386.601600
   4658   4657   4659     1   109.7500473 328.025600
   4659   4657   4660     1   110.5600475 386.601600
   4660   4669   4670     1   109.5600471 388.275200
   4660   4669   4671     1   109.5600471 388.275200
   4661   4660   4669     1   109.8000471 387.438400
   4661   4660   4662     1   107.5800459 329.699200
   4662   4660   4669     1   109.8000471 387.438400
   4663   4675   4676     1   109.5600471 388.275200
   4663   4675   4677     1   109.5600471 388.275200
   4664   4663   4675     1   109.8000471 387.438400
   4664   4663   4665     1   107.5800459 329.699200
   4665   4663   4675     1   109.8000471 387.438400
   4666   4672   4673     1   109.5600471 388.275200
   4666   4672   4674     1   109.5600471 388.275200
   4667   4666   4672     1   109.8000471 387.438400
   4667   4666   4668     1   107.5800459 329.699200
   4668   4666   4672     1   109.8000471 387.438400
   4670   4669   4678     1   109.7800468 425.094400
   4670   4669   4671     1   108.4600466 328.025600
   4671   4669   4678     1   109.7800468 425.094400
   4673   4672   7420     1   109.7800468 425.094400
   4673   4672   4674     1   108.4600466 328.025600
   4674   4672   7420     1   109.7800468 425.094400
   4676   4675   7434     1   109.7800468 425.094400
   4676   4675   4677     1   108.4600466 328.025600
   4677   4675   7434     1   109.7800468 425.094400
   4680   4681   4682     1   108.0100461 406.684800
   4680   4681   4683     1   108.0100461 406.684800
   4680   4684   4685     1   108.0100461 406.684800
   4680   4684   4686     1   108.0100461 406.684800
   4680   4687   4688     1   108.0100461 406.684800
   4680   4687   4689     1   108.0100461 406.684800
   4681   4680   4709     1   110.1100470 384.091200
   4681   4693   4694     1   109.8000471 387.438400
   4681   4693   4695     1   109.8000471 387.438400
   4682   4681   4693     1   110.5600475 386.601600
   4682   4681   4683     1   109.7500473 328.025600
   4683   4681   4693     1   110.5600475 386.601600
   4684   4680   4709     1   110.1100470 384.091200
   4684   4696   4697     1   109.8000471 387.438400
   4684   4696   4698     1   109.8000471 387.438400
   4685   4684   4696     1   110.5600475 386.601600
   4685   4684   4686     1   109.7500473 328.025600
   4686   4684   4696     1   110.5600475 386.601600
   4687   4680   4709     1   110.1100470 384.091200
   4687   4690   4691     1   109.8000471 387.438400
   4687   4690   4692     1   109.8000471 387.438400
   4688   4687   4690     1   110.5600475 386.601600
   4688   4687   4689     1   109.7500473 328.025600
   4689   4687   4690     1   110.5600475 386.601600
   4690   4699   4700     1   109.5600471 388.275200
   4690   4699   4701     1   109.5600471 388.275200
   4691   4690   4699     1   109.8000471 387.438400
   4691   4690   4692     1   107.5800459 329.699200
   4692   4690   4699     1   109.8000471 387.438400
   4693   4705   4706     1   109.5600471 388.275200
   4693   4705   4707     1   109.5600471 388.275200
   4694   4693   4705     1   109.8000471 387.438400
   4694   4693   4695     1   107.5800459 329.699200
   4695   4693   4705     1   109.8000471 387.438400
   4696   4702   4703     1   109.5600471 388.275200
   4696   4702   4704     1   109.5600471 388.275200
   4697   4696   4702     1   109.8000471 387.438400
   4697   4696   4698     1   107.5800459 329.699200
   4698   4696   4702     1   109.8000471 387.438400
   4700   4699   4708     1   109.7800468 425.094400
   4700   4699   4701     1   108.4600466 328.025600
   4701   4699   4708     1   109.7800468 425.094400
   4703   4702   7448     1   109.7800468 425.094400
   4703   4702   4704     1   108.4600466 328.025600
   4704   4702   7448     1   109.7800468 425.094400
   4706   4705   7462     1   109.7800468 425.094400
   4706   4705   4707     1   108.4600466 328.025600
   4707   4705   7462     1   109.7800468 425.094400
   4710   4711   4712     1   108.0100461 406.684800
   4710   4711   4713     1   108.0100461 406.684800
   4710   4714   4715     1   108.0100461 406.684800
   4710   4714   4716     1   108.0100461 406.684800
   4710   4717   4718     1   108.0100461 406.684800
   4710   4717   4719     1   108.0100461 406.684800
   4711   4710   4739     1   110.1100470 384.091200
   4711   4723   4724     1   109.8000471 387.438400
   4711   4723   4725     1   109.8000471 387.438400
   4712   4711   4723     1   110.5600475 386.601600
   4712   4711   4713     1   109.7500473 328.025600
   4713   4711   4723     1   110.5600475 386.601600
   4714   4710   4739     1   110.1100470 384.091200
   4714   4726   4727     1   109.8000471 387.438400
   4714   4726   4728     1   109.8000471 387.438400
   4715   4714   4726     1   110.5600475 386.601600
   4715   4714   4716     1   109.7500473 328.025600
   4716   4714   4726     1   110.5600475 386.601600
   4717   4710   4739     1   110.1100470 384.091200
   4717   4720   4721     1   109.8000471 387.438400
   4717   4720   4722     1   109.8000471 387.438400
   4718   4717   4720     1   110.5600475 386.601600
   4718   4717   4719     1   109.7500473 328.025600
   4719   4717   4720     1   110.5600475 386.601600
   4720   4729   4730     1   109.5600471 388.275200
   4720   4729   4731     1   109.5600471 388.275200
   4721   4720   4729     1   109.8000471 387.438400
   4721   4720   4722     1   107.5800459 329.699200
   4722   4720   4729     1   109.8000471 387.438400
   4723   4735   4736     1   109.5600471 388.275200
   4723   4735   4737     1   109.5600471 388.275200
   4724   4723   4735     1   109.8000471 387.438400
   4724   4723   4725     1   107.5800459 329.699200
   4725   4723   4735     1   109.8000471 387.438400
   4726   4732   4733     1   109.5600471 388.275200
   4726   4732   4734     1   109.5600471 388.275200
   4727   4726   4732     1   109.8000471 387.438400
   4727   4726   4728     1   107.5800459 329.699200
   4728   4726   4732     1   109.8000471 387.438400
   4730   4729   4738     1   109.7800468 425.094400
   4730   4729   4731     1   108.4600466 328.025600
   4731   4729   4738     1   109.7800468 425.094400
   4733   4732   7476     1   109.7800468 425.094400
   4733   4732   4734     1   108.4600466 328.025600
   4734   4732   7476     1   109.7800468 425.094400
   4736   4735   7490     1   109.7800468 425.094400
   4736   4735   4737     1   108.4600466 328.025600
   4737   4735   7490     1   109.7800468 425.094400
   4740   4741   4742     1   108.0100461 406.684800
   4740   4741   4743     1   108.0100461 406.684800
   4740   4744   4745     1   108.0100461 406.684800
   4740   4744   4746     1   108.0100461 406.684800
   4740   4747   4748     1   108.0100461 406.684800
   4740   4747   4749     1   108.0100461 406.684800
   4741   4740   4769     1   110.1100470 384.091200
   4741   4753   4754     1   109.8000471 387.438400
   4741   4753   4755     1   109.8000471 387.438400
   4742   4741   4753     1   110.5600475 386.601600
   4742   4741   4743     1   109.7500473 328.025600
   4743   4741   4753     1   110.5600475 386.601600
   4744   4740   4769     1   110.1100470 384.091200
   4744   4756   4757     1   109.8000471 387.438400
   4744   4756   4758     1   109.8000471 387.438400
   4745   4744   4756     1   110.5600475 386.601600
   4745   4744   4746     1   109.7500473 328.025600
   4746   4744   4756     1   110.5600475 386.601600
   4747   4740   4769     1   110.1100470 384.091200
   4747   4750   4751     1   109.8000471 387.438400
   4747   4750   4752     1   109.8000471 387.438400
   4748   4747   4750     1   110.5600475 386.601600
   4748   4747   4749     1   109.7500473 328.025600
   4749   4747   4750     1   110.5600475 386.601600
   4750   4759   4760     1   109.5600471 388.275200
   4750   4759   4761     1   109.5600471 388.275200
   4751   4750   4759     1   109.8000471 387.438400
   4751   4750   4752     1   107.5800459 329.699200
   4752   4750   4759     1   109.8000471 387.438400
   4753   4765   4766     1   109.5600471 388.275200
   4753   4765   4767     1   109.5600471 388.275200
   4754   4753   4765     1   109.8000471 387.438400
   4754   4753   4755     1   107.5800459 329.699200
   4755   4753   4765     1   109.8000471 387.438400
   4756   4762   4763     1   109.5600471 388.275200
   4756   4762   4764     1   109.5600471 388.275200
   4757   4756   4762     1   109.8000471 387.438400
   4757   4756   4758     1   107.5800459 329.699200
   4758   4756   4762     1   109.8000471 387.438400
   4760   4759   4768     1   109.7800468 425.094400
   4760   4759   4761     1   108.4600466 328.025600
   4761   4759   4768     1   109.7800468 425.094400
   4763   4762   7504     1   109.7800468 425.094400
   4763   4762   4764     1   108.4600466 328.025600
   4764   4762   7504     1   109.7800468 425.094400
   4766   4765   7518     1   109.7800468 425.094400
   4766   4765   4767     1   108.4600466 328.025600
   4767   4765   7518     1   109.7800468 425.094400
   4770   4771   4772     1   108.0100461 406.684800
   4770   4771   4773     1   108.0100461 406.684800
   4770   4774   4775     1   108.0100461 406.684800
   4770   4774   4776     1   108.0100461 406.684800
   4770   4777   4778     1   108.0100461 406.684800
   4770   4777   4779     1   108.0100461 406.684800
   4771   4770   4799     1   110.1100470 384.091200
   4771   4783   4784     1   109.8000471 387.438400
   4771   4783   4785     1   109.8000471 387.438400
   4772   4771   4783     1   110.5600475 386.601600
   4772   4771   4773     1   109.7500473 328.025600
   4773   4771   4783     1   110.5600475 386.601600
   4774   4770   4799     1   110.1100470 384.091200
   4774   4786   4787     1   109.8000471 387.438400
   4774   4786   4788     1   109.8000471 387.438400
   4775   4774   4786     1   110.5600475 386.601600
   4775   4774   4776     1   109.7500473 328.025600
   4776   4774   4786     1   110.5600475 386.601600
   4777   4770   4799     1   110.1100470 384.091200
   4777   4780   4781     1   109.8000471 387.438400
   4777   4780   4782     1   109.8000471 387.438400
   4778   4777   4780     1   110.5600475 386.601600
   4778   4777   4779     1   109.7500473 328.025600
   4779   4777   4780     1   110.5600475 386.601600
   4780   4789   4790     1   109.5600471 388.275200
   4780   4789   4791     1   109.5600471 388.275200
   4781   4780   4789     1   109.8000471 387.438400
   4781   4780   4782     1   107.5800459 329.699200
   4782   4780   4789     1   109.8000471 387.438400
   4783   4795   4796     1   109.5600471 388.275200
   4783   4795   4797     1   109.5600471 388.275200
   4784   4783   4795     1   109.8000471 387.438400
   4784   4783   4785     1   107.5800459 329.699200
   4785   4783   4795     1   109.8000471 387.438400
   4786   4792   4793     1   109.5600471 388.275200
   4786   4792   4794     1   109.5600471 388.275200
   4787   4786   4792     1   109.8000471 387.438400
   4787   4786   4788     1   107.5800459 329.699200
   4788   4786   4792     1   109.8000471 387.438400
   4790   4789   4798     1   109.7800468 425.094400
   4790   4789   4791     1   108.4600466 328.025600
   4791   4789   4798     1   109.7800468 425.094400
   4793   4792   7532     1   109.7800468 425.094400
   4793   4792   4794     1   108.4600466 328.025600
   4794   4792   7532     1   109.7800468 425.094400
   4796   4795   7546     1   109.7800468 425.094400
   4796   4795   4797     1   108.4600466 328.025600
   4797   4795   7546     1   109.7800468 425.094400
   4800   4801   4802     1   108.0100461 406.684800
   4800   4801   4803     1   108.0100461 406.684800
   4800   4804   4805     1   108.0100461 406.684800
   4800   4804   4806     1   108.0100461 406.684800
   4800   4807   4808     1   108.0100461 406.684800
   4800   4807   4809     1   108.0100461 406.684800
   4801   4800   4829     1   110.1100470 384.091200
   4801   4813   4814     1   109.8000471 387.438400
   4801   4813   4815     1   109.8000471 387.438400
   4802   4801   4813     1   110.5600475 386.601600
   4802   4801   4803     1   109.7500473 328.025600
   4803   4801   4813     1   110.5600475 386.601600
   4804   4800   4829     1   110.1100470 384.091200
   4804   4816   4817     1   109.8000471 387.438400
   4804   4816   4818     1   109.8000471 387.438400
   4805   4804   4816     1   110.5600475 386.601600
   4805   4804   4806     1   109.7500473 328.025600
   4806   4804   4816     1   110.5600475 386.601600
   4807   4800   4829     1   110.1100470 384.091200
   4807   4810   4811     1   109.8000471 387.438400
   4807   4810   4812     1   109.8000471 387.438400
   4808   4807   4810     1   110.5600475 386.601600
   4808   4807   4809     1   109.7500473 328.025600
   4809   4807   4810     1   110.5600475 386.601600
   4810   4819   4820     1   109.5600471 388.275200
   4810   4819   4821     1   109.5600471 388.275200
   4811   4810   4819     1   109.8000471 387.438400
   4811   4810   4812     1   107.5800459 329.699200
   4812   4810   4819     1   109.8000471 387.438400
   4813   4825   4826     1   109.5600471 388.275200
   4813   4825   4827     1   109.5600471 388.275200
   4814   4813   4825     1   109.8000471 387.438400
   4814   4813   4815     1   107.5800459 329.699200
   4815   4813   4825     1   109.8000471 387.438400
   4816   4822   4823     1   109.5600471 388.275200
   4816   4822   4824     1   109.5600471 388.275200
   4817   4816   4822     1   109.8000471 387.438400
   4817   4816   4818     1   107.5800459 329.699200
   4818   4816   4822     1   109.8000471 387.438400
   4820   4819   4828     1   109.7800468 425.094400
   4820   4819   4821     1   108.4600466 328.025600
   4821   4819   4828     1   109.7800468 425.094400
   4823   4822   7560     1   109.7800468 425.094400
   4823   4822   4824     1   108.4600466 328.025600
   4824   4822   7560     1   109.7800468 425.094400
   4826   4825   7574     1   109.7800468 425.094400
   4826   4825   4827     1   108.4600466 328.025600
   4827   4825   7574     1   109.7800468 425.094400
   4830   4831   4832     1   108.0100461 406.684800
   4830   4831   4833     1   108.0100461 406.684800
   4830   4834   4835     1   108.0100461 406.684800
   4830   4834   4836     1   108.0100461 406.684800
   4830   4837   4838     1   108.0100461 406.684800
   4830   4837   4839     1   108.0100461 406.684800
   4831   4830   4859     1   110.1100470 384.091200
   4831   4843   4844     1   109.8000471 387.438400
   4831   4843   4845     1   109.8000471 387.438400
   4832   4831   4843     1   110.5600475 386.601600
   4832   4831   4833     1   109.7500473 328.025600
   4833   4831   4843     1   110.5600475 386.601600
   4834   4830   4859     1   110.1100470 384.091200
   4834   4846   4847     1   109.8000471 387.438400
   4834   4846   4848     1   109.8000471 387.438400
   4835   4834   4846     1   110.5600475 386.601600
   4835   4834   4836     1   109.7500473 328.025600
   4836   4834   4846     1   110.5600475 386.601600
   4837   4830   4859     1   110.1100470 384.091200
   4837   4840   4841     1   109.8000471 387.438400
   4837   4840   4842     1   109.8000471 387.438400
   4838   4837   4840     1   110.5600475 386.601600
   4838   4837   4839     1   109.7500473 328.025600
   4839   4837   4840     1   110.5600475 386.601600
   4840   4849   4850     1   109.5600471 388.275200
   4840   4849   4851     1   109.5600471 388.275200
   4841   4840   4849     1   109.8000471 387.438400
   4841   4840   4842     1   107.5800459 329.699200
   4842   4840   4849     1   109.8000471 387.438400
   4843   4855   4856     1   109.5600471 388.275200
   4843   4855   4857     1   109.5600471 388.275200
   4844   4843   4855     1   109.8000471 387.438400
   4844   4843   4845     1   107.5800459 329.699200
   4845   4843   4855     1   109.8000471 387.438400
   4846   4852   4853     1   109.5600471 388.275200
   4846   4852   4854     1   109.5600471 388.275200
   4847   4846   4852     1   109.8000471 387.438400
   4847   4846   4848     1   107.5800459 329.699200
   4848   4846   4852     1   109.8000471 387.438400
   4850   4849   4858     1   109.7800468 425.094400
   4850   4849   4851     1   108.4600466 328.025600
   4851   4849   4858     1   109.7800468 425.094400
   4853   4852   7588     1   109.7800468 425.094400
   4853   4852   4854     1   108.4600466 328.025600
   4854   4852   7588     1   109.7800468 425.094400
   4856   4855   7602     1   109.7800468 425.094400
   4856   4855   4857     1   108.4600466 328.025600
   4857   4855   7602     1   109.7800468 425.094400
   4860   4861   4862     1   108.0100461 406.684800
   4860   4861   4863     1   108.0100461 406.684800
   4860   4864   4865     1   108.0100461 406.684800
   4860   4864   4866     1   108.0100461 406.684800
   4860   4867   4868     1   108.0100461 406.684800
   4860   4867   4869     1   108.0100461 406.684800
   4861   4860   4889     1   110.1100470 384.091200
   4861   4873   4874     1   109.8000471 387.438400
   4861   4873   4875     1   109.8000471 387.438400
   4862   4861   4873     1   110.5600475 386.601600
   4862   4861   4863     1   109.7500473 328.025600
   4863   4861   4873     1   110.5600475 386.601600
   4864   4860   4889     1   110.1100470 384.091200
   4864   4876   4877     1   109.8000471 387.438400
   4864   4876   4878     1   109.8000471 387.438400
   4865   4864   4876     1   110.5600475 386.601600
   4865   4864   4866     1   109.7500473 328.025600
   4866   4864   4876     1   110.5600475 386.601600
   4867   4860   4889     1   110.1100470 384.091200
   4867   4870   4871     1   109.8000471 387.438400
   4867   4870   4872     1   109.8000471 387.438400
   4868   4867   4870     1   110.5600475 386.601600
   4868   4867   4869     1   109.7500473 328.025600
   4869   4867   4870     1   110.5600475 386.601600
   4870   4879   4880     1   109.5600471 388.275200
   4870   4879   4881     1   109.5600471 388.275200
   4871   4870   4879     1   109.8000471 387.438400
   4871   4870   4872     1   107.5800459 329.699200
   4872   4870   4879     1   109.8000471 387.438400
   4873   4885   4886     1   109.5600471 388.275200
   4873   4885   4887     1   109.5600471 388.275200
   4874   4873   4885     1   109.8000471 387.438400
   4874   4873   4875     1   107.5800459 329.699200
   4875   4873   4885     1   109.8000471 387.438400
   4876   4882   4883     1   109.5600471 388.275200
   4876   4882   4884     1   109.5600471 388.275200
   4877   4876   4882     1   109.8000471 387.438400
   4877   4876   4878     1   107.5800459 329.699200
   4878   4876   4882     1   109.8000471 387.438400
   4880   4879   4888     1   109.7800468 425.094400
   4880   4879   4881     1   108.4600466 328.025600
   4881   4879   4888     1   109.7800468 425.094400
   4883   4882   7616     1   109.7800468 425.094400
   4883   4882   4884     1   108.4600466 328.025600
   4884   4882   7616     1   109.7800468 425.094400
   4886   4885   7630     1   109.7800468 425.094400
   4886   4885   4887     1   108.4600466 328.025600
   4887   4885   7630     1   109.7800468 425.094400
   4890   4891   4892     1   108.0100461 406.684800
   4890   4891   4893     1   108.0100461 406.684800
   4890   4894   4895     1   108.0100461 406.684800
   4890   4894   4896     1   108.0100461 406.684800
   4890   4897   4898     1   108.0100461 406.684800
   4890   4897   4899     1   108.0100461 406.684800
   4891   4890   4919     1   110.1100470 384.091200
   4891   4903   4904     1   109.8000471 387.438400
   4891   4903   4905     1   109.8000471 387.438400
   4892   4891   4903     1   110.5600475 386.601600
   4892   4891   4893     1   109.7500473 328.025600
   4893   4891   4903     1   110.5600475 386.601600
   4894   4890   4919     1   110.1100470 384.091200
   4894   4906   4907     1   109.8000471 387.438400
   4894   4906   4908     1   109.8000471 387.438400
   4895   4894   4906     1   110.5600475 386.601600
   4895   4894   4896     1   109.7500473 328.025600
   4896   4894   4906     1   110.5600475 386.601600
   4897   4890   4919     1   110.1100470 384.091200
   4897   4900   4901     1   109.8000471 387.438400
   4897   4900   4902     1   109.8000471 387.438400
   4898   4897   4900     1   110.5600475 386.601600
   4898   4897   4899     1   109.7500473 328.025600
   4899   4897   4900     1   110.5600475 386.601600
   4900   4909   4910     1   109.5600471 388.275200
   4900   4909   4911     1   109.5600471 388.275200
   4901   4900   4909     1   109.8000471 387.438400
   4901   4900   4902     1   107.5800459 329.699200
   4902   4900   4909     1   109.8000471 387.438400
   4903   4915   4916     1   109.5600471 388.275200
   4903   4915   4917     1   109.5600471 388.275200
   4904   4903   4915     1   109.8000471 387.438400
   4904   4903   4905     1   107.5800459 329.699200
   4905   4903   4915     1   109.8000471 387.438400
   4906   4912   4913     1   109.5600471 388.275200
   4906   4912   4914     1   109.5600471 388.275200
   4907   4906   4912     1   109.8000471 387.438400
   4907   4906   4908     1   107.5800459 329.699200
   4908   4906   4912     1   109.8000471 387.438400
   4910   4909   4918     1   109.7800468 425.094400
   4910   4909   4911     1   108.4600466 328.025600
   4911   4909   4918     1   109.7800468 425.094400
   4913   4912   7644     1   109.7800468 425.094400
   4913   4912   4914     1   108.4600466 328.025600
   4914   4912   7644     1   109.7800468 425.094400
   4916   4915   7658     1   109.7800468 425.094400
   4916   4915   4917     1   108.4600466 328.025600
   4917   4915   7658     1   109.7800468 425.094400
   4920   4921   4922     1   108.0100461 406.684800
   4920   4921   4923     1   108.0100461 406.684800
   4920   4924   4925     1   108.0100461 406.684800
   4920   4924   4926     1   108.0100461 406.684800
   4920   4927   4928     1   108.0100461 406.684800
   4920   4927   4929     1   108.0100461 406.684800
   4921   4920   4949     1   110.1100470 384.091200
   4921   4933   4934     1   109.8000471 387.438400
   4921   4933   4935     1   109.8000471 387.438400
   4922   4921   4933     1   110.5600475 386.601600
   4922   4921   4923     1   109.7500473 328.025600
   4923   4921   4933     1   110.5600475 386.601600
   4924   4920   4949     1   110.1100470 384.091200
   4924   4936   4937     1   109.8000471 387.438400
   4924   4936   4938     1   109.8000471 387.438400
   4925   4924   4936     1   110.5600475 386.601600
   4925   4924   4926     1   109.7500473 328.025600
   4926   4924   4936     1   110.5600475 386.601600
   4927   4920   4949     1   110.1100470 384.091200
   4927   4930   4931     1   109.8000471 387.438400
   4927   4930   4932     1   109.8000471 387.438400
   4928   4927   4930     1   110.5600475 386.601600
   4928   4927   4929     1   109.7500473 328.025600
   4929   4927   4930     1   110.5600475 386.601600
   4930   4939   4940     1   109.5600471 388.275200
   4930   4939   4941     1   109.5600471 388.275200
   4931   4930   4939     1   109.8000471 387.438400
   4931   4930   4932     1   107.5800459 329.699200
   4932   4930   4939     1   109.8000471 387.438400
   4933   4945   4946     1   109.5600471 388.275200
   4933   4945   4947     1   109.5600471 388.275200
   4934   4933   4945     1   109.8000471 387.438400
   4934   4933   4935     1   107.5800459 329.699200
   4935   4933   4945     1   109.8000471 387.438400
   4936   4942   4943     1   109.5600471 388.275200
   4936   4942   4944     1   109.5600471 388.275200
   4937   4936   4942     1   109.8000471 387.438400
   4937   4936   4938     1   107.5800459 329.699200
   4938   4936   4942     1   109.8000471 387.438400
   4940   4939   4948     1   109.7800468 425.094400
   4940   4939   4941     1   108.4600466 328.025600
   4941   4939   4948     1   109.7800468 425.094400
   4943   4942   7672     1   109.7800468 425.094400
   4943   4942   4944     1   108.4600466 328.025600
   4944   4942   7672     1   109.7800468 425.094400
   4946   4945   7686     1   109.7800468 425.094400
   4946   4945   4947     1   108.4600466 328.025600
   4947   4945   7686     1   109.7800468 425.094400
   4950   4951   4952     1   108.0100461 406.684800
   4950   4951   4953     1   108.0100461 406.684800
   4950   4954   4955     1   108.0100461 406.684800
   4950   4954   4956     1   108.0100461 406.684800
   4950   4957   4958     1   108.0100461 406.684800
   4950   4957   4959     1   108.0100461 406.684800
   4951   4950   4979     1   110.1100470 384.091200
   4951   4963   4964     1   109.8000471 387.438400
   4951   4963   4965     1   109.8000471 387.438400
   4952   4951   4963     1   110.5600475 386.601600
   4952   4951   4953     1   109.7500473 328.025600
   4953   4951   4963     1   110.5600475 386.601600
   4954   4950   4979     1   110.1100470 384.091200
   4954   4966   4967     1   109.8000471 387.438400
   4954   4966   4968     1   109.8000471 387.438400
   4955   4954   4966     1   110.5600475 386.601600
   4955   4954   4956     1   109.7500473 328.025600
   4956   4954   4966     1   110.5600475 386.601600
   4957   4950   4979     1   110.1100470 384.091200
   4957   4960   4961     1   109.8000471 387.438400
   4957   4960   4962     1   109.8000471 387.438400
   4958   4957   4960     1   110.5600475 386.601600
   4958   4957   4959     1   109.7500473 328.025600
   4959   4957   4960     1   110.5600475 386.601600
   4960   4969   4970     1   109.5600471 388.275200
   4960   4969   4971     1   109.5600471 388.275200
   4961   4960   4969     1   109.8000471 387.438400
   4961   4960   4962     1   107.5800459 329.699200
   4962   4960   4969     1   109.8000471 387.438400
   4963   4975   4976     1   109.5600471 388.275200
   4963   4975   4977     1   109.5600471 388.275200
   4964   4963   4975     1   109.8000471 387.438400
   4964   4963   4965     1   107.5800459 329.699200
   4965   4963   4975     1   109.8000471 387.438400
   4966   4972   4973     1   109.5600471 388.275200
   4966   4972   4974     1   109.5600471 388.275200
   4967   4966   4972     1   109.8000471 387.438400
   4967   4966   4968     1   107.5800459 329.699200
   4968   4966   4972     1   109.8000471 387.438400
   4970   4969   4978     1   109.7800468 425.094400
   4970   4969   4971     1   108.4600466 328.025600
   4971   4969   4978     1   109.7800468 425.094400
   4973   4972   7700     1   109.7800468 425.094400
   4973   4972   4974     1   108.4600466 328.025600
   4974   4972   7700     1   109.7800468 425.094400
   4976   4975   7714     1   109.7800468 425.094400
   4976   4975   4977     1   108.4600466 328.025600
   4977   4975   7714     1   109.7800468 425.094400
   4980   4981   4982     1   108.0100461 406.684800
   4980   4981   4983     1   108.0100461 406.684800
   4980   4984   4985     1   108.0100461 406.684800
   4980   4984   4986     1   108.0100461 406.684800
   4980   4987   4988     1   108.0100461 406.684800
   4980   4987   4989     1   108.0100461 406.684800
   4981   4980   5009     1   110.1100470 384.091200
   4981   4993   4994     1   109.8000471 387.438400
   4981   4993   4995     1   109.8000471 387.438400
   4982   4981   4993     1   110.5600475 386.601600
   4982   4981   4983     1   109.7500473 328.025600
   4983   4981   4993     1   110.5600475 386.601600
   4984   4980   5009     1   110.1100470 384.091200
   4984   4996   4997     1   109.8000471 387.438400
   4984   4996   4998     1   109.8000471 387.438400
   4985   4984   4996     1   110.5600475 386.601600
   4985   4984   4986     1   109.7500473 328.025600
   4986   4984   4996     1   110.5600475 386.601600
   4987   4980   5009     1   110.1100470 384.091200
   4987   4990   4991     1   109.8000471 387.438400
   4987   4990   4992     1   109.8000471 387.438400
   4988   4987   4990     1   110.5600475 386.601600
   4988   4987   4989     1   109.7500473 328.025600
   4989   4987   4990     1   110.5600475 386.601600
   4990   4999   5000     1   109.5600471 388.275200
   4990   4999   5001     1   109.5600471 388.275200
   4991   4990   4999     1   109.8000471 387.438400
   4991   4990   4992     1   107.5800459 329.699200
   4992   4990   4999     1   109.8000471 387.438400
   4993   5005   5006     1   109.5600471 388.275200
   4993   5005   5007     1   109.5600471 388.275200
   4994   4993   5005     1   109.8000471 387.438400
   4994   4993   4995     1   107.5800459 329.699200
   4995   4993   5005     1   109.8000471 387.438400
   4996   5002   5003     1   109.5600471 388.275200
   4996   5002   5004     1   109.5600471 388.275200
   4997   4996   5002     1   109.8000471 387.438400
   4997   4996   4998     1   107.5800459 329.699200
   4998   4996   5002     1   109.8000471 387.438400
   5000   4999   5008     1   109.7800468 425.094400
   5000   4999   5001     1   108.4600466 328.025600
   5001   4999   5008     1   109.7800468 425.094400
   5003   5002   7728     1   109.7800468 425.094400
   5003   5002   5004     1   108.4600466 328.025600
   5004   5002   7728     1   109.7800468 425.094400
   5006   5005   7742     1   109.7800468 425.094400
   5006   5005   5007     1   108.4600466 328.025600
   5007   5005   7742     1   109.7800468 425.094400
   5010   5011   5012     1   108.0100461 406.684800
   5010   5011   5013     1   108.0100461 406.684800
   5010   5014   5015     1   108.0100461 406.684800
   5010   5014   5016     1   108.0100461 406.684800
   5010   5017   5018     1   108.0100461 406.684800
   5010   5017   5019     1   108.0100461 406.684800
   5011   5010   5039     1   110.1100470 384.091200
   5011   5023   5024     1   109.8000471 387.438400
   5011   5023   5025     1   109.8000471 387.438400
   5012   5011   5023     1   110.5600475 386.601600
   5012   5011   5013     1   109.7500473 328.025600
   5013   5011   5023     1   110.5600475 386.601600
   5014   5010   5039     1   110.1100470 384.091200
   5014   5026   5027     1   109.8000471 387.438400
   5014   5026   5028     1   109.8000471 387.438400
   5015   5014   5026     1   110.5600475 386.601600
   5015   5014   5016     1   109.7500473 328.025600
   5016   5014   5026     1   110.5600475 386.601600
   5017   5010   5039     1   110.1100470 384.091200
   5017   5020   5021     1   109.8000471 387.438400
   5017   5020   5022     1   109.8000471 387.438400
   5018   5017   5020     1   110.5600475 386.601600
   5018   5017   5019     1   109.7500473 328.025600
   5019   5017   5020     1   110.5600475 386.601600
   5020   5029   5030     1   109.5600471 388.275200
   5020   5029   5031     1   109.5600471 388.275200
   5021   5020   5029     1   109.8000471 387.438400
   5021   5020   5022     1   107.5800459 329.699200
   5022   5020   5029     1   109.8000471 387.438400
   5023   5035   5036     1   109.5600471 388.275200
   5023   5035   5037     1   109.5600471 388.275200
   5024   5023   5035     1   109.8000471 387.438400
   5024   5023   5025     1   107.5800459 329.699200
   5025   5023   5035     1   109.8000471 387.438400
   5026   5032   5033     1   109.5600471 388.275200
   5026   5032   5034     1   109.5600471 388.275200
   5027   5026   5032     1   109.8000471 387.438400
   5027   5026   5028     1   107.5800459 329.699200
   5028   5026   5032     1   109.8000471 387.438400
   5030   5029   5038     1   109.7800468 425.094400
   5030   5029   5031     1   108.4600466 328.025600
   5031   5029   5038     1   109.7800468 425.094400
   5033   5032   7756     1   109.7800468 425.094400
   5033   5032   5034     1   108.4600466 328.025600
   5034   5032   7756     1   109.7800468 425.094400
   5036   5035   7770     1   109.7800468 425.094400
   5036   5035   5037     1   108.4600466 328.025600
   5037   5035   7770     1   109.7800468 425.094400
   5040   5041   5042     1   108.0100461 406.684800
   5040   5041   5043     1   108.0100461 406.684800
   5040   5044   5045     1   108.0100461 406.684800
   5040   5044   5046     1   108.0100461 406.684800
   5040   5047   5048     1   108.0100461 406.684800
   5040   5047   5049     1   108.0100461 406.684800
   5041   5040   5069     1   110.1100470 384.091200
   5041   5053   5054     1   109.8000471 387.438400
   5041   5053   5055     1   109.8000471 387.438400
   5042   5041   5053     1   110.5600475 386.601600
   5042   5041   5043     1   109.7500473 328.025600
   5043   5041   5053     1   110.5600475 386.601600
   5044   5040   5069     1   110.1100470 384.091200
   5044   5056   5057     1   109.8000471 387.438400
   5044   5056   5058     1   109.8000471 387.438400
   5045   5044   5056     1   110.5600475 386.601600
   5045   5044   5046     1   109.7500473 328.025600
   5046   5044   5056     1   110.5600475 386.601600
   5047   5040   5069     1   110.1100470 384.091200
   5047   5050   5051     1   109.8000471 387.438400
   5047   5050   5052     1   109.8000471 387.438400
   5048   5047   5050     1   110.5600475 386.601600
   5048   5047   5049     1   109.7500473 328.025600
   5049   5047   5050     1   110.5600475 386.601600
   5050   5059   5060     1   109.5600471 388.275200
   5050   5059   5061     1   109.5600471 388.275200
   5051   5050   5059     1   109.8000471 387.438400
   5051   5050   5052     1   107.5800459 329.699200
   5052   5050   5059     1   109.8000471 387.438400
   5053   5065   5066     1   109.5600471 388.275200
   5053   5065   5067     1   109.5600471 388.275200
   5054   5053   5065     1   109.8000471 387.438400
   5054   5053   5055     1   107.5800459 329.699200
   5055   5053   5065     1   109.8000471 387.438400
   5056   5062   5063     1   109.5600471 388.275200
   5056   5062   5064     1   109.5600471 388.275200
   5057   5056   5062     1   109.8000471 387.438400
   5057   5056   5058     1   107.5800459 329.699200
   5058   5056   5062     1   109.8000471 387.438400
   5060   5059   5068     1   109.7800468 425.094400
   5060   5059   5061     1   108.4600466 328.025600
   5061   5059   5068     1   109.7800468 425.094400
   5063   5062   7784     1   109.7800468 425.094400
   5063   5062   5064     1   108.4600466 328.025600
   5064   5062   7784     1   109.7800468 425.094400
   5066   5065   7798     1   109.7800468 425.094400
   5066   5065   5067     1   108.4600466 328.025600
   5067   5065   7798     1   109.7800468 425.094400
   5070   5071   5072     1   108.0100461 406.684800
   5070   5071   5073     1   108.0100461 406.684800
   5070   5074   5075     1   108.0100461 406.684800
   5070   5074   5076     1   108.0100461 406.684800
   5070   5077   5078     1   108.0100461 406.684800
   5070   5077   5079     1   108.0100461 406.684800
   5071   5070   5099     1   110.1100470 384.091200
   5071   5083   5084     1   109.8000471 387.438400
   5071   5083   5085     1   109.8000471 387.438400
   5072   5071   5083     1   110.5600475 386.601600
   5072   5071   5073     1   109.7500473 328.025600
   5073   5071   5083     1   110.5600475 386.601600
   5074   5070   5099     1   110.1100470 384.091200
   5074   5086   5087     1   109.8000471 387.438400
   5074   5086   5088     1   109.8000471 387.438400
   5075   5074   5086     1   110.5600475 386.601600
   5075   5074   5076     1   109.7500473 328.025600
   5076   5074   5086     1   110.5600475 386.601600
   5077   5070   5099     1   110.1100470 384.091200
   5077   5080   5081     1   109.8000471 387.438400
   5077   5080   5082     1   109.8000471 387.438400
   5078   5077   5080     1   110.5600475 386.601600
   5078   5077   5079     1   109.7500473 328.025600
   5079   5077   5080     1   110.5600475 386.601600
   5080   5089   5090     1   109.5600471 388.275200
   5080   5089   5091     1   109.5600471 388.275200
   5081   5080   5089     1   109.8000471 387.438400
   5081   5080   5082     1   107.5800459 329.699200
   5082   5080   5089     1   109.8000471 387.438400
   5083   5095   5096     1   109.5600471 388.275200
   5083   5095   5097     1   109.5600471 388.275200
   5084   5083   5095     1   109.8000471 387.438400
   5084   5083   5085     1   107.5800459 329.699200
   5085   5083   5095     1   109.8000471 387.438400
   5086   5092   5093     1   109.5600471 388.275200
   5086   5092   5094     1   109.5600471 388.275200
   5087   5086   5092     1   109.8000471 387.438400
   5087   5086   5088     1   107.5800459 329.699200
   5088   5086   5092     1   109.8000471 387.438400
   5090   5089   5098     1   109.7800468 425.094400
   5090   5089   5091     1   108.4600466 328.025600
   5091   5089   5098     1   109.7800468 425.094400
   5093   5092   7812     1   109.7800468 425.094400
   5093   5092   5094     1   108.4600466 328.025600
   5094   5092   7812     1   109.7800468 425.094400
   5096   5095   7826     1   109.7800468 425.094400
   5096   5095   5097     1   108.4600466 328.025600
   5097   5095   7826     1   109.7800468 425.094400
   5100   5101   5102     1   108.0100461 406.684800
   5100   5101   5103     1   108.0100461 406.684800
   5100   5104   5105     1   108.0100461 406.684800
   5100   5104   5106     1   108.0100461 406.684800
   5100   5107   5108     1   108.0100461 406.684800
   5100   5107   5109     1   108.0100461 406.684800
   5101   5100   5129     1   110.1100470 384.091200
   5101   5113   5114     1   109.8000471 387.438400
   5101   5113   5115     1   109.8000471 387.438400
   5102   5101   5113     1   110.5600475 386.601600
   5102   5101   5103     1   109.7500473 328.025600
   5103   5101   5113     1   110.5600475 386.601600
   5104   5100   5129     1   110.1100470 384.091200
   5104   5116   5117     1   109.8000471 387.438400
   5104   5116   5118     1   109.8000471 387.438400
   5105   5104   5116     1   110.5600475 386.601600
   5105   5104   5106     1   109.7500473 328.025600
   5106   5104   5116     1   110.5600475 386.601600
   5107   5100   5129     1   110.1100470 384.091200
   5107   5110   5111     1   109.8000471 387.438400
   5107   5110   5112     1   109.8000471 387.438400
   5108   5107   5110     1   110.5600475 386.601600
   5108   5107   5109     1   109.7500473 328.025600
   5109   5107   5110     1   110.5600475 386.601600
   5110   5119   5120     1   109.5600471 388.275200
   5110   5119   5121     1   109.5600471 388.275200
   5111   5110   5119     1   109.8000471 387.438400
   5111   5110   5112     1   107.5800459 329.699200
   5112   5110   5119     1   109.8000471 387.438400
   5113   5125   5126     1   109.5600471 388.275200
   5113   5125   5127     1   109.5600471 388.275200
   5114   5113   5125     1   109.8000471 387.438400
   5114   5113   5115     1   107.5800459 329.699200
   5115   5113   5125     1   109.8000471 387.438400
   5116   5122   5123     1   109.5600471 388.275200
   5116   5122   5124     1   109.5600471 388.275200
   5117   5116   5122     1   109.8000471 387.438400
   5117   5116   5118     1   107.5800459 329.699200
   5118   5116   5122     1   109.8000471 387.438400
   5120   5119   5128     1   109.7800468 425.094400
   5120   5119   5121     1   108.4600466 328.025600
   5121   5119   5128     1   109.7800468 425.094400
   5123   5122   7840     1   109.7800468 425.094400
   5123   5122   5124     1   108.4600466 328.025600
   5124   5122   7840     1   109.7800468 425.094400
   5126   5125   7854     1   109.7800468 425.094400
   5126   5125   5127     1   108.4600466 328.025600
   5127   5125   7854     1   109.7800468 425.094400
   5130   5131   5132     1   108.0100461 406.684800
   5130   5131   5133     1   108.0100461 406.684800
   5130   5134   5135     1   108.0100461 406.684800
   5130   5134   5136     1   108.0100461 406.684800
   5130   5137   5138     1   108.0100461 406.684800
   5130   5137   5139     1   108.0100461 406.684800
   5131   5130   5159     1   110.1100470 384.091200
   5131   5143   5144     1   109.8000471 387.438400
   5131   5143   5145     1   109.8000471 387.438400
   5132   5131   5143     1   110.5600475 386.601600
   5132   5131   5133     1   109.7500473 328.025600
   5133   5131   5143     1   110.5600475 386.601600
   5134   5130   5159     1   110.1100470 384.091200
   5134   5146   5147     1   109.8000471 387.438400
   5134   5146   5148     1   109.8000471 387.438400
   5135   5134   5146     1   110.5600475 386.601600
   5135   5134   5136     1   109.7500473 328.025600
   5136   5134   5146     1   110.5600475 386.601600
   5137   5130   5159     1   110.1100470 384.091200
   5137   5140   5141     1   109.8000471 387.438400
   5137   5140   5142     1   109.8000471 387.438400
   5138   5137   5140     1   110.5600475 386.601600
   5138   5137   5139     1   109.7500473 328.025600
   5139   5137   5140     1   110.5600475 386.601600
   5140   5149   5150     1   109.5600471 388.275200
   5140   5149   5151     1   109.5600471 388.275200
   5141   5140   5149     1   109.8000471 387.438400
   5141   5140   5142     1   107.5800459 329.699200
   5142   5140   5149     1   109.8000471 387.438400
   5143   5155   5156     1   109.5600471 388.275200
   5143   5155   5157     1   109.5600471 388.275200
   5144   5143   5155     1   109.8000471 387.438400
   5144   5143   5145     1   107.5800459 329.699200
   5145   5143   5155     1   109.8000471 387.438400
   5146   5152   5153     1   109.5600471 388.275200
   5146   5152   5154     1   109.5600471 388.275200
   5147   5146   5152     1   109.8000471 387.438400
   5147   5146   5148     1   107.5800459 329.699200
   5148   5146   5152     1   109.8000471 387.438400
   5150   5149   5158     1   109.7800468 425.094400
   5150   5149   5151     1   108.4600466 328.025600
   5151   5149   5158     1   109.7800468 425.094400
   5153   5152   7868     1   109.7800468 425.094400
   5153   5152   5154     1   108.4600466 328.025600
   5154   5152   7868     1   109.7800468 425.094400
   5156   5155   7882     1   109.7800468 425.094400
   5156   5155   5157     1   108.4600466 328.025600
   5157   5155   7882     1   109.7800468 425.094400
   5160   5161   5162     1   108.0100461 406.684800
   5160   5161   5163     1   108.0100461 406.684800
   5160   5164   5165     1   108.0100461 406.684800
   5160   5164   5166     1   108.0100461 406.684800
   5160   5167   5168     1   108.0100461 406.684800
   5160   5167   5169     1   108.0100461 406.684800
   5161   5160   5189     1   110.1100470 384.091200
   5161   5173   5174     1   109.8000471 387.438400
   5161   5173   5175     1   109.8000471 387.438400
   5162   5161   5173     1   110.5600475 386.601600
   5162   5161   5163     1   109.7500473 328.025600
   5163   5161   5173     1   110.5600475 386.601600
   5164   5160   5189     1   110.1100470 384.091200
   5164   5176   5177     1   109.8000471 387.438400
   5164   5176   5178     1   109.8000471 387.438400
   5165   5164   5176     1   110.5600475 386.601600
   5165   5164   5166     1   109.7500473 328.025600
   5166   5164   5176     1   110.5600475 386.601600
   5167   5160   5189     1   110.1100470 384.091200
   5167   5170   5171     1   109.8000471 387.438400
   5167   5170   5172     1   109.8000471 387.438400
   5168   5167   5170     1   110.5600475 386.601600
   5168   5167   5169     1   109.7500473 328.025600
   5169   5167   5170     1   110.5600475 386.601600
   5170   5179   5180     1   109.5600471 388.275200
   5170   5179   5181     1   109.5600471 388.275200
   5171   5170   5179     1   109.8000471 387.438400
   5171   5170   5172     1   107.5800459 329.699200
   5172   5170   5179     1   109.8000471 387.438400
   5173   5185   5186     1   109.5600471 388.275200
   5173   5185   5187     1   109.5600471 388.275200
   5174   5173   5185     1   109.8000471 387.438400
   5174   5173   5175     1   107.5800459 329.699200
   5175   5173   5185     1   109.8000471 387.438400
   5176   5182   5183     1   109.5600471 388.275200
   5176   5182   5184     1   109.5600471 388.275200
   5177   5176   5182     1   109.8000471 387.438400
   5177   5176   5178     1   107.5800459 329.699200
   5178   5176   5182     1   109.8000471 387.438400
   5180   5179   5188     1   109.7800468 425.094400
   5180   5179   5181     1   108.4600466 328.025600
   5181   5179   5188     1   109.7800468 425.094400
   5183   5182   7896     1   109.7800468 425.094400
   5183   5182   5184     1   108.4600466 328.025600
   5184   5182   7896     1   109.7800468 425.094400
   5186   5185   7910     1   109.7800468 425.094400
   5186   5185   5187     1   108.4600466 328.025600
   5187   5185   7910     1   109.7800468 425.094400
   5190   5191   5192     1   108.0100461 406.684800
   5190   5191   5193     1   108.0100461 406.684800
   5190   5194   5195     1   108.0100461 406.684800
   5190   5194   5196     1   108.0100461 406.684800
   5190   5197   5198     1   108.0100461 406.684800
   5190   5197   5199     1   108.0100461 406.684800
   5191   5190   5219     1   110.1100470 384.091200
   5191   5203   5204     1   109.8000471 387.438400
   5191   5203   5205     1   109.8000471 387.438400
   5192   5191   5203     1   110.5600475 386.601600
   5192   5191   5193     1   109.7500473 328.025600
   5193   5191   5203     1   110.5600475 386.601600
   5194   5190   5219     1   110.1100470 384.091200
   5194   5206   5207     1   109.8000471 387.438400
   5194   5206   5208     1   109.8000471 387.438400
   5195   5194   5206     1   110.5600475 386.601600
   5195   5194   5196     1   109.7500473 328.025600
   5196   5194   5206     1   110.5600475 386.601600
   5197   5190   5219     1   110.1100470 384.091200
   5197   5200   5201     1   109.8000471 387.438400
   5197   5200   5202     1   109.8000471 387.438400
   5198   5197   5200     1   110.5600475 386.601600
   5198   5197   5199     1   109.7500473 328.025600
   5199   5197   5200     1   110.5600475 386.601600
   5200   5209   5210     1   109.5600471 388.275200
   5200   5209   5211     1   109.5600471 388.275200
   5201   5200   5209     1   109.8000471 387.438400
   5201   5200   5202     1   107.5800459 329.699200
   5202   5200   5209     1   109.8000471 387.438400
   5203   5215   5216     1   109.5600471 388.275200
   5203   5215   5217     1   109.5600471 388.275200
   5204   5203   5215     1   109.8000471 387.438400
   5204   5203   5205     1   107.5800459 329.699200
   5205   5203   5215     1   109.8000471 387.438400
   5206   5212   5213     1   109.5600471 388.275200
   5206   5212   5214     1   109.5600471 388.275200
   5207   5206   5212     1   109.8000471 387.438400
   5207   5206   5208     1   107.5800459 329.699200
   5208   5206   5212     1   109.8000471 387.438400
   5210   5209   5218     1   109.7800468 425.094400
   5210   5209   5211     1   108.4600466 328.025600
   5211   5209   5218     1   109.7800468 425.094400
   5213   5212   7924     1   109.7800468 425.094400
   5213   5212   5214     1   108.4600466 328.025600
   5214   5212   7924     1   109.7800468 425.094400
   5216   5215   7938     1   109.7800468 425.094400
   5216   5215   5217     1   108.4600466 328.025600
   5217   5215   7938     1   109.7800468 425.094400
   5220   5221   5222     1   108.0100461 406.684800
   5220   5221   5223     1   108.0100461 406.684800
   5220   5224   5225     1   108.0100461 406.684800
   5220   5224   5226     1   108.0100461 406.684800
   5220   5227   5228     1   108.0100461 406.684800
   5220   5227   5229     1   108.0100461 406.684800
   5221   5220   5249     1   110.1100470 384.091200
   5221   5233   5234     1   109.8000471 387.438400
   5221   5233   5235     1   109.8000471 387.438400
   5222   5221   5233     1   110.5600475 386.601600
   5222   5221   5223     1   109.7500473 328.025600
   5223   5221   5233     1   110.5600475 386.601600
   5224   5220   5249     1   110.1100470 384.091200
   5224   5236   5237     1   109.8000471 387.438400
   5224   5236   5238     1   109.8000471 387.438400
   5225   5224   5236     1   110.5600475 386.601600
   5225   5224   5226     1   109.7500473 328.025600
   5226   5224   5236     1   110.5600475 386.601600
   5227   5220   5249     1   110.1100470 384.091200
   5227   5230   5231     1   109.8000471 387.438400
   5227   5230   5232     1   109.8000471 387.438400
   5228   5227   5230     1   110.5600475 386.601600
   5228   5227   5229     1   109.7500473 328.025600
   5229   5227   5230     1   110.5600475 386.601600
   5230   5239   5240     1   109.5600471 388.275200
   5230   5239   5241     1   109.5600471 388.275200
   5231   5230   5239     1   109.8000471 387.438400
   5231   5230   5232     1   107.5800459 329.699200
   5232   5230   5239     1   109.8000471 387.438400
   5233   5245   5246     1   109.5600471 388.275200
   5233   5245   5247     1   109.5600471 388.275200
   5234   5233   5245     1   109.8000471 387.438400
   5234   5233   5235     1   107.5800459 329.699200
   5235   5233   5245     1   109.8000471 387.438400
   5236   5242   5243     1   109.5600471 388.275200
   5236   5242   5244     1   109.5600471 388.275200
   5237   5236   5242     1   109.8000471 387.438400
   5237   5236   5238     1   107.5800459 329.699200
   5238   5236   5242     1   109.8000471 387.438400
   5240   5239   5248     1   109.7800468 425.094400
   5240   5239   5241     1   108.4600466 328.025600
   5241   5239   5248     1   109.7800468 425.094400
   5243   5242   7952     1   109.7800468 425.094400
   5243   5242   5244     1   108.4600466 328.025600
   5244   5242   7952     1   109.7800468 425.094400
   5246   5245   7966     1   109.7800468 425.094400
   5246   5245   5247     1   108.4600466 328.025600
   5247   5245   7966     1   109.7800468 425.094400
   5250   5251   5252     1   108.0100461 406.684800
   5250   5251   5253     1   108.0100461 406.684800
   5250   5254   5255     1   108.0100461 406.684800
   5250   5254   5256     1   108.0100461 406.684800
   5250   5257   5258     1   108.0100461 406.684800
   5250   5257   5259     1   108.0100461 406.684800
   5251   5250   5279     1   110.1100470 384.091200
   5251   5263   5264     1   109.8000471 387.438400
   5251   5263   5265     1   109.8000471 387.438400
   5252   5251   5263     1   110.5600475 386.601600
   5252   5251   5253     1   109.7500473 328.025600
   5253   5251   5263     1   110.5600475 386.601600
   5254   5250   5279     1   110.1100470 384.091200
   5254   5266   5267     1   109.8000471 387.438400
   5254   5266   5268     1   109.8000471 387.438400
   5255   5254   5266     1   110.5600475 386.601600
   5255   5254   5256     1   109.7500473 328.025600
   5256   5254   5266     1   110.5600475 386.601600
   5257   5250   5279     1   110.1100470 384.091200
   5257   5260   5261     1   109.8000471 387.438400
   5257   5260   5262     1   109.8000471 387.438400
   5258   5257   5260     1   110.5600475 386.601600
   5258   5257   5259     1   109.7500473 328.025600
   5259   5257   5260     1   110.5600475 386.601600
   5260   5269   5270     1   109.5600471 388.275200
   5260   5269   5271     1   109.5600471 388.275200
   5261   5260   5269     1   109.8000471 387.438400
   5261   5260   5262     1   107.5800459 329.699200
   5262   5260   5269     1   109.8000471 387.438400
   5263   5275   5276     1   109.5600471 388.275200
   5263   5275   5277     1   109.5600471 388.275200
   5264   5263   5275     1   109.8000471 387.438400
   5264   5263   5265     1   107.5800459 329.699200
   5265   5263   5275     1   109.8000471 387.438400
   5266   5272   5273     1   109.5600471 388.275200
   5266   5272   5274     1   109.5600471 388.275200
   5267   5266   5272     1   109.8000471 387.438400
   5267   5266   5268     1   107.5800459 329.699200
   5268   5266   5272     1   109.8000471 387.438400
   5270   5269   5278     1   109.7800468 425.094400
   5270   5269   5271     1   108.4600466 328.025600
   5271   5269   5278     1   109.7800468 425.094400
   5273   5272   7980     1   109.7800468 425.094400
   5273   5272   5274     1   108.4600466 328.025600
   5274   5272   7980     1   109.7800468 425.094400
   5276   5275   7994     1   109.7800468 425.094400
   5276   5275   5277     1   108.4600466 328.025600
   5277   5275   7994     1   109.7800468 425.094400
   5280   5281   5282     1   108.0100461 406.684800
   5280   5281   5283     1   108.0100461 406.684800
   5280   5284   5285     1   108.0100461 406.684800
   5280   5284   5286     1   108.0100461 406.684800
   5280   5287   5288     1   108.0100461 406.684800
   5280   5287   5289     1   108.0100461 406.684800
   5281   5280   5309     1   110.1100470 384.091200
   5281   5293   5294     1   109.8000471 387.438400
   5281   5293   5295     1   109.8000471 387.438400
   5282   5281   5293     1   110.5600475 386.601600
   5282   5281   5283     1   109.7500473 328.025600
   5283   5281   5293     1   110.5600475 386.601600
   5284   5280   5309     1   110.1100470 384.091200
   5284   5296   5297     1   109.8000471 387.438400
   5284   5296   5298     1   109.8000471 387.438400
   5285   5284   5296     1   110.5600475 386.601600
   5285   5284   5286     1   109.7500473 328.025600
   5286   5284   5296     1   110.5600475 386.601600
   5287   5280   5309     1   110.1100470 384.091200
   5287   5290   5291     1   109.8000471 387.438400
   5287   5290   5292     1   109.8000471 387.438400
   5288   5287   5290     1   110.5600475 386.601600
   5288   5287   5289     1   109.7500473 328.025600
   5289   5287   5290     1   110.5600475 386.601600
   5290   5299   5300     1   109.5600471 388.275200
   5290   5299   5301     1   109.5600471 388.275200
   5291   5290   5299     1   109.8000471 387.438400
   5291   5290   5292     1   107.5800459 329.699200
   5292   5290   5299     1   109.8000471 387.438400
   5293   5305   5306     1   109.5600471 388.275200
   5293   5305   5307     1   109.5600471 388.275200
   5294   5293   5305     1   109.8000471 387.438400
   5294   5293   5295     1   107.5800459 329.699200
   5295   5293   5305     1   109.8000471 387.438400
   5296   5302   5303     1   109.5600471 388.275200
   5296   5302   5304     1   109.5600471 388.275200
   5297   5296   5302     1   109.8000471 387.438400
   5297   5296   5298     1   107.5800459 329.699200
   5298   5296   5302     1   109.8000471 387.438400
   5300   5299   5308     1   109.7800468 425.094400
   5300   5299   5301     1   108.4600466 328.025600
   5301   5299   5308     1   109.7800468 425.094400
   5303   5302   8008     1   109.7800468 425.094400
   5303   5302   5304     1   108.4600466 328.025600
   5304   5302   8008     1   109.7800468 425.094400
   5306   5305   8022     1   109.7800468 425.094400
   5306   5305   5307     1   108.4600466 328.025600
   5307   5305   8022     1   109.7800468 425.094400
   5310   5311   5312     1   108.0100461 406.684800
   5310   5311   5313     1   108.0100461 406.684800
   5310   5314   5315     1   108.0100461 406.684800
   5310   5314   5316     1   108.0100461 406.684800
   5310   5317   5318     1   108.0100461 406.684800
   5310   5317   5319     1   108.0100461 406.684800
   5311   5310   5339     1   110.1100470 384.091200
   5311   5323   5324     1   109.8000471 387.438400
   5311   5323   5325     1   109.8000471 387.438400
   5312   5311   5323     1   110.5600475 386.601600
   5312   5311   5313     1   109.7500473 328.025600
   5313   5311   5323     1   110.5600475 386.601600
   5314   5310   5339     1   110.1100470 384.091200
   5314   5326   5327     1   109.8000471 387.438400
   5314   5326   5328     1   109.8000471 387.438400
   5315   5314   5326     1   110.5600475 386.601600
   5315   5314   5316     1   109.7500473 328.025600
   5316   5314   5326     1   110.5600475 386.601600
   5317   5310   5339     1   110.1100470 384.091200
   5317   5320   5321     1   109.8000471 387.438400
   5317   5320   5322     1   109.8000471 387.438400
   5318   5317   5320     1   110.5600475 386.601600
   5318   5317   5319     1   109.7500473 328.025600
   5319   5317   5320     1   110.5600475 386.601600
   5320   5329   5330     1   109.5600471 388.275200
   5320   5329   5331     1   109.5600471 388.275200
   5321   5320   5329     1   109.8000471 387.438400
   5321   5320   5322     1   107.5800459 329.699200
   5322   5320   5329     1   109.8000471 387.438400
   5323   5335   5336     1   109.5600471 388.275200
   5323   5335   5337     1   109.5600471 388.275200
   5324   5323   5335     1   109.8000471 387.438400
   5324   5323   5325     1   107.5800459 329.699200
   5325   5323   5335     1   109.8000471 387.438400
   5326   5332   5333     1   109.5600471 388.275200
   5326   5332   5334     1   109.5600471 388.275200
   5327   5326   5332     1   109.8000471 387.438400
   5327   5326   5328     1   107.5800459 329.699200
   5328   5326   5332     1   109.8000471 387.438400
   5330   5329   5338     1   109.7800468 425.094400
   5330   5329   5331     1   108.4600466 328.025600
   5331   5329   5338     1   109.7800468 425.094400
   5333   5332   8036     1   109.7800468 425.094400
   5333   5332   5334     1   108.4600466 328.025600
   5334   5332   8036     1   109.7800468 425.094400
   5336   5335   8050     1   109.7800468 425.094400
   5336   5335   5337     1   108.4600466 328.025600
   5337   5335   8050     1   109.7800468 425.094400
   5340   5341   5342     1   108.0100461 406.684800
   5340   5341   5343     1   108.0100461 406.684800
   5340   5344   5345     1   108.0100461 406.684800
   5340   5344   5346     1   108.0100461 406.684800
   5340   5347   5348     1   108.0100461 406.684800
   5340   5347   5349     1   108.0100461 406.684800
   5341   5340   5369     1   110.1100470 384.091200
   5341   5353   5354     1   109.8000471 387.438400
   5341   5353   5355     1   109.8000471 387.438400
   5342   5341   5353     1   110.5600475 386.601600
   5342   5341   5343     1   109.7500473 328.025600
   5343   5341   5353     1   110.5600475 386.601600
   5344   5340   5369     1   110.1100470 384.091200
   5344   5356   5357     1   109.8000471 387.438400
   5344   5356   5358     1   109.8000471 387.438400
   5345   5344   5356     1   110.5600475 386.601600
   5345   5344   5346     1   109.7500473 328.025600
   5346   5344   5356     1   110.5600475 386.601600
   5347   5340   5369     1   110.1100470 384.091200
   5347   5350   5351     1   109.8000471 387.438400
   5347   5350   5352     1   109.8000471 387.438400
   5348   5347   5350     1   110.5600475 386.601600
   5348   5347   5349     1   109.7500473 328.025600
   5349   5347   5350     1   110.5600475 386.601600
   5350   5359   5360     1   109.5600471 388.275200
   5350   5359   5361     1   109.5600471 388.275200
   5351   5350   5359     1   109.8000471 387.438400
   5351   5350   5352     1   107.5800459 329.699200
   5352   5350   5359     1   109.8000471 387.438400
   5353   5365   5366     1   109.5600471 388.275200
   5353   5365   5367     1   109.5600471 388.275200
   5354   5353   5365     1   109.8000471 387.438400
   5354   5353   5355     1   107.5800459 329.699200
   5355   5353   5365     1   109.8000471 387.438400
   5356   5362   5363     1   109.5600471 388.275200
   5356   5362   5364     1   109.5600471 388.275200
   5357   5356   5362     1   109.8000471 387.438400
   5357   5356   5358     1   107.5800459 329.699200
   5358   5356   5362     1   109.8000471 387.438400
   5360   5359   5368     1   109.7800468 425.094400
   5360   5359   5361     1   108.4600466 328.025600
   5361   5359   5368     1   109.7800468 425.094400
   5363   5362   8064     1   109.7800468 425.094400
   5363   5362   5364     1   108.4600466 328.025600
   5364   5362   8064     1   109.7800468 425.094400
   5366   5365   8078     1   109.7800468 425.094400
   5366   5365   5367     1   108.4600466 328.025600
   5367   5365   8078     1   109.7800468 425.094400
   5370   5371   5372     1   108.0100461 406.684800
   5370   5371   5373     1   108.0100461 406.684800
   5370   5374   5375     1   108.0100461 406.684800
   5370   5374   5376     1   108.0100461 406.684800
   5370   5377   5378     1   108.0100461 406.684800
   5370   5377   5379     1   108.0100461 406.684800
   5371   5370   5399     1   110.1100470 384.091200
   5371   5383   5384     1   109.8000471 387.438400
   5371   5383   5385     1   109.8000471 387.438400
   5372   5371   5383     1   110.5600475 386.601600
   5372   5371   5373     1   109.7500473 328.025600
   5373   5371   5383     1   110.5600475 386.601600
   5374   5370   5399     1   110.1100470 384.091200
   5374   5386   5387     1   109.8000471 387.438400
   5374   5386   5388     1   109.8000471 387.438400
   5375   5374   5386     1   110.5600475 386.601600
   5375   5374   5376     1   109.7500473 328.025600
   5376   5374   5386     1   110.5600475 386.601600
   5377   5370   5399     1   110.1100470 384.091200
   5377   5380   5381     1   109.8000471 387.438400
   5377   5380   5382     1   109.8000471 387.438400
   5378   5377   5380     1   110.5600475 386.601600
   5378   5377   5379     1   109.7500473 328.025600
   5379   5377   5380     1   110.5600475 386.601600
   5380   5389   5390     1   109.5600471 388.275200
   5380   5389   5391     1   109.5600471 388.275200
   5381   5380   5389     1   109.8000471 387.438400
   5381   5380   5382     1   107.5800459 329.699200
   5382   5380   5389     1   109.8000471 387.438400
   5383   5395   5396     1   109.5600471 388.275200
   5383   5395   5397     1   109.5600471 388.275200
   5384   5383   5395     1   109.8000471 387.438400
   5384   5383   5385     1   107.5800459 329.699200
   5385   5383   5395     1   109.8000471 387.438400
   5386   5392   5393     1   109.5600471 388.275200
   5386   5392   5394     1   109.5600471 388.275200
   5387   5386   5392     1   109.8000471 387.438400
   5387   5386   5388     1   107.5800459 329.699200
   5388   5386   5392     1   109.8000471 387.438400
   5390   5389   5398     1   109.7800468 425.094400
   5390   5389   5391     1   108.4600466 328.025600
   5391   5389   5398     1   109.7800468 425.094400
   5393   5392   8092     1   109.7800468 425.094400
   5393   5392   5394     1   108.4600466 328.025600
   5394   5392   8092     1   109.7800468 425.094400
   5396   5395   8106     1   109.7800468 425.094400
   5396   5395   5397     1   108.4600466 328.025600
   5397   5395   8106     1   109.7800468 425.094400
   5400   5401   5402     1   108.0100461 406.684800
   5400   5401   5403     1   108.0100461 406.684800
   5400   5404   5405     1   108.0100461 406.684800
   5400   5404   5406     1   108.0100461 406.684800
   5400   5407   5408     1   108.0100461 406.684800
   5400   5407   5409     1   108.0100461 406.684800
   5401   5400   5429     1   110.1100470 384.091200
   5401   5413   5414     1   109.8000471 387.438400
   5401   5413   5415     1   109.8000471 387.438400
   5402   5401   5413     1   110.5600475 386.601600
   5402   5401   5403     1   109.7500473 328.025600
   5403   5401   5413     1   110.5600475 386.601600
   5404   5400   5429     1   110.1100470 384.091200
   5404   5416   5417     1   109.8000471 387.438400
   5404   5416   5418     1   109.8000471 387.438400
   5405   5404   5416     1   110.5600475 386.601600
   5405   5404   5406     1   109.7500473 328.025600
   5406   5404   5416     1   110.5600475 386.601600
   5407   5400   5429     1   110.1100470 384.091200
   5407   5410   5411     1   109.8000471 387.438400
   5407   5410   5412     1   109.8000471 387.438400
   5408   5407   5410     1   110.5600475 386.601600
   5408   5407   5409     1   109.7500473 328.025600
   5409   5407   5410     1   110.5600475 386.601600
   5410   5419   5420     1   109.5600471 388.275200
   5410   5419   5421     1   109.5600471 388.275200
   5411   5410   5419     1   109.8000471 387.438400
   5411   5410   5412     1   107.5800459 329.699200
   5412   5410   5419     1   109.8000471 387.438400
   5413   5425   5426     1   109.5600471 388.275200
   5413   5425   5427     1   109.5600471 388.275200
   5414   5413   5425     1   109.8000471 387.438400
   5414   5413   5415     1   107.5800459 329.699200
   5415   5413   5425     1   109.8000471 387.438400
   5416   5422   5423     1   109.5600471 388.275200
   5416   5422   5424     1   109.5600471 388.275200
   5417   5416   5422     1   109.8000471 387.438400
   5417   5416   5418     1   107.5800459 329.699200
   5418   5416   5422     1   109.8000471 387.438400
   5420   5419   5428     1   109.7800468 425.094400
   5420   5419   5421     1   108.4600466 328.025600
   5421   5419   5428     1   109.7800468 425.094400
   5423   5422   8120     1   109.7800468 425.094400
   5423   5422   5424     1   108.4600466 328.025600
   5424   5422   8120     1   109.7800468 425.094400
   5426   5425   8134     1   109.7800468 425.094400
   5426   5425   5427     1   108.4600466 328.025600
   5427   5425   8134     1   109.7800468 425.094400
   5430   5431   5432     1   108.0100461 406.684800
   5430   5431   5433     1   108.0100461 406.684800
   5430   5434   5435     1   108.0100461 406.684800
   5430   5434   5436     1   108.0100461 406.684800
   5430   5437   5438     1   108.0100461 406.684800
   5430   5437   5439     1   108.0100461 406.684800
   5431   5430   5459     1   110.1100470 384.091200
   5431   5443   5444     1   109.8000471 387.438400
   5431   5443   5445     1   109.8000471 387.438400
   5432   5431   5443     1   110.5600475 386.601600
   5432   5431   5433     1   109.7500473 328.025600
   5433   5431   5443     1   110.5600475 386.601600
   5434   5430   5459     1   110.1100470 384.091200
   5434   5446   5447     1   109.8000471 387.438400
   5434   5446   5448     1   109.8000471 387.438400
   5435   5434   5446     1   110.5600475 386.601600
   5435   5434   5436     1   109.7500473 328.025600
   5436   5434   5446     1   110.5600475 386.601600
   5437   5430   5459     1   110.1100470 384.091200
   5437   5440   5441     1   109.8000471 387.438400
   5437   5440   5442     1   109.8000471 387.438400
   5438   5437   5440     1   110.5600475 386.601600
   5438   5437   5439     1   109.7500473 328.025600
   5439   5437   5440     1   110.5600475 386.601600
   5440   5449   5450     1   109.5600471 388.275200
   5440   5449   5451     1   109.5600471 388.275200
   5441   5440   5449     1   109.8000471 387.438400
   5441   5440   5442     1   107.5800459 329.699200
   5442   5440   5449     1   109.8000471 387.438400
   5443   5455   5456     1   109.5600471 388.275200
   5443   5455   5457     1   109.5600471 388.275200
   5444   5443   5455     1   109.8000471 387.438400
   5444   5443   5445     1   107.5800459 329.699200
   5445   5443   5455     1   109.8000471 387.438400
   5446   5452   5453     1   109.5600471 388.275200
   5446   5452   5454     1   109.5600471 388.275200
   5447   5446   5452     1   109.8000471 387.438400
   5447   5446   5448     1   107.5800459 329.699200
   5448   5446   5452     1   109.8000471 387.438400
   5450   5449   5458     1   109.7800468 425.094400
   5450   5449   5451     1   108.4600466 328.025600
   5451   5449   5458     1   109.7800468 425.094400
   5453   5452   8148     1   109.7800468 425.094400
   5453   5452   5454     1   108.4600466 328.025600
   5454   5452   8148     1   109.7800468 425.094400
   5456   5455   8162     1   109.7800468 425.094400
   5456   5455   5457     1   108.4600466 328.025600
   5457   5455   8162     1   109.7800468 425.094400
   5460   5461   5462     1   108.0100461 406.684800
   5460   5461   5463     1   108.0100461 406.684800
   5460   5464   5465     1   108.0100461 406.684800
   5460   5464   5466     1   108.0100461 406.684800
   5460   5467   5468     1   108.0100461 406.684800
   5460   5467   5469     1   108.0100461 406.684800
   5461   5460   5489     1   110.1100470 384.091200
   5461   5473   5474     1   109.8000471 387.438400
   5461   5473   5475     1   109.8000471 387.438400
   5462   5461   5473     1   110.5600475 386.601600
   5462   5461   5463     1   109.7500473 328.025600
   5463   5461   5473     1   110.5600475 386.601600
   5464   5460   5489     1   110.1100470 384.091200
   5464   5476   5477     1   109.8000471 387.438400
   5464   5476   5478     1   109.8000471 387.438400
   5465   5464   5476     1   110.5600475 386.601600
   5465   5464   5466     1   109.7500473 328.025600
   5466   5464   5476     1   110.5600475 386.601600
   5467   5460   5489     1   110.1100470 384.091200
   5467   5470   5471     1   109.8000471 387.438400
   5467   5470   5472     1   109.8000471 387.438400
   5468   5467   5470     1   110.5600475 386.601600
   5468   5467   5469     1   109.7500473 328.025600
   5469   5467   5470     1   110.5600475 386.601600
   5470   5479   5480     1   109.5600471 388.275200
   5470   5479   5481     1   109.5600471 388.275200
   5471   5470   5479     1   109.8000471 387.438400
   5471   5470   5472     1   107.5800459 329.699200
   5472   5470   5479     1   109.8000471 387.438400
   5473   5485   5486     1   109.5600471 388.275200
   5473   5485   5487     1   109.5600471 388.275200
   5474   5473   5485     1   109.8000471 387.438400
   5474   5473   5475     1   107.5800459 329.699200
   5475   5473   5485     1   109.8000471 387.438400
   5476   5482   5483     1   109.5600471 388.275200
   5476   5482   5484     1   109.5600471 388.275200
   5477   5476   5482     1   109.8000471 387.438400
   5477   5476   5478     1   107.5800459 329.699200
   5478   5476   5482     1   109.8000471 387.438400
   5480   5479   5488     1   109.7800468 425.094400
   5480   5479   5481     1   108.4600466 328.025600
   5481   5479   5488     1   109.7800468 425.094400
   5483   5482   8176     1   109.7800468 425.094400
   5483   5482   5484     1   108.4600466 328.025600
   5484   5482   8176     1   109.7800468 425.094400
   5486   5485   8190     1   109.7800468 425.094400
   5486   5485   5487     1   108.4600466 328.025600
   5487   5485   8190     1   109.7800468 425.094400
   5490   5491   5492     1   108.0100461 406.684800
   5490   5491   5493     1   108.0100461 406.684800
   5490   5494   5495     1   108.0100461 406.684800
   5490   5494   5496     1   108.0100461 406.684800
   5490   5497   5498     1   108.0100461 406.684800
   5490   5497   5499     1   108.0100461 406.684800
   5491   5490   5519     1   110.1100470 384.091200
   5491   5503   5504     1   109.8000471 387.438400
   5491   5503   5505     1   109.8000471 387.438400
   5492   5491   5503     1   110.5600475 386.601600
   5492   5491   5493     1   109.7500473 328.025600
   5493   5491   5503     1   110.5600475 386.601600
   5494   5490   5519     1   110.1100470 384.091200
   5494   5506   5507     1   109.8000471 387.438400
   5494   5506   5508     1   109.8000471 387.438400
   5495   5494   5506     1   110.5600475 386.601600
   5495   5494   5496     1   109.7500473 328.025600
   5496   5494   5506     1   110.5600475 386.601600
   5497   5490   5519     1   110.1100470 384.091200
   5497   5500   5501     1   109.8000471 387.438400
   5497   5500   5502     1   109.8000471 387.438400
   5498   5497   5500     1   110.5600475 386.601600
   5498   5497   5499     1   109.7500473 328.025600
   5499   5497   5500     1   110.5600475 386.601600
   5500   5509   5510     1   109.5600471 388.275200
   5500   5509   5511     1   109.5600471 388.275200
   5501   5500   5509     1   109.8000471 387.438400
   5501   5500   5502     1   107.5800459 329.699200
   5502   5500   5509     1   109.8000471 387.438400
   5503   5515   5516     1   109.5600471 388.275200
   5503   5515   5517     1   109.5600471 388.275200
   5504   5503   5515     1   109.8000471 387.438400
   5504   5503   5505     1   107.5800459 329.699200
   5505   5503   5515     1   109.8000471 387.438400
   5506   5512   5513     1   109.5600471 388.275200
   5506   5512   5514     1   109.5600471 388.275200
   5507   5506   5512     1   109.8000471 387.438400
   5507   5506   5508     1   107.5800459 329.699200
   5508   5506   5512     1   109.8000471 387.438400
   5510   5509   5518     1   109.7800468 425.094400
   5510   5509   5511     1   108.4600466 328.025600
   5511   5509   5518     1   109.7800468 425.094400
   5513   5512   8204     1   109.7800468 425.094400
   5513   5512   5514     1   108.4600466 328.025600
   5514   5512   8204     1   109.7800468 425.094400
   5516   5515   8218     1   109.7800468 425.094400
   5516   5515   5517     1   108.4600466 328.025600
   5517   5515   8218     1   109.7800468 425.094400
   5520   5521   5522     1   108.0100461 406.684800
   5520   5521   5523     1   108.0100461 406.684800
   5520   5524   5525     1   108.0100461 406.684800
   5520   5524   5526     1   108.0100461 406.684800
   5520   5527   5528     1   108.0100461 406.684800
   5520   5527   5529     1   108.0100461 406.684800
   5521   5520   5549     1   110.1100470 384.091200
   5521   5533   5534     1   109.8000471 387.438400
   5521   5533   5535     1   109.8000471 387.438400
   5522   5521   5533     1   110.5600475 386.601600
   5522   5521   5523     1   109.7500473 328.025600
   5523   5521   5533     1   110.5600475 386.601600
   5524   5520   5549     1   110.1100470 384.091200
   5524   5536   5537     1   109.8000471 387.438400
   5524   5536   5538     1   109.8000471 387.438400
   5525   5524   5536     1   110.5600475 386.601600
   5525   5524   5526     1   109.7500473 328.025600
   5526   5524   5536     1   110.5600475 386.601600
   5527   5520   5549     1   110.1100470 384.091200
   5527   5530   5531     1   109.8000471 387.438400
   5527   5530   5532     1   109.8000471 387.438400
   5528   5527   5530     1   110.5600475 386.601600
   5528   5527   5529     1   109.7500473 328.025600
   5529   5527   5530     1   110.5600475 386.601600
   5530   5539   5540     1   109.5600471 388.275200
   5530   5539   5541     1   109.5600471 388.275200
   5531   5530   5539     1   109.8000471 387.438400
   5531   5530   5532     1   107.5800459 329.699200
   5532   5530   5539     1   109.8000471 387.438400
   5533   5545   5546     1   109.5600471 388.275200
   5533   5545   5547     1   109.5600471 388.275200
   5534   5533   5545     1   109.8000471 387.438400
   5534   5533   5535     1   107.5800459 329.699200
   5535   5533   5545     1   109.8000471 387.438400
   5536   5542   5543     1   109.5600471 388.275200
   5536   5542   5544     1   109.5600471 388.275200
   5537   5536   5542     1   109.8000471 387.438400
   5537   5536   5538     1   107.5800459 329.699200
   5538   5536   5542     1   109.8000471 387.438400
   5540   5539   5548     1   109.7800468 425.094400
   5540   5539   5541     1   108.4600466 328.025600
   5541   5539   5548     1   109.7800468 425.094400
   5543   5542   8232     1   109.7800468 425.094400
   5543   5542   5544     1   108.4600466 328.025600
   5544   5542   8232     1   109.7800468 425.094400
   5546   5545   8246     1   109.7800468 425.094400
   5546   5545   5547     1   108.4600466 328.025600
   5547   5545   8246     1   109.7800468 425.094400
   5550   5551   5552     1   108.0100461 406.684800
   5550   5551   5553     1   108.0100461 406.684800
   5550   5554   5555     1   108.0100461 406.684800
   5550   5554   5556     1   108.0100461 406.684800
   5550   5557   5558     1   108.0100461 406.684800
   5550   5557   5559     1   108.0100461 406.684800
   5551   5550   5579     1   110.1100470 384.091200
   5551   5563   5564     1   109.8000471 387.438400
   5551   5563   5565     1   109.8000471 387.438400
   5552   5551   5563     1   110.5600475 386.601600
   5552   5551   5553     1   109.7500473 328.025600
   5553   5551   5563     1   110.5600475 386.601600
   5554   5550   5579     1   110.1100470 384.091200
   5554   5566   5567     1   109.8000471 387.438400
   5554   5566   5568     1   109.8000471 387.438400
   5555   5554   5566     1   110.5600475 386.601600
   5555   5554   5556     1   109.7500473 328.025600
   5556   5554   5566     1   110.5600475 386.601600
   5557   5550   5579     1   110.1100470 384.091200
   5557   5560   5561     1   109.8000471 387.438400
   5557   5560   5562     1   109.8000471 387.438400
   5558   5557   5560     1   110.5600475 386.601600
   5558   5557   5559     1   109.7500473 328.025600
   5559   5557   5560     1   110.5600475 386.601600
   5560   5569   5570     1   109.5600471 388.275200
   5560   5569   5571     1   109.5600471 388.275200
   5561   5560   5569     1   109.8000471 387.438400
   5561   5560   5562     1   107.5800459 329.699200
   5562   5560   5569     1   109.8000471 387.438400
   5563   5575   5576     1   109.5600471 388.275200
   5563   5575   5577     1   109.5600471 388.275200
   5564   5563   5575     1   109.8000471 387.438400
   5564   5563   5565     1   107.5800459 329.699200
   5565   5563   5575     1   109.8000471 387.438400
   5566   5572   5573     1   109.5600471 388.275200
   5566   5572   5574     1   109.5600471 388.275200
   5567   5566   5572     1   109.8000471 387.438400
   5567   5566   5568     1   107.5800459 329.699200
   5568   5566   5572     1   109.8000471 387.438400
   5570   5569   5578     1   109.7800468 425.094400
   5570   5569   5571     1   108.4600466 328.025600
   5571   5569   5578     1   109.7800468 425.094400
   5573   5572   8260     1   109.7800468 425.094400
   5573   5572   5574     1   108.4600466 328.025600
   5574   5572   8260     1   109.7800468 425.094400
   5576   5575   8274     1   109.7800468 425.094400
   5576   5575   5577     1   108.4600466 328.025600
   5577   5575   8274     1   109.7800468 425.094400
   5580   5581   5582     1   108.0100461 406.684800
   5580   5581   5583     1   108.0100461 406.684800
   5580   5584   5585     1   108.0100461 406.684800
   5580   5584   5586     1   108.0100461 406.684800
   5580   5587   5588     1   108.0100461 406.684800
   5580   5587   5589     1   108.0100461 406.684800
   5581   5580   5609     1   110.1100470 384.091200
   5581   5593   5594     1   109.8000471 387.438400
   5581   5593   5595     1   109.8000471 387.438400
   5582   5581   5593     1   110.5600475 386.601600
   5582   5581   5583     1   109.7500473 328.025600
   5583   5581   5593     1   110.5600475 386.601600
   5584   5580   5609     1   110.1100470 384.091200
   5584   5596   5597     1   109.8000471 387.438400
   5584   5596   5598     1   109.8000471 387.438400
   5585   5584   5596     1   110.5600475 386.601600
   5585   5584   5586     1   109.7500473 328.025600
   5586   5584   5596     1   110.5600475 386.601600
   5587   5580   5609     1   110.1100470 384.091200
   5587   5590   5591     1   109.8000471 387.438400
   5587   5590   5592     1   109.8000471 387.438400
   5588   5587   5590     1   110.5600475 386.601600
   5588   5587   5589     1   109.7500473 328.025600
   5589   5587   5590     1   110.5600475 386.601600
   5590   5599   5600     1   109.5600471 388.275200
   5590   5599   5601     1   109.5600471 388.275200
   5591   5590   5599     1   109.8000471 387.438400
   5591   5590   5592     1   107.5800459 329.699200
   5592   5590   5599     1   109.8000471 387.438400
   5593   5605   5606     1   109.5600471 388.275200
   5593   5605   5607     1   109.5600471 388.275200
   5594   5593   5605     1   109.8000471 387.438400
   5594   5593   5595     1   107.5800459 329.699200
   5595   5593   5605     1   109.8000471 387.438400
   5596   5602   5603     1   109.5600471 388.275200
   5596   5602   5604     1   109.5600471 388.275200
   5597   5596   5602     1   109.8000471 387.438400
   5597   5596   5598     1   107.5800459 329.699200
   5598   5596   5602     1   109.8000471 387.438400
   5600   5599   5608     1   109.7800468 425.094400
   5600   5599   5601     1   108.4600466 328.025600
   5601   5599   5608     1   109.7800468 425.094400
   5603   5602   8288     1   109.7800468 425.094400
   5603   5602   5604     1   108.4600466 328.025600
   5604   5602   8288     1   109.7800468 425.094400
   5606   5605   8302     1   109.7800468 425.094400
   5606   5605   5607     1   108.4600466 328.025600
   5607   5605   8302     1   109.7800468 425.094400
   5610   5611   5612     1   108.0100461 406.684800
   5610   5611   5613     1   108.0100461 406.684800
   5610   5614   5615     1   108.0100461 406.684800
   5610   5614   5616     1   108.0100461 406.684800
   5610   5617   5618     1   108.0100461 406.684800
   5610   5617   5619     1   108.0100461 406.684800
   5611   5610   5639     1   110.1100470 384.091200
   5611   5623   5624     1   109.8000471 387.438400
   5611   5623   5625     1   109.8000471 387.438400
   5612   5611   5623     1   110.5600475 386.601600
   5612   5611   5613     1   109.7500473 328.025600
   5613   5611   5623     1   110.5600475 386.601600
   5614   5610   5639     1   110.1100470 384.091200
   5614   5626   5627     1   109.8000471 387.438400
   5614   5626   5628     1   109.8000471 387.438400
   5615   5614   5626     1   110.5600475 386.601600
   5615   5614   5616     1   109.7500473 328.025600
   5616   5614   5626     1   110.5600475 386.601600
   5617   5610   5639     1   110.1100470 384.091200
   5617   5620   5621     1   109.8000471 387.438400
   5617   5620   5622     1   109.8000471 387.438400
   5618   5617   5620     1   110.5600475 386.601600
   5618   5617   5619     1   109.7500473 328.025600
   5619   5617   5620     1   110.5600475 386.601600
   5620   5629   5630     1   109.5600471 388.275200
   5620   5629   5631     1   109.5600471 388.275200
   5621   5620   5629     1   109.8000471 387.438400
   5621   5620   5622     1   107.5800459 329.699200
   5622   5620   5629     1   109.8000471 387.438400
   5623   5635   5636     1   109.5600471 388.275200
   5623   5635   5637     1   109.5600471 388.275200
   5624   5623   5635     1   109.8000471 387.438400
   5624   5623   5625     1   107.5800459 329.699200
   5625   5623   5635     1   109.8000471 387.438400
   5626   5632   5633     1   109.5600471 388.275200
   5626   5632   5634     1   109.5600471 388.275200
   5627   5626   5632     1   109.8000471 387.438400
   5627   5626   5628     1   107.5800459 329.699200
   5628   5626   5632     1   109.8000471 387.438400
   5630   5629   5638     1   109.7800468 425.094400
   5630   5629   5631     1   108.4600466 328.025600
   5631   5629   5638     1   109.7800468 425.094400
   5633   5632   8316     1   109.7800468 425.094400
   5633   5632   5634     1   108.4600466 328.025600
   5634   5632   8316     1   109.7800468 425.094400
   5636   5635   8330     1   109.7800468 425.094400
   5636   5635   5637     1   108.4600466 328.025600
   5637   5635   8330     1   109.7800468 425.094400
   5640   5641   5642     1   108.0100461 406.684800
   5640   5641   5643     1   108.0100461 406.684800
   5640   5644   5645     1   108.0100461 406.684800
   5640   5644   5646     1   108.0100461 406.684800
   5640   5647   5648     1   108.0100461 406.684800
   5640   5647   5649     1   108.0100461 406.684800
   5641   5640   5669     1   110.1100470 384.091200
   5641   5653   5654     1   109.8000471 387.438400
   5641   5653   5655     1   109.8000471 387.438400
   5642   5641   5653     1   110.5600475 386.601600
   5642   5641   5643     1   109.7500473 328.025600
   5643   5641   5653     1   110.5600475 386.601600
   5644   5640   5669     1   110.1100470 384.091200
   5644   5656   5657     1   109.8000471 387.438400
   5644   5656   5658     1   109.8000471 387.438400
   5645   5644   5656     1   110.5600475 386.601600
   5645   5644   5646     1   109.7500473 328.025600
   5646   5644   5656     1   110.5600475 386.601600
   5647   5640   5669     1   110.1100470 384.091200
   5647   5650   5651     1   109.8000471 387.438400
   5647   5650   5652     1   109.8000471 387.438400
   5648   5647   5650     1   110.5600475 386.601600
   5648   5647   5649     1   109.7500473 328.025600
   5649   5647   5650     1   110.5600475 386.601600
   5650   5659   5660     1   109.5600471 388.275200
   5650   5659   5661     1   109.5600471 388.275200
   5651   5650   5659     1   109.8000471 387.438400
   5651   5650   5652     1   107.5800459 329.699200
   5652   5650   5659     1   109.8000471 387.438400
   5653   5665   5666     1   109.5600471 388.275200
   5653   5665   5667     1   109.5600471 388.275200
   5654   5653   5665     1   109.8000471 387.438400
   5654   5653   5655     1   107.5800459 329.699200
   5655   5653   5665     1   109.8000471 387.438400
   5656   5662   5663     1   109.5600471 388.275200
   5656   5662   5664     1   109.5600471 388.275200
   5657   5656   5662     1   109.8000471 387.438400
   5657   5656   5658     1   107.5800459 329.699200
   5658   5656   5662     1   109.8000471 387.438400
   5660   5659   5668     1   109.7800468 425.094400
   5660   5659   5661     1   108.4600466 328.025600
   5661   5659   5668     1   109.7800468 425.094400
   5663   5662   8344     1   109.7800468 425.094400
   5663   5662   5664     1   108.4600466 328.025600
   5664   5662   8344     1   109.7800468 425.094400
   5666   5665   8358     1   109.7800468 425.094400
   5666   5665   5667     1   108.4600466 328.025600
   5667   5665   8358     1   109.7800468 425.094400
   5670   5671   5672     1   108.0100461 406.684800
   5670   5671   5673     1   108.0100461 406.684800
   5670   5674   5675     1   108.0100461 406.684800
   5670   5674   5676     1   108.0100461 406.684800
   5670   5677   5678     1   108.0100461 406.684800
   5670   5677   5679     1   108.0100461 406.684800
   5671   5670   5699     1   110.1100470 384.091200
   5671   5683   5684     1   109.8000471 387.438400
   5671   5683   5685     1   109.8000471 387.438400
   5672   5671   5683     1   110.5600475 386.601600
   5672   5671   5673     1   109.7500473 328.025600
   5673   5671   5683     1   110.5600475 386.601600
   5674   5670   5699     1   110.1100470 384.091200
   5674   5686   5687     1   109.8000471 387.438400
   5674   5686   5688     1   109.8000471 387.438400
   5675   5674   5686     1   110.5600475 386.601600
   5675   5674   5676     1   109.7500473 328.025600
   5676   5674   5686     1   110.5600475 386.601600
   5677   5670   5699     1   110.1100470 384.091200
   5677   5680   5681     1   109.8000471 387.438400
   5677   5680   5682     1   109.8000471 387.438400
   5678   5677   5680     1   110.5600475 386.601600
   5678   5677   5679     1   109.7500473 328.025600
   5679   5677   5680     1   110.5600475 386.601600
   5680   5689   5690     1   109.5600471 388.275200
   5680   5689   5691     1   109.5600471 388.275200
   5681   5680   5689     1   109.8000471 387.438400
   5681   5680   5682     1   107.5800459 329.699200
   5682   5680   5689     1   109.8000471 387.438400
   5683   5695   5696     1   109.5600471 388.275200
   5683   5695   5697     1   109.5600471 388.275200
   5684   5683   5695     1   109.8000471 387.438400
   5684   5683   5685     1   107.5800459 329.699200
   5685   5683   5695     1   109.8000471 387.438400
   5686   5692   5693     1   109.5600471 388.275200
   5686   5692   5694     1   109.5600471 388.275200
   5687   5686   5692     1   109.8000471 387.438400
   5687   5686   5688     1   107.5800459 329.699200
   5688   5686   5692     1   109.8000471 387.438400
   5690   5689   5698     1   109.7800468 425.094400
   5690   5689   5691     1   108.4600466 328.025600
   5691   5689   5698     1   109.7800468 425.094400
   5693   5692   8372     1   109.7800468 425.094400
   5693   5692   5694     1   108.4600466 328.025600
   5694   5692   8372     1   109.7800468 425.094400
   5696   5695   8386     1   109.7800468 425.094400
   5696   5695   5697     1   108.4600466 328.025600
   5697   5695   8386     1   109.7800468 425.094400
   5700   5703   5704     1   109.8000471 387.438400
   5700   5703   5705     1   109.8000471 387.438400
   5700   5709   5710     1   110.1100470 384.091200
   5700   5709   5711     1   110.1100470 384.091200
   5700   5709   5713     1   110.1100470 384.091200
   5701   5700   5703     1   110.5600475 386.601600
   5701   5700   5709     1   108.0100461 406.684800
   5701   5700   5702     1   109.7500473 328.025600
   5702   5700   5703     1   110.5600475 386.601600
   5702   5700   5709     1   108.0100461 406.684800
   5703   5706   5707     1   109.5600471 388.275200
   5703   5706   5708     1   109.5600471 388.275200
   5704   5703   5706     1   109.8000471 387.438400
   5704   5703   5705     1   107.5800459 329.699200
   5705   5703   5706     1   109.8000471 387.438400
   5707   5706   5712     1   109.7800468 425.094400
   5707   5706   5708     1   108.4600466 328.025600
   5708   5706   5712     1   109.7800468 425.094400
   5710   5709   5711     1   108.3000464 339.740800
   5710   5709   5713     1   108.3000464 339.740800
   5711   5709   5713     1   108.3000464 339.740800
   5714   5717   5718     1   109.8000471 387.438400
   5714   5717   5719     1   109.8000471 387.438400
   5714   5723   5724     1   110.1100470 384.091200
   5714   5723   5725     1   110.1100470 384.091200
   5714   5723   5727     1   110.1100470 384.091200
   5715   5714   5717     1   110.5600475 386.601600
   5715   5714   5723     1   108.0100461 406.684800
   5715   5714   5716     1   109.7500473 328.025600
   5716   5714   5717     1   110.5600475 386.601600
   5716   5714   5723     1   108.0100461 406.684800
   5717   5720   5721     1   109.5600471 388.275200
   5717   5720   5722     1   109.5600471 388.275200
   5718   5717   5720     1   109.8000471 387.438400
   5718   5717   5719     1   107.5800459 329.699200
   5719   5717   5720     1   109.8000471 387.438400
   5721   5720   5726     1   109.7800468 425.094400
   5721   5720   5722     1   108.4600466 328.025600
   5722   5720   5726     1   109.7800468 425.094400
   5724   5723   5725     1   108.3000464 339.740800
   5724   5723   5727     1   108.3000464 339.740800
   5725   5723   5727     1   108.3000464 339.740800
   5728   5731   5732     1   109.8000471 387.438400
   5728   5731   5733     1   109.8000471 387.438400
   5728   5737   5738     1   110.1100470 384.091200
   5728   5737   5739     1   110.1100470 384.091200
   5728   5737   5741     1   110.1100470 384.091200
   5729   5728   5731     1   110.5600475 386.601600
   5729   5728   5737     1   108.0100461 406.684800
   5729   5728   5730     1   109.7500473 328.025600
   5730   5728   5731     1   110.5600475 386.601600
   5730   5728   5737     1   108.0100461 406.684800
   5731   5734   5735     1   109.5600471 388.275200
   5731   5734   5736     1   109.5600471 388.275200
   5732   5731   5734     1   109.8000471 387.438400
   5732   5731   5733     1   107.5800459 329.699200
   5733   5731   5734     1   109.8000471 387.438400
   5735   5734   5740     1   109.7800468 425.094400
   5735   5734   5736     1   108.4600466 328.025600
   5736   5734   5740     1   109.7800468 425.094400
   5738   5737   5739     1   108.3000464 339.740800
   5738   5737   5741     1   108.3000464 339.740800
   5739   5737   5741     1   108.3000464 339.740800
   5742   5745   5746     1   109.8000471 387.438400
   5742   5745   5747     1   109.8000471 387.438400
   5742   5751   5752     1   110.1100470 384.091200
   5742   5751   5753     1   110.1100470 384.091200
   5742   5751   5755     1   110.1100470 384.091200
   5743   5742   5745     1   110.5600475 386.601600
   5743   5742   5751     1   108.0100461 406.684800
   5743   5742   5744     1   109.7500473 328.025600
   5744   5742   5745     1   110.5600475 386.601600
   5744   5742   5751     1   108.0100461 406.684800
   5745   5748   5749     1   109.5600471 388.275200
   5745   5748   5750     1   109.5600471 388.275200
   5746   5745   5748     1   109.8000471 387.438400
   5746   5745   5747     1   107.5800459 329.699200
   5747   5745   5748     1   109.8000471 387.438400
   5749   5748   5754     1   109.7800468 425.094400
   5749   5748   5750     1   108.4600466 328.025600
   5750   5748   5754     1   109.7800468 425.094400
   5752   5751   5753     1   108.3000464 339.740800
   5752   5751   5755     1   108.3000464 339.740800
   5753   5751   5755     1   108.3000464 339.740800
   5756   5759   5760     1   109.8000471 387.438400
   5756   5759   5761     1   109.8000471 387.438400
   5756   5765   5766     1   110.1100470 384.091200
   5756   5765   5767     1   110.1100470 384.091200
   5756   5765   5769     1   110.1100470 384.091200
   5757   5756   5759     1   110.5600475 386.601600
   5757   5756   5765     1   108.0100461 406.684800
   5757   5756   5758     1   109.7500473 328.025600
   5758   5756   5759     1   110.5600475 386.601600
   5758   5756   5765     1   108.0100461 406.684800
   5759   5762   5763     1   109.5600471 388.275200
   5759   5762   5764     1   109.5600471 388.275200
   5760   5759   5762     1   109.8000471 387.438400
   5760   5759   5761     1   107.5800459 329.699200
   5761   5759   5762     1   109.8000471 387.438400
   5763   5762   5768     1   109.7800468 425.094400
   5763   5762   5764     1   108.4600466 328.025600
   5764   5762   5768     1   109.7800468 425.094400
   5766   5765   5767     1   108.3000464 339.740800
   5766   5765   5769     1   108.3000464 339.740800
   5767   5765   5769     1   108.3000464 339.740800
   5770   5773   5774     1   109.8000471 387.438400
   5770   5773   5775     1   109.8000471 387.438400
   5770   5779   5780     1   110.1100470 384.091200
   5770   5779   5781     1   110.1100470 384.091200
   5770   5779   5783     1   110.1100470 384.091200
   5771   5770   5773     1   110.5600475 386.601600
   5771   5770   5779     1   108.0100461 406.684800
   5771   5770   5772     1   109.7500473 328.025600
   5772   5770   5773     1   110.5600475 386.601600
   5772   5770   5779     1   108.0100461 406.684800
   5773   5776   5777     1   109.5600471 388.275200
   5773   5776   5778     1   109.5600471 388.275200
   5774   5773   5776     1   109.8000471 387.438400
   5774   5773   5775     1   107.5800459 329.699200
   5775   5773   5776     1   109.8000471 387.438400
   5777   5776   5782     1   109.7800468 425.094400
   5777   5776   5778     1   108.4600466 328.025600
   5778   5776   5782     1   109.7800468 425.094400
   5780   5779   5781     1   108.3000464 339.740800
   5780   5779   5783     1   108.3000464 339.740800
   5781   5779   5783     1   108.3000464 339.740800
   5784   5787   5788     1   109.8000471 387.438400
   5784   5787   5789     1   109.8000471 387.438400
   5784   5793   5794     1   110.1100470 384.091200
   5784   5793   5795     1   110.1100470 384.091200
   5784   5793   5797     1   110.1100470 384.091200
   5785   5784   5787     1   110.5600475 386.601600
   5785   5784   5793     1   108.0100461 406.684800
   5785   5784   5786     1   109.7500473 328.025600
   5786   5784   5787     1   110.5600475 386.601600
   5786   5784   5793     1   108.0100461 406.684800
   5787   5790   5791     1   109.5600471 388.275200
   5787   5790   5792     1   109.5600471 388.275200
   5788   5787   5790     1   109.8000471 387.438400
   5788   5787   5789     1   107.5800459 329.699200
   5789   5787   5790     1   109.8000471 387.438400
   5791   5790   5796     1   109.7800468 425.094400
   5791   5790   5792     1   108.4600466 328.025600
   5792   5790   5796     1   109.7800468 425.094400
   5794   5793   5795     1   108.3000464 339.740800
   5794   5793   5797     1   108.3000464 339.740800
   5795   5793   5797     1   108.3000464 339.740800
   5798   5801   5802     1   109.8000471 387.438400
   5798   5801   5803     1   109.8000471 387.438400
   5798   5807   5808     1   110.1100470 384.091200
   5798   5807   5809     1   110.1100470 384.091200
   5798   5807   5811     1   110.1100470 384.091200
   5799   5798   5801     1   110.5600475 386.601600
   5799   5798   5807     1   108.0100461 406.684800
   5799   5798   5800     1   109.7500473 328.025600
   5800   5798   5801     1   110.5600475 386.601600
   5800   5798   5807     1   108.0100461 406.684800
   5801   5804   5805     1   109.5600471 388.275200
   5801   5804   5806     1   109.5600471 388.275200
   5802   5801   5804     1   109.8000471 387.438400
   5802   5801   5803     1   107.5800459 329.699200
   5803   5801   5804     1   109.8000471 387.438400
   5805   5804   5810     1   109.7800468 425.094400
   5805   5804   5806     1   108.4600466 328.025600
   5806   5804   5810     1   109.7800468 425.094400
   5808   5807   5809     1   108.3000464 339.740800
   5808   5807   5811     1   108.3000464 339.740800
   5809   5807   5811     1   108.3000464 339.740800
   5812   5815   5816     1   109.8000471 387.438400
   5812   5815   5817     1   109.8000471 387.438400
   5812   5821   5822     1   110.1100470 384.091200
   5812   5821   5823     1   110.1100470 384.091200
   5812   5821   5825     1   110.1100470 384.091200
   5813   5812   5815     1   110.5600475 386.601600
   5813   5812   5821     1   108.0100461 406.684800
   5813   5812   5814     1   109.7500473 328.025600
   5814   5812   5815     1   110.5600475 386.601600
   5814   5812   5821     1   108.0100461 406.684800
   5815   5818   5819     1   109.5600471 388.275200
   5815   5818   5820     1   109.5600471 388.275200
   5816   5815   5818     1   109.8000471 387.438400
   5816   5815   5817     1   107.5800459 329.699200
   5817   5815   5818     1   109.8000471 387.438400
   5819   5818   5824     1   109.7800468 425.094400
   5819   5818   5820     1   108.4600466 328.025600
   5820   5818   5824     1   109.7800468 425.094400
   5822   5821   5823     1   108.3000464 339.740800
   5822   5821   5825     1   108.3000464 339.740800
   5823   5821   5825     1   108.3000464 339.740800
   5826   5829   5830     1   109.8000471 387.438400
   5826   5829   5831     1   109.8000471 387.438400
   5826   5835   5836     1   110.1100470 384.091200
   5826   5835   5837     1   110.1100470 384.091200
   5826   5835   5839     1   110.1100470 384.091200
   5827   5826   5829     1   110.5600475 386.601600
   5827   5826   5835     1   108.0100461 406.684800
   5827   5826   5828     1   109.7500473 328.025600
   5828   5826   5829     1   110.5600475 386.601600
   5828   5826   5835     1   108.0100461 406.684800
   5829   5832   5833     1   109.5600471 388.275200
   5829   5832   5834     1   109.5600471 388.275200
   5830   5829   5832     1   109.8000471 387.438400
   5830   5829   5831     1   107.5800459 329.699200
   5831   5829   5832     1   109.8000471 387.438400
   5833   5832   5838     1   109.7800468 425.094400
   5833   5832   5834     1   108.4600466 328.025600
   5834   5832   5838     1   109.7800468 425.094400
   5836   5835   5837     1   108.3000464 339.740800
   5836   5835   5839     1   108.3000464 339.740800
   5837   5835   5839     1   108.3000464 339.740800
   5840   5843   5844     1   109.8000471 387.438400
   5840   5843   5845     1   109.8000471 387.438400
   5840   5849   5850     1   110.1100470 384.091200
   5840   5849   5851     1   110.1100470 384.091200
   5840   5849   5853     1   110.1100470 384.091200
   5841   5840   5843     1   110.5600475 386.601600
   5841   5840   5849     1   108.0100461 406.684800
   5841   5840   5842     1   109.7500473 328.025600
   5842   5840   5843     1   110.5600475 386.601600
   5842   5840   5849     1   108.0100461 406.684800
   5843   5846   5847     1   109.5600471 388.275200
   5843   5846   5848     1   109.5600471 388.275200
   5844   5843   5846     1   109.8000471 387.438400
   5844   5843   5845     1   107.5800459 329.699200
   5845   5843   5846     1   109.8000471 387.438400
   5847   5846   5852     1   109.7800468 425.094400
   5847   5846   5848     1   108.4600466 328.025600
   5848   5846   5852     1   109.7800468 425.094400
   5850   5849   5851     1   108.3000464 339.740800
   5850   5849   5853     1   108.3000464 339.740800
   5851   5849   5853     1   108.3000464 339.740800
   5854   5857   5858     1   109.8000471 387.438400
   5854   5857   5859     1   109.8000471 387.438400
   5854   5863   5864     1   110.1100470 384.091200
   5854   5863   5865     1   110.1100470 384.091200
   5854   5863   5867     1   110.1100470 384.091200
   5855   5854   5857     1   110.5600475 386.601600
   5855   5854   5863     1   108.0100461 406.684800
   5855   5854   5856     1   109.7500473 328.025600
   5856   5854   5857     1   110.5600475 386.601600
   5856   5854   5863     1   108.0100461 406.684800
   5857   5860   5861     1   109.5600471 388.275200
   5857   5860   5862     1   109.5600471 388.275200
   5858   5857   5860     1   109.8000471 387.438400
   5858   5857   5859     1   107.5800459 329.699200
   5859   5857   5860     1   109.8000471 387.438400
   5861   5860   5866     1   109.7800468 425.094400
   5861   5860   5862     1   108.4600466 328.025600
   5862   5860   5866     1   109.7800468 425.094400
   5864   5863   5865     1   108.3000464 339.740800
   5864   5863   5867     1   108.3000464 339.740800
   5865   5863   5867     1   108.3000464 339.740800
   5868   5871   5872     1   109.8000471 387.438400
   5868   5871   5873     1   109.8000471 387.438400
   5868   5877   5878     1   110.1100470 384.091200
   5868   5877   5879     1   110.1100470 384.091200
   5868   5877   5881     1   110.1100470 384.091200
   5869   5868   5871     1   110.5600475 386.601600
   5869   5868   5877     1   108.0100461 406.684800
   5869   5868   5870     1   109.7500473 328.025600
   5870   5868   5871     1   110.5600475 386.601600
   5870   5868   5877     1   108.0100461 406.684800
   5871   5874   5875     1   109.5600471 388.275200
   5871   5874   5876     1   109.5600471 388.275200
   5872   5871   5874     1   109.8000471 387.438400
   5872   5871   5873     1   107.5800459 329.699200
   5873   5871   5874     1   109.8000471 387.438400
   5875   5874   5880     1   109.7800468 425.094400
   5875   5874   5876     1   108.4600466 328.025600
   5876   5874   5880     1   109.7800468 425.094400
   5878   5877   5879     1   108.3000464 339.740800
   5878   5877   5881     1   108.3000464 339.740800
   5879   5877   5881     1   108.3000464 339.740800
   5882   5885   5886     1   109.8000471 387.438400
   5882   5885   5887     1   109.8000471 387.438400
   5882   5891   5892     1   110.1100470 384.091200
   5882   5891   5893     1   110.1100470 384.091200
   5882   5891   5895     1   110.1100470 384.091200
   5883   5882   5885     1   110.5600475 386.601600
   5883   5882   5891     1   108.0100461 406.684800
   5883   5882   5884     1   109.7500473 328.025600
   5884   5882   5885     1   110.5600475 386.601600
   5884   5882   5891     1   108.0100461 406.684800
   5885   5888   5889     1   109.5600471 388.275200
   5885   5888   5890     1   109.5600471 388.275200
   5886   5885   5888     1   109.8000471 387.438400
   5886   5885   5887     1   107.5800459 329.699200
   5887   5885   5888     1   109.8000471 387.438400
   5889   5888   5894     1   109.7800468 425.094400
   5889   5888   5890     1   108.4600466 328.025600
   5890   5888   5894     1   109.7800468 425.094400
   5892   5891   5893     1   108.3000464 339.740800
   5892   5891   5895     1   108.3000464 339.740800
   5893   5891   5895     1   108.3000464 339.740800
   5896   5899   5900     1   109.8000471 387.438400
   5896   5899   5901     1   109.8000471 387.438400
   5896   5905   5906     1   110.1100470 384.091200
   5896   5905   5907     1   110.1100470 384.091200
   5896   5905   5909     1   110.1100470 384.091200
   5897   5896   5899     1   110.5600475 386.601600
   5897   5896   5905     1   108.0100461 406.684800
   5897   5896   5898     1   109.7500473 328.025600
   5898   5896   5899     1   110.5600475 386.601600
   5898   5896   5905     1   108.0100461 406.684800
   5899   5902   5903     1   109.5600471 388.275200
   5899   5902   5904     1   109.5600471 388.275200
   5900   5899   5902     1   109.8000471 387.438400
   5900   5899   5901     1   107.5800459 329.699200
   5901   5899   5902     1   109.8000471 387.438400
   5903   5902   5908     1   109.7800468 425.094400
   5903   5902   5904     1   108.4600466 328.025600
   5904   5902   5908     1   109.7800468 425.094400
   5906   5905   5907     1   108.3000464 339.740800
   5906   5905   5909     1   108.3000464 339.740800
   5907   5905   5909     1   108.3000464 339.740800
   5910   5913   5914     1   109.8000471 387.438400
   5910   5913   5915     1   109.8000471 387.438400
   5910   5919   5920     1   110.1100470 384.091200
   5910   5919   5921     1   110.1100470 384.091200
   5910   5919   5923     1   110.1100470 384.091200
   5911   5910   5913     1   110.5600475 386.601600
   5911   5910   5919     1   108.0100461 406.684800
   5911   5910   5912     1   109.7500473 328.025600
   5912   5910   5913     1   110.5600475 386.601600
   5912   5910   5919     1   108.0100461 406.684800
   5913   5916   5917     1   109.5600471 388.275200
   5913   5916   5918     1   109.5600471 388.275200
   5914   5913   5916     1   109.8000471 387.438400
   5914   5913   5915     1   107.5800459 329.699200
   5915   5913   5916     1   109.8000471 387.438400
   5917   5916   5922     1   109.7800468 425.094400
   5917   5916   5918     1   108.4600466 328.025600
   5918   5916   5922     1   109.7800468 425.094400
   5920   5919   5921     1   108.3000464 339.740800
   5920   5919   5923     1   108.3000464 339.740800
   5921   5919   5923     1   108.3000464 339.740800
   5924   5927   5928     1   109.8000471 387.438400
   5924   5927   5929     1   109.8000471 387.438400
   5924   5933   5934     1   110.1100470 384.091200
   5924   5933   5935     1   110.1100470 384.091200
   5924   5933   5937     1   110.1100470 384.091200
   5925   5924   5927     1   110.5600475 386.601600
   5925   5924   5933     1   108.0100461 406.684800
   5925   5924   5926     1   109.7500473 328.025600
   5926   5924   5927     1   110.5600475 386.601600
   5926   5924   5933     1   108.0100461 406.684800
   5927   5930   5931     1   109.5600471 388.275200
   5927   5930   5932     1   109.5600471 388.275200
   5928   5927   5930     1   109.8000471 387.438400
   5928   5927   5929     1   107.5800459 329.699200
   5929   5927   5930     1   109.8000471 387.438400
   5931   5930   5936     1   109.7800468 425.094400
   5931   5930   5932     1   108.4600466 328.025600
   5932   5930   5936     1   109.7800468 425.094400
   5934   5933   5935     1   108.3000464 339.740800
   5934   5933   5937     1   108.3000464 339.740800
   5935   5933   5937     1   108.3000464 339.740800
   5938   5941   5942     1   109.8000471 387.438400
   5938   5941   5943     1   109.8000471 387.438400
   5938   5947   5948     1   110.1100470 384.091200
   5938   5947   5949     1   110.1100470 384.091200
   5938   5947   5951     1   110.1100470 384.091200
   5939   5938   5941     1   110.5600475 386.601600
   5939   5938   5947     1   108.0100461 406.684800
   5939   5938   5940     1   109.7500473 328.025600
   5940   5938   5941     1   110.5600475 386.601600
   5940   5938   5947     1   108.0100461 406.684800
   5941   5944   5945     1   109.5600471 388.275200
   5941   5944   5946     1   109.5600471 388.275200
   5942   5941   5944     1   109.8000471 387.438400
   5942   5941   5943     1   107.5800459 329.699200
   5943   5941   5944     1   109.8000471 387.438400
   5945   5944   5950     1   109.7800468 425.094400
   5945   5944   5946     1   108.4600466 328.025600
   5946   5944   5950     1   109.7800468 425.094400
   5948   5947   5949     1   108.3000464 339.740800
   5948   5947   5951     1   108.3000464 339.740800
   5949   5947   5951     1   108.3000464 339.740800
   5952   5955   5956     1   109.8000471 387.438400
   5952   5955   5957     1   109.8000471 387.438400
   5952   5961   5962     1   110.1100470 384.091200
   5952   5961   5963     1   110.1100470 384.091200
   5952   5961   5965     1   110.1100470 384.091200
   5953   5952   5955     1   110.5600475 386.601600
   5953   5952   5961     1   108.0100461 406.684800
   5953   5952   5954     1   109.7500473 328.025600
   5954   5952   5955     1   110.5600475 386.601600
   5954   5952   5961     1   108.0100461 406.684800
   5955   5958   5959     1   109.5600471 388.275200
   5955   5958   5960     1   109.5600471 388.275200
   5956   5955   5958     1   109.8000471 387.438400
   5956   5955   5957     1   107.5800459 329.699200
   5957   5955   5958     1   109.8000471 387.438400
   5959   5958   5964     1   109.7800468 425.094400
   5959   5958   5960     1   108.4600466 328.025600
   5960   5958   5964     1   109.7800468 425.094400
   5962   5961   5963     1   108.3000464 339.740800
   5962   5961   5965     1   108.3000464 339.740800
   5963   5961   5965     1   108.3000464 339.740800
   5966   5969   5970     1   109.8000471 387.438400
   5966   5969   5971     1   109.8000471 387.438400
   5966   5975   5976     1   110.1100470 384.091200
   5966   5975   5977     1   110.1100470 384.091200
   5966   5975   5979     1   110.1100470 384.091200
   5967   5966   5969     1   110.5600475 386.601600
   5967   5966   5975     1   108.0100461 406.684800
   5967   5966   5968     1   109.7500473 328.025600
   5968   5966   5969     1   110.5600475 386.601600
   5968   5966   5975     1   108.0100461 406.684800
   5969   5972   5973     1   109.5600471 388.275200
   5969   5972   5974     1   109.5600471 388.275200
   5970   5969   5972     1   109.8000471 387.438400
   5970   5969   5971     1   107.5800459 329.699200
   5971   5969   5972     1   109.8000471 387.438400
   5973   5972   5978     1   109.7800468 425.094400
   5973   5972   5974     1   108.4600466 328.025600
   5974   5972   5978     1   109.7800468 425.094400
   5976   5975   5977     1   108.3000464 339.740800
   5976   5975   5979     1   108.3000464 339.740800
   5977   5975   5979     1   108.3000464 339.740800
   5980   5983   5984     1   109.8000471 387.438400
   5980   5983   5985     1   109.8000471 387.438400
   5980   5989   5990     1   110.1100470 384.091200
   5980   5989   5991     1   110.1100470 384.091200
   5980   5989   5993     1   110.1100470 384.091200
   5981   5980   5983     1   110.5600475 386.601600
   5981   5980   5989     1   108.0100461 406.684800
   5981   5980   5982     1   109.7500473 328.025600
   5982   5980   5983     1   110.5600475 386.601600
   5982   5980   5989     1   108.0100461 406.684800
   5983   5986   5987     1   109.5600471 388.275200
   5983   5986   5988     1   109.5600471 388.275200
   5984   5983   5986     1   109.8000471 387.438400
   5984   5983   5985     1   107.5800459 329.699200
   5985   5983   5986     1   109.8000471 387.438400
   5987   5986   5992     1   109.7800468 425.094400
   5987   5986   5988     1   108.4600466 328.025600
   5988   5986   5992     1   109.7800468 425.094400
   5990   5989   5991     1   108.3000464 339.740800
   5990   5989   5993     1   108.3000464 339.740800
   5991   5989   5993     1   108.3000464 339.740800
   5994   5997   5998     1   109.8000471 387.438400
   5994   5997   5999     1   109.8000471 387.438400
   5994   6003   6004     1   110.1100470 384.091200
   5994   6003   6005     1   110.1100470 384.091200
   5994   6003   6007     1   110.1100470 384.091200
   5995   5994   5997     1   110.5600475 386.601600
   5995   5994   6003     1   108.0100461 406.684800
   5995   5994   5996     1   109.7500473 328.025600
   5996   5994   5997     1   110.5600475 386.601600
   5996   5994   6003     1   108.0100461 406.684800
   5997   6000   6001     1   109.5600471 388.275200
   5997   6000   6002     1   109.5600471 388.275200
   5998   5997   6000     1   109.8000471 387.438400
   5998   5997   5999     1   107.5800459 329.699200
   5999   5997   6000     1   109.8000471 387.438400
   6001   6000   6006     1   109.7800468 425.094400
   6001   6000   6002     1   108.4600466 328.025600
   6002   6000   6006     1   109.7800468 425.094400
   6004   6003   6005     1   108.3000464 339.740800
   6004   6003   6007     1   108.3000464 339.740800
   6005   6003   6007     1   108.3000464 339.740800
   6008   6011   6012     1   109.8000471 387.438400
   6008   6011   6013     1   109.8000471 387.438400
   6008   6017   6018     1   110.1100470 384.091200
   6008   6017   6019     1   110.1100470 384.091200
   6008   6017   6021     1   110.1100470 384.091200
   6009   6008   6011     1   110.5600475 386.601600
   6009   6008   6017     1   108.0100461 406.684800
   6009   6008   6010     1   109.7500473 328.025600
   6010   6008   6011     1   110.5600475 386.601600
   6010   6008   6017     1   108.0100461 406.684800
   6011   6014   6015     1   109.5600471 388.275200
   6011   6014   6016     1   109.5600471 388.275200
   6012   6011   6014     1   109.8000471 387.438400
   6012   6011   6013     1   107.5800459 329.699200
   6013   6011   6014     1   109.8000471 387.438400
   6015   6014   6020     1   109.7800468 425.094400
   6015   6014   6016     1   108.4600466 328.025600
   6016   6014   6020     1   109.7800468 425.094400
   6018   6017   6019     1   108.3000464 339.740800
   6018   6017   6021     1   108.3000464 339.740800
   6019   6017   6021     1   108.3000464 339.740800
   6022   6025   6026     1   109.8000471 387.438400
   6022   6025   6027     1   109.8000471 387.438400
   6022   6031   6032     1   110.1100470 384.091200
   6022   6031   6033     1   110.1100470 384.091200
   6022   6031   6035     1   110.1100470 384.091200
   6023   6022   6025     1   110.5600475 386.601600
   6023   6022   6031     1   108.0100461 406.684800
   6023   6022   6024     1   109.7500473 328.025600
   6024   6022   6025     1   110.5600475 386.601600
   6024   6022   6031     1   108.0100461 406.684800
   6025   6028   6029     1   109.5600471 388.275200
   6025   6028   6030     1   109.5600471 388.275200
   6026   6025   6028     1   109.8000471 387.438400
   6026   6025   6027     1   107.5800459 329.699200
   6027   6025   6028     1   109.8000471 387.438400
   6029   6028   6034     1   109.7800468 425.094400
   6029   6028   6030     1   108.4600466 328.025600
   6030   6028   6034     1   109.7800468 425.094400
   6032   6031   6033     1   108.3000464 339.740800
   6032   6031   6035     1   108.3000464 339.740800
   6033   6031   6035     1   108.3000464 339.740800
   6036   6039   6040     1   109.8000471 387.438400
   6036   6039   6041     1   109.8000471 387.438400
   6036   6045   6046     1   110.1100470 384.091200
   6036   6045   6047     1   110.1100470 384.091200
   6036   6045   6049     1   110.1100470 384.091200
   6037   6036   6039     1   110.5600475 386.601600
   6037   6036   6045     1   108.0100461 406.684800
   6037   6036   6038     1   109.7500473 328.025600
   6038   6036   6039     1   110.5600475 386.601600
   6038   6036   6045     1   108.0100461 406.684800
   6039   6042   6043     1   109.5600471 388.275200
   6039   6042   6044     1   109.5600471 388.275200
   6040   6039   6042     1   109.8000471 387.438400
   6040   6039   6041     1   107.5800459 329.699200
   6041   6039   6042     1   109.8000471 387.438400
   6043   6042   6048     1   109.7800468 425.094400
   6043   6042   6044     1   108.4600466 328.025600
   6044   6042   6048     1   109.7800468 425.094400
   6046   6045   6047     1   108.3000464 339.740800
   6046   6045   6049     1   108.3000464 339.740800
   6047   6045   6049     1   108.3000464 339.740800
   6050   6053   6054     1   109.8000471 387.438400
   6050   6053   6055     1   109.8000471 387.438400
   6050   6059   6060     1   110.1100470 384.091200
   6050   6059   6061     1   110.1100470 384.091200
   6050   6059   6063     1   110.1100470 384.091200
   6051   6050   6053     1   110.5600475 386.601600
   6051   6050   6059     1   108.0100461 406.684800
   6051   6050   6052     1   109.7500473 328.025600
   6052   6050   6053     1   110.5600475 386.601600
   6052   6050   6059     1   108.0100461 406.684800
   6053   6056   6057     1   109.5600471 388.275200
   6053   6056   6058     1   109.5600471 388.275200
   6054   6053   6056     1   109.8000471 387.438400
   6054   6053   6055     1   107.5800459 329.699200
   6055   6053   6056     1   109.8000471 387.438400
   6057   6056   6062     1   109.7800468 425.094400
   6057   6056   6058     1   108.4600466 328.025600
   6058   6056   6062     1   109.7800468 425.094400
   6060   6059   6061     1   108.3000464 339.740800
   6060   6059   6063     1   108.3000464 339.740800
   6061   6059   6063     1   108.3000464 339.740800
   6064   6067   6068     1   109.8000471 387.438400
   6064   6067   6069     1   109.8000471 387.438400
   6064   6073   6074     1   110.1100470 384.091200
   6064   6073   6075     1   110.1100470 384.091200
   6064   6073   6077     1   110.1100470 384.091200
   6065   6064   6067     1   110.5600475 386.601600
   6065   6064   6073     1   108.0100461 406.684800
   6065   6064   6066     1   109.7500473 328.025600
   6066   6064   6067     1   110.5600475 386.601600
   6066   6064   6073     1   108.0100461 406.684800
   6067   6070   6071     1   109.5600471 388.275200
   6067   6070   6072     1   109.5600471 388.275200
   6068   6067   6070     1   109.8000471 387.438400
   6068   6067   6069     1   107.5800459 329.699200
   6069   6067   6070     1   109.8000471 387.438400
   6071   6070   6076     1   109.7800468 425.094400
   6071   6070   6072     1   108.4600466 328.025600
   6072   6070   6076     1   109.7800468 425.094400
   6074   6073   6075     1   108.3000464 339.740800
   6074   6073   6077     1   108.3000464 339.740800
   6075   6073   6077     1   108.3000464 339.740800
   6078   6081   6082     1   109.8000471 387.438400
   6078   6081   6083     1   109.8000471 387.438400
   6078   6087   6088     1   110.1100470 384.091200
   6078   6087   6089     1   110.1100470 384.091200
   6078   6087   6091     1   110.1100470 384.091200
   6079   6078   6081     1   110.5600475 386.601600
   6079   6078   6087     1   108.0100461 406.684800
   6079   6078   6080     1   109.7500473 328.025600
   6080   6078   6081     1   110.5600475 386.601600
   6080   6078   6087     1   108.0100461 406.684800
   6081   6084   6085     1   109.5600471 388.275200
   6081   6084   6086     1   109.5600471 388.275200
   6082   6081   6084     1   109.8000471 387.438400
   6082   6081   6083     1   107.5800459 329.699200
   6083   6081   6084     1   109.8000471 387.438400
   6085   6084   6090     1   109.7800468 425.094400
   6085   6084   6086     1   108.4600466 328.025600
   6086   6084   6090     1   109.7800468 425.094400
   6088   6087   6089     1   108.3000464 339.740800
   6088   6087   6091     1   108.3000464 339.740800
   6089   6087   6091     1   108.3000464 339.740800
   6092   6095   6096     1   109.8000471 387.438400
   6092   6095   6097     1   109.8000471 387.438400
   6092   6101   6102     1   110.1100470 384.091200
   6092   6101   6103     1   110.1100470 384.091200
   6092   6101   6105     1   110.1100470 384.091200
   6093   6092   6095     1   110.5600475 386.601600
   6093   6092   6101     1   108.0100461 406.684800
   6093   6092   6094     1   109.7500473 328.025600
   6094   6092   6095     1   110.5600475 386.601600
   6094   6092   6101     1   108.0100461 406.684800
   6095   6098   6099     1   109.5600471 388.275200
   6095   6098   6100     1   109.5600471 388.275200
   6096   6095   6098     1   109.8000471 387.438400
   6096   6095   6097     1   107.5800459 329.699200
   6097   6095   6098     1   109.8000471 387.438400
   6099   6098   6104     1   109.7800468 425.094400
   6099   6098   6100     1   108.4600466 328.025600
   6100   6098   6104     1   109.7800468 425.094400
   6102   6101   6103     1   108.3000464 339.740800
   6102   6101   6105     1   108.3000464 339.740800
   6103   6101   6105     1   108.3000464 339.740800
   6106   6109   6110     1   109.8000471 387.438400
   6106   6109   6111     1   109.8000471 387.438400
   6106   6115   6116     1   110.1100470 384.091200
   6106   6115   6117     1   110.1100470 384.091200
   6106   6115   6119     1   110.1100470 384.091200
   6107   6106   6109     1   110.5600475 386.601600
   6107   6106   6115     1   108.0100461 406.684800
   6107   6106   6108     1   109.7500473 328.025600
   6108   6106   6109     1   110.5600475 386.601600
   6108   6106   6115     1   108.0100461 406.684800
   6109   6112   6113     1   109.5600471 388.275200
   6109   6112   6114     1   109.5600471 388.275200
   6110   6109   6112     1   109.8000471 387.438400
   6110   6109   6111     1   107.5800459 329.699200
   6111   6109   6112     1   109.8000471 387.438400
   6113   6112   6118     1   109.7800468 425.094400
   6113   6112   6114     1   108.4600466 328.025600
   6114   6112   6118     1   109.7800468 425.094400
   6116   6115   6117     1   108.3000464 339.740800
   6116   6115   6119     1   108.3000464 339.740800
   6117   6115   6119     1   108.3000464 339.740800
   6120   6123   6124     1   109.8000471 387.438400
   6120   6123   6125     1   109.8000471 387.438400
   6120   6129   6130     1   110.1100470 384.091200
   6120   6129   6131     1   110.1100470 384.091200
   6120   6129   6133     1   110.1100470 384.091200
   6121   6120   6123     1   110.5600475 386.601600
   6121   6120   6129     1   108.0100461 406.684800
   6121   6120   6122     1   109.7500473 328.025600
   6122   6120   6123     1   110.5600475 386.601600
   6122   6120   6129     1   108.0100461 406.684800
   6123   6126   6127     1   109.5600471 388.275200
   6123   6126   6128     1   109.5600471 388.275200
   6124   6123   6126     1   109.8000471 387.438400
   6124   6123   6125     1   107.5800459 329.699200
   6125   6123   6126     1   109.8000471 387.438400
   6127   6126   6132     1   109.7800468 425.094400
   6127   6126   6128     1   108.4600466 328.025600
   6128   6126   6132     1   109.7800468 425.094400
   6130   6129   6131     1   108.3000464 339.740800
   6130   6129   6133     1   108.3000464 339.740800
   6131   6129   6133     1   108.3000464 339.740800
   6134   6137   6138     1   109.8000471 387.438400
   6134   6137   6139     1   109.8000471 387.438400
   6134   6143   6144     1   110.1100470 384.091200
   6134   6143   6145     1   110.1100470 384.091200
   6134   6143   6147     1   110.1100470 384.091200
   6135   6134   6137     1   110.5600475 386.601600
   6135   6134   6143     1   108.0100461 406.684800
   6135   6134   6136     1   109.7500473 328.025600
   6136   6134   6137     1   110.5600475 386.601600
   6136   6134   6143     1   108.0100461 406.684800
   6137   6140   6141     1   109.5600471 388.275200
   6137   6140   6142     1   109.5600471 388.275200
   6138   6137   6140     1   109.8000471 387.438400
   6138   6137   6139     1   107.5800459 329.699200
   6139   6137   6140     1   109.8000471 387.438400
   6141   6140   6146     1   109.7800468 425.094400
   6141   6140   6142     1   108.4600466 328.025600
   6142   6140   6146     1   109.7800468 425.094400
   6144   6143   6145     1   108.3000464 339.740800
   6144   6143   6147     1   108.3000464 339.740800
   6145   6143   6147     1   108.3000464 339.740800
   6148   6151   6152     1   109.8000471 387.438400
   6148   6151   6153     1   109.8000471 387.438400
   6148   6157   6158     1   110.1100470 384.091200
   6148   6157   6159     1   110.1100470 384.091200
   6148   6157   6161     1   110.1100470 384.091200
   6149   6148   6151     1   110.5600475 386.601600
   6149   6148   6157     1   108.0100461 406.684800
   6149   6148   6150     1   109.7500473 328.025600
   6150   6148   6151     1   110.5600475 386.601600
   6150   6148   6157     1   108.0100461 406.684800
   6151   6154   6155     1   109.5600471 388.275200
   6151   6154   6156     1   109.5600471 388.275200
   6152   6151   6154     1   109.8000471 387.438400
   6152   6151   6153     1   107.5800459 329.699200
   6153   6151   6154     1   109.8000471 387.438400
   6155   6154   6160     1   109.7800468 425.094400
   6155   6154   6156     1   108.4600466 328.025600
   6156   6154   6160     1   109.7800468 425.094400
   6158   6157   6159     1   108.3000464 339.740800
   6158   6157   6161     1   108.3000464 339.740800
   6159   6157   6161     1   108.3000464 339.740800
   6162   6165   6166     1   109.8000471 387.438400
   6162   6165   6167     1   109.8000471 387.438400
   6162   6171   6172     1   110.1100470 384.091200
   6162   6171   6173     1   110.1100470 384.091200
   6162   6171   6175     1   110.1100470 384.091200
   6163   6162   6165     1   110.5600475 386.601600
   6163   6162   6171     1   108.0100461 406.684800
   6163   6162   6164     1   109.7500473 328.025600
   6164   6162   6165     1   110.5600475 386.601600
   6164   6162   6171     1   108.0100461 406.684800
   6165   6168   6169     1   109.5600471 388.275200
   6165   6168   6170     1   109.5600471 388.275200
   6166   6165   6168     1   109.8000471 387.438400
   6166   6165   6167     1   107.5800459 329.699200
   6167   6165   6168     1   109.8000471 387.438400
   6169   6168   6174     1   109.7800468 425.094400
   6169   6168   6170     1   108.4600466 328.025600
   6170   6168   6174     1   109.7800468 425.094400
   6172   6171   6173     1   108.3000464 339.740800
   6172   6171   6175     1   108.3000464 339.740800
   6173   6171   6175     1   108.3000464 339.740800
   6176   6179   6180     1   109.8000471 387.438400
   6176   6179   6181     1   109.8000471 387.438400
   6176   6185   6186     1   110.1100470 384.091200
   6176   6185   6187     1   110.1100470 384.091200
   6176   6185   6189     1   110.1100470 384.091200
   6177   6176   6179     1   110.5600475 386.601600
   6177   6176   6185     1   108.0100461 406.684800
   6177   6176   6178     1   109.7500473 328.025600
   6178   6176   6179     1   110.5600475 386.601600
   6178   6176   6185     1   108.0100461 406.684800
   6179   6182   6183     1   109.5600471 388.275200
   6179   6182   6184     1   109.5600471 388.275200
   6180   6179   6182     1   109.8000471 387.438400
   6180   6179   6181     1   107.5800459 329.699200
   6181   6179   6182     1   109.8000471 387.438400
   6183   6182   6188     1   109.7800468 425.094400
   6183   6182   6184     1   108.4600466 328.025600
   6184   6182   6188     1   109.7800468 425.094400
   6186   6185   6187     1   108.3000464 339.740800
   6186   6185   6189     1   108.3000464 339.740800
   6187   6185   6189     1   108.3000464 339.740800
   6190   6193   6194     1   109.8000471 387.438400
   6190   6193   6195     1   109.8000471 387.438400
   6190   6199   6200     1   110.1100470 384.091200
   6190   6199   6201     1   110.1100470 384.091200
   6190   6199   6203     1   110.1100470 384.091200
   6191   6190   6193     1   110.5600475 386.601600
   6191   6190   6199     1   108.0100461 406.684800
   6191   6190   6192     1   109.7500473 328.025600
   6192   6190   6193     1   110.5600475 386.601600
   6192   6190   6199     1   108.0100461 406.684800
   6193   6196   6197     1   109.5600471 388.275200
   6193   6196   6198     1   109.5600471 388.275200
   6194   6193   6196     1   109.8000471 387.438400
   6194   6193   6195     1   107.5800459 329.699200
   6195   6193   6196     1   109.8000471 387.438400
   6197   6196   6202     1   109.7800468 425.094400
   6197   6196   6198     1   108.4600466 328.025600
   6198   6196   6202     1   109.7800468 425.094400
   6200   6199   6201     1   108.3000464 339.740800
   6200   6199   6203     1   108.3000464 339.740800
   6201   6199   6203     1   108.3000464 339.740800
   6204   6207   6208     1   109.8000471 387.438400
   6204   6207   6209     1   109.8000471 387.438400
   6204   6213   6214     1   110.1100470 384.091200
   6204   6213   6215     1   110.1100470 384.091200
   6204   6213   6217     1   110.1100470 384.091200
   6205   6204   6207     1   110.5600475 386.601600
   6205   6204   6213     1   108.0100461 406.684800
   6205   6204   6206     1   109.7500473 328.025600
   6206   6204   6207     1   110.5600475 386.601600
   6206   6204   6213     1   108.0100461 406.684800
   6207   6210   6211     1   109.5600471 388.275200
   6207   6210   6212     1   109.5600471 388.275200
   6208   6207   6210     1   109.8000471 387.438400
   6208   6207   6209     1   107.5800459 329.699200
   6209   6207   6210     1   109.8000471 387.438400
   6211   6210   6216     1   109.7800468 425.094400
   6211   6210   6212     1   108.4600466 328.025600
   6212   6210   6216     1   109.7800468 425.094400
   6214   6213   6215     1   108.3000464 339.740800
   6214   6213   6217     1   108.3000464 339.740800
   6215   6213   6217     1   108.3000464 339.740800
   6218   6221   6222     1   109.8000471 387.438400
   6218   6221   6223     1   109.8000471 387.438400
   6218   6227   6228     1   110.1100470 384.091200
   6218   6227   6229     1   110.1100470 384.091200
   6218   6227   6231     1   110.1100470 384.091200
   6219   6218   6221     1   110.5600475 386.601600
   6219   6218   6227     1   108.0100461 406.684800
   6219   6218   6220     1   109.7500473 328.025600
   6220   6218   6221     1   110.5600475 386.601600
   6220   6218   6227     1   108.0100461 406.684800
   6221   6224   6225     1   109.5600471 388.275200
   6221   6224   6226     1   109.5600471 388.275200
   6222   6221   6224     1   109.8000471 387.438400
   6222   6221   6223     1   107.5800459 329.699200
   6223   6221   6224     1   109.8000471 387.438400
   6225   6224   6230     1   109.7800468 425.094400
   6225   6224   6226     1   108.4600466 328.025600
   6226   6224   6230     1   109.7800468 425.094400
   6228   6227   6229     1   108.3000464 339.740800
   6228   6227   6231     1   108.3000464 339.740800
   6229   6227   6231     1   108.3000464 339.740800
   6232   6235   6236     1   109.8000471 387.438400
   6232   6235   6237     1   109.8000471 387.438400
   6232   6241   6242     1   110.1100470 384.091200
   6232   6241   6243     1   110.1100470 384.091200
   6232   6241   6245     1   110.1100470 384.091200
   6233   6232   6235     1   110.5600475 386.601600
   6233   6232   6241     1   108.0100461 406.684800
   6233   6232   6234     1   109.7500473 328.025600
   6234   6232   6235     1   110.5600475 386.601600
   6234   6232   6241     1   108.0100461 406.684800
   6235   6238   6239     1   109.5600471 388.275200
   6235   6238   6240     1   109.5600471 388.275200
   6236   6235   6238     1   109.8000471 387.438400
   6236   6235   6237     1   107.5800459 329.699200
   6237   6235   6238     1   109.8000471 387.438400
   6239   6238   6244     1   109.7800468 425.094400
   6239   6238   6240     1   108.4600466 328.025600
   6240   6238   6244     1   109.7800468 425.094400
   6242   6241   6243     1   108.3000464 339.740800
   6242   6241   6245     1   108.3000464 339.740800
   6243   6241   6245     1   108.3000464 339.740800
   6246   6249   6250     1   109.8000471 387.438400
   6246   6249   6251     1   109.8000471 387.438400
   6246   6255   6256     1   110.1100470 384.091200
   6246   6255   6257     1   110.1100470 384.091200
   6246   6255   6259     1   110.1100470 384.091200
   6247   6246   6249     1   110.5600475 386.601600
   6247   6246   6255     1   108.0100461 406.684800
   6247   6246   6248     1   109.7500473 328.025600
   6248   6246   6249     1   110.5600475 386.601600
   6248   6246   6255     1   108.0100461 406.684800
   6249   6252   6253     1   109.5600471 388.275200
   6249   6252   6254     1   109.5600471 388.275200
   6250   6249   6252     1   109.8000471 387.438400
   6250   6249   6251     1   107.5800459 329.699200
   6251   6249   6252     1   109.8000471 387.438400
   6253   6252   6258     1   109.7800468 425.094400
   6253   6252   6254     1   108.4600466 328.025600
   6254   6252   6258     1   109.7800468 425.094400
   6256   6255   6257     1   108.3000464 339.740800
   6256   6255   6259     1   108.3000464 339.740800
   6257   6255   6259     1   108.3000464 339.740800
   6260   6263   6264     1   109.8000471 387.438400
   6260   6263   6265     1   109.8000471 387.438400
   6260   6269   6270     1   110.1100470 384.091200
   6260   6269   6271     1   110.1100470 384.091200
   6260   6269   6273     1   110.1100470 384.091200
   6261   6260   6263     1   110.5600475 386.601600
   6261   6260   6269     1   108.0100461 406.684800
   6261   6260   6262     1   109.7500473 328.025600
   6262   6260   6263     1   110.5600475 386.601600
   6262   6260   6269     1   108.0100461 406.684800
   6263   6266   6267     1   109.5600471 388.275200
   6263   6266   6268     1   109.5600471 388.275200
   6264   6263   6266     1   109.8000471 387.438400
   6264   6263   6265     1   107.5800459 329.699200
   6265   6263   6266     1   109.8000471 387.438400
   6267   6266   6272     1   109.7800468 425.094400
   6267   6266   6268     1   108.4600466 328.025600
   6268   6266   6272     1   109.7800468 425.094400
   6270   6269   6271     1   108.3000464 339.740800
   6270   6269   6273     1   108.3000464 339.740800
   6271   6269   6273     1   108.3000464 339.740800
   6274   6277   6278     1   109.8000471 387.438400
   6274   6277   6279     1   109.8000471 387.438400
   6274   6283   6284     1   110.1100470 384.091200
   6274   6283   6285     1   110.1100470 384.091200
   6274   6283   6287     1   110.1100470 384.091200
   6275   6274   6277     1   110.5600475 386.601600
   6275   6274   6283     1   108.0100461 406.684800
   6275   6274   6276     1   109.7500473 328.025600
   6276   6274   6277     1   110.5600475 386.601600
   6276   6274   6283     1   108.0100461 406.684800
   6277   6280   6281     1   109.5600471 388.275200
   6277   6280   6282     1   109.5600471 388.275200
   6278   6277   6280     1   109.8000471 387.438400
   6278   6277   6279     1   107.5800459 329.699200
   6279   6277   6280     1   109.8000471 387.438400
   6281   6280   6286     1   109.7800468 425.094400
   6281   6280   6282     1   108.4600466 328.025600
   6282   6280   6286     1   109.7800468 425.094400
   6284   6283   6285     1   108.3000464 339.740800
   6284   6283   6287     1   108.3000464 339.740800
   6285   6283   6287     1   108.3000464 339.740800
   6288   6291   6292     1   109.8000471 387.438400
   6288   6291   6293     1   109.8000471 387.438400
   6288   6297   6298     1   110.1100470 384.091200
   6288   6297   6299     1   110.1100470 384.091200
   6288   6297   6301     1   110.1100470 384.091200
   6289   6288   6291     1   110.5600475 386.601600
   6289   6288   6297     1   108.0100461 406.684800
   6289   6288   6290     1   109.7500473 328.025600
   6290   6288   6291     1   110.5600475 386.601600
   6290   6288   6297     1   108.0100461 406.684800
   6291   6294   6295     1   109.5600471 388.275200
   6291   6294   6296     1   109.5600471 388.275200
   6292   6291   6294     1   109.8000471 387.438400
   6292   6291   6293     1   107.5800459 329.699200
   6293   6291   6294     1   109.8000471 387.438400
   6295   6294   6300     1   109.7800468 425.094400
   6295   6294   6296     1   108.4600466 328.025600
   6296   6294   6300     1   109.7800468 425.094400
   6298   6297   6299     1   108.3000464 339.740800
   6298   6297   6301     1   108.3000464 339.740800
   6299   6297   6301     1   108.3000464 339.740800
   6302   6305   6306     1   109.8000471 387.438400
   6302   6305   6307     1   109.8000471 387.438400
   6302   6311   6312     1   110.1100470 384.091200
   6302   6311   6313     1   110.1100470 384.091200
   6302   6311   6315     1   110.1100470 384.091200
   6303   6302   6305     1   110.5600475 386.601600
   6303   6302   6311     1   108.0100461 406.684800
   6303   6302   6304     1   109.7500473 328.025600
   6304   6302   6305     1   110.5600475 386.601600
   6304   6302   6311     1   108.0100461 406.684800
   6305   6308   6309     1   109.5600471 388.275200
   6305   6308   6310     1   109.5600471 388.275200
   6306   6305   6308     1   109.8000471 387.438400
   6306   6305   6307     1   107.5800459 329.699200
   6307   6305   6308     1   109.8000471 387.438400
   6309   6308   6314     1   109.7800468 425.094400
   6309   6308   6310     1   108.4600466 328.025600
   6310   6308   6314     1   109.7800468 425.094400
   6312   6311   6313     1   108.3000464 339.740800
   6312   6311   6315     1   108.3000464 339.740800
   6313   6311   6315     1   108.3000464 339.740800
   6316   6319   6320     1   109.8000471 387.438400
   6316   6319   6321     1   109.8000471 387.438400
   6316   6325   6326     1   110.1100470 384.091200
   6316   6325   6327     1   110.1100470 384.091200
   6316   6325   6329     1   110.1100470 384.091200
   6317   6316   6319     1   110.5600475 386.601600
   6317   6316   6325     1   108.0100461 406.684800
   6317   6316   6318     1   109.7500473 328.025600
   6318   6316   6319     1   110.5600475 386.601600
   6318   6316   6325     1   108.0100461 406.684800
   6319   6322   6323     1   109.5600471 388.275200
   6319   6322   6324     1   109.5600471 388.275200
   6320   6319   6322     1   109.8000471 387.438400
   6320   6319   6321     1   107.5800459 329.699200
   6321   6319   6322     1   109.8000471 387.438400
   6323   6322   6328     1   109.7800468 425.094400
   6323   6322   6324     1   108.4600466 328.025600
   6324   6322   6328     1   109.7800468 425.094400
   6326   6325   6327     1   108.3000464 339.740800
   6326   6325   6329     1   108.3000464 339.740800
   6327   6325   6329     1   108.3000464 339.740800
   6330   6333   6334     1   109.8000471 387.438400
   6330   6333   6335     1   109.8000471 387.438400
   6330   6339   6340     1   110.1100470 384.091200
   6330   6339   6341     1   110.1100470 384.091200
   6330   6339   6343     1   110.1100470 384.091200
   6331   6330   6333     1   110.5600475 386.601600
   6331   6330   6339     1   108.0100461 406.684800
   6331   6330   6332     1   109.7500473 328.025600
   6332   6330   6333     1   110.5600475 386.601600
   6332   6330   6339     1   108.0100461 406.684800
   6333   6336   6337     1   109.5600471 388.275200
   6333   6336   6338     1   109.5600471 388.275200
   6334   6333   6336     1   109.8000471 387.438400
   6334   6333   6335     1   107.5800459 329.699200
   6335   6333   6336     1   109.8000471 387.438400
   6337   6336   6342     1   109.7800468 425.094400
   6337   6336   6338     1   108.4600466 328.025600
   6338   6336   6342     1   109.7800468 425.094400
   6340   6339   6341     1   108.3000464 339.740800
   6340   6339   6343     1   108.3000464 339.740800
   6341   6339   6343     1   108.3000464 339.740800
   6344   6347   6348     1   109.8000471 387.438400
   6344   6347   6349     1   109.8000471 387.438400
   6344   6353   6354     1   110.1100470 384.091200
   6344   6353   6355     1   110.1100470 384.091200
   6344   6353   6357     1   110.1100470 384.091200
   6345   6344   6347     1   110.5600475 386.601600
   6345   6344   6353     1   108.0100461 406.684800
   6345   6344   6346     1   109.7500473 328.025600
   6346   6344   6347     1   110.5600475 386.601600
   6346   6344   6353     1   108.0100461 406.684800
   6347   6350   6351     1   109.5600471 388.275200
   6347   6350   6352     1   109.5600471 388.275200
   6348   6347   6350     1   109.8000471 387.438400
   6348   6347   6349     1   107.5800459 329.699200
   6349   6347   6350     1   109.8000471 387.438400
   6351   6350   6356     1   109.7800468 425.094400
   6351   6350   6352     1   108.4600466 328.025600
   6352   6350   6356     1   109.7800468 425.094400
   6354   6353   6355     1   108.3000464 339.740800
   6354   6353   6357     1   108.3000464 339.740800
   6355   6353   6357     1   108.3000464 339.740800
   6358   6361   6362     1   109.8000471 387.438400
   6358   6361   6363     1   109.8000471 387.438400
   6358   6367   6368     1   110.1100470 384.091200
   6358   6367   6369     1   110.1100470 384.091200
   6358   6367   6371     1   110.1100470 384.091200
   6359   6358   6361     1   110.5600475 386.601600
   6359   6358   6367     1   108.0100461 406.684800
   6359   6358   6360     1   109.7500473 328.025600
   6360   6358   6361     1   110.5600475 386.601600
   6360   6358   6367     1   108.0100461 406.684800
   6361   6364   6365     1   109.5600471 388.275200
   6361   6364   6366     1   109.5600471 388.275200
   6362   6361   6364     1   109.8000471 387.438400
   6362   6361   6363     1   107.5800459 329.699200
   6363   6361   6364     1   109.8000471 387.438400
   6365   6364   6370     1   109.7800468 425.094400
   6365   6364   6366     1   108.4600466 328.025600
   6366   6364   6370     1   109.7800468 425.094400
   6368   6367   6369     1   108.3000464 339.740800
   6368   6367   6371     1   108.3000464 339.740800
   6369   6367   6371     1   108.3000464 339.740800
   6372   6375   6376     1   109.8000471 387.438400
   6372   6375   6377     1   109.8000471 387.438400
   6372   6381   6382     1   110.1100470 384.091200
   6372   6381   6383     1   110.1100470 384.091200
   6372   6381   6385     1   110.1100470 384.091200
   6373   6372   6375     1   110.5600475 386.601600
   6373   6372   6381     1   108.0100461 406.684800
   6373   6372   6374     1   109.7500473 328.025600
   6374   6372   6375     1   110.5600475 386.601600
   6374   6372   6381     1   108.0100461 406.684800
   6375   6378   6379     1   109.5600471 388.275200
   6375   6378   6380     1   109.5600471 388.275200
   6376   6375   6378     1   109.8000471 387.438400
   6376   6375   6377     1   107.5800459 329.699200
   6377   6375   6378     1   109.8000471 387.438400
   6379   6378   6384     1   109.7800468 425.094400
   6379   6378   6380     1   108.4600466 328.025600
   6380   6378   6384     1   109.7800468 425.094400
   6382   6381   6383     1   108.3000464 339.740800
   6382   6381   6385     1   108.3000464 339.740800
   6383   6381   6385     1   108.3000464 339.740800
   6386   6389   6390     1   109.8000471 387.438400
   6386   6389   6391     1   109.8000471 387.438400
   6386   6395   6396     1   110.1100470 384.091200
   6386   6395   6397     1   110.1100470 384.091200
   6386   6395   6399     1   110.1100470 384.091200
   6387   6386   6389     1   110.5600475 386.601600
   6387   6386   6395     1   108.0100461 406.684800
   6387   6386   6388     1   109.7500473 328.025600
   6388   6386   6389     1   110.5600475 386.601600
   6388   6386   6395     1   108.0100461 406.684800
   6389   6392   6393     1   109.5600471 388.275200
   6389   6392   6394     1   109.5600471 388.275200
   6390   6389   6392     1   109.8000471 387.438400
   6390   6389   6391     1   107.5800459 329.699200
   6391   6389   6392     1   109.8000471 387.438400
   6393   6392   6398     1   109.7800468 425.094400
   6393   6392   6394     1   108.4600466 328.025600
   6394   6392   6398     1   109.7800468 425.094400
   6396   6395   6397     1   108.3000464 339.740800
   6396   6395   6399     1   108.3000464 339.740800
   6397   6395   6399     1   108.3000464 339.740800
   6400   6403   6404     1   109.8000471 387.438400
   6400   6403   6405     1   109.8000471 387.438400
   6400   6409   6410     1   110.1100470 384.091200
   6400   6409   6411     1   110.1100470 384.091200
   6400   6409   6413     1   110.1100470 384.091200
   6401   6400   6403     1   110.5600475 386.601600
   6401   6400   6409     1   108.0100461 406.684800
   6401   6400   6402     1   109.7500473 328.025600
   6402   6400   6403     1   110.5600475 386.601600
   6402   6400   6409     1   108.0100461 406.684800
   6403   6406   6407     1   109.5600471 388.275200
   6403   6406   6408     1   109.5600471 388.275200
   6404   6403   6406     1   109.8000471 387.438400
   6404   6403   6405     1   107.5800459 329.699200
   6405   6403   6406     1   109.8000471 387.438400
   6407   6406   6412     1   109.7800468 425.094400
   6407   6406   6408     1   108.4600466 328.025600
   6408   6406   6412     1   109.7800468 425.094400
   6410   6409   6411     1   108.3000464 339.740800
   6410   6409   6413     1   108.3000464 339.740800
   6411   6409   6413     1   108.3000464 339.740800
   6414   6417   6418     1   109.8000471 387.438400
   6414   6417   6419     1   109.8000471 387.438400
   6414   6423   6424     1   110.1100470 384.091200
   6414   6423   6425     1   110.1100470 384.091200
   6414   6423   6427     1   110.1100470 384.091200
   6415   6414   6417     1   110.5600475 386.601600
   6415   6414   6423     1   108.0100461 406.684800
   6415   6414   6416     1   109.7500473 328.025600
   6416   6414   6417     1   110.5600475 386.601600
   6416   6414   6423     1   108.0100461 406.684800
   6417   6420   6421     1   109.5600471 388.275200
   6417   6420   6422     1   109.5600471 388.275200
   6418   6417   6420     1   109.8000471 387.438400
   6418   6417   6419     1   107.5800459 329.699200
   6419   6417   6420     1   109.8000471 387.438400
   6421   6420   6426     1   109.7800468 425.094400
   6421   6420   6422     1   108.4600466 328.025600
   6422   6420   6426     1   109.7800468 425.094400
   6424   6423   6425     1   108.3000464 339.740800
   6424   6423   6427     1   108.3000464 339.740800
   6425   6423   6427     1   108.3000464 339.740800
   6428   6431   6432     1   109.8000471 387.438400
   6428   6431   6433     1   109.8000471 387.438400
   6428   6437   6438     1   110.1100470 384.091200
   6428   6437   6439     1   110.1100470 384.091200
   6428   6437   6441     1   110.1100470 384.091200
   6429   6428   6431     1   110.5600475 386.601600
   6429   6428   6437     1   108.0100461 406.684800
   6429   6428   6430     1   109.7500473 328.025600
   6430   6428   6431     1   110.5600475 386.601600
   6430   6428   6437     1   108.0100461 406.684800
   6431   6434   6435     1   109.5600471 388.275200
   6431   6434   6436     1   109.5600471 388.275200
   6432   6431   6434     1   109.8000471 387.438400
   6432   6431   6433     1   107.5800459 329.699200
   6433   6431   6434     1   109.8000471 387.438400
   6435   6434   6440     1   109.7800468 425.094400
   6435   6434   6436     1   108.4600466 328.025600
   6436   6434   6440     1   109.7800468 425.094400
   6438   6437   6439     1   108.3000464 339.740800
   6438   6437   6441     1   108.3000464 339.740800
   6439   6437   6441     1   108.3000464 339.740800
   6442   6445   6446     1   109.8000471 387.438400
   6442   6445   6447     1   109.8000471 387.438400
   6442   6451   6452     1   110.1100470 384.091200
   6442   6451   6453     1   110.1100470 384.091200
   6442   6451   6455     1   110.1100470 384.091200
   6443   6442   6445     1   110.5600475 386.601600
   6443   6442   6451     1   108.0100461 406.684800
   6443   6442   6444     1   109.7500473 328.025600
   6444   6442   6445     1   110.5600475 386.601600
   6444   6442   6451     1   108.0100461 406.684800
   6445   6448   6449     1   109.5600471 388.275200
   6445   6448   6450     1   109.5600471 388.275200
   6446   6445   6448     1   109.8000471 387.438400
   6446   6445   6447     1   107.5800459 329.699200
   6447   6445   6448     1   109.8000471 387.438400
   6449   6448   6454     1   109.7800468 425.094400
   6449   6448   6450     1   108.4600466 328.025600
   6450   6448   6454     1   109.7800468 425.094400
   6452   6451   6453     1   108.3000464 339.740800
   6452   6451   6455     1   108.3000464 339.740800
   6453   6451   6455     1   108.3000464 339.740800
   6456   6459   6460     1   109.8000471 387.438400
   6456   6459   6461     1   109.8000471 387.438400
   6456   6465   6466     1   110.1100470 384.091200
   6456   6465   6467     1   110.1100470 384.091200
   6456   6465   6469     1   110.1100470 384.091200
   6457   6456   6459     1   110.5600475 386.601600
   6457   6456   6465     1   108.0100461 406.684800
   6457   6456   6458     1   109.7500473 328.025600
   6458   6456   6459     1   110.5600475 386.601600
   6458   6456   6465     1   108.0100461 406.684800
   6459   6462   6463     1   109.5600471 388.275200
   6459   6462   6464     1   109.5600471 388.275200
   6460   6459   6462     1   109.8000471 387.438400
   6460   6459   6461     1   107.5800459 329.699200
   6461   6459   6462     1   109.8000471 387.438400
   6463   6462   6468     1   109.7800468 425.094400
   6463   6462   6464     1   108.4600466 328.025600
   6464   6462   6468     1   109.7800468 425.094400
   6466   6465   6467     1   108.3000464 339.740800
   6466   6465   6469     1   108.3000464 339.740800
   6467   6465   6469     1   108.3000464 339.740800
   6470   6473   6474     1   109.8000471 387.438400
   6470   6473   6475     1   109.8000471 387.438400
   6470   6479   6480     1   110.1100470 384.091200
   6470   6479   6481     1   110.1100470 384.091200
   6470   6479   6483     1   110.1100470 384.091200
   6471   6470   6473     1   110.5600475 386.601600
   6471   6470   6479     1   108.0100461 406.684800
   6471   6470   6472     1   109.7500473 328.025600
   6472   6470   6473     1   110.5600475 386.601600
   6472   6470   6479     1   108.0100461 406.684800
   6473   6476   6477     1   109.5600471 388.275200
   6473   6476   6478     1   109.5600471 388.275200
   6474   6473   6476     1   109.8000471 387.438400
   6474   6473   6475     1   107.5800459 329.699200
   6475   6473   6476     1   109.8000471 387.438400
   6477   6476   6482     1   109.7800468 425.094400
   6477   6476   6478     1   108.4600466 328.025600
   6478   6476   6482     1   109.7800468 425.094400
   6480   6479   6481     1   108.3000464 339.740800
   6480   6479   6483     1   108.3000464 339.740800
   6481   6479   6483     1   108.3000464 339.740800
   6484   6487   6488     1   109.8000471 387.438400
   6484   6487   6489     1   109.8000471 387.438400
   6484   6493   6494     1   110.1100470 384.091200
   6484   6493   6495     1   110.1100470 384.091200
   6484   6493   6497     1   110.1100470 384.091200
   6485   6484   6487     1   110.5600475 386.601600
   6485   6484   6493     1   108.0100461 406.684800
   6485   6484   6486     1   109.7500473 328.025600
   6486   6484   6487     1   110.5600475 386.601600
   6486   6484   6493     1   108.0100461 406.684800
   6487   6490   6491     1   109.5600471 388.275200
   6487   6490   6492     1   109.5600471 388.275200
   6488   6487   6490     1   109.8000471 387.438400
   6488   6487   6489     1   107.5800459 329.699200
   6489   6487   6490     1   109.8000471 387.438400
   6491   6490   6496     1   109.7800468 425.094400
   6491   6490   6492     1   108.4600466 328.025600
   6492   6490   6496     1   109.7800468 425.094400
   6494   6493   6495     1   108.3000464 339.740800
   6494   6493   6497     1   108.3000464 339.740800
   6495   6493   6497     1   108.3000464 339.740800
   6498   6501   6502     1   109.8000471 387.438400
   6498   6501   6503     1   109.8000471 387.438400
   6498   6507   6508     1   110.1100470 384.091200
   6498   6507   6509     1   110.1100470 384.091200
   6498   6507   6511     1   110.1100470 384.091200
   6499   6498   6501     1   110.5600475 386.601600
   6499   6498   6507     1   108.0100461 406.684800
   6499   6498   6500     1   109.7500473 328.025600
   6500   6498   6501     1   110.5600475 386.601600
   6500   6498   6507     1   108.0100461 406.684800
   6501   6504   6505     1   109.5600471 388.275200
   6501   6504   6506     1   109.5600471 388.275200
   6502   6501   6504     1   109.8000471 387.438400
   6502   6501   6503     1   107.5800459 329.699200
   6503   6501   6504     1   109.8000471 387.438400
   6505   6504   6510     1   109.7800468 425.094400
   6505   6504   6506     1   108.4600466 328.025600
   6506   6504   6510     1   109.7800468 425.094400
   6508   6507   6509     1   108.3000464 339.740800
   6508   6507   6511     1   108.3000464 339.740800
   6509   6507   6511     1   108.3000464 339.740800
   6512   6515   6516     1   109.8000471 387.438400
   6512   6515   6517     1   109.8000471 387.438400
   6512   6521   6522     1   110.1100470 384.091200
   6512   6521   6523     1   110.1100470 384.091200
   6512   6521   6525     1   110.1100470 384.091200
   6513   6512   6515     1   110.5600475 386.601600
   6513   6512   6521     1   108.0100461 406.684800
   6513   6512   6514     1   109.7500473 328.025600
   6514   6512   6515     1   110.5600475 386.601600
   6514   6512   6521     1   108.0100461 406.684800
   6515   6518   6519     1   109.5600471 388.275200
   6515   6518   6520     1   109.5600471 388.275200
   6516   6515   6518     1   109.8000471 387.438400
   6516   6515   6517     1   107.5800459 329.699200
   6517   6515   6518     1   109.8000471 387.438400
   6519   6518   6524     1   109.7800468 425.094400
   6519   6518   6520     1   108.4600466 328.025600
   6520   6518   6524     1   109.7800468 425.094400
   6522   6521   6523     1   108.3000464 339.740800
   6522   6521   6525     1   108.3000464 339.740800
   6523   6521   6525     1   108.3000464 339.740800
   6526   6529   6530     1   109.8000471 387.438400
   6526   6529   6531     1   109.8000471 387.438400
   6526   6535   6536     1   110.1100470 384.091200
   6526   6535   6537     1   110.1100470 384.091200
   6526   6535   6539     1   110.1100470 384.091200
   6527   6526   6529     1   110.5600475 386.601600
   6527   6526   6535     1   108.0100461 406.684800
   6527   6526   6528     1   109.7500473 328.025600
   6528   6526   6529     1   110.5600475 386.601600
   6528   6526   6535     1   108.0100461 406.684800
   6529   6532   6533     1   109.5600471 388.275200
   6529   6532   6534     1   109.5600471 388.275200
   6530   6529   6532     1   109.8000471 387.438400
   6530   6529   6531     1   107.5800459 329.699200
   6531   6529   6532     1   109.8000471 387.438400
   6533   6532   6538     1   109.7800468 425.094400
   6533   6532   6534     1   108.4600466 328.025600
   6534   6532   6538     1   109.7800468 425.094400
   6536   6535   6537     1   108.3000464 339.740800
   6536   6535   6539     1   108.3000464 339.740800
   6537   6535   6539     1   108.3000464 339.740800
   6540   6543   6544     1   109.8000471 387.438400
   6540   6543   6545     1   109.8000471 387.438400
   6540   6549   6550     1   110.1100470 384.091200
   6540   6549   6551     1   110.1100470 384.091200
   6540   6549   6553     1   110.1100470 384.091200
   6541   6540   6543     1   110.5600475 386.601600
   6541   6540   6549     1   108.0100461 406.684800
   6541   6540   6542     1   109.7500473 328.025600
   6542   6540   6543     1   110.5600475 386.601600
   6542   6540   6549     1   108.0100461 406.684800
   6543   6546   6547     1   109.5600471 388.275200
   6543   6546   6548     1   109.5600471 388.275200
   6544   6543   6546     1   109.8000471 387.438400
   6544   6543   6545     1   107.5800459 329.699200
   6545   6543   6546     1   109.8000471 387.438400
   6547   6546   6552     1   109.7800468 425.094400
   6547   6546   6548     1   108.4600466 328.025600
   6548   6546   6552     1   109.7800468 425.094400
   6550   6549   6551     1   108.3000464 339.740800
   6550   6549   6553     1   108.3000464 339.740800
   6551   6549   6553     1   108.3000464 339.740800
   6554   6557   6558     1   109.8000471 387.438400
   6554   6557   6559     1   109.8000471 387.438400
   6554   6563   6564     1   110.1100470 384.091200
   6554   6563   6565     1   110.1100470 384.091200
   6554   6563   6567     1   110.1100470 384.091200
   6555   6554   6557     1   110.5600475 386.601600
   6555   6554   6563     1   108.0100461 406.684800
   6555   6554   6556     1   109.7500473 328.025600
   6556   6554   6557     1   110.5600475 386.601600
   6556   6554   6563     1   108.0100461 406.684800
   6557   6560   6561     1   109.5600471 388.275200
   6557   6560   6562     1   109.5600471 388.275200
   6558   6557   6560     1   109.8000471 387.438400
   6558   6557   6559     1   107.5800459 329.699200
   6559   6557   6560     1   109.8000471 387.438400
   6561   6560   6566     1   109.7800468 425.094400
   6561   6560   6562     1   108.4600466 328.025600
   6562   6560   6566     1   109.7800468 425.094400
   6564   6563   6565     1   108.3000464 339.740800
   6564   6563   6567     1   108.3000464 339.740800
   6565   6563   6567     1   108.3000464 339.740800
   6568   6571   6572     1   109.8000471 387.438400
   6568   6571   6573     1   109.8000471 387.438400
   6568   6577   6578     1   110.1100470 384.091200
   6568   6577   6579     1   110.1100470 384.091200
   6568   6577   6581     1   110.1100470 384.091200
   6569   6568   6571     1   110.5600475 386.601600
   6569   6568   6577     1   108.0100461 406.684800
   6569   6568   6570     1   109.7500473 328.025600
   6570   6568   6571     1   110.5600475 386.601600
   6570   6568   6577     1   108.0100461 406.684800
   6571   6574   6575     1   109.5600471 388.275200
   6571   6574   6576     1   109.5600471 388.275200
   6572   6571   6574     1   109.8000471 387.438400
   6572   6571   6573     1   107.5800459 329.699200
   6573   6571   6574     1   109.8000471 387.438400
   6575   6574   6580     1   109.7800468 425.094400
   6575   6574   6576     1   108.4600466 328.025600
   6576   6574   6580     1   109.7800468 425.094400
   6578   6577   6579     1   108.3000464 339.740800
   6578   6577   6581     1   108.3000464 339.740800
   6579   6577   6581     1   108.3000464 339.740800
   6582   6585   6586     1   109.8000471 387.438400
   6582   6585   6587     1   109.8000471 387.438400
   6582   6591   6592     1   110.1100470 384.091200
   6582   6591   6593     1   110.1100470 384.091200
   6582   6591   6595     1   110.1100470 384.091200
   6583   6582   6585     1   110.5600475 386.601600
   6583   6582   6591     1   108.0100461 406.684800
   6583   6582   6584     1   109.7500473 328.025600
   6584   6582   6585     1   110.5600475 386.601600
   6584   6582   6591     1   108.0100461 406.684800
   6585   6588   6589     1   109.5600471 388.275200
   6585   6588   6590     1   109.5600471 388.275200
   6586   6585   6588     1   109.8000471 387.438400
   6586   6585   6587     1   107.5800459 329.699200
   6587   6585   6588     1   109.8000471 387.438400
   6589   6588   6594     1   109.7800468 425.094400
   6589   6588   6590     1   108.4600466 328.025600
   6590   6588   6594     1   109.7800468 425.094400
   6592   6591   6593     1   108.3000464 339.740800
   6592   6591   6595     1   108.3000464 339.740800
   6593   6591   6595     1   108.3000464 339.740800
   6596   6599   6600     1   109.8000471 387.438400
   6596   6599   6601     1   109.8000471 387.438400
   6596   6605   6606     1   110.1100470 384.091200
   6596   6605   6607     1   110.1100470 384.091200
   6596   6605   6609     1   110.1100470 384.091200
   6597   6596   6599     1   110.5600475 386.601600
   6597   6596   6605     1   108.0100461 406.684800
   6597   6596   6598     1   109.7500473 328.025600
   6598   6596   6599     1   110.5600475 386.601600
   6598   6596   6605     1   108.0100461 406.684800
   6599   6602   6603     1   109.5600471 388.275200
   6599   6602   6604     1   109.5600471 388.275200
   6600   6599   6602     1   109.8000471 387.438400
   6600   6599   6601     1   107.5800459 329.699200
   6601   6599   6602     1   109.8000471 387.438400
   6603   6602   6608     1   109.7800468 425.094400
   6603   6602   6604     1   108.4600466 328.025600
   6604   6602   6608     1   109.7800468 425.094400
   6606   6605   6607     1   108.3000464 339.740800
   6606   6605   6609     1   108.3000464 339.740800
   6607   6605   6609     1   108.3000464 339.740800
   6610   6613   6614     1   109.8000471 387.438400
   6610   6613   6615     1   109.8000471 387.438400
   6610   6619   6620     1   110.1100470 384.091200
   6610   6619   6621     1   110.1100470 384.091200
   6610   6619   6623     1   110.1100470 384.091200
   6611   6610   6613     1   110.5600475 386.601600
   6611   6610   6619     1   108.0100461 406.684800
   6611   6610   6612     1   109.7500473 328.025600
   6612   6610   6613     1   110.5600475 386.601600
   6612   6610   6619     1   108.0100461 406.684800
   6613   6616   6617     1   109.5600471 388.275200
   6613   6616   6618     1   109.5600471 388.275200
   6614   6613   6616     1   109.8000471 387.438400
   6614   6613   6615     1   107.5800459 329.699200
   6615   6613   6616     1   109.8000471 387.438400
   6617   6616   6622     1   109.7800468 425.094400
   6617   6616   6618     1   108.4600466 328.025600
   6618   6616   6622     1   109.7800468 425.094400
   6620   6619   6621     1   108.3000464 339.740800
   6620   6619   6623     1   108.3000464 339.740800
   6621   6619   6623     1   108.3000464 339.740800
   6624   6627   6628     1   109.8000471 387.438400
   6624   6627   6629     1   109.8000471 387.438400
   6624   6633   6634     1   110.1100470 384.091200
   6624   6633   6635     1   110.1100470 384.091200
   6624   6633   6637     1   110.1100470 384.091200
   6625   6624   6627     1   110.5600475 386.601600
   6625   6624   6633     1   108.0100461 406.684800
   6625   6624   6626     1   109.7500473 328.025600
   6626   6624   6627     1   110.5600475 386.601600
   6626   6624   6633     1   108.0100461 406.684800
   6627   6630   6631     1   109.5600471 388.275200
   6627   6630   6632     1   109.5600471 388.275200
   6628   6627   6630     1   109.8000471 387.438400
   6628   6627   6629     1   107.5800459 329.699200
   6629   6627   6630     1   109.8000471 387.438400
   6631   6630   6636     1   109.7800468 425.094400
   6631   6630   6632     1   108.4600466 328.025600
   6632   6630   6636     1   109.7800468 425.094400
   6634   6633   6635     1   108.3000464 339.740800
   6634   6633   6637     1   108.3000464 339.740800
   6635   6633   6637     1   108.3000464 339.740800
   6638   6641   6642     1   109.8000471 387.438400
   6638   6641   6643     1   109.8000471 387.438400
   6638   6647   6648     1   110.1100470 384.091200
   6638   6647   6649     1   110.1100470 384.091200
   6638   6647   6651     1   110.1100470 384.091200
   6639   6638   6641     1   110.5600475 386.601600
   6639   6638   6647     1   108.0100461 406.684800
   6639   6638   6640     1   109.7500473 328.025600
   6640   6638   6641     1   110.5600475 386.601600
   6640   6638   6647     1   108.0100461 406.684800
   6641   6644   6645     1   109.5600471 388.275200
   6641   6644   6646     1   109.5600471 388.275200
   6642   6641   6644     1   109.8000471 387.438400
   6642   6641   6643     1   107.5800459 329.699200
   6643   6641   6644     1   109.8000471 387.438400
   6645   6644   6650     1   109.7800468 425.094400
   6645   6644   6646     1   108.4600466 328.025600
   6646   6644   6650     1   109.7800468 425.094400
   6648   6647   6649     1   108.3000464 339.740800
   6648   6647   6651     1   108.3000464 339.740800
   6649   6647   6651     1   108.3000464 339.740800
   6652   6655   6656     1   109.8000471 387.438400
   6652   6655   6657     1   109.8000471 387.438400
   6652   6661   6662     1   110.1100470 384.091200
   6652   6661   6663     1   110.1100470 384.091200
   6652   6661   6665     1   110.1100470 384.091200
   6653   6652   6655     1   110.5600475 386.601600
   6653   6652   6661     1   108.0100461 406.684800
   6653   6652   6654     1   109.7500473 328.025600
   6654   6652   6655     1   110.5600475 386.601600
   6654   6652   6661     1   108.0100461 406.684800
   6655   6658   6659     1   109.5600471 388.275200
   6655   6658   6660     1   109.5600471 388.275200
   6656   6655   6658     1   109.8000471 387.438400
   6656   6655   6657     1   107.5800459 329.699200
   6657   6655   6658     1   109.8000471 387.438400
   6659   6658   6664     1   109.7800468 425.094400
   6659   6658   6660     1   108.4600466 328.025600
   6660   6658   6664     1   109.7800468 425.094400
   6662   6661   6663     1   108.3000464 339.740800
   6662   6661   6665     1   108.3000464 339.740800
   6663   6661   6665     1   108.3000464 339.740800
   6666   6669   6670     1   109.8000471 387.438400
   6666   6669   6671     1   109.8000471 387.438400
   6666   6675   6676     1   110.1100470 384.091200
   6666   6675   6677     1   110.1100470 384.091200
   6666   6675   6679     1   110.1100470 384.091200
   6667   6666   6669     1   110.5600475 386.601600
   6667   6666   6675     1   108.0100461 406.684800
   6667   6666   6668     1   109.7500473 328.025600
   6668   6666   6669     1   110.5600475 386.601600
   6668   6666   6675     1   108.0100461 406.684800
   6669   6672   6673     1   109.5600471 388.275200
   6669   6672   6674     1   109.5600471 388.275200
   6670   6669   6672     1   109.8000471 387.438400
   6670   6669   6671     1   107.5800459 329.699200
   6671   6669   6672     1   109.8000471 387.438400
   6673   6672   6678     1   109.7800468 425.094400
   6673   6672   6674     1   108.4600466 328.025600
   6674   6672   6678     1   109.7800468 425.094400
   6676   6675   6677     1   108.3000464 339.740800
   6676   6675   6679     1   108.3000464 339.740800
   6677   6675   6679     1   108.3000464 339.740800
   6680   6683   6684     1   109.8000471 387.438400
   6680   6683   6685     1   109.8000471 387.438400
   6680   6689   6690     1   110.1100470 384.091200
   6680   6689   6691     1   110.1100470 384.091200
   6680   6689   6693     1   110.1100470 384.091200
   6681   6680   6683     1   110.5600475 386.601600
   6681   6680   6689     1   108.0100461 406.684800
   6681   6680   6682     1   109.7500473 328.025600
   6682   6680   6683     1   110.5600475 386.601600
   6682   6680   6689     1   108.0100461 406.684800
   6683   6686   6687     1   109.5600471 388.275200
   6683   6686   6688     1   109.5600471 388.275200
   6684   6683   6686     1   109.8000471 387.438400
   6684   6683   6685     1   107.5800459 329.699200
   6685   6683   6686     1   109.8000471 387.438400
   6687   6686   6692     1   109.7800468 425.094400
   6687   6686   6688     1   108.4600466 328.025600
   6688   6686   6692     1   109.7800468 425.094400
   6690   6689   6691     1   108.3000464 339.740800
   6690   6689   6693     1   108.3000464 339.740800
   6691   6689   6693     1   108.3000464 339.740800
   6694   6697   6698     1   109.8000471 387.438400
   6694   6697   6699     1   109.8000471 387.438400
   6694   6703   6704     1   110.1100470 384.091200
   6694   6703   6705     1   110.1100470 384.091200
   6694   6703   6707     1   110.1100470 384.091200
   6695   6694   6697     1   110.5600475 386.601600
   6695   6694   6703     1   108.0100461 406.684800
   6695   6694   6696     1   109.7500473 328.025600
   6696   6694   6697     1   110.5600475 386.601600
   6696   6694   6703     1   108.0100461 406.684800
   6697   6700   6701     1   109.5600471 388.275200
   6697   6700   6702     1   109.5600471 388.275200
   6698   6697   6700     1   109.8000471 387.438400
   6698   6697   6699     1   107.5800459 329.699200
   6699   6697   6700     1   109.8000471 387.438400
   6701   6700   6706     1   109.7800468 425.094400
   6701   6700   6702     1   108.4600466 328.025600
   6702   6700   6706     1   109.7800468 425.094400
   6704   6703   6705     1   108.3000464 339.740800
   6704   6703   6707     1   108.3000464 339.740800
   6705   6703   6707     1   108.3000464 339.740800
   6708   6711   6712     1   109.8000471 387.438400
   6708   6711   6713     1   109.8000471 387.438400
   6708   6717   6718     1   110.1100470 384.091200
   6708   6717   6719     1   110.1100470 384.091200
   6708   6717   6721     1   110.1100470 384.091200
   6709   6708   6711     1   110.5600475 386.601600
   6709   6708   6717     1   108.0100461 406.684800
   6709   6708   6710     1   109.7500473 328.025600
   6710   6708   6711     1   110.5600475 386.601600
   6710   6708   6717     1   108.0100461 406.684800
   6711   6714   6715     1   109.5600471 388.275200
   6711   6714   6716     1   109.5600471 388.275200
   6712   6711   6714     1   109.8000471 387.438400
   6712   6711   6713     1   107.5800459 329.699200
   6713   6711   6714     1   109.8000471 387.438400
   6715   6714   6720     1   109.7800468 425.094400
   6715   6714   6716     1   108.4600466 328.025600
   6716   6714   6720     1   109.7800468 425.094400
   6718   6717   6719     1   108.3000464 339.740800
   6718   6717   6721     1   108.3000464 339.740800
   6719   6717   6721     1   108.3000464 339.740800
   6722   6725   6726     1   109.8000471 387.438400
   6722   6725   6727     1   109.8000471 387.438400
   6722   6731   6732     1   110.1100470 384.091200
   6722   6731   6733     1   110.1100470 384.091200
   6722   6731   6735     1   110.1100470 384.091200
   6723   6722   6725     1   110.5600475 386.601600
   6723   6722   6731     1   108.0100461 406.684800
   6723   6722   6724     1   109.7500473 328.025600
   6724   6722   6725     1   110.5600475 386.601600
   6724   6722   6731     1   108.0100461 406.684800
   6725   6728   6729     1   109.5600471 388.275200
   6725   6728   6730     1   109.5600471 388.275200
   6726   6725   6728     1   109.8000471 387.438400
   6726   6725   6727     1   107.5800459 329.699200
   6727   6725   6728     1   109.8000471 387.438400
   6729   6728   6734     1   109.7800468 425.094400
   6729   6728   6730     1   108.4600466 328.025600
   6730   6728   6734     1   109.7800468 425.094400
   6732   6731   6733     1   108.3000464 339.740800
   6732   6731   6735     1   108.3000464 339.740800
   6733   6731   6735     1   108.3000464 339.740800
   6736   6739   6740     1   109.8000471 387.438400
   6736   6739   6741     1   109.8000471 387.438400
   6736   6745   6746     1   110.1100470 384.091200
   6736   6745   6747     1   110.1100470 384.091200
   6736   6745   6749     1   110.1100470 384.091200
   6737   6736   6739     1   110.5600475 386.601600
   6737   6736   6745     1   108.0100461 406.684800
   6737   6736   6738     1   109.7500473 328.025600
   6738   6736   6739     1   110.5600475 386.601600
   6738   6736   6745     1   108.0100461 406.684800
   6739   6742   6743     1   109.5600471 388.275200
   6739   6742   6744     1   109.5600471 388.275200
   6740   6739   6742     1   109.8000471 387.438400
   6740   6739   6741     1   107.5800459 329.699200
   6741   6739   6742     1   109.8000471 387.438400
   6743   6742   6748     1   109.7800468 425.094400
   6743   6742   6744     1   108.4600466 328.025600
   6744   6742   6748     1   109.7800468 425.094400
   6746   6745   6747     1   108.3000464 339.740800
   6746   6745   6749     1   108.3000464 339.740800
   6747   6745   6749     1   108.3000464 339.740800
   6750   6753   6754     1   109.8000471 387.438400
   6750   6753   6755     1   109.8000471 387.438400
   6750   6759   6760     1   110.1100470 384.091200
   6750   6759   6761     1   110.1100470 384.091200
   6750   6759   6763     1   110.1100470 384.091200
   6751   6750   6753     1   110.5600475 386.601600
   6751   6750   6759     1   108.0100461 406.684800
   6751   6750   6752     1   109.7500473 328.025600
   6752   6750   6753     1   110.5600475 386.601600
   6752   6750   6759     1   108.0100461 406.684800
   6753   6756   6757     1   109.5600471 388.275200
   6753   6756   6758     1   109.5600471 388.275200
   6754   6753   6756     1   109.8000471 387.438400
   6754   6753   6755     1   107.5800459 329.699200
   6755   6753   6756     1   109.8000471 387.438400
   6757   6756   6762     1   109.7800468 425.094400
   6757   6756   6758     1   108.4600466 328.025600
   6758   6756   6762     1   109.7800468 425.094400
   6760   6759   6761     1   108.3000464 339.740800
   6760   6759   6763     1   108.3000464 339.740800
   6761   6759   6763     1   108.3000464 339.740800
   6764   6767   6768     1   109.8000471 387.438400
   6764   6767   6769     1   109.8000471 387.438400
   6764   6773   6774     1   110.1100470 384.091200
   6764   6773   6775     1   110.1100470 384.091200
   6764   6773   6777     1   110.1100470 384.091200
   6765   6764   6767     1   110.5600475 386.601600
   6765   6764   6773     1   108.0100461 406.684800
   6765   6764   6766     1   109.7500473 328.025600
   6766   6764   6767     1   110.5600475 386.601600
   6766   6764   6773     1   108.0100461 406.684800
   6767   6770   6771     1   109.5600471 388.275200
   6767   6770   6772     1   109.5600471 388.275200
   6768   6767   6770     1   109.8000471 387.438400
   6768   6767   6769     1   107.5800459 329.699200
   6769   6767   6770     1   109.8000471 387.438400
   6771   6770   6776     1   109.7800468 425.094400
   6771   6770   6772     1   108.4600466 328.025600
   6772   6770   6776     1   109.7800468 425.094400
   6774   6773   6775     1   108.3000464 339.740800
   6774   6773   6777     1   108.3000464 339.740800
   6775   6773   6777     1   108.3000464 339.740800
   6778   6781   6782     1   109.8000471 387.438400
   6778   6781   6783     1   109.8000471 387.438400
   6778   6787   6788     1   110.1100470 384.091200
   6778   6787   6789     1   110.1100470 384.091200
   6778   6787   6791     1   110.1100470 384.091200
   6779   6778   6781     1   110.5600475 386.601600
   6779   6778   6787     1   108.0100461 406.684800
   6779   6778   6780     1   109.7500473 328.025600
   6780   6778   6781     1   110.5600475 386.601600
   6780   6778   6787     1   108.0100461 406.684800
   6781   6784   6785     1   109.5600471 388.275200
   6781   6784   6786     1   109.5600471 388.275200
   6782   6781   6784     1   109.8000471 387.438400
   6782   6781   6783     1   107.5800459 329.699200
   6783   6781   6784     1   109.8000471 387.438400
   6785   6784   6790     1   109.7800468 425.094400
   6785   6784   6786     1   108.4600466 328.025600
   6786   6784   6790     1   109.7800468 425.094400
   6788   6787   6789     1   108.3000464 339.740800
   6788   6787   6791     1   108.3000464 339.740800
   6789   6787   6791     1   108.3000464 339.740800
   6792   6795   6796     1   109.8000471 387.438400
   6792   6795   6797     1   109.8000471 387.438400
   6792   6801   6802     1   110.1100470 384.091200
   6792   6801   6803     1   110.1100470 384.091200
   6792   6801   6805     1   110.1100470 384.091200
   6793   6792   6795     1   110.5600475 386.601600
   6793   6792   6801     1   108.0100461 406.684800
   6793   6792   6794     1   109.7500473 328.025600
   6794   6792   6795     1   110.5600475 386.601600
   6794   6792   6801     1   108.0100461 406.684800
   6795   6798   6799     1   109.5600471 388.275200
   6795   6798   6800     1   109.5600471 388.275200
   6796   6795   6798     1   109.8000471 387.438400
   6796   6795   6797     1   107.5800459 329.699200
   6797   6795   6798     1   109.8000471 387.438400
   6799   6798   6804     1   109.7800468 425.094400
   6799   6798   6800     1   108.4600466 328.025600
   6800   6798   6804     1   109.7800468 425.094400
   6802   6801   6803     1   108.3000464 339.740800
   6802   6801   6805     1   108.3000464 339.740800
   6803   6801   6805     1   108.3000464 339.740800
   6806   6809   6810     1   109.8000471 387.438400
   6806   6809   6811     1   109.8000471 387.438400
   6806   6815   6816     1   110.1100470 384.091200
   6806   6815   6817     1   110.1100470 384.091200
   6806   6815   6819     1   110.1100470 384.091200
   6807   6806   6809     1   110.5600475 386.601600
   6807   6806   6815     1   108.0100461 406.684800
   6807   6806   6808     1   109.7500473 328.025600
   6808   6806   6809     1   110.5600475 386.601600
   6808   6806   6815     1   108.0100461 406.684800
   6809   6812   6813     1   109.5600471 388.275200
   6809   6812   6814     1   109.5600471 388.275200
   6810   6809   6812     1   109.8000471 387.438400
   6810   6809   6811     1   107.5800459 329.699200
   6811   6809   6812     1   109.8000471 387.438400
   6813   6812   6818     1   109.7800468 425.094400
   6813   6812   6814     1   108.4600466 328.025600
   6814   6812   6818     1   109.7800468 425.094400
   6816   6815   6817     1   108.3000464 339.740800
   6816   6815   6819     1   108.3000464 339.740800
   6817   6815   6819     1   108.3000464 339.740800
   6820   6823   6824     1   109.8000471 387.438400
   6820   6823   6825     1   109.8000471 387.438400
   6820   6829   6830     1   110.1100470 384.091200
   6820   6829   6831     1   110.1100470 384.091200
   6820   6829   6833     1   110.1100470 384.091200
   6821   6820   6823     1   110.5600475 386.601600
   6821   6820   6829     1   108.0100461 406.684800
   6821   6820   6822     1   109.7500473 328.025600
   6822   6820   6823     1   110.5600475 386.601600
   6822   6820   6829     1   108.0100461 406.684800
   6823   6826   6827     1   109.5600471 388.275200
   6823   6826   6828     1   109.5600471 388.275200
   6824   6823   6826     1   109.8000471 387.438400
   6824   6823   6825     1   107.5800459 329.699200
   6825   6823   6826     1   109.8000471 387.438400
   6827   6826   6832     1   109.7800468 425.094400
   6827   6826   6828     1   108.4600466 328.025600
   6828   6826   6832     1   109.7800468 425.094400
   6830   6829   6831     1   108.3000464 339.740800
   6830   6829   6833     1   108.3000464 339.740800
   6831   6829   6833     1   108.3000464 339.740800
   6834   6837   6838     1   109.8000471 387.438400
   6834   6837   6839     1   109.8000471 387.438400
   6834   6843   6844     1   110.1100470 384.091200
   6834   6843   6845     1   110.1100470 384.091200
   6834   6843   6847     1   110.1100470 384.091200
   6835   6834   6837     1   110.5600475 386.601600
   6835   6834   6843     1   108.0100461 406.684800
   6835   6834   6836     1   109.7500473 328.025600
   6836   6834   6837     1   110.5600475 386.601600
   6836   6834   6843     1   108.0100461 406.684800
   6837   6840   6841     1   109.5600471 388.275200
   6837   6840   6842     1   109.5600471 388.275200
   6838   6837   6840     1   109.8000471 387.438400
   6838   6837   6839     1   107.5800459 329.699200
   6839   6837   6840     1   109.8000471 387.438400
   6841   6840   6846     1   109.7800468 425.094400
   6841   6840   6842     1   108.4600466 328.025600
   6842   6840   6846     1   109.7800468 425.094400
   6844   6843   6845     1   108.3000464 339.740800
   6844   6843   6847     1   108.3000464 339.740800
   6845   6843   6847     1   108.3000464 339.740800
   6848   6851   6852     1   109.8000471 387.438400
   6848   6851   6853     1   109.8000471 387.438400
   6848   6857   6858     1   110.1100470 384.091200
   6848   6857   6859     1   110.1100470 384.091200
   6848   6857   6861     1   110.1100470 384.091200
   6849   6848   6851     1   110.5600475 386.601600
   6849   6848   6857     1   108.0100461 406.684800
   6849   6848   6850     1   109.7500473 328.025600
   6850   6848   6851     1   110.5600475 386.601600
   6850   6848   6857     1   108.0100461 406.684800
   6851   6854   6855     1   109.5600471 388.275200
   6851   6854   6856     1   109.5600471 388.275200
   6852   6851   6854     1   109.8000471 387.438400
   6852   6851   6853     1   107.5800459 329.699200
   6853   6851   6854     1   109.8000471 387.438400
   6855   6854   6860     1   109.7800468 425.094400
   6855   6854   6856     1   108.4600466 328.025600
   6856   6854   6860     1   109.7800468 425.094400
   6858   6857   6859     1   108.3000464 339.740800
   6858   6857   6861     1   108.3000464 339.740800
   6859   6857   6861     1   108.3000464 339.740800
   6862   6865   6866     1   109.8000471 387.438400
   6862   6865   6867     1   109.8000471 387.438400
   6862   6871   6872     1   110.1100470 384.091200
   6862   6871   6873     1   110.1100470 384.091200
   6862   6871   6875     1   110.1100470 384.091200
   6863   6862   6865     1   110.5600475 386.601600
   6863   6862   6871     1   108.0100461 406.684800
   6863   6862   6864     1   109.7500473 328.025600
   6864   6862   6865     1   110.5600475 386.601600
   6864   6862   6871     1   108.0100461 406.684800
   6865   6868   6869     1   109.5600471 388.275200
   6865   6868   6870     1   109.5600471 388.275200
   6866   6865   6868     1   109.8000471 387.438400
   6866   6865   6867     1   107.5800459 329.699200
   6867   6865   6868     1   109.8000471 387.438400
   6869   6868   6874     1   109.7800468 425.094400
   6869   6868   6870     1   108.4600466 328.025600
   6870   6868   6874     1   109.7800468 425.094400
   6872   6871   6873     1   108.3000464 339.740800
   6872   6871   6875     1   108.3000464 339.740800
   6873   6871   6875     1   108.3000464 339.740800
   6876   6879   6880     1   109.8000471 387.438400
   6876   6879   6881     1   109.8000471 387.438400
   6876   6885   6886     1   110.1100470 384.091200
   6876   6885   6887     1   110.1100470 384.091200
   6876   6885   6889     1   110.1100470 384.091200
   6877   6876   6879     1   110.5600475 386.601600
   6877   6876   6885     1   108.0100461 406.684800
   6877   6876   6878     1   109.7500473 328.025600
   6878   6876   6879     1   110.5600475 386.601600
   6878   6876   6885     1   108.0100461 406.684800
   6879   6882   6883     1   109.5600471 388.275200
   6879   6882   6884     1   109.5600471 388.275200
   6880   6879   6882     1   109.8000471 387.438400
   6880   6879   6881     1   107.5800459 329.699200
   6881   6879   6882     1   109.8000471 387.438400
   6883   6882   6888     1   109.7800468 425.094400
   6883   6882   6884     1   108.4600466 328.025600
   6884   6882   6888     1   109.7800468 425.094400
   6886   6885   6887     1   108.3000464 339.740800
   6886   6885   6889     1   108.3000464 339.740800
   6887   6885   6889     1   108.3000464 339.740800
   6890   6893   6894     1   109.8000471 387.438400
   6890   6893   6895     1   109.8000471 387.438400
   6890   6899   6900     1   110.1100470 384.091200
   6890   6899   6901     1   110.1100470 384.091200
   6890   6899   6903     1   110.1100470 384.091200
   6891   6890   6893     1   110.5600475 386.601600
   6891   6890   6899     1   108.0100461 406.684800
   6891   6890   6892     1   109.7500473 328.025600
   6892   6890   6893     1   110.5600475 386.601600
   6892   6890   6899     1   108.0100461 406.684800
   6893   6896   6897     1   109.5600471 388.275200
   6893   6896   6898     1   109.5600471 388.275200
   6894   6893   6896     1   109.8000471 387.438400
   6894   6893   6895     1   107.5800459 329.699200
   6895   6893   6896     1   109.8000471 387.438400
   6897   6896   6902     1   109.7800468 425.094400
   6897   6896   6898     1   108.4600466 328.025600
   6898   6896   6902     1   109.7800468 425.094400
   6900   6899   6901     1   108.3000464 339.740800
   6900   6899   6903     1   108.3000464 339.740800
   6901   6899   6903     1   108.3000464 339.740800
   6904   6907   6908     1   109.8000471 387.438400
   6904   6907   6909     1   109.8000471 387.438400
   6904   6913   6914     1   110.1100470 384.091200
   6904   6913   6915     1   110.1100470 384.091200
   6904   6913   6917     1   110.1100470 384.091200
   6905   6904   6907     1   110.5600475 386.601600
   6905   6904   6913     1   108.0100461 406.684800
   6905   6904   6906     1   109.7500473 328.025600
   6906   6904   6907     1   110.5600475 386.601600
   6906   6904   6913     1   108.0100461 406.684800
   6907   6910   6911     1   109.5600471 388.275200
   6907   6910   6912     1   109.5600471 388.275200
   6908   6907   6910     1   109.8000471 387.438400
   6908   6907   6909     1   107.5800459 329.699200
   6909   6907   6910     1   109.8000471 387.438400
   6911   6910   6916     1   109.7800468 425.094400
   6911   6910   6912     1   108.4600466 328.025600
   6912   6910   6916     1   109.7800468 425.094400
   6914   6913   6915     1   108.3000464 339.740800
   6914   6913   6917     1   108.3000464 339.740800
   6915   6913   6917     1   108.3000464 339.740800
   6918   6921   6922     1   109.8000471 387.438400
   6918   6921   6923     1   109.8000471 387.438400
   6918   6927   6928     1   110.1100470 384.091200
   6918   6927   6929     1   110.1100470 384.091200
   6918   6927   6931     1   110.1100470 384.091200
   6919   6918   6921     1   110.5600475 386.601600
   6919   6918   6927     1   108.0100461 406.684800
   6919   6918   6920     1   109.7500473 328.025600
   6920   6918   6921     1   110.5600475 386.601600
   6920   6918   6927     1   108.0100461 406.684800
   6921   6924   6925     1   109.5600471 388.275200
   6921   6924   6926     1   109.5600471 388.275200
   6922   6921   6924     1   109.8000471 387.438400
   6922   6921   6923     1   107.5800459 329.699200
   6923   6921   6924     1   109.8000471 387.438400
   6925   6924   6930     1   109.7800468 425.094400
   6925   6924   6926     1   108.4600466 328.025600
   6926   6924   6930     1   109.7800468 425.094400
   6928   6927   6929     1   108.3000464 339.740800
   6928   6927   6931     1   108.3000464 339.740800
   6929   6927   6931     1   108.3000464 339.740800
   6932   6935   6936     1   109.8000471 387.438400
   6932   6935   6937     1   109.8000471 387.438400
   6932   6941   6942     1   110.1100470 384.091200
   6932   6941   6943     1   110.1100470 384.091200
   6932   6941   6945     1   110.1100470 384.091200
   6933   6932   6935     1   110.5600475 386.601600
   6933   6932   6941     1   108.0100461 406.684800
   6933   6932   6934     1   109.7500473 328.025600
   6934   6932   6935     1   110.5600475 386.601600
   6934   6932   6941     1   108.0100461 406.684800
   6935   6938   6939     1   109.5600471 388.275200
   6935   6938   6940     1   109.5600471 388.275200
   6936   6935   6938     1   109.8000471 387.438400
   6936   6935   6937     1   107.5800459 329.699200
   6937   6935   6938     1   109.8000471 387.438400
   6939   6938   6944     1   109.7800468 425.094400
   6939   6938   6940     1   108.4600466 328.025600
   6940   6938   6944     1   109.7800468 425.094400
   6942   6941   6943     1   108.3000464 339.740800
   6942   6941   6945     1   108.3000464 339.740800
   6943   6941   6945     1   108.3000464 339.740800
   6946   6949   6950     1   109.8000471 387.438400
   6946   6949   6951     1   109.8000471 387.438400
   6946   6955   6956     1   110.1100470 384.091200
   6946   6955   6957     1   110.1100470 384.091200
   6946   6955   6959     1   110.1100470 384.091200
   6947   6946   6949     1   110.5600475 386.601600
   6947   6946   6955     1   108.0100461 406.684800
   6947   6946   6948     1   109.7500473 328.025600
   6948   6946   6949     1   110.5600475 386.601600
   6948   6946   6955     1   108.0100461 406.684800
   6949   6952   6953     1   109.5600471 388.275200
   6949   6952   6954     1   109.5600471 388.275200
   6950   6949   6952     1   109.8000471 387.438400
   6950   6949   6951     1   107.5800459 329.699200
   6951   6949   6952     1   109.8000471 387.438400
   6953   6952   6958     1   109.7800468 425.094400
   6953   6952   6954     1   108.4600466 328.025600
   6954   6952   6958     1   109.7800468 425.094400
   6956   6955   6957     1   108.3000464 339.740800
   6956   6955   6959     1   108.3000464 339.740800
   6957   6955   6959     1   108.3000464 339.740800
   6960   6963   6964     1   109.8000471 387.438400
   6960   6963   6965     1   109.8000471 387.438400
   6960   6969   6970     1   110.1100470 384.091200
   6960   6969   6971     1   110.1100470 384.091200
   6960   6969   6973     1   110.1100470 384.091200
   6961   6960   6963     1   110.5600475 386.601600
   6961   6960   6969     1   108.0100461 406.684800
   6961   6960   6962     1   109.7500473 328.025600
   6962   6960   6963     1   110.5600475 386.601600
   6962   6960   6969     1   108.0100461 406.684800
   6963   6966   6967     1   109.5600471 388.275200
   6963   6966   6968     1   109.5600471 388.275200
   6964   6963   6966     1   109.8000471 387.438400
   6964   6963   6965     1   107.5800459 329.699200
   6965   6963   6966     1   109.8000471 387.438400
   6967   6966   6972     1   109.7800468 425.094400
   6967   6966   6968     1   108.4600466 328.025600
   6968   6966   6972     1   109.7800468 425.094400
   6970   6969   6971     1   108.3000464 339.740800
   6970   6969   6973     1   108.3000464 339.740800
   6971   6969   6973     1   108.3000464 339.740800
   6974   6977   6978     1   109.8000471 387.438400
   6974   6977   6979     1   109.8000471 387.438400
   6974   6983   6984     1   110.1100470 384.091200
   6974   6983   6985     1   110.1100470 384.091200
   6974   6983   6987     1   110.1100470 384.091200
   6975   6974   6977     1   110.5600475 386.601600
   6975   6974   6983     1   108.0100461 406.684800
   6975   6974   6976     1   109.7500473 328.025600
   6976   6974   6977     1   110.5600475 386.601600
   6976   6974   6983     1   108.0100461 406.684800
   6977   6980   6981     1   109.5600471 388.275200
   6977   6980   6982     1   109.5600471 388.275200
   6978   6977   6980     1   109.8000471 387.438400
   6978   6977   6979     1   107.5800459 329.699200
   6979   6977   6980     1   109.8000471 387.438400
   6981   6980   6986     1   109.7800468 425.094400
   6981   6980   6982     1   108.4600466 328.025600
   6982   6980   6986     1   109.7800468 425.094400
   6984   6983   6985     1   108.3000464 339.740800
   6984   6983   6987     1   108.3000464 339.740800
   6985   6983   6987     1   108.3000464 339.740800
   6988   6991   6992     1   109.8000471 387.438400
   6988   6991   6993     1   109.8000471 387.438400
   6988   6997   6998     1   110.1100470 384.091200
   6988   6997   6999     1   110.1100470 384.091200
   6988   6997   7001     1   110.1100470 384.091200
   6989   6988   6991     1   110.5600475 386.601600
   6989   6988   6997     1   108.0100461 406.684800
   6989   6988   6990     1   109.7500473 328.025600
   6990   6988   6991     1   110.5600475 386.601600
   6990   6988   6997     1   108.0100461 406.684800
   6991   6994   6995     1   109.5600471 388.275200
   6991   6994   6996     1   109.5600471 388.275200
   6992   6991   6994     1   109.8000471 387.438400
   6992   6991   6993     1   107.5800459 329.699200
   6993   6991   6994     1   109.8000471 387.438400
   6995   6994   7000     1   109.7800468 425.094400
   6995   6994   6996     1   108.4600466 328.025600
   6996   6994   7000     1   109.7800468 425.094400
   6998   6997   6999     1   108.3000464 339.740800
   6998   6997   7001     1   108.3000464 339.740800
   6999   6997   7001     1   108.3000464 339.740800
   7002   7005   7006     1   109.8000471 387.438400
   7002   7005   7007     1   109.8000471 387.438400
   7002   7011   7012     1   110.1100470 384.091200
   7002   7011   7013     1   110.1100470 384.091200
   7002   7011   7015     1   110.1100470 384.091200
   7003   7002   7005     1   110.5600475 386.601600
   7003   7002   7011     1   108.0100461 406.684800
   7003   7002   7004     1   109.7500473 328.025600
   7004   7002   7005     1   110.5600475 386.601600
   7004   7002   7011     1   108.0100461 406.684800
   7005   7008   7009     1   109.5600471 388.275200
   7005   7008   7010     1   109.5600471 388.275200
   7006   7005   7008     1   109.8000471 387.438400
   7006   7005   7007     1   107.5800459 329.699200
   7007   7005   7008     1   109.8000471 387.438400
   7009   7008   7014     1   109.7800468 425.094400
   7009   7008   7010     1   108.4600466 328.025600
   7010   7008   7014     1   109.7800468 425.094400
   7012   7011   7013     1   108.3000464 339.740800
   7012   7011   7015     1   108.3000464 339.740800
   7013   7011   7015     1   108.3000464 339.740800
   7016   7019   7020     1   109.8000471 387.438400
   7016   7019   7021     1   109.8000471 387.438400
   7016   7025   7026     1   110.1100470 384.091200
   7016   7025   7027     1   110.1100470 384.091200
   7016   7025   7029     1   110.1100470 384.091200
   7017   7016   7019     1   110.5600475 386.601600
   7017   7016   7025     1   108.0100461 406.684800
   7017   7016   7018     1   109.7500473 328.025600
   7018   7016   7019     1   110.5600475 386.601600
   7018   7016   7025     1   108.0100461 406.684800
   7019   7022   7023     1   109.5600471 388.275200
   7019   7022   7024     1   109.5600471 388.275200
   7020   7019   7022     1   109.8000471 387.438400
   7020   7019   7021     1   107.5800459 329.699200
   7021   7019   7022     1   109.8000471 387.438400
   7023   7022   7028     1   109.7800468 425.094400
   7023   7022   7024     1   108.4600466 328.025600
   7024   7022   7028     1   109.7800468 425.094400
   7026   7025   7027     1   108.3000464 339.740800
   7026   7025   7029     1   108.3000464 339.740800
   7027   7025   7029     1   108.3000464 339.740800
   7030   7033   7034     1   109.8000471 387.438400
   7030   7033   7035     1   109.8000471 387.438400
   7030   7039   7040     1   110.1100470 384.091200
   7030   7039   7041     1   110.1100470 384.091200
   7030   7039   7043     1   110.1100470 384.091200
   7031   7030   7033     1   110.5600475 386.601600
   7031   7030   7039     1   108.0100461 406.684800
   7031   7030   7032     1   109.7500473 328.025600
   7032   7030   7033     1   110.5600475 386.601600
   7032   7030   7039     1   108.0100461 406.684800
   7033   7036   7037     1   109.5600471 388.275200
   7033   7036   7038     1   109.5600471 388.275200
   7034   7033   7036     1   109.8000471 387.438400
   7034   7033   7035     1   107.5800459 329.699200
   7035   7033   7036     1   109.8000471 387.438400
   7037   7036   7042     1   109.7800468 425.094400
   7037   7036   7038     1   108.4600466 328.025600
   7038   7036   7042     1   109.7800468 425.094400
   7040   7039   7041     1   108.3000464 339.740800
   7040   7039   7043     1   108.3000464 339.740800
   7041   7039   7043     1   108.3000464 339.740800
   7044   7047   7048     1   109.8000471 387.438400
   7044   7047   7049     1   109.8000471 387.438400
   7044   7053   7054     1   110.1100470 384.091200
   7044   7053   7055     1   110.1100470 384.091200
   7044   7053   7057     1   110.1100470 384.091200
   7045   7044   7047     1   110.5600475 386.601600
   7045   7044   7053     1   108.0100461 406.684800
   7045   7044   7046     1   109.7500473 328.025600
   7046   7044   7047     1   110.5600475 386.601600
   7046   7044   7053     1   108.0100461 406.684800
   7047   7050   7051     1   109.5600471 388.275200
   7047   7050   7052     1   109.5600471 388.275200
   7048   7047   7050     1   109.8000471 387.438400
   7048   7047   7049     1   107.5800459 329.699200
   7049   7047   7050     1   109.8000471 387.438400
   7051   7050   7056     1   109.7800468 425.094400
   7051   7050   7052     1   108.4600466 328.025600
   7052   7050   7056     1   109.7800468 425.094400
   7054   7053   7055     1   108.3000464 339.740800
   7054   7053   7057     1   108.3000464 339.740800
   7055   7053   7057     1   108.3000464 339.740800
   7058   7061   7062     1   109.8000471 387.438400
   7058   7061   7063     1   109.8000471 387.438400
   7058   7067   7068     1   110.1100470 384.091200
   7058   7067   7069     1   110.1100470 384.091200
   7058   7067   7071     1   110.1100470 384.091200
   7059   7058   7061     1   110.5600475 386.601600
   7059   7058   7067     1   108.0100461 406.684800
   7059   7058   7060     1   109.7500473 328.025600
   7060   7058   7061     1   110.5600475 386.601600
   7060   7058   7067     1   108.0100461 406.684800
   7061   7064   7065     1   109.5600471 388.275200
   7061   7064   7066     1   109.5600471 388.275200
   7062   7061   7064     1   109.8000471 387.438400
   7062   7061   7063     1   107.5800459 329.699200
   7063   7061   7064     1   109.8000471 387.438400
   7065   7064   7070     1   109.7800468 425.094400
   7065   7064   7066     1   108.4600466 328.025600
   7066   7064   7070     1   109.7800468 425.094400
   7068   7067   7069     1   108.3000464 339.740800
   7068   7067   7071     1   108.3000464 339.740800
   7069   7067   7071     1   108.3000464 339.740800
   7072   7075   7076     1   109.8000471 387.438400
   7072   7075   7077     1   109.8000471 387.438400
   7072   7081   7082     1   110.1100470 384.091200
   7072   7081   7083     1   110.1100470 384.091200
   7072   7081   7085     1   110.1100470 384.091200
   7073   7072   7075     1   110.5600475 386.601600
   7073   7072   7081     1   108.0100461 406.684800
   7073   7072   7074     1   109.7500473 328.025600
   7074   7072   7075     1   110.5600475 386.601600
   7074   7072   7081     1   108.0100461 406.684800
   7075   7078   7079     1   109.5600471 388.275200
   7075   7078   7080     1   109.5600471 388.275200
   7076   7075   7078     1   109.8000471 387.438400
   7076   7075   7077     1   107.5800459 329.699200
   7077   7075   7078     1   109.8000471 387.438400
   7079   7078   7084     1   109.7800468 425.094400
   7079   7078   7080     1   108.4600466 328.025600
   7080   7078   7084     1   109.7800468 425.094400
   7082   7081   7083     1   108.3000464 339.740800
   7082   7081   7085     1   108.3000464 339.740800
   7083   7081   7085     1   108.3000464 339.740800
   7086   7089   7090     1   109.8000471 387.438400
   7086   7089   7091     1   109.8000471 387.438400
   7086   7095   7096     1   110.1100470 384.091200
   7086   7095   7097     1   110.1100470 384.091200
   7086   7095   7099     1   110.1100470 384.091200
   7087   7086   7089     1   110.5600475 386.601600
   7087   7086   7095     1   108.0100461 406.684800
   7087   7086   7088     1   109.7500473 328.025600
   7088   7086   7089     1   110.5600475 386.601600
   7088   7086   7095     1   108.0100461 406.684800
   7089   7092   7093     1   109.5600471 388.275200
   7089   7092   7094     1   109.5600471 388.275200
   7090   7089   7092     1   109.8000471 387.438400
   7090   7089   7091     1   107.5800459 329.699200
   7091   7089   7092     1   109.8000471 387.438400
   7093   7092   7098     1   109.7800468 425.094400
   7093   7092   7094     1   108.4600466 328.025600
   7094   7092   7098     1   109.7800468 425.094400
   7096   7095   7097     1   108.3000464 339.740800
   7096   7095   7099     1   108.3000464 339.740800
   7097   7095   7099     1   108.3000464 339.740800
   7100   7103   7104     1   109.8000471 387.438400
   7100   7103   7105     1   109.8000471 387.438400
   7100   7109   7110     1   110.1100470 384.091200
   7100   7109   7111     1   110.1100470 384.091200
   7100   7109   7113     1   110.1100470 384.091200
   7101   7100   7103     1   110.5600475 386.601600
   7101   7100   7109     1   108.0100461 406.684800
   7101   7100   7102     1   109.7500473 328.025600
   7102   7100   7103     1   110.5600475 386.601600
   7102   7100   7109     1   108.0100461 406.684800
   7103   7106   7107     1   109.5600471 388.275200
   7103   7106   7108     1   109.5600471 388.275200
   7104   7103   7106     1   109.8000471 387.438400
   7104   7103   7105     1   107.5800459 329.699200
   7105   7103   7106     1   109.8000471 387.438400
   7107   7106   7112     1   109.7800468 425.094400
   7107   7106   7108     1   108.4600466 328.025600
   7108   7106   7112     1   109.7800468 425.094400
   7110   7109   7111     1   108.3000464 339.740800
   7110   7109   7113     1   108.3000464 339.740800
   7111   7109   7113     1   108.3000464 339.740800
   7114   7117   7118     1   109.8000471 387.438400
   7114   7117   7119     1   109.8000471 387.438400
   7114   7123   7124     1   110.1100470 384.091200
   7114   7123   7125     1   110.1100470 384.091200
   7114   7123   7127     1   110.1100470 384.091200
   7115   7114   7117     1   110.5600475 386.601600
   7115   7114   7123     1   108.0100461 406.684800
   7115   7114   7116     1   109.7500473 328.025600
   7116   7114   7117     1   110.5600475 386.601600
   7116   7114   7123     1   108.0100461 406.684800
   7117   7120   7121     1   109.5600471 388.275200
   7117   7120   7122     1   109.5600471 388.275200
   7118   7117   7120     1   109.8000471 387.438400
   7118   7117   7119     1   107.5800459 329.699200
   7119   7117   7120     1   109.8000471 387.438400
   7121   7120   7126     1   109.7800468 425.094400
   7121   7120   7122     1   108.4600466 328.025600
   7122   7120   7126     1   109.7800468 425.094400
   7124   7123   7125     1   108.3000464 339.740800
   7124   7123   7127     1   108.3000464 339.740800
   7125   7123   7127     1   108.3000464 339.740800
   7128   7131   7132     1   109.8000471 387.438400
   7128   7131   7133     1   109.8000471 387.438400
   7128   7137   7138     1   110.1100470 384.091200
   7128   7137   7139     1   110.1100470 384.091200
   7128   7137   7141     1   110.1100470 384.091200
   7129   7128   7131     1   110.5600475 386.601600
   7129   7128   7137     1   108.0100461 406.684800
   7129   7128   7130     1   109.7500473 328.025600
   7130   7128   7131     1   110.5600475 386.601600
   7130   7128   7137     1   108.0100461 406.684800
   7131   7134   7135     1   109.5600471 388.275200
   7131   7134   7136     1   109.5600471 388.275200
   7132   7131   7134     1   109.8000471 387.438400
   7132   7131   7133     1   107.5800459 329.699200
   7133   7131   7134     1   109.8000471 387.438400
   7135   7134   7140     1   109.7800468 425.094400
   7135   7134   7136     1   108.4600466 328.025600
   7136   7134   7140     1   109.7800468 425.094400
   7138   7137   7139     1   108.3000464 339.740800
   7138   7137   7141     1   108.3000464 339.740800
   7139   7137   7141     1   108.3000464 339.740800
   7142   7145   7146     1   109.8000471 387.438400
   7142   7145   7147     1   109.8000471 387.438400
   7142   7151   7152     1   110.1100470 384.091200
   7142   7151   7153     1   110.1100470 384.091200
   7142   7151   7155     1   110.1100470 384.091200
   7143   7142   7145     1   110.5600475 386.601600
   7143   7142   7151     1   108.0100461 406.684800
   7143   7142   7144     1   109.7500473 328.025600
   7144   7142   7145     1   110.5600475 386.601600
   7144   7142   7151     1   108.0100461 406.684800
   7145   7148   7149     1   109.5600471 388.275200
   7145   7148   7150     1   109.5600471 388.275200
   7146   7145   7148     1   109.8000471 387.438400
   7146   7145   7147     1   107.5800459 329.699200
   7147   7145   7148     1   109.8000471 387.438400
   7149   7148   7154     1   109.7800468 425.094400
   7149   7148   7150     1   108.4600466 328.025600
   7150   7148   7154     1   109.7800468 425.094400
   7152   7151   7153     1   108.3000464 339.740800
   7152   7151   7155     1   108.3000464 339.740800
   7153   7151   7155     1   108.3000464 339.740800
   7156   7159   7160     1   109.8000471 387.438400
   7156   7159   7161     1   109.8000471 387.438400
   7156   7165   7166     1   110.1100470 384.091200
   7156   7165   7167     1   110.1100470 384.091200
   7156   7165   7169     1   110.1100470 384.091200
   7157   7156   7159     1   110.5600475 386.601600
   7157   7156   7165     1   108.0100461 406.684800
   7157   7156   7158     1   109.7500473 328.025600
   7158   7156   7159     1   110.5600475 386.601600
   7158   7156   7165     1   108.0100461 406.684800
   7159   7162   7163     1   109.5600471 388.275200
   7159   7162   7164     1   109.5600471 388.275200
   7160   7159   7162     1   109.8000471 387.438400
   7160   7159   7161     1   107.5800459 329.699200
   7161   7159   7162     1   109.8000471 387.438400
   7163   7162   7168     1   109.7800468 425.094400
   7163   7162   7164     1   108.4600466 328.025600
   7164   7162   7168     1   109.7800468 425.094400
   7166   7165   7167     1   108.3000464 339.740800
   7166   7165   7169     1   108.3000464 339.740800
   7167   7165   7169     1   108.3000464 339.740800
   7170   7173   7174     1   109.8000471 387.438400
   7170   7173   7175     1   109.8000471 387.438400
   7170   7179   7180     1   110.1100470 384.091200
   7170   7179   7181     1   110.1100470 384.091200
   7170   7179   7183     1   110.1100470 384.091200
   7171   7170   7173     1   110.5600475 386.601600
   7171   7170   7179     1   108.0100461 406.684800
   7171   7170   7172     1   109.7500473 328.025600
   7172   7170   7173     1   110.5600475 386.601600
   7172   7170   7179     1   108.0100461 406.684800
   7173   7176   7177     1   109.5600471 388.275200
   7173   7176   7178     1   109.5600471 388.275200
   7174   7173   7176     1   109.8000471 387.438400
   7174   7173   7175     1   107.5800459 329.699200
   7175   7173   7176     1   109.8000471 387.438400
   7177   7176   7182     1   109.7800468 425.094400
   7177   7176   7178     1   108.4600466 328.025600
   7178   7176   7182     1   109.7800468 425.094400
   7180   7179   7181     1   108.3000464 339.740800
   7180   7179   7183     1   108.3000464 339.740800
   7181   7179   7183     1   108.3000464 339.740800
   7184   7187   7188     1   109.8000471 387.438400
   7184   7187   7189     1   109.8000471 387.438400
   7184   7193   7194     1   110.1100470 384.091200
   7184   7193   7195     1   110.1100470 384.091200
   7184   7193   7197     1   110.1100470 384.091200
   7185   7184   7187     1   110.5600475 386.601600
   7185   7184   7193     1   108.0100461 406.684800
   7185   7184   7186     1   109.7500473 328.025600
   7186   7184   7187     1   110.5600475 386.601600
   7186   7184   7193     1   108.0100461 406.684800
   7187   7190   7191     1   109.5600471 388.275200
   7187   7190   7192     1   109.5600471 388.275200
   7188   7187   7190     1   109.8000471 387.438400
   7188   7187   7189     1   107.5800459 329.699200
   7189   7187   7190     1   109.8000471 387.438400
   7191   7190   7196     1   109.7800468 425.094400
   7191   7190   7192     1   108.4600466 328.025600
   7192   7190   7196     1   109.7800468 425.094400
   7194   7193   7195     1   108.3000464 339.740800
   7194   7193   7197     1   108.3000464 339.740800
   7195   7193   7197     1   108.3000464 339.740800
   7198   7201   7202     1   109.8000471 387.438400
   7198   7201   7203     1   109.8000471 387.438400
   7198   7207   7208     1   110.1100470 384.091200
   7198   7207   7209     1   110.1100470 384.091200
   7198   7207   7211     1   110.1100470 384.091200
   7199   7198   7201     1   110.5600475 386.601600
   7199   7198   7207     1   108.0100461 406.684800
   7199   7198   7200     1   109.7500473 328.025600
   7200   7198   7201     1   110.5600475 386.601600
   7200   7198   7207     1   108.0100461 406.684800
   7201   7204   7205     1   109.5600471 388.275200
   7201   7204   7206     1   109.5600471 388.275200
   7202   7201   7204     1   109.8000471 387.438400
   7202   7201   7203     1   107.5800459 329.699200
   7203   7201   7204     1   109.8000471 387.438400
   7205   7204   7210     1   109.7800468 425.094400
   7205   7204   7206     1   108.4600466 328.025600
   7206   7204   7210     1   109.7800468 425.094400
   7208   7207   7209     1   108.3000464 339.740800
   7208   7207   7211     1   108.3000464 339.740800
   7209   7207   7211     1   108.3000464 339.740800
   7212   7215   7216     1   109.8000471 387.438400
   7212   7215   7217     1   109.8000471 387.438400
   7212   7221   7222     1   110.1100470 384.091200
   7212   7221   7223     1   110.1100470 384.091200
   7212   7221   7225     1   110.1100470 384.091200
   7213   7212   7215     1   110.5600475 386.601600
   7213   7212   7221     1   108.0100461 406.684800
   7213   7212   7214     1   109.7500473 328.025600
   7214   7212   7215     1   110.5600475 386.601600
   7214   7212   7221     1   108.0100461 406.684800
   7215   7218   7219     1   109.5600471 388.275200
   7215   7218   7220     1   109.5600471 388.275200
   7216   7215   7218     1   109.8000471 387.438400
   7216   7215   7217     1   107.5800459 329.699200
   7217   7215   7218     1   109.8000471 387.438400
   7219   7218   7224     1   109.7800468 425.094400
   7219   7218   7220     1   108.4600466 328.025600
   7220   7218   7224     1   109.7800468 425.094400
   7222   7221   7223     1   108.3000464 339.740800
   7222   7221   7225     1   108.3000464 339.740800
   7223   7221   7225     1   108.3000464 339.740800
   7226   7229   7230     1   109.8000471 387.438400
   7226   7229   7231     1   109.8000471 387.438400
   7226   7235   7236     1   110.1100470 384.091200
   7226   7235   7237     1   110.1100470 384.091200
   7226   7235   7239     1   110.1100470 384.091200
   7227   7226   7229     1   110.5600475 386.601600
   7227   7226   7235     1   108.0100461 406.684800
   7227   7226   7228     1   109.7500473 328.025600
   7228   7226   7229     1   110.5600475 386.601600
   7228   7226   7235     1   108.0100461 406.684800
   7229   7232   7233     1   109.5600471 388.275200
   7229   7232   7234     1   109.5600471 388.275200
   7230   7229   7232     1   109.8000471 387.438400
   7230   7229   7231     1   107.5800459 329.699200
   7231   7229   7232     1   109.8000471 387.438400
   7233   7232   7238     1   109.7800468 425.094400
   7233   7232   7234     1   108.4600466 328.025600
   7234   7232   7238     1   109.7800468 425.094400
   7236   7235   7237     1   108.3000464 339.740800
   7236   7235   7239     1   108.3000464 339.740800
   7237   7235   7239     1   108.3000464 339.740800
   7240   7243   7244     1   109.8000471 387.438400
   7240   7243   7245     1   109.8000471 387.438400
   7240   7249   7250     1   110.1100470 384.091200
   7240   7249   7251     1   110.1100470 384.091200
   7240   7249   7253     1   110.1100470 384.091200
   7241   7240   7243     1   110.5600475 386.601600
   7241   7240   7249     1   108.0100461 406.684800
   7241   7240   7242     1   109.7500473 328.025600
   7242   7240   7243     1   110.5600475 386.601600
   7242   7240   7249     1   108.0100461 406.684800
   7243   7246   7247     1   109.5600471 388.275200
   7243   7246   7248     1   109.5600471 388.275200
   7244   7243   7246     1   109.8000471 387.438400
   7244   7243   7245     1   107.5800459 329.699200
   7245   7243   7246     1   109.8000471 387.438400
   7247   7246   7252     1   109.7800468 425.094400
   7247   7246   7248     1   108.4600466 328.025600
   7248   7246   7252     1   109.7800468 425.094400
   7250   7249   7251     1   108.3000464 339.740800
   7250   7249   7253     1   108.3000464 339.740800
   7251   7249   7253     1   108.3000464 339.740800
   7254   7257   7258     1   109.8000471 387.438400
   7254   7257   7259     1   109.8000471 387.438400
   7254   7263   7264     1   110.1100470 384.091200
   7254   7263   7265     1   110.1100470 384.091200
   7254   7263   7267     1   110.1100470 384.091200
   7255   7254   7257     1   110.5600475 386.601600
   7255   7254   7263     1   108.0100461 406.684800
   7255   7254   7256     1   109.7500473 328.025600
   7256   7254   7257     1   110.5600475 386.601600
   7256   7254   7263     1   108.0100461 406.684800
   7257   7260   7261     1   109.5600471 388.275200
   7257   7260   7262     1   109.5600471 388.275200
   7258   7257   7260     1   109.8000471 387.438400
   7258   7257   7259     1   107.5800459 329.699200
   7259   7257   7260     1   109.8000471 387.438400
   7261   7260   7266     1   109.7800468 425.094400
   7261   7260   7262     1   108.4600466 328.025600
   7262   7260   7266     1   109.7800468 425.094400
   7264   7263   7265     1   108.3000464 339.740800
   7264   7263   7267     1   108.3000464 339.740800
   7265   7263   7267     1   108.3000464 339.740800
   7268   7271   7272     1   109.8000471 387.438400
   7268   7271   7273     1   109.8000471 387.438400
   7268   7277   7278     1   110.1100470 384.091200
   7268   7277   7279     1   110.1100470 384.091200
   7268   7277   7281     1   110.1100470 384.091200
   7269   7268   7271     1   110.5600475 386.601600
   7269   7268   7277     1   108.0100461 406.684800
   7269   7268   7270     1   109.7500473 328.025600
   7270   7268   7271     1   110.5600475 386.601600
   7270   7268   7277     1   108.0100461 406.684800
   7271   7274   7275     1   109.5600471 388.275200
   7271   7274   7276     1   109.5600471 388.275200
   7272   7271   7274     1   109.8000471 387.438400
   7272   7271   7273     1   107.5800459 329.699200
   7273   7271   7274     1   109.8000471 387.438400
   7275   7274   7280     1   109.7800468 425.094400
   7275   7274   7276     1   108.4600466 328.025600
   7276   7274   7280     1   109.7800468 425.094400
   7278   7277   7279     1   108.3000464 339.740800
   7278   7277   7281     1   108.3000464 339.740800
   7279   7277   7281     1   108.3000464 339.740800
   7282   7285   7286     1   109.8000471 387.438400
   7282   7285   7287     1   109.8000471 387.438400
   7282   7291   7292     1   110.1100470 384.091200
   7282   7291   7293     1   110.1100470 384.091200
   7282   7291   7295     1   110.1100470 384.091200
   7283   7282   7285     1   110.5600475 386.601600
   7283   7282   7291     1   108.0100461 406.684800
   7283   7282   7284     1   109.7500473 328.025600
   7284   7282   7285     1   110.5600475 386.601600
   7284   7282   7291     1   108.0100461 406.684800
   7285   7288   7289     1   109.5600471 388.275200
   7285   7288   7290     1   109.5600471 388.275200
   7286   7285   7288     1   109.8000471 387.438400
   7286   7285   7287     1   107.5800459 329.699200
   7287   7285   7288     1   109.8000471 387.438400
   7289   7288   7294     1   109.7800468 425.094400
   7289   7288   7290     1   108.4600466 328.025600
   7290   7288   7294     1   109.7800468 425.094400
   7292   7291   7293     1   108.3000464 339.740800
   7292   7291   7295     1   108.3000464 339.740800
   7293   7291   7295     1   108.3000464 339.740800
   7296   7299   7300     1   109.8000471 387.438400
   7296   7299   7301     1   109.8000471 387.438400
   7296   7305   7306     1   110.1100470 384.091200
   7296   7305   7307     1   110.1100470 384.091200
   7296   7305   7309     1   110.1100470 384.091200
   7297   7296   7299     1   110.5600475 386.601600
   7297   7296   7305     1   108.0100461 406.684800
   7297   7296   7298     1   109.7500473 328.025600
   7298   7296   7299     1   110.5600475 386.601600
   7298   7296   7305     1   108.0100461 406.684800
   7299   7302   7303     1   109.5600471 388.275200
   7299   7302   7304     1   109.5600471 388.275200
   7300   7299   7302     1   109.8000471 387.438400
   7300   7299   7301     1   107.5800459 329.699200
   7301   7299   7302     1   109.8000471 387.438400
   7303   7302   7308     1   109.7800468 425.094400
   7303   7302   7304     1   108.4600466 328.025600
   7304   7302   7308     1   109.7800468 425.094400
   7306   7305   7307     1   108.3000464 339.740800
   7306   7305   7309     1   108.3000464 339.740800
   7307   7305   7309     1   108.3000464 339.740800
   7310   7313   7314     1   109.8000471 387.438400
   7310   7313   7315     1   109.8000471 387.438400
   7310   7319   7320     1   110.1100470 384.091200
   7310   7319   7321     1   110.1100470 384.091200
   7310   7319   7323     1   110.1100470 384.091200
   7311   7310   7313     1   110.5600475 386.601600
   7311   7310   7319     1   108.0100461 406.684800
   7311   7310   7312     1   109.7500473 328.025600
   7312   7310   7313     1   110.5600475 386.601600
   7312   7310   7319     1   108.0100461 406.684800
   7313   7316   7317     1   109.5600471 388.275200
   7313   7316   7318     1   109.5600471 388.275200
   7314   7313   7316     1   109.8000471 387.438400
   7314   7313   7315     1   107.5800459 329.699200
   7315   7313   7316     1   109.8000471 387.438400
   7317   7316   7322     1   109.7800468 425.094400
   7317   7316   7318     1   108.4600466 328.025600
   7318   7316   7322     1   109.7800468 425.094400
   7320   7319   7321     1   108.3000464 339.740800
   7320   7319   7323     1   108.3000464 339.740800
   7321   7319   7323     1   108.3000464 339.740800
   7324   7327   7328     1   109.8000471 387.438400
   7324   7327   7329     1   109.8000471 387.438400
   7324   7333   7334     1   110.1100470 384.091200
   7324   7333   7335     1   110.1100470 384.091200
   7324   7333   7337     1   110.1100470 384.091200
   7325   7324   7327     1   110.5600475 386.601600
   7325   7324   7333     1   108.0100461 406.684800
   7325   7324   7326     1   109.7500473 328.025600
   7326   7324   7327     1   110.5600475 386.601600
   7326   7324   7333     1   108.0100461 406.684800
   7327   7330   7331     1   109.5600471 388.275200
   7327   7330   7332     1   109.5600471 388.275200
   7328   7327   7330     1   109.8000471 387.438400
   7328   7327   7329     1   107.5800459 329.699200
   7329   7327   7330     1   109.8000471 387.438400
   7331   7330   7336     1   109.7800468 425.094400
   7331   7330   7332     1   108.4600466 328.025600
   7332   7330   7336     1   109.7800468 425.094400
   7334   7333   7335     1   108.3000464 339.740800
   7334   7333   7337     1   108.3000464 339.740800
   7335   7333   7337     1   108.3000464 339.740800
   7338   7341   7342     1   109.8000471 387.438400
   7338   7341   7343     1   109.8000471 387.438400
   7338   7347   7348     1   110.1100470 384.091200
   7338   7347   7349     1   110.1100470 384.091200
   7338   7347   7351     1   110.1100470 384.091200
   7339   7338   7341     1   110.5600475 386.601600
   7339   7338   7347     1   108.0100461 406.684800
   7339   7338   7340     1   109.7500473 328.025600
   7340   7338   7341     1   110.5600475 386.601600
   7340   7338   7347     1   108.0100461 406.684800
   7341   7344   7345     1   109.5600471 388.275200
   7341   7344   7346     1   109.5600471 388.275200
   7342   7341   7344     1   109.8000471 387.438400
   7342   7341   7343     1   107.5800459 329.699200
   7343   7341   7344     1   109.8000471 387.438400
   7345   7344   7350     1   109.7800468 425.094400
   7345   7344   7346     1   108.4600466 328.025600
   7346   7344   7350     1   109.7800468 425.094400
   7348   7347   7349     1   108.3000464 339.740800
   7348   7347   7351     1   108.3000464 339.740800
   7349   7347   7351     1   108.3000464 339.740800
   7352   7355   7356     1   109.8000471 387.438400
   7352   7355   7357     1   109.8000471 387.438400
   7352   7361   7362     1   110.1100470 384.091200
   7352   7361   7363     1   110.1100470 384.091200
   7352   7361   7365     1   110.1100470 384.091200
   7353   7352   7355     1   110.5600475 386.601600
   7353   7352   7361     1   108.0100461 406.684800
   7353   7352   7354     1   109.7500473 328.025600
   7354   7352   7355     1   110.5600475 386.601600
   7354   7352   7361     1   108.0100461 406.684800
   7355   7358   7359     1   109.5600471 388.275200
   7355   7358   7360     1   109.5600471 388.275200
   7356   7355   7358     1   109.8000471 387.438400
   7356   7355   7357     1   107.5800459 329.699200
   7357   7355   7358     1   109.8000471 387.438400
   7359   7358   7364     1   109.7800468 425.094400
   7359   7358   7360     1   108.4600466 328.025600
   7360   7358   7364     1   109.7800468 425.094400
   7362   7361   7363     1   108.3000464 339.740800
   7362   7361   7365     1   108.3000464 339.740800
   7363   7361   7365     1   108.3000464 339.740800
   7366   7369   7370     1   109.8000471 387.438400
   7366   7369   7371     1   109.8000471 387.438400
   7366   7375   7376     1   110.1100470 384.091200
   7366   7375   7377     1   110.1100470 384.091200
   7366   7375   7379     1   110.1100470 384.091200
   7367   7366   7369     1   110.5600475 386.601600
   7367   7366   7375     1   108.0100461 406.684800
   7367   7366   7368     1   109.7500473 328.025600
   7368   7366   7369     1   110.5600475 386.601600
   7368   7366   7375     1   108.0100461 406.684800
   7369   7372   7373     1   109.5600471 388.275200
   7369   7372   7374     1   109.5600471 388.275200
   7370   7369   7372     1   109.8000471 387.438400
   7370   7369   7371     1   107.5800459 329.699200
   7371   7369   7372     1   109.8000471 387.438400
   7373   7372   7378     1   109.7800468 425.094400
   7373   7372   7374     1   108.4600466 328.025600
   7374   7372   7378     1   109.7800468 425.094400
   7376   7375   7377     1   108.3000464 339.740800
   7376   7375   7379     1   108.3000464 339.740800
   7377   7375   7379     1   108.3000464 339.740800
   7380   7383   7384     1   109.8000471 387.438400
   7380   7383   7385     1   109.8000471 387.438400
   7380   7389   7390     1   110.1100470 384.091200
   7380   7389   7391     1   110.1100470 384.091200
   7380   7389   7393     1   110.1100470 384.091200
   7381   7380   7383     1   110.5600475 386.601600
   7381   7380   7389     1   108.0100461 406.684800
   7381   7380   7382     1   109.7500473 328.025600
   7382   7380   7383     1   110.5600475 386.601600
   7382   7380   7389     1   108.0100461 406.684800
   7383   7386   7387     1   109.5600471 388.275200
   7383   7386   7388     1   109.5600471 388.275200
   7384   7383   7386     1   109.8000471 387.438400
   7384   7383   7385     1   107.5800459 329.699200
   7385   7383   7386     1   109.8000471 387.438400
   7387   7386   7392     1   109.7800468 425.094400
   7387   7386   7388     1   108.4600466 328.025600
   7388   7386   7392     1   109.7800468 425.094400
   7390   7389   7391     1   108.3000464 339.740800
   7390   7389   7393     1   108.3000464 339.740800
   7391   7389   7393     1   108.3000464 339.740800
   7394   7397   7398     1   109.8000471 387.438400
   7394   7397   7399     1   109.8000471 387.438400
   7394   7403   7404     1   110.1100470 384.091200
   7394   7403   7405     1   110.1100470 384.091200
   7394   7403   7407     1   110.1100470 384.091200
   7395   7394   7397     1   110.5600475 386.601600
   7395   7394   7403     1   108.0100461 406.684800
   7395   7394   7396     1   109.7500473 328.025600
   7396   7394   7397     1   110.5600475 386.601600
   7396   7394   7403     1   108.0100461 406.684800
   7397   7400   7401     1   109.5600471 388.275200
   7397   7400   7402     1   109.5600471 388.275200
   7398   7397   7400     1   109.8000471 387.438400
   7398   7397   7399     1   107.5800459 329.699200
   7399   7397   7400     1   109.8000471 387.438400
   7401   7400   7406     1   109.7800468 425.094400
   7401   7400   7402     1   108.4600466 328.025600
   7402   7400   7406     1   109.7800468 425.094400
   7404   7403   7405     1   108.3000464 339.740800
   7404   7403   7407     1   108.3000464 339.740800
   7405   7403   7407     1   108.3000464 339.740800
   7408   7411   7412     1   109.8000471 387.438400
   7408   7411   7413     1   109.8000471 387.438400
   7408   7417   7418     1   110.1100470 384.091200
   7408   7417   7419     1   110.1100470 384.091200
   7408   7417   7421     1   110.1100470 384.091200
   7409   7408   7411     1   110.5600475 386.601600
   7409   7408   7417     1   108.0100461 406.684800
   7409   7408   7410     1   109.7500473 328.025600
   7410   7408   7411     1   110.5600475 386.601600
   7410   7408   7417     1   108.0100461 406.684800
   7411   7414   7415     1   109.5600471 388.275200
   7411   7414   7416     1   109.5600471 388.275200
   7412   7411   7414     1   109.8000471 387.438400
   7412   7411   7413     1   107.5800459 329.699200
   7413   7411   7414     1   109.8000471 387.438400
   7415   7414   7420     1   109.7800468 425.094400
   7415   7414   7416     1   108.4600466 328.025600
   7416   7414   7420     1   109.7800468 425.094400
   7418   7417   7419     1   108.3000464 339.740800
   7418   7417   7421     1   108.3000464 339.740800
   7419   7417   7421     1   108.3000464 339.740800
   7422   7425   7426     1   109.8000471 387.438400
   7422   7425   7427     1   109.8000471 387.438400
   7422   7431   7432     1   110.1100470 384.091200
   7422   7431   7433     1   110.1100470 384.091200
   7422   7431   7435     1   110.1100470 384.091200
   7423   7422   7425     1   110.5600475 386.601600
   7423   7422   7431     1   108.0100461 406.684800
   7423   7422   7424     1   109.7500473 328.025600
   7424   7422   7425     1   110.5600475 386.601600
   7424   7422   7431     1   108.0100461 406.684800
   7425   7428   7429     1   109.5600471 388.275200
   7425   7428   7430     1   109.5600471 388.275200
   7426   7425   7428     1   109.8000471 387.438400
   7426   7425   7427     1   107.5800459 329.699200
   7427   7425   7428     1   109.8000471 387.438400
   7429   7428   7434     1   109.7800468 425.094400
   7429   7428   7430     1   108.4600466 328.025600
   7430   7428   7434     1   109.7800468 425.094400
   7432   7431   7433     1   108.3000464 339.740800
   7432   7431   7435     1   108.3000464 339.740800
   7433   7431   7435     1   108.3000464 339.740800
   7436   7439   7440     1   109.8000471 387.438400
   7436   7439   7441     1   109.8000471 387.438400
   7436   7445   7446     1   110.1100470 384.091200
   7436   7445   7447     1   110.1100470 384.091200
   7436   7445   7449     1   110.1100470 384.091200
   7437   7436   7439     1   110.5600475 386.601600
   7437   7436   7445     1   108.0100461 406.684800
   7437   7436   7438     1   109.7500473 328.025600
   7438   7436   7439     1   110.5600475 386.601600
   7438   7436   7445     1   108.0100461 406.684800
   7439   7442   7443     1   109.5600471 388.275200
   7439   7442   7444     1   109.5600471 388.275200
   7440   7439   7442     1   109.8000471 387.438400
   7440   7439   7441     1   107.5800459 329.699200
   7441   7439   7442     1   109.8000471 387.438400
   7443   7442   7448     1   109.7800468 425.094400
   7443   7442   7444     1   108.4600466 328.025600
   7444   7442   7448     1   109.7800468 425.094400
   7446   7445   7447     1   108.3000464 339.740800
   7446   7445   7449     1   108.3000464 339.740800
   7447   7445   7449     1   108.3000464 339.740800
   7450   7453   7454     1   109.8000471 387.438400
   7450   7453   7455     1   109.8000471 387.438400
   7450   7459   7460     1   110.1100470 384.091200
   7450   7459   7461     1   110.1100470 384.091200
   7450   7459   7463     1   110.1100470 384.091200
   7451   7450   7453     1   110.5600475 386.601600
   7451   7450   7459     1   108.0100461 406.684800
   7451   7450   7452     1   109.7500473 328.025600
   7452   7450   7453     1   110.5600475 386.601600
   7452   7450   7459     1   108.0100461 406.684800
   7453   7456   7457     1   109.5600471 388.275200
   7453   7456   7458     1   109.5600471 388.275200
   7454   7453   7456     1   109.8000471 387.438400
   7454   7453   7455     1   107.5800459 329.699200
   7455   7453   7456     1   109.8000471 387.438400
   7457   7456   7462     1   109.7800468 425.094400
   7457   7456   7458     1   108.4600466 328.025600
   7458   7456   7462     1   109.7800468 425.094400
   7460   7459   7461     1   108.3000464 339.740800
   7460   7459   7463     1   108.3000464 339.740800
   7461   7459   7463     1   108.3000464 339.740800
   7464   7467   7468     1   109.8000471 387.438400
   7464   7467   7469     1   109.8000471 387.438400
   7464   7473   7474     1   110.1100470 384.091200
   7464   7473   7475     1   110.1100470 384.091200
   7464   7473   7477     1   110.1100470 384.091200
   7465   7464   7467     1   110.5600475 386.601600
   7465   7464   7473     1   108.0100461 406.684800
   7465   7464   7466     1   109.7500473 328.025600
   7466   7464   7467     1   110.5600475 386.601600
   7466   7464   7473     1   108.0100461 406.684800
   7467   7470   7471     1   109.5600471 388.275200
   7467   7470   7472     1   109.5600471 388.275200
   7468   7467   7470     1   109.8000471 387.438400
   7468   7467   7469     1   107.5800459 329.699200
   7469   7467   7470     1   109.8000471 387.438400
   7471   7470   7476     1   109.7800468 425.094400
   7471   7470   7472     1   108.4600466 328.025600
   7472   7470   7476     1   109.7800468 425.094400
   7474   7473   7475     1   108.3000464 339.740800
   7474   7473   7477     1   108.3000464 339.740800
   7475   7473   7477     1   108.3000464 339.740800
   7478   7481   7482     1   109.8000471 387.438400
   7478   7481   7483     1   109.8000471 387.438400
   7478   7487   7488     1   110.1100470 384.091200
   7478   7487   7489     1   110.1100470 384.091200
   7478   7487   7491     1   110.1100470 384.091200
   7479   7478   7481     1   110.5600475 386.601600
   7479   7478   7487     1   108.0100461 406.684800
   7479   7478   7480     1   109.7500473 328.025600
   7480   7478   7481     1   110.5600475 386.601600
   7480   7478   7487     1   108.0100461 406.684800
   7481   7484   7485     1   109.5600471 388.275200
   7481   7484   7486     1   109.5600471 388.275200
   7482   7481   7484     1   109.8000471 387.438400
   7482   7481   7483     1   107.5800459 329.699200
   7483   7481   7484     1   109.8000471 387.438400
   7485   7484   7490     1   109.7800468 425.094400
   7485   7484   7486     1   108.4600466 328.025600
   7486   7484   7490     1   109.7800468 425.094400
   7488   7487   7489     1   108.3000464 339.740800
   7488   7487   7491     1   108.3000464 339.740800
   7489   7487   7491     1   108.3000464 339.740800
   7492   7495   7496     1   109.8000471 387.438400
   7492   7495   7497     1   109.8000471 387.438400
   7492   7501   7502     1   110.1100470 384.091200
   7492   7501   7503     1   110.1100470 384.091200
   7492   7501   7505     1   110.1100470 384.091200
   7493   7492   7495     1   110.5600475 386.601600
   7493   7492   7501     1   108.0100461 406.684800
   7493   7492   7494     1   109.7500473 328.025600
   7494   7492   7495     1   110.5600475 386.601600
   7494   7492   7501     1   108.0100461 406.684800
   7495   7498   7499     1   109.5600471 388.275200
   7495   7498   7500     1   109.5600471 388.275200
   7496   7495   7498     1   109.8000471 387.438400
   7496   7495   7497     1   107.5800459 329.699200
   7497   7495   7498     1   109.8000471 387.438400
   7499   7498   7504     1   109.7800468 425.094400
   7499   7498   7500     1   108.4600466 328.025600
   7500   7498   7504     1   109.7800468 425.094400
   7502   7501   7503     1   108.3000464 339.740800
   7502   7501   7505     1   108.3000464 339.740800
   7503   7501   7505     1   108.3000464 339.740800
   7506   7509   7510     1   109.8000471 387.438400
   7506   7509   7511     1   109.8000471 387.438400
   7506   7515   7516     1   110.1100470 384.091200
   7506   7515   7517     1   110.1100470 384.091200
   7506   7515   7519     1   110.1100470 384.091200
   7507   7506   7509     1   110.5600475 386.601600
   7507   7506   7515     1   108.0100461 406.684800
   7507   7506   7508     1   109.7500473 328.025600
   7508   7506   7509     1   110.5600475 386.601600
   7508   7506   7515     1   108.0100461 406.684800
   7509   7512   7513     1   109.5600471 388.275200
   7509   7512   7514     1   109.5600471 388.275200
   7510   7509   7512     1   109.8000471 387.438400
   7510   7509   7511     1   107.5800459 329.699200
   7511   7509   7512     1   109.8000471 387.438400
   7513   7512   7518     1   109.7800468 425.094400
   7513   7512   7514     1   108.4600466 328.025600
   7514   7512   7518     1   109.7800468 425.094400
   7516   7515   7517     1   108.3000464 339.740800
   7516   7515   7519     1   108.3000464 339.740800
   7517   7515   7519     1   108.3000464 339.740800
   7520   7523   7524     1   109.8000471 387.438400
   7520   7523   7525     1   109.8000471 387.438400
   7520   7529   7530     1   110.1100470 384.091200
   7520   7529   7531     1   110.1100470 384.091200
   7520   7529   7533     1   110.1100470 384.091200
   7521   7520   7523     1   110.5600475 386.601600
   7521   7520   7529     1   108.0100461 406.684800
   7521   7520   7522     1   109.7500473 328.025600
   7522   7520   7523     1   110.5600475 386.601600
   7522   7520   7529     1   108.0100461 406.684800
   7523   7526   7527     1   109.5600471 388.275200
   7523   7526   7528     1   109.5600471 388.275200
   7524   7523   7526     1   109.8000471 387.438400
   7524   7523   7525     1   107.5800459 329.699200
   7525   7523   7526     1   109.8000471 387.438400
   7527   7526   7532     1   109.7800468 425.094400
   7527   7526   7528     1   108.4600466 328.025600
   7528   7526   7532     1   109.7800468 425.094400
   7530   7529   7531     1   108.3000464 339.740800
   7530   7529   7533     1   108.3000464 339.740800
   7531   7529   7533     1   108.3000464 339.740800
   7534   7537   7538     1   109.8000471 387.438400
   7534   7537   7539     1   109.8000471 387.438400
   7534   7543   7544     1   110.1100470 384.091200
   7534   7543   7545     1   110.1100470 384.091200
   7534   7543   7547     1   110.1100470 384.091200
   7535   7534   7537     1   110.5600475 386.601600
   7535   7534   7543     1   108.0100461 406.684800
   7535   7534   7536     1   109.7500473 328.025600
   7536   7534   7537     1   110.5600475 386.601600
   7536   7534   7543     1   108.0100461 406.684800
   7537   7540   7541     1   109.5600471 388.275200
   7537   7540   7542     1   109.5600471 388.275200
   7538   7537   7540     1   109.8000471 387.438400
   7538   7537   7539     1   107.5800459 329.699200
   7539   7537   7540     1   109.8000471 387.438400
   7541   7540   7546     1   109.7800468 425.094400
   7541   7540   7542     1   108.4600466 328.025600
   7542   7540   7546     1   109.7800468 425.094400
   7544   7543   7545     1   108.3000464 339.740800
   7544   7543   7547     1   108.3000464 339.740800
   7545   7543   7547     1   108.3000464 339.740800
   7548   7551   7552     1   109.8000471 387.438400
   7548   7551   7553     1   109.8000471 387.438400
   7548   7557   7558     1   110.1100470 384.091200
   7548   7557   7559     1   110.1100470 384.091200
   7548   7557   7561     1   110.1100470 384.091200
   7549   7548   7551     1   110.5600475 386.601600
   7549   7548   7557     1   108.0100461 406.684800
   7549   7548   7550     1   109.7500473 328.025600
   7550   7548   7551     1   110.5600475 386.601600
   7550   7548   7557     1   108.0100461 406.684800
   7551   7554   7555     1   109.5600471 388.275200
   7551   7554   7556     1   109.5600471 388.275200
   7552   7551   7554     1   109.8000471 387.438400
   7552   7551   7553     1   107.5800459 329.699200
   7553   7551   7554     1   109.8000471 387.438400
   7555   7554   7560     1   109.7800468 425.094400
   7555   7554   7556     1   108.4600466 328.025600
   7556   7554   7560     1   109.7800468 425.094400
   7558   7557   7559     1   108.3000464 339.740800
   7558   7557   7561     1   108.3000464 339.740800
   7559   7557   7561     1   108.3000464 339.740800
   7562   7565   7566     1   109.8000471 387.438400
   7562   7565   7567     1   109.8000471 387.438400
   7562   7571   7572     1   110.1100470 384.091200
   7562   7571   7573     1   110.1100470 384.091200
   7562   7571   7575     1   110.1100470 384.091200
   7563   7562   7565     1   110.5600475 386.601600
   7563   7562   7571     1   108.0100461 406.684800
   7563   7562   7564     1   109.7500473 328.025600
   7564   7562   7565     1   110.5600475 386.601600
   7564   7562   7571     1   108.0100461 406.684800
   7565   7568   7569     1   109.5600471 388.275200
   7565   7568   7570     1   109.5600471 388.275200
   7566   7565   7568     1   109.8000471 387.438400
   7566   7565   7567     1   107.5800459 329.699200
   7567   7565   7568     1   109.8000471 387.438400
   7569   7568   7574     1   109.7800468 425.094400
   7569   7568   7570     1   108.4600466 328.025600
   7570   7568   7574     1   109.7800468 425.094400
   7572   7571   7573     1   108.3000464 339.740800
   7572   7571   7575     1   108.3000464 339.740800
   7573   7571   7575     1   108.3000464 339.740800
   7576   7579   7580     1   109.8000471 387.438400
   7576   7579   7581     1   109.8000471 387.438400
   7576   7585   7586     1   110.1100470 384.091200
   7576   7585   7587     1   110.1100470 384.091200
   7576   7585   7589     1   110.1100470 384.091200
   7577   7576   7579     1   110.5600475 386.601600
   7577   7576   7585     1   108.0100461 406.684800
   7577   7576   7578     1   109.7500473 328.025600
   7578   7576   7579     1   110.5600475 386.601600
   7578   7576   7585     1   108.0100461 406.684800
   7579   7582   7583     1   109.5600471 388.275200
   7579   7582   7584     1   109.5600471 388.275200
   7580   7579   7582     1   109.8000471 387.438400
   7580   7579   7581     1   107.5800459 329.699200
   7581   7579   7582     1   109.8000471 387.438400
   7583   7582   7588     1   109.7800468 425.094400
   7583   7582   7584     1   108.4600466 328.025600
   7584   7582   7588     1   109.7800468 425.094400
   7586   7585   7587     1   108.3000464 339.740800
   7586   7585   7589     1   108.3000464 339.740800
   7587   7585   7589     1   108.3000464 339.740800
   7590   7593   7594     1   109.8000471 387.438400
   7590   7593   7595     1   109.8000471 387.438400
   7590   7599   7600     1   110.1100470 384.091200
   7590   7599   7601     1   110.1100470 384.091200
   7590   7599   7603     1   110.1100470 384.091200
   7591   7590   7593     1   110.5600475 386.601600
   7591   7590   7599     1   108.0100461 406.684800
   7591   7590   7592     1   109.7500473 328.025600
   7592   7590   7593     1   110.5600475 386.601600
   7592   7590   7599     1   108.0100461 406.684800
   7593   7596   7597     1   109.5600471 388.275200
   7593   7596   7598     1   109.5600471 388.275200
   7594   7593   7596     1   109.8000471 387.438400
   7594   7593   7595     1   107.5800459 329.699200
   7595   7593   7596     1   109.8000471 387.438400
   7597   7596   7602     1   109.7800468 425.094400
   7597   7596   7598     1   108.4600466 328.025600
   7598   7596   7602     1   109.7800468 425.094400
   7600   7599   7601     1   108.3000464 339.740800
   7600   7599   7603     1   108.3000464 339.740800
   7601   7599   7603     1   108.3000464 339.740800
   7604   7607   7608     1   109.8000471 387.438400
   7604   7607   7609     1   109.8000471 387.438400
   7604   7613   7614     1   110.1100470 384.091200
   7604   7613   7615     1   110.1100470 384.091200
   7604   7613   7617     1   110.1100470 384.091200
   7605   7604   7607     1   110.5600475 386.601600
   7605   7604   7613     1   108.0100461 406.684800
   7605   7604   7606     1   109.7500473 328.025600
   7606   7604   7607     1   110.5600475 386.601600
   7606   7604   7613     1   108.0100461 406.684800
   7607   7610   7611     1   109.5600471 388.275200
   7607   7610   7612     1   109.5600471 388.275200
   7608   7607   7610     1   109.8000471 387.438400
   7608   7607   7609     1   107.5800459 329.699200
   7609   7607   7610     1   109.8000471 387.438400
   7611   7610   7616     1   109.7800468 425.094400
   7611   7610   7612     1   108.4600466 328.025600
   7612   7610   7616     1   109.7800468 425.094400
   7614   7613   7615     1   108.3000464 339.740800
   7614   7613   7617     1   108.3000464 339.740800
   7615   7613   7617     1   108.3000464 339.740800
   7618   7621   7622     1   109.8000471 387.438400
   7618   7621   7623     1   109.8000471 387.438400
   7618   7627   7628     1   110.1100470 384.091200
   7618   7627   7629     1   110.1100470 384.091200
   7618   7627   7631     1   110.1100470 384.091200
   7619   7618   7621     1   110.5600475 386.601600
   7619   7618   7627     1   108.0100461 406.684800
   7619   7618   7620     1   109.7500473 328.025600
   7620   7618   7621     1   110.5600475 386.601600
   7620   7618   7627     1   108.0100461 406.684800
   7621   7624   7625     1   109.5600471 388.275200
   7621   7624   7626     1   109.5600471 388.275200
   7622   7621   7624     1   109.8000471 387.438400
   7622   7621   7623     1   107.5800459 329.699200
   7623   7621   7624     1   109.8000471 387.438400
   7625   7624   7630     1   109.7800468 425.094400
   7625   7624   7626     1   108.4600466 328.025600
   7626   7624   7630     1   109.7800468 425.094400
   7628   7627   7629     1   108.3000464 339.740800
   7628   7627   7631     1   108.3000464 339.740800
   7629   7627   7631     1   108.3000464 339.740800
   7632   7635   7636     1   109.8000471 387.438400
   7632   7635   7637     1   109.8000471 387.438400
   7632   7641   7642     1   110.1100470 384.091200
   7632   7641   7643     1   110.1100470 384.091200
   7632   7641   7645     1   110.1100470 384.091200
   7633   7632   7635     1   110.5600475 386.601600
   7633   7632   7641     1   108.0100461 406.684800
   7633   7632   7634     1   109.7500473 328.025600
   7634   7632   7635     1   110.5600475 386.601600
   7634   7632   7641     1   108.0100461 406.684800
   7635   7638   7639     1   109.5600471 388.275200
   7635   7638   7640     1   109.5600471 388.275200
   7636   7635   7638     1   109.8000471 387.438400
   7636   7635   7637     1   107.5800459 329.699200
   7637   7635   7638     1   109.8000471 387.438400
   7639   7638   7644     1   109.7800468 425.094400
   7639   7638   7640     1   108.4600466 328.025600
   7640   7638   7644     1   109.7800468 425.094400
   7642   7641   7643     1   108.3000464 339.740800
   7642   7641   7645     1   108.3000464 339.740800
   7643   7641   7645     1   108.3000464 339.740800
   7646   7649   7650     1   109.8000471 387.438400
   7646   7649   7651     1   109.8000471 387.438400
   7646   7655   7656     1   110.1100470 384.091200
   7646   7655   7657     1   110.1100470 384.091200
   7646   7655   7659     1   110.1100470 384.091200
   7647   7646   7649     1   110.5600475 386.601600
   7647   7646   7655     1   108.0100461 406.684800
   7647   7646   7648     1   109.7500473 328.025600
   7648   7646   7649     1   110.5600475 386.601600
   7648   7646   7655     1   108.0100461 406.684800
   7649   7652   7653     1   109.5600471 388.275200
   7649   7652   7654     1   109.5600471 388.275200
   7650   7649   7652     1   109.8000471 387.438400
   7650   7649   7651     1   107.5800459 329.699200
   7651   7649   7652     1   109.8000471 387.438400
   7653   7652   7658     1   109.7800468 425.094400
   7653   7652   7654     1   108.4600466 328.025600
   7654   7652   7658     1   109.7800468 425.094400
   7656   7655   7657     1   108.3000464 339.740800
   7656   7655   7659     1   108.3000464 339.740800
   7657   7655   7659     1   108.3000464 339.740800
   7660   7663   7664     1   109.8000471 387.438400
   7660   7663   7665     1   109.8000471 387.438400
   7660   7669   7670     1   110.1100470 384.091200
   7660   7669   7671     1   110.1100470 384.091200
   7660   7669   7673     1   110.1100470 384.091200
   7661   7660   7663     1   110.5600475 386.601600
   7661   7660   7669     1   108.0100461 406.684800
   7661   7660   7662     1   109.7500473 328.025600
   7662   7660   7663     1   110.5600475 386.601600
   7662   7660   7669     1   108.0100461 406.684800
   7663   7666   7667     1   109.5600471 388.275200
   7663   7666   7668     1   109.5600471 388.275200
   7664   7663   7666     1   109.8000471 387.438400
   7664   7663   7665     1   107.5800459 329.699200
   7665   7663   7666     1   109.8000471 387.438400
   7667   7666   7672     1   109.7800468 425.094400
   7667   7666   7668     1   108.4600466 328.025600
   7668   7666   7672     1   109.7800468 425.094400
   7670   7669   7671     1   108.3000464 339.740800
   7670   7669   7673     1   108.3000464 339.740800
   7671   7669   7673     1   108.3000464 339.740800
   7674   7677   7678     1   109.8000471 387.438400
   7674   7677   7679     1   109.8000471 387.438400
   7674   7683   7684     1   110.1100470 384.091200
   7674   7683   7685     1   110.1100470 384.091200
   7674   7683   7687     1   110.1100470 384.091200
   7675   7674   7677     1   110.5600475 386.601600
   7675   7674   7683     1   108.0100461 406.684800
   7675   7674   7676     1   109.7500473 328.025600
   7676   7674   7677     1   110.5600475 386.601600
   7676   7674   7683     1   108.0100461 406.684800
   7677   7680   7681     1   109.5600471 388.275200
   7677   7680   7682     1   109.5600471 388.275200
   7678   7677   7680     1   109.8000471 387.438400
   7678   7677   7679     1   107.5800459 329.699200
   7679   7677   7680     1   109.8000471 387.438400
   7681   7680   7686     1   109.7800468 425.094400
   7681   7680   7682     1   108.4600466 328.025600
   7682   7680   7686     1   109.7800468 425.094400
   7684   7683   7685     1   108.3000464 339.740800
   7684   7683   7687     1   108.3000464 339.740800
   7685   7683   7687     1   108.3000464 339.740800
   7688   7691   7692     1   109.8000471 387.438400
   7688   7691   7693     1   109.8000471 387.438400
   7688   7697   7698     1   110.1100470 384.091200
   7688   7697   7699     1   110.1100470 384.091200
   7688   7697   7701     1   110.1100470 384.091200
   7689   7688   7691     1   110.5600475 386.601600
   7689   7688   7697     1   108.0100461 406.684800
   7689   7688   7690     1   109.7500473 328.025600
   7690   7688   7691     1   110.5600475 386.601600
   7690   7688   7697     1   108.0100461 406.684800
   7691   7694   7695     1   109.5600471 388.275200
   7691   7694   7696     1   109.5600471 388.275200
   7692   7691   7694     1   109.8000471 387.438400
   7692   7691   7693     1   107.5800459 329.699200
   7693   7691   7694     1   109.8000471 387.438400
   7695   7694   7700     1   109.7800468 425.094400
   7695   7694   7696     1   108.4600466 328.025600
   7696   7694   7700     1   109.7800468 425.094400
   7698   7697   7699     1   108.3000464 339.740800
   7698   7697   7701     1   108.3000464 339.740800
   7699   7697   7701     1   108.3000464 339.740800
   7702   7705   7706     1   109.8000471 387.438400
   7702   7705   7707     1   109.8000471 387.438400
   7702   7711   7712     1   110.1100470 384.091200
   7702   7711   7713     1   110.1100470 384.091200
   7702   7711   7715     1   110.1100470 384.091200
   7703   7702   7705     1   110.5600475 386.601600
   7703   7702   7711     1   108.0100461 406.684800
   7703   7702   7704     1   109.7500473 328.025600
   7704   7702   7705     1   110.5600475 386.601600
   7704   7702   7711     1   108.0100461 406.684800
   7705   7708   7709     1   109.5600471 388.275200
   7705   7708   7710     1   109.5600471 388.275200
   7706   7705   7708     1   109.8000471 387.438400
   7706   7705   7707     1   107.5800459 329.699200
   7707   7705   7708     1   109.8000471 387.438400
   7709   7708   7714     1   109.7800468 425.094400
   7709   7708   7710     1   108.4600466 328.025600
   7710   7708   7714     1   109.7800468 425.094400
   7712   7711   7713     1   108.3000464 339.740800
   7712   7711   7715     1   108.3000464 339.740800
   7713   7711   7715     1   108.3000464 339.740800
   7716   7719   7720     1   109.8000471 387.438400
   7716   7719   7721     1   109.8000471 387.438400
   7716   7725   7726     1   110.1100470 384.091200
   7716   7725   7727     1   110.1100470 384.091200
   7716   7725   7729     1   110.1100470 384.091200
   7717   7716   7719     1   110.5600475 386.601600
   7717   7716   7725     1   108.0100461 406.684800
   7717   7716   7718     1   109.7500473 328.025600
   7718   7716   7719     1   110.5600475 386.601600
   7718   7716   7725     1   108.0100461 406.684800
   7719   7722   7723     1   109.5600471 388.275200
   7719   7722   7724     1   109.5600471 388.275200
   7720   7719   7722     1   109.8000471 387.438400
   7720   7719   7721     1   107.5800459 329.699200
   7721   7719   7722     1   109.8000471 387.438400
   7723   7722   7728     1   109.7800468 425.094400
   7723   7722   7724     1   108.4600466 328.025600
   7724   7722   7728     1   109.7800468 425.094400
   7726   7725   7727     1   108.3000464 339.740800
   7726   7725   7729     1   108.3000464 339.740800
   7727   7725   7729     1   108.3000464 339.740800
   7730   7733   7734     1   109.8000471 387.438400
   7730   7733   7735     1   109.8000471 387.438400
   7730   7739   7740     1   110.1100470 384.091200
   7730   7739   7741     1   110.1100470 384.091200
   7730   7739   7743     1   110.1100470 384.091200
   7731   7730   7733     1   110.5600475 386.601600
   7731   7730   7739     1   108.0100461 406.684800
   7731   7730   7732     1   109.7500473 328.025600
   7732   7730   7733     1   110.5600475 386.601600
   7732   7730   7739     1   108.0100461 406.684800
   7733   7736   7737     1   109.5600471 388.275200
   7733   7736   7738     1   109.5600471 388.275200
   7734   7733   7736     1   109.8000471 387.438400
   7734   7733   7735     1   107.5800459 329.699200
   7735   7733   7736     1   109.8000471 387.438400
   7737   7736   7742     1   109.7800468 425.094400
   7737   7736   7738     1   108.4600466 328.025600
   7738   7736   7742     1   109.7800468 425.094400
   7740   7739   7741     1   108.3000464 339.740800
   7740   7739   7743     1   108.3000464 339.740800
   7741   7739   7743     1   108.3000464 339.740800
   7744   7747   7748     1   109.8000471 387.438400
   7744   7747   7749     1   109.8000471 387.438400
   7744   7753   7754     1   110.1100470 384.091200
   7744   7753   7755     1   110.1100470 384.091200
   7744   7753   7757     1   110.1100470 384.091200
   7745   7744   7747     1   110.5600475 386.601600
   7745   7744   7753     1   108.0100461 406.684800
   7745   7744   7746     1   109.7500473 328.025600
   7746   7744   7747     1   110.5600475 386.601600
   7746   7744   7753     1   108.0100461 406.684800
   7747   7750   7751     1   109.5600471 388.275200
   7747   7750   7752     1   109.5600471 388.275200
   7748   7747   7750     1   109.8000471 387.438400
   7748   7747   7749     1   107.5800459 329.699200
   7749   7747   7750     1   109.8000471 387.438400
   7751   7750   7756     1   109.7800468 425.094400
   7751   7750   7752     1   108.4600466 328.025600
   7752   7750   7756     1   109.7800468 425.094400
   7754   7753   7755     1   108.3000464 339.740800
   7754   7753   7757     1   108.3000464 339.740800
   7755   7753   7757     1   108.3000464 339.740800
   7758   7761   7762     1   109.8000471 387.438400
   7758   7761   7763     1   109.8000471 387.438400
   7758   7767   7768     1   110.1100470 384.091200
   7758   7767   7769     1   110.1100470 384.091200
   7758   7767   7771     1   110.1100470 384.091200
   7759   7758   7761     1   110.5600475 386.601600
   7759   7758   7767     1   108.0100461 406.684800
   7759   7758   7760     1   109.7500473 328.025600
   7760   7758   7761     1   110.5600475 386.601600
   7760   7758   7767     1   108.0100461 406.684800
   7761   7764   7765     1   109.5600471 388.275200
   7761   7764   7766     1   109.5600471 388.275200
   7762   7761   7764     1   109.8000471 387.438400
   7762   7761   7763     1   107.5800459 329.699200
   7763   7761   7764     1   109.8000471 387.438400
   7765   7764   7770     1   109.7800468 425.094400
   7765   7764   7766     1   108.4600466 328.025600
   7766   7764   7770     1   109.7800468 425.094400
   7768   7767   7769     1   108.3000464 339.740800
   7768   7767   7771     1   108.3000464 339.740800
   7769   7767   7771     1   108.3000464 339.740800
   7772   7775   7776     1   109.8000471 387.438400
   7772   7775   7777     1   109.8000471 387.438400
   7772   7781   7782     1   110.1100470 384.091200
   7772   7781   7783     1   110.1100470 384.091200
   7772   7781   7785     1   110.1100470 384.091200
   7773   7772   7775     1   110.5600475 386.601600
   7773   7772   7781     1   108.0100461 406.684800
   7773   7772   7774     1   109.7500473 328.025600
   7774   7772   7775     1   110.5600475 386.601600
   7774   7772   7781     1   108.0100461 406.684800
   7775   7778   7779     1   109.5600471 388.275200
   7775   7778   7780     1   109.5600471 388.275200
   7776   7775   7778     1   109.8000471 387.438400
   7776   7775   7777     1   107.5800459 329.699200
   7777   7775   7778     1   109.8000471 387.438400
   7779   7778   7784     1   109.7800468 425.094400
   7779   7778   7780     1   108.4600466 328.025600
   7780   7778   7784     1   109.7800468 425.094400
   7782   7781   7783     1   108.3000464 339.740800
   7782   7781   7785     1   108.3000464 339.740800
   7783   7781   7785     1   108.3000464 339.740800
   7786   7789   7790     1   109.8000471 387.438400
   7786   7789   7791     1   109.8000471 387.438400
   7786   7795   7796     1   110.1100470 384.091200
   7786   7795   7797     1   110.1100470 384.091200
   7786   7795   7799     1   110.1100470 384.091200
   7787   7786   7789     1   110.5600475 386.601600
   7787   7786   7795     1   108.0100461 406.684800
   7787   7786   7788     1   109.7500473 328.025600
   7788   7786   7789     1   110.5600475 386.601600
   7788   7786   7795     1   108.0100461 406.684800
   7789   7792   7793     1   109.5600471 388.275200
   7789   7792   7794     1   109.5600471 388.275200
   7790   7789   7792     1   109.8000471 387.438400
   7790   7789   7791     1   107.5800459 329.699200
   7791   7789   7792     1   109.8000471 387.438400
   7793   7792   7798     1   109.7800468 425.094400
   7793   7792   7794     1   108.4600466 328.025600
   7794   7792   7798     1   109.7800468 425.094400
   7796   7795   7797     1   108.3000464 339.740800
   7796   7795   7799     1   108.3000464 339.740800
   7797   7795   7799     1   108.3000464 339.740800
   7800   7803   7804     1   109.8000471 387.438400
   7800   7803   7805     1   109.8000471 387.438400
   7800   7809   7810     1   110.1100470 384.091200
   7800   7809   7811     1   110.1100470 384.091200
   7800   7809   7813     1   110.1100470 384.091200
   7801   7800   7803     1   110.5600475 386.601600
   7801   7800   7809     1   108.0100461 406.684800
   7801   7800   7802     1   109.7500473 328.025600
   7802   7800   7803     1   110.5600475 386.601600
   7802   7800   7809     1   108.0100461 406.684800
   7803   7806   7807     1   109.5600471 388.275200
   7803   7806   7808     1   109.5600471 388.275200
   7804   7803   7806     1   109.8000471 387.438400
   7804   7803   7805     1   107.5800459 329.699200
   7805   7803   7806     1   109.8000471 387.438400
   7807   7806   7812     1   109.7800468 425.094400
   7807   7806   7808     1   108.4600466 328.025600
   7808   7806   7812     1   109.7800468 425.094400
   7810   7809   7811     1   108.3000464 339.740800
   7810   7809   7813     1   108.3000464 339.740800
   7811   7809   7813     1   108.3000464 339.740800
   7814   7817   7818     1   109.8000471 387.438400
   7814   7817   7819     1   109.8000471 387.438400
   7814   7823   7824     1   110.1100470 384.091200
   7814   7823   7825     1   110.1100470 384.091200
   7814   7823   7827     1   110.1100470 384.091200
   7815   7814   7817     1   110.5600475 386.601600
   7815   7814   7823     1   108.0100461 406.684800
   7815   7814   7816     1   109.7500473 328.025600
   7816   7814   7817     1   110.5600475 386.601600
   7816   7814   7823     1   108.0100461 406.684800
   7817   7820   7821     1   109.5600471 388.275200
   7817   7820   7822     1   109.5600471 388.275200
   7818   7817   7820     1   109.8000471 387.438400
   7818   7817   7819     1   107.5800459 329.699200
   7819   7817   7820     1   109.8000471 387.438400
   7821   7820   7826     1   109.7800468 425.094400
   7821   7820   7822     1   108.4600466 328.025600
   7822   7820   7826     1   109.7800468 425.094400
   7824   7823   7825     1   108.3000464 339.740800
   7824   7823   7827     1   108.3000464 339.740800
   7825   7823   7827     1   108.3000464 339.740800
   7828   7831   7832     1   109.8000471 387.438400
   7828   7831   7833     1   109.8000471 387.438400
   7828   7837   7838     1   110.1100470 384.091200
   7828   7837   7839     1   110.1100470 384.091200
   7828   7837   7841     1   110.1100470 384.091200
   7829   7828   7831     1   110.5600475 386.601600
   7829   7828   7837     1   108.0100461 406.684800
   7829   7828   7830     1   109.7500473 328.025600
   7830   7828   7831     1   110.5600475 386.601600
   7830   7828   7837     1   108.0100461 406.684800
   7831   7834   7835     1   109.5600471 388.275200
   7831   7834   7836     1   109.5600471 388.275200
   7832   7831   7834     1   109.8000471 387.438400
   7832   7831   7833     1   107.5800459 329.699200
   7833   7831   7834     1   109.8000471 387.438400
   7835   7834   7840     1   109.7800468 425.094400
   7835   7834   7836     1   108.4600466 328.025600
   7836   7834   7840     1   109.7800468 425.094400
   7838   7837   7839     1   108.3000464 339.740800
   7838   7837   7841     1   108.3000464 339.740800
   7839   7837   7841     1   108.3000464 339.740800
   7842   7845   7846     1   109.8000471 387.438400
   7842   7845   7847     1   109.8000471 387.438400
   7842   7851   7852     1   110.1100470 384.091200
   7842   7851   7853     1   110.1100470 384.091200
   7842   7851   7855     1   110.1100470 384.091200
   7843   7842   7845     1   110.5600475 386.601600
   7843   7842   7851     1   108.0100461 406.684800
   7843   7842   7844     1   109.7500473 328.025600
   7844   7842   7845     1   110.5600475 386.601600
   7844   7842   7851     1   108.0100461 406.684800
   7845   7848   7849     1   109.5600471 388.275200
   7845   7848   7850     1   109.5600471 388.275200
   7846   7845   7848     1   109.8000471 387.438400
   7846   7845   7847     1   107.5800459 329.699200
   7847   7845   7848     1   109.8000471 387.438400
   7849   7848   7854     1   109.7800468 425.094400
   7849   7848   7850     1   108.4600466 328.025600
   7850   7848   7854     1   109.7800468 425.094400
   7852   7851   7853     1   108.3000464 339.740800
   7852   7851   7855     1   108.3000464 339.740800
   7853   7851   7855     1   108.3000464 339.740800
   7856   7859   7860     1   109.8000471 387.438400
   7856   7859   7861     1   109.8000471 387.438400
   7856   7865   7866     1   110.1100470 384.091200
   7856   7865   7867     1   110.1100470 384.091200
   7856   7865   7869     1   110.1100470 384.091200
   7857   7856   7859     1   110.5600475 386.601600
   7857   7856   7865     1   108.0100461 406.684800
   7857   7856   7858     1   109.7500473 328.025600
   7858   7856   7859     1   110.5600475 386.601600
   7858   7856   7865     1   108.0100461 406.684800
   7859   7862   7863     1   109.5600471 388.275200
   7859   7862   7864     1   109.5600471 388.275200
   7860   7859   7862     1   109.8000471 387.438400
   7860   7859   7861     1   107.5800459 329.699200
   7861   7859   7862     1   109.8000471 387.438400
   7863   7862   7868     1   109.7800468 425.094400
   7863   7862   7864     1   108.4600466 328.025600
   7864   7862   7868     1   109.7800468 425.094400
   7866   7865   7867     1   108.3000464 339.740800
   7866   7865   7869     1   108.3000464 339.740800
   7867   7865   7869     1   108.3000464 339.740800
   7870   7873   7874     1   109.8000471 387.438400
   7870   7873   7875     1   109.8000471 387.438400
   7870   7879   7880     1   110.1100470 384.091200
   7870   7879   7881     1   110.1100470 384.091200
   7870   7879   7883     1   110.1100470 384.091200
   7871   7870   7873     1   110.5600475 386.601600
   7871   7870   7879     1   108.0100461 406.684800
   7871   7870   7872     1   109.7500473 328.025600
   7872   7870   7873     1   110.5600475 386.601600
   7872   7870   7879     1   108.0100461 406.684800
   7873   7876   7877     1   109.5600471 388.275200
   7873   7876   7878     1   109.5600471 388.275200
   7874   7873   7876     1   109.8000471 387.438400
   7874   7873   7875     1   107.5800459 329.699200
   7875   7873   7876     1   109.8000471 387.438400
   7877   7876   7882     1   109.7800468 425.094400
   7877   7876   7878     1   108.4600466 328.025600
   7878   7876   7882     1   109.7800468 425.094400
   7880   7879   7881     1   108.3000464 339.740800
   7880   7879   7883     1   108.3000464 339.740800
   7881   7879   7883     1   108.3000464 339.740800
   7884   7887   7888     1   109.8000471 387.438400
   7884   7887   7889     1   109.8000471 387.438400
   7884   7893   7894     1   110.1100470 384.091200
   7884   7893   7895     1   110.1100470 384.091200
   7884   7893   7897     1   110.1100470 384.091200
   7885   7884   7887     1   110.5600475 386.601600
   7885   7884   7893     1   108.0100461 406.684800
   7885   7884   7886     1   109.7500473 328.025600
   7886   7884   7887     1   110.5600475 386.601600
   7886   7884   7893     1   108.0100461 406.684800
   7887   7890   7891     1   109.5600471 388.275200
   7887   7890   7892     1   109.5600471 388.275200
   7888   7887   7890     1   109.8000471 387.438400
   7888   7887   7889     1   107.5800459 329.699200
   7889   7887   7890     1   109.8000471 387.438400
   7891   7890   7896     1   109.7800468 425.094400
   7891   7890   7892     1   108.4600466 328.025600
   7892   7890   7896     1   109.7800468 425.094400
   7894   7893   7895     1   108.3000464 339.740800
   7894   7893   7897     1   108.3000464 339.740800
   7895   7893   7897     1   108.3000464 339.740800
   7898   7901   7902     1   109.8000471 387.438400
   7898   7901   7903     1   109.8000471 387.438400
   7898   7907   7908     1   110.1100470 384.091200
   7898   7907   7909     1   110.1100470 384.091200
   7898   7907   7911     1   110.1100470 384.091200
   7899   7898   7901     1   110.5600475 386.601600
   7899   7898   7907     1   108.0100461 406.684800
   7899   7898   7900     1   109.7500473 328.025600
   7900   7898   7901     1   110.5600475 386.601600
   7900   7898   7907     1   108.0100461 406.684800
   7901   7904   7905     1   109.5600471 388.275200
   7901   7904   7906     1   109.5600471 388.275200
   7902   7901   7904     1   109.8000471 387.438400
   7902   7901   7903     1   107.5800459 329.699200
   7903   7901   7904     1   109.8000471 387.438400
   7905   7904   7910     1   109.7800468 425.094400
   7905   7904   7906     1   108.4600466 328.025600
   7906   7904   7910     1   109.7800468 425.094400
   7908   7907   7909     1   108.3000464 339.740800
   7908   7907   7911     1   108.3000464 339.740800
   7909   7907   7911     1   108.3000464 339.740800
   7912   7915   7916     1   109.8000471 387.438400
   7912   7915   7917     1   109.8000471 387.438400
   7912   7921   7922     1   110.1100470 384.091200
   7912   7921   7923     1   110.1100470 384.091200
   7912   7921   7925     1   110.1100470 384.091200
   7913   7912   7915     1   110.5600475 386.601600
   7913   7912   7921     1   108.0100461 406.684800
   7913   7912   7914     1   109.7500473 328.025600
   7914   7912   7915     1   110.5600475 386.601600
   7914   7912   7921     1   108.0100461 406.684800
   7915   7918   7919     1   109.5600471 388.275200
   7915   7918   7920     1   109.5600471 388.275200
   7916   7915   7918     1   109.8000471 387.438400
   7916   7915   7917     1   107.5800459 329.699200
   7917   7915   7918     1   109.8000471 387.438400
   7919   7918   7924     1   109.7800468 425.094400
   7919   7918   7920     1   108.4600466 328.025600
   7920   7918   7924     1   109.7800468 425.094400
   7922   7921   7923     1   108.3000464 339.740800
   7922   7921   7925     1   108.3000464 339.740800
   7923   7921   7925     1   108.3000464 339.740800
   7926   7929   7930     1   109.8000471 387.438400
   7926   7929   7931     1   109.8000471 387.438400
   7926   7935   7936     1   110.1100470 384.091200
   7926   7935   7937     1   110.1100470 384.091200
   7926   7935   7939     1   110.1100470 384.091200
   7927   7926   7929     1   110.5600475 386.601600
   7927   7926   7935     1   108.0100461 406.684800
   7927   7926   7928     1   109.7500473 328.025600
   7928   7926   7929     1   110.5600475 386.601600
   7928   7926   7935     1   108.0100461 406.684800
   7929   7932   7933     1   109.5600471 388.275200
   7929   7932   7934     1   109.5600471 388.275200
   7930   7929   7932     1   109.8000471 387.438400
   7930   7929   7931     1   107.5800459 329.699200
   7931   7929   7932     1   109.8000471 387.438400
   7933   7932   7938     1   109.7800468 425.094400
   7933   7932   7934     1   108.4600466 328.025600
   7934   7932   7938     1   109.7800468 425.094400
   7936   7935   7937     1   108.3000464 339.740800
   7936   7935   7939     1   108.3000464 339.740800
   7937   7935   7939     1   108.3000464 339.740800
   7940   7943   7944     1   109.8000471 387.438400
   7940   7943   7945     1   109.8000471 387.438400
   7940   7949   7950     1   110.1100470 384.091200
   7940   7949   7951     1   110.1100470 384.091200
   7940   7949   7953     1   110.1100470 384.091200
   7941   7940   7943     1   110.5600475 386.601600
   7941   7940   7949     1   108.0100461 406.684800
   7941   7940   7942     1   109.7500473 328.025600
   7942   7940   7943     1   110.5600475 386.601600
   7942   7940   7949     1   108.0100461 406.684800
   7943   7946   7947     1   109.5600471 388.275200
   7943   7946   7948     1   109.5600471 388.275200
   7944   7943   7946     1   109.8000471 387.438400
   7944   7943   7945     1   107.5800459 329.699200
   7945   7943   7946     1   109.8000471 387.438400
   7947   7946   7952     1   109.7800468 425.094400
   7947   7946   7948     1   108.4600466 328.025600
   7948   7946   7952     1   109.7800468 425.094400
   7950   7949   7951     1   108.3000464 339.740800
   7950   7949   7953     1   108.3000464 339.740800
   7951   7949   7953     1   108.3000464 339.740800
   7954   7957   7958     1   109.8000471 387.438400
   7954   7957   7959     1   109.8000471 387.438400
   7954   7963   7964     1   110.1100470 384.091200
   7954   7963   7965     1   110.1100470 384.091200
   7954   7963   7967     1   110.1100470 384.091200
   7955   7954   7957     1   110.5600475 386.601600
   7955   7954   7963     1   108.0100461 406.684800
   7955   7954   7956     1   109.7500473 328.025600
   7956   7954   7957     1   110.5600475 386.601600
   7956   7954   7963     1   108.0100461 406.684800
   7957   7960   7961     1   109.5600471 388.275200
   7957   7960   7962     1   109.5600471 388.275200
   7958   7957   7960     1   109.8000471 387.438400
   7958   7957   7959     1   107.5800459 329.699200
   7959   7957   7960     1   109.8000471 387.438400
   7961   7960   7966     1   109.7800468 425.094400
   7961   7960   7962     1   108.4600466 328.025600
   7962   7960   7966     1   109.7800468 425.094400
   7964   7963   7965     1   108.3000464 339.740800
   7964   7963   7967     1   108.3000464 339.740800
   7965   7963   7967     1   108.3000464 339.740800
   7968   7971   7972     1   109.8000471 387.438400
   7968   7971   7973     1   109.8000471 387.438400
   7968   7977   7978     1   110.1100470 384.091200
   7968   7977   7979     1   110.1100470 384.091200
   7968   7977   7981     1   110.1100470 384.091200
   7969   7968   7971     1   110.5600475 386.601600
   7969   7968   7977     1   108.0100461 406.684800
   7969   7968   7970     1   109.7500473 328.025600
   7970   7968   7971     1   110.5600475 386.601600
   7970   7968   7977     1   108.0100461 406.684800
   7971   7974   7975     1   109.5600471 388.275200
   7971   7974   7976     1   109.5600471 388.275200
   7972   7971   7974     1   109.8000471 387.438400
   7972   7971   7973     1   107.5800459 329.699200
   7973   7971   7974     1   109.8000471 387.438400
   7975   7974   7980     1   109.7800468 425.094400
   7975   7974   7976     1   108.4600466 328.025600
   7976   7974   7980     1   109.7800468 425.094400
   7978   7977   7979     1   108.3000464 339.740800
   7978   7977   7981     1   108.3000464 339.740800
   7979   7977   7981     1   108.3000464 339.740800
   7982   7985   7986     1   109.8000471 387.438400
   7982   7985   7987     1   109.8000471 387.438400
   7982   7991   7992     1   110.1100470 384.091200
   7982   7991   7993     1   110.1100470 384.091200
   7982   7991   7995     1   110.1100470 384.091200
   7983   7982   7985     1   110.5600475 386.601600
   7983   7982   7991     1   108.0100461 406.684800
   7983   7982   7984     1   109.7500473 328.025600
   7984   7982   7985     1   110.5600475 386.601600
   7984   7982   7991     1   108.0100461 406.684800
   7985   7988   7989     1   109.5600471 388.275200
   7985   7988   7990     1   109.5600471 388.275200
   7986   7985   7988     1   109.8000471 387.438400
   7986   7985   7987     1   107.5800459 329.699200
   7987   7985   7988     1   109.8000471 387.438400
   7989   7988   7994     1   109.7800468 425.094400
   7989   7988   7990     1   108.4600466 328.025600
   7990   7988   7994     1   109.7800468 425.094400
   7992   7991   7993     1   108.3000464 339.740800
   7992   7991   7995     1   108.3000464 339.740800
   7993   7991   7995     1   108.3000464 339.740800
   7996   7999   8000     1   109.8000471 387.438400
   7996   7999   8001     1   109.8000471 387.438400
   7996   8005   8006     1   110.1100470 384.091200
   7996   8005   8007     1   110.1100470 384.091200
   7996   8005   8009     1   110.1100470 384.091200
   7997   7996   7999     1   110.5600475 386.601600
   7997   7996   8005     1   108.0100461 406.684800
   7997   7996   7998     1   109.7500473 328.025600
   7998   7996   7999     1   110.5600475 386.601600
   7998   7996   8005     1   108.0100461 406.684800
   7999   8002   8003     1   109.5600471 388.275200
   7999   8002   8004     1   109.5600471 388.275200
   8000   7999   8002     1   109.8000471 387.438400
   8000   7999   8001     1   107.5800459 329.699200
   8001   7999   8002     1   109.8000471 387.438400
   8003   8002   8008     1   109.7800468 425.094400
   8003   8002   8004     1   108.4600466 328.025600
   8004   8002   8008     1   109.7800468 425.094400
   8006   8005   8007     1   108.3000464 339.740800
   8006   8005   8009     1   108.3000464 339.740800
   8007   8005   8009     1   108.3000464 339.740800
   8010   8013   8014     1   109.8000471 387.438400
   8010   8013   8015     1   109.8000471 387.438400
   8010   8019   8020     1   110.1100470 384.091200
   8010   8019   8021     1   110.1100470 384.091200
   8010   8019   8023     1   110.1100470 384.091200
   8011   8010   8013     1   110.5600475 386.601600
   8011   8010   8019     1   108.0100461 406.684800
   8011   8010   8012     1   109.7500473 328.025600
   8012   8010   8013     1   110.5600475 386.601600
   8012   8010   8019     1   108.0100461 406.684800
   8013   8016   8017     1   109.5600471 388.275200
   8013   8016   8018     1   109.5600471 388.275200
   8014   8013   8016     1   109.8000471 387.438400
   8014   8013   8015     1   107.5800459 329.699200
   8015   8013   8016     1   109.8000471 387.438400
   8017   8016   8022     1   109.7800468 425.094400
   8017   8016   8018     1   108.4600466 328.025600
   8018   8016   8022     1   109.7800468 425.094400
   8020   8019   8021     1   108.3000464 339.740800
   8020   8019   8023     1   108.3000464 339.740800
   8021   8019   8023     1   108.3000464 339.740800
   8024   8027   8028     1   109.8000471 387.438400
   8024   8027   8029     1   109.8000471 387.438400
   8024   8033   8034     1   110.1100470 384.091200
   8024   8033   8035     1   110.1100470 384.091200
   8024   8033   8037     1   110.1100470 384.091200
   8025   8024   8027     1   110.5600475 386.601600
   8025   8024   8033     1   108.0100461 406.684800
   8025   8024   8026     1   109.7500473 328.025600
   8026   8024   8027     1   110.5600475 386.601600
   8026   8024   8033     1   108.0100461 406.684800
   8027   8030   8031     1   109.5600471 388.275200
   8027   8030   8032     1   109.5600471 388.275200
   8028   8027   8030     1   109.8000471 387.438400
   8028   8027   8029     1   107.5800459 329.699200
   8029   8027   8030     1   109.8000471 387.438400
   8031   8030   8036     1   109.7800468 425.094400
   8031   8030   8032     1   108.4600466 328.025600
   8032   8030   8036     1   109.7800468 425.094400
   8034   8033   8035     1   108.3000464 339.740800
   8034   8033   8037     1   108.3000464 339.740800
   8035   8033   8037     1   108.3000464 339.740800
   8038   8041   8042     1   109.8000471 387.438400
   8038   8041   8043     1   109.8000471 387.438400
   8038   8047   8048     1   110.1100470 384.091200
   8038   8047   8049     1   110.1100470 384.091200
   8038   8047   8051     1   110.1100470 384.091200
   8039   8038   8041     1   110.5600475 386.601600
   8039   8038   8047     1   108.0100461 406.684800
   8039   8038   8040     1   109.7500473 328.025600
   8040   8038   8041     1   110.5600475 386.601600
   8040   8038   8047     1   108.0100461 406.684800
   8041   8044   8045     1   109.5600471 388.275200
   8041   8044   8046     1   109.5600471 388.275200
   8042   8041   8044     1   109.8000471 387.438400
   8042   8041   8043     1   107.5800459 329.699200
   8043   8041   8044     1   109.8000471 387.438400
   8045   8044   8050     1   109.7800468 425.094400
   8045   8044   8046     1   108.4600466 328.025600
   8046   8044   8050     1   109.7800468 425.094400
   8048   8047   8049     1   108.3000464 339.740800
   8048   8047   8051     1   108.3000464 339.740800
   8049   8047   8051     1   108.3000464 339.740800
   8052   8055   8056     1   109.8000471 387.438400
   8052   8055   8057     1   109.8000471 387.438400
   8052   8061   8062     1   110.1100470 384.091200
   8052   8061   8063     1   110.1100470 384.091200
   8052   8061   8065     1   110.1100470 384.091200
   8053   8052   8055     1   110.5600475 386.601600
   8053   8052   8061     1   108.0100461 406.684800
   8053   8052   8054     1   109.7500473 328.025600
   8054   8052   8055     1   110.5600475 386.601600
   8054   8052   8061     1   108.0100461 406.684800
   8055   8058   8059     1   109.5600471 388.275200
   8055   8058   8060     1   109.5600471 388.275200
   8056   8055   8058     1   109.8000471 387.438400
   8056   8055   8057     1   107.5800459 329.699200
   8057   8055   8058     1   109.8000471 387.438400
   8059   8058   8064     1   109.7800468 425.094400
   8059   8058   8060     1   108.4600466 328.025600
   8060   8058   8064     1   109.7800468 425.094400
   8062   8061   8063     1   108.3000464 339.740800
   8062   8061   8065     1   108.3000464 339.740800
   8063   8061   8065     1   108.3000464 339.740800
   8066   8069   8070     1   109.8000471 387.438400
   8066   8069   8071     1   109.8000471 387.438400
   8066   8075   8076     1   110.1100470 384.091200
   8066   8075   8077     1   110.1100470 384.091200
   8066   8075   8079     1   110.1100470 384.091200
   8067   8066   8069     1   110.5600475 386.601600
   8067   8066   8075     1   108.0100461 406.684800
   8067   8066   8068     1   109.7500473 328.025600
   8068   8066   8069     1   110.5600475 386.601600
   8068   8066   8075     1   108.0100461 406.684800
   8069   8072   8073     1   109.5600471 388.275200
   8069   8072   8074     1   109.5600471 388.275200
   8070   8069   8072     1   109.8000471 387.438400
   8070   8069   8071     1   107.5800459 329.699200
   8071   8069   8072     1   109.8000471 387.438400
   8073   8072   8078     1   109.7800468 425.094400
   8073   8072   8074     1   108.4600466 328.025600
   8074   8072   8078     1   109.7800468 425.094400
   8076   8075   8077     1   108.3000464 339.740800
   8076   8075   8079     1   108.3000464 339.740800
   8077   8075   8079     1   108.3000464 339.740800
   8080   8083   8084     1   109.8000471 387.438400
   8080   8083   8085     1   109.8000471 387.438400
   8080   8089   8090     1   110.1100470 384.091200
   8080   8089   8091     1   110.1100470 384.091200
   8080   8089   8093     1   110.1100470 384.091200
   8081   8080   8083     1   110.5600475 386.601600
   8081   8080   8089     1   108.0100461 406.684800
   8081   8080   8082     1   109.7500473 328.025600
   8082   8080   8083     1   110.5600475 386.601600
   8082   8080   8089     1   108.0100461 406.684800
   8083   8086   8087     1   109.5600471 388.275200
   8083   8086   8088     1   109.5600471 388.275200
   8084   8083   8086     1   109.8000471 387.438400
   8084   8083   8085     1   107.5800459 329.699200
   8085   8083   8086     1   109.8000471 387.438400
   8087   8086   8092     1   109.7800468 425.094400
   8087   8086   8088     1   108.4600466 328.025600
   8088   8086   8092     1   109.7800468 425.094400
   8090   8089   8091     1   108.3000464 339.740800
   8090   8089   8093     1   108.3000464 339.740800
   8091   8089   8093     1   108.3000464 339.740800
   8094   8097   8098     1   109.8000471 387.438400
   8094   8097   8099     1   109.8000471 387.438400
   8094   8103   8104     1   110.1100470 384.091200
   8094   8103   8105     1   110.1100470 384.091200
   8094   8103   8107     1   110.1100470 384.091200
   8095   8094   8097     1   110.5600475 386.601600
   8095   8094   8103     1   108.0100461 406.684800
   8095   8094   8096     1   109.7500473 328.025600
   8096   8094   8097     1   110.5600475 386.601600
   8096   8094   8103     1   108.0100461 406.684800
   8097   8100   8101     1   109.5600471 388.275200
   8097   8100   8102     1   109.5600471 388.275200
   8098   8097   8100     1   109.8000471 387.438400
   8098   8097   8099     1   107.5800459 329.699200
   8099   8097   8100     1   109.8000471 387.438400
   8101   8100   8106     1   109.7800468 425.094400
   8101   8100   8102     1   108.4600466 328.025600
   8102   8100   8106     1   109.7800468 425.094400
   8104   8103   8105     1   108.3000464 339.740800
   8104   8103   8107     1   108.3000464 339.740800
   8105   8103   8107     1   108.3000464 339.740800
   8108   8111   8112     1   109.8000471 387.438400
   8108   8111   8113     1   109.8000471 387.438400
   8108   8117   8118     1   110.1100470 384.091200
   8108   8117   8119     1   110.1100470 384.091200
   8108   8117   8121     1   110.1100470 384.091200
   8109   8108   8111     1   110.5600475 386.601600
   8109   8108   8117     1   108.0100461 406.684800
   8109   8108   8110     1   109.7500473 328.025600
   8110   8108   8111     1   110.5600475 386.601600
   8110   8108   8117     1   108.0100461 406.684800
   8111   8114   8115     1   109.5600471 388.275200
   8111   8114   8116     1   109.5600471 388.275200
   8112   8111   8114     1   109.8000471 387.438400
   8112   8111   8113     1   107.5800459 329.699200
   8113   8111   8114     1   109.8000471 387.438400
   8115   8114   8120     1   109.7800468 425.094400
   8115   8114   8116     1   108.4600466 328.025600
   8116   8114   8120     1   109.7800468 425.094400
   8118   8117   8119     1   108.3000464 339.740800
   8118   8117   8121     1   108.3000464 339.740800
   8119   8117   8121     1   108.3000464 339.740800
   8122   8125   8126     1   109.8000471 387.438400
   8122   8125   8127     1   109.8000471 387.438400
   8122   8131   8132     1   110.1100470 384.091200
   8122   8131   8133     1   110.1100470 384.091200
   8122   8131   8135     1   110.1100470 384.091200
   8123   8122   8125     1   110.5600475 386.601600
   8123   8122   8131     1   108.0100461 406.684800
   8123   8122   8124     1   109.7500473 328.025600
   8124   8122   8125     1   110.5600475 386.601600
   8124   8122   8131     1   108.0100461 406.684800
   8125   8128   8129     1   109.5600471 388.275200
   8125   8128   8130     1   109.5600471 388.275200
   8126   8125   8128     1   109.8000471 387.438400
   8126   8125   8127     1   107.5800459 329.699200
   8127   8125   8128     1   109.8000471 387.438400
   8129   8128   8134     1   109.7800468 425.094400
   8129   8128   8130     1   108.4600466 328.025600
   8130   8128   8134     1   109.7800468 425.094400
   8132   8131   8133     1   108.3000464 339.740800
   8132   8131   8135     1   108.3000464 339.740800
   8133   8131   8135     1   108.3000464 339.740800
   8136   8139   8140     1   109.8000471 387.438400
   8136   8139   8141     1   109.8000471 387.438400
   8136   8145   8146     1   110.1100470 384.091200
   8136   8145   8147     1   110.1100470 384.091200
   8136   8145   8149     1   110.1100470 384.091200
   8137   8136   8139     1   110.5600475 386.601600
   8137   8136   8145     1   108.0100461 406.684800
   8137   8136   8138     1   109.7500473 328.025600
   8138   8136   8139     1   110.5600475 386.601600
   8138   8136   8145     1   108.0100461 406.684800
   8139   8142   8143     1   109.5600471 388.275200
   8139   8142   8144     1   109.5600471 388.275200
   8140   8139   8142     1   109.8000471 387.438400
   8140   8139   8141     1   107.5800459 329.699200
   8141   8139   8142     1   109.8000471 387.438400
   8143   8142   8148     1   109.7800468 425.094400
   8143   8142   8144     1   108.4600466 328.025600
   8144   8142   8148     1   109.7800468 425.094400
   8146   8145   8147     1   108.3000464 339.740800
   8146   8145   8149     1   108.3000464 339.740800
   8147   8145   8149     1   108.3000464 339.740800
   8150   8153   8154     1   109.8000471 387.438400
   8150   8153   8155     1   109.8000471 387.438400
   8150   8159   8160     1   110.1100470 384.091200
   8150   8159   8161     1   110.1100470 384.091200
   8150   8159   8163     1   110.1100470 384.091200
   8151   8150   8153     1   110.5600475 386.601600
   8151   8150   8159     1   108.0100461 406.684800
   8151   8150   8152     1   109.7500473 328.025600
   8152   8150   8153     1   110.5600475 386.601600
   8152   8150   8159     1   108.0100461 406.684800
   8153   8156   8157     1   109.5600471 388.275200
   8153   8156   8158     1   109.5600471 388.275200
   8154   8153   8156     1   109.8000471 387.438400
   8154   8153   8155     1   107.5800459 329.699200
   8155   8153   8156     1   109.8000471 387.438400
   8157   8156   8162     1   109.7800468 425.094400
   8157   8156   8158     1   108.4600466 328.025600
   8158   8156   8162     1   109.7800468 425.094400
   8160   8159   8161     1   108.3000464 339.740800
   8160   8159   8163     1   108.3000464 339.740800
   8161   8159   8163     1   108.3000464 339.740800
   8164   8167   8168     1   109.8000471 387.438400
   8164   8167   8169     1   109.8000471 387.438400
   8164   8173   8174     1   110.1100470 384.091200
   8164   8173   8175     1   110.1100470 384.091200
   8164   8173   8177     1   110.1100470 384.091200
   8165   8164   8167     1   110.5600475 386.601600
   8165   8164   8173     1   108.0100461 406.684800
   8165   8164   8166     1   109.7500473 328.025600
   8166   8164   8167     1   110.5600475 386.601600
   8166   8164   8173     1   108.0100461 406.684800
   8167   8170   8171     1   109.5600471 388.275200
   8167   8170   8172     1   109.5600471 388.275200
   8168   8167   8170     1   109.8000471 387.438400
   8168   8167   8169     1   107.5800459 329.699200
   8169   8167   8170     1   109.8000471 387.438400
   8171   8170   8176     1   109.7800468 425.094400
   8171   8170   8172     1   108.4600466 328.025600
   8172   8170   8176     1   109.7800468 425.094400
   8174   8173   8175     1   108.3000464 339.740800
   8174   8173   8177     1   108.3000464 339.740800
   8175   8173   8177     1   108.3000464 339.740800
   8178   8181   8182     1   109.8000471 387.438400
   8178   8181   8183     1   109.8000471 387.438400
   8178   8187   8188     1   110.1100470 384.091200
   8178   8187   8189     1   110.1100470 384.091200
   8178   8187   8191     1   110.1100470 384.091200
   8179   8178   8181     1   110.5600475 386.601600
   8179   8178   8187     1   108.0100461 406.684800
   8179   8178   8180     1   109.7500473 328.025600
   8180   8178   8181     1   110.5600475 386.601600
   8180   8178   8187     1   108.0100461 406.684800
   8181   8184   8185     1   109.5600471 388.275200
   8181   8184   8186     1   109.5600471 388.275200
   8182   8181   8184     1   109.8000471 387.438400
   8182   8181   8183     1   107.5800459 329.699200
   8183   8181   8184     1   109.8000471 387.438400
   8185   8184   8190     1   109.7800468 425.094400
   8185   8184   8186     1   108.4600466 328.025600
   8186   8184   8190     1   109.7800468 425.094400
   8188   8187   8189     1   108.3000464 339.740800
   8188   8187   8191     1   108.3000464 339.740800
   8189   8187   8191     1   108.3000464 339.740800
   8192   8195   8196     1   109.8000471 387.438400
   8192   8195   8197     1   109.8000471 387.438400
   8192   8201   8202     1   110.1100470 384.091200
   8192   8201   8203     1   110.1100470 384.091200
   8192   8201   8205     1   110.1100470 384.091200
   8193   8192   8195     1   110.5600475 386.601600
   8193   8192   8201     1   108.0100461 406.684800
   8193   8192   8194     1   109.7500473 328.025600
   8194   8192   8195     1   110.5600475 386.601600
   8194   8192   8201     1   108.0100461 406.684800
   8195   8198   8199     1   109.5600471 388.275200
   8195   8198   8200     1   109.5600471 388.275200
   8196   8195   8198     1   109.8000471 387.438400
   8196   8195   8197     1   107.5800459 329.699200
   8197   8195   8198     1   109.8000471 387.438400
   8199   8198   8204     1   109.7800468 425.094400
   8199   8198   8200     1   108.4600466 328.025600
   8200   8198   8204     1   109.7800468 425.094400
   8202   8201   8203     1   108.3000464 339.740800
   8202   8201   8205     1   108.3000464 339.740800
   8203   8201   8205     1   108.3000464 339.740800
   8206   8209   8210     1   109.8000471 387.438400
   8206   8209   8211     1   109.8000471 387.438400
   8206   8215   8216     1   110.1100470 384.091200
   8206   8215   8217     1   110.1100470 384.091200
   8206   8215   8219     1   110.1100470 384.091200
   8207   8206   8209     1   110.5600475 386.601600
   8207   8206   8215     1   108.0100461 406.684800
   8207   8206   8208     1   109.7500473 328.025600
   8208   8206   8209     1   110.5600475 386.601600
   8208   8206   8215     1   108.0100461 406.684800
   8209   8212   8213     1   109.5600471 388.275200
   8209   8212   8214     1   109.5600471 388.275200
   8210   8209   8212     1   109.8000471 387.438400
   8210   8209   8211     1   107.5800459 329.699200
   8211   8209   8212     1   109.8000471 387.438400
   8213   8212   8218     1   109.7800468 425.094400
   8213   8212   8214     1   108.4600466 328.025600
   8214   8212   8218     1   109.7800468 425.094400
   8216   8215   8217     1   108.3000464 339.740800
   8216   8215   8219     1   108.3000464 339.740800
   8217   8215   8219     1   108.3000464 339.740800
   8220   8223   8224     1   109.8000471 387.438400
   8220   8223   8225     1   109.8000471 387.438400
   8220   8229   8230     1   110.1100470 384.091200
   8220   8229   8231     1   110.1100470 384.091200
   8220   8229   8233     1   110.1100470 384.091200
   8221   8220   8223     1   110.5600475 386.601600
   8221   8220   8229     1   108.0100461 406.684800
   8221   8220   8222     1   109.7500473 328.025600
   8222   8220   8223     1   110.5600475 386.601600
   8222   8220   8229     1   108.0100461 406.684800
   8223   8226   8227     1   109.5600471 388.275200
   8223   8226   8228     1   109.5600471 388.275200
   8224   8223   8226     1   109.8000471 387.438400
   8224   8223   8225     1   107.5800459 329.699200
   8225   8223   8226     1   109.8000471 387.438400
   8227   8226   8232     1   109.7800468 425.094400
   8227   8226   8228     1   108.4600466 328.025600
   8228   8226   8232     1   109.7800468 425.094400
   8230   8229   8231     1   108.3000464 339.740800
   8230   8229   8233     1   108.3000464 339.740800
   8231   8229   8233     1   108.3000464 339.740800
   8234   8237   8238     1   109.8000471 387.438400
   8234   8237   8239     1   109.8000471 387.438400
   8234   8243   8244     1   110.1100470 384.091200
   8234   8243   8245     1   110.1100470 384.091200
   8234   8243   8247     1   110.1100470 384.091200
   8235   8234   8237     1   110.5600475 386.601600
   8235   8234   8243     1   108.0100461 406.684800
   8235   8234   8236     1   109.7500473 328.025600
   8236   8234   8237     1   110.5600475 386.601600
   8236   8234   8243     1   108.0100461 406.684800
   8237   8240   8241     1   109.5600471 388.275200
   8237   8240   8242     1   109.5600471 388.275200
   8238   8237   8240     1   109.8000471 387.438400
   8238   8237   8239     1   107.5800459 329.699200
   8239   8237   8240     1   109.8000471 387.438400
   8241   8240   8246     1   109.7800468 425.094400
   8241   8240   8242     1   108.4600466 328.025600
   8242   8240   8246     1   109.7800468 425.094400
   8244   8243   8245     1   108.3000464 339.740800
   8244   8243   8247     1   108.3000464 339.740800
   8245   8243   8247     1   108.3000464 339.740800
   8248   8251   8252     1   109.8000471 387.438400
   8248   8251   8253     1   109.8000471 387.438400
   8248   8257   8258     1   110.1100470 384.091200
   8248   8257   8259     1   110.1100470 384.091200
   8248   8257   8261     1   110.1100470 384.091200
   8249   8248   8251     1   110.5600475 386.601600
   8249   8248   8257     1   108.0100461 406.684800
   8249   8248   8250     1   109.7500473 328.025600
   8250   8248   8251     1   110.5600475 386.601600
   8250   8248   8257     1   108.0100461 406.684800
   8251   8254   8255     1   109.5600471 388.275200
   8251   8254   8256     1   109.5600471 388.275200
   8252   8251   8254     1   109.8000471 387.438400
   8252   8251   8253     1   107.5800459 329.699200
   8253   8251   8254     1   109.8000471 387.438400
   8255   8254   8260     1   109.7800468 425.094400
   8255   8254   8256     1   108.4600466 328.025600
   8256   8254   8260     1   109.7800468 425.094400
   8258   8257   8259     1   108.3000464 339.740800
   8258   8257   8261     1   108.3000464 339.740800
   8259   8257   8261     1   108.3000464 339.740800
   8262   8265   8266     1   109.8000471 387.438400
   8262   8265   8267     1   109.8000471 387.438400
   8262   8271   8272     1   110.1100470 384.091200
   8262   8271   8273     1   110.1100470 384.091200
   8262   8271   8275     1   110.1100470 384.091200
   8263   8262   8265     1   110.5600475 386.601600
   8263   8262   8271     1   108.0100461 406.684800
   8263   8262   8264     1   109.7500473 328.025600
   8264   8262   8265     1   110.5600475 386.601600
   8264   8262   8271     1   108.0100461 406.684800
   8265   8268   8269     1   109.5600471 388.275200
   8265   8268   8270     1   109.5600471 388.275200
   8266   8265   8268     1   109.8000471 387.438400
   8266   8265   8267     1   107.5800459 329.699200
   8267   8265   8268     1   109.8000471 387.438400
   8269   8268   8274     1   109.7800468 425.094400
   8269   8268   8270     1   108.4600466 328.025600
   8270   8268   8274     1   109.7800468 425.094400
   8272   8271   8273     1   108.3000464 339.740800
   8272   8271   8275     1   108.3000464 339.740800
   8273   8271   8275     1   108.3000464 339.740800
   8276   8279   8280     1   109.8000471 387.438400
   8276   8279   8281     1   109.8000471 387.438400
   8276   8285   8286     1   110.1100470 384.091200
   8276   8285   8287     1   110.1100470 384.091200
   8276   8285   8289     1   110.1100470 384.091200
   8277   8276   8279     1   110.5600475 386.601600
   8277   8276   8285     1   108.0100461 406.684800
   8277   8276   8278     1   109.7500473 328.025600
   8278   8276   8279     1   110.5600475 386.601600
   8278   8276   8285     1   108.0100461 406.684800
   8279   8282   8283     1   109.5600471 388.275200
   8279   8282   8284     1   109.5600471 388.275200
   8280   8279   8282     1   109.8000471 387.438400
   8280   8279   8281     1   107.5800459 329.699200
   8281   8279   8282     1   109.8000471 387.438400
   8283   8282   8288     1   109.7800468 425.094400
   8283   8282   8284     1   108.4600466 328.025600
   8284   8282   8288     1   109.7800468 425.094400
   8286   8285   8287     1   108.3000464 339.740800
   8286   8285   8289     1   108.3000464 339.740800
   8287   8285   8289     1   108.3000464 339.740800
   8290   8293   8294     1   109.8000471 387.438400
   8290   8293   8295     1   109.8000471 387.438400
   8290   8299   8300     1   110.1100470 384.091200
   8290   8299   8301     1   110.1100470 384.091200
   8290   8299   8303     1   110.1100470 384.091200
   8291   8290   8293     1   110.5600475 386.601600
   8291   8290   8299     1   108.0100461 406.684800
   8291   8290   8292     1   109.7500473 328.025600
   8292   8290   8293     1   110.5600475 386.601600
   8292   8290   8299     1   108.0100461 406.684800
   8293   8296   8297     1   109.5600471 388.275200
   8293   8296   8298     1   109.5600471 388.275200
   8294   8293   8296     1   109.8000471 387.438400
   8294   8293   8295     1   107.5800459 329.699200
   8295   8293   8296     1   109.8000471 387.438400
   8297   8296   8302     1   109.7800468 425.094400
   8297   8296   8298     1   108.4600466 328.025600
   8298   8296   8302     1   109.7800468 425.094400
   8300   8299   8301     1   108.3000464 339.740800
   8300   8299   8303     1   108.3000464 339.740800
   8301   8299   8303     1   108.3000464 339.740800
   8304   8307   8308     1   109.8000471 387.438400
   8304   8307   8309     1   109.8000471 387.438400
   8304   8313   8314     1   110.1100470 384.091200
   8304   8313   8315     1   110.1100470 384.091200
   8304   8313   8317     1   110.1100470 384.091200
   8305   8304   8307     1   110.5600475 386.601600
   8305   8304   8313     1   108.0100461 406.684800
   8305   8304   8306     1   109.7500473 328.025600
   8306   8304   8307     1   110.5600475 386.601600
   8306   8304   8313     1   108.0100461 406.684800
   8307   8310   8311     1   109.5600471 388.275200
   8307   8310   8312     1   109.5600471 388.275200
   8308   8307   8310     1   109.8000471 387.438400
   8308   8307   8309     1   107.5800459 329.699200
   8309   8307   8310     1   109.8000471 387.438400
   8311   8310   8316     1   109.7800468 425.094400
   8311   8310   8312     1   108.4600466 328.025600
   8312   8310   8316     1   109.7800468 425.094400
   8314   8313   8315     1   108.3000464 339.740800
   8314   8313   8317     1   108.3000464 339.740800
   8315   8313   8317     1   108.3000464 339.740800
   8318   8321   8322     1   109.8000471 387.438400
   8318   8321   8323     1   109.8000471 387.438400
   8318   8327   8328     1   110.1100470 384.091200
   8318   8327   8329     1   110.1100470 384.091200
   8318   8327   8331     1   110.1100470 384.091200
   8319   8318   8321     1   110.5600475 386.601600
   8319   8318   8327     1   108.0100461 406.684800
   8319   8318   8320     1   109.7500473 328.025600
   8320   8318   8321     1   110.5600475 386.601600
   8320   8318   8327     1   108.0100461 406.684800
   8321   8324   8325     1   109.5600471 388.275200
   8321   8324   8326     1   109.5600471 388.275200
   8322   8321   8324     1   109.8000471 387.438400
   8322   8321   8323     1   107.5800459 329.699200
   8323   8321   8324     1   109.8000471 387.438400
   8325   8324   8330     1   109.7800468 425.094400
   8325   8324   8326     1   108.4600466 328.025600
   8326   8324   8330     1   109.7800468 425.094400
   8328   8327   8329     1   108.3000464 339.740800
   8328   8327   8331     1   108.3000464 339.740800
   8329   8327   8331     1   108.3000464 339.740800
   8332   8335   8336     1   109.8000471 387.438400
   8332   8335   8337     1   109.8000471 387.438400
   8332   8341   8342     1   110.1100470 384.091200
   8332   8341   8343     1   110.1100470 384.091200
   8332   8341   8345     1   110.1100470 384.091200
   8333   8332   8335     1   110.5600475 386.601600
   8333   8332   8341     1   108.0100461 406.684800
   8333   8332   8334     1   109.7500473 328.025600
   8334   8332   8335     1   110.5600475 386.601600
   8334   8332   8341     1   108.0100461 406.684800
   8335   8338   8339     1   109.5600471 388.275200
   8335   8338   8340     1   109.5600471 388.275200
   8336   8335   8338     1   109.8000471 387.438400
   8336   8335   8337     1   107.5800459 329.699200
   8337   8335   8338     1   109.8000471 387.438400
   8339   8338   8344     1   109.7800468 425.094400
   8339   8338   8340     1   108.4600466 328.025600
   8340   8338   8344     1   109.7800468 425.094400
   8342   8341   8343     1   108.3000464 339.740800
   8342   8341   8345     1   108.3000464 339.740800
   8343   8341   8345     1   108.3000464 339.740800
   8346   8349   8350     1   109.8000471 387.438400
   8346   8349   8351     1   109.8000471 387.438400
   8346   8355   8356     1   110.1100470 384.091200
   8346   8355   8357     1   110.1100470 384.091200
   8346   8355   8359     1   110.1100470 384.091200
   8347   8346   8349     1   110.5600475 386.601600
   8347   8346   8355     1   108.0100461 406.684800
   8347   8346   8348     1   109.7500473 328.025600
   8348   8346   8349     1   110.5600475 386.601600
   8348   8346   8355     1   108.0100461 406.684800
   8349   8352   8353     1   109.5600471 388.275200
   8349   8352   8354     1   109.5600471 388.275200
   8350   8349   8352     1   109.8000471 387.438400
   8350   8349   8351     1   107.5800459 329.699200
   8351   8349   8352     1   109.8000471 387.438400
   8353   8352   8358     1   109.7800468 425.094400
   8353   8352   8354     1   108.4600466 328.025600
   8354   8352   8358     1   109.7800468 425.094400
   8356   8355   8357     1   108.3000464 339.740800
   8356   8355   8359     1   108.3000464 339.740800
   8357   8355   8359     1   108.3000464 339.740800
   8360   8363   8364     1   109.8000471 387.438400
   8360   8363   8365     1   109.8000471 387.438400
   8360   8369   8370     1   110.1100470 384.091200
   8360   8369   8371     1   110.1100470 384.091200
   8360   8369   8373     1   110.1100470 384.091200
   8361   8360   8363     1   110.5600475 386.601600
   8361   8360   8369     1   108.0100461 406.684800
   8361   8360   8362     1   109.7500473 328.025600
   8362   8360   8363     1   110.5600475 386.601600
   8362   8360   8369     1   108.0100461 406.684800
   8363   8366   8367     1   109.5600471 388.275200
   8363   8366   8368     1   109.5600471 388.275200
   8364   8363   8366     1   109.8000471 387.438400
   8364   8363   8365     1   107.5800459 329.699200
   8365   8363   8366     1   109.8000471 387.438400
   8367   8366   8372     1   109.7800468 425.094400
   8367   8366   8368     1   108.4600466 328.025600
   8368   8366   8372     1   109.7800468 425.094400
   8370   8369   8371     1   108.3000464 339.740800
   8370   8369   8373     1   108.3000464 339.740800
   8371   8369   8373     1   108.3000464 339.740800
   8374   8377   8378     1   109.8000471 387.438400
   8374   8377   8379     1   109.8000471 387.438400
   8374   8383   8384     1   110.1100470 384.091200
   8374   8383   8385     1   110.1100470 384.091200
   8374   8383   8387     1   110.1100470 384.091200
   8375   8374   8377     1   110.5600475 386.601600
   8375   8374   8383     1   108.0100461 406.684800
   8375   8374   8376     1   109.7500473 328.025600
   8376   8374   8377     1   110.5600475 386.601600
   8376   8374   8383     1   108.0100461 406.684800
   8377   8380   8381     1   109.5600471 388.275200
   8377   8380   8382     1   109.5600471 388.275200
   8378   8377   8380     1   109.8000471 387.438400
   8378   8377   8379     1   107.5800459 329.699200
   8379   8377   8380     1   109.8000471 387.438400
   8381   8380   8386     1   109.7800468 425.094400
   8381   8380   8382     1   108.4600466 328.025600
   8382   8380   8386     1   109.7800468 425.094400
   8384   8383   8385     1   108.3000464 339.740800
   8384   8383   8387     1   108.3000464 339.740800
   8385   8383   8387     1   108.3000464 339.740800

[ dihedrals ]
;    ai     aj     ak     al funct         c0         c1         c2         c3         c4         c5
      1      2     14     26     1  0.0000000  0.6508444  3
      1      5     17     20     1  0.0000000  0.6508444  3
      1      8     11     23     1  0.0000000  0.6508444  3
      2      1      5     17     1  0.0000000  0.6508444  3
      2      1      8     11     1  0.0000000  0.6508444  3
      2     14     26    118     1  0.0000000  0.6508444  3
      5      1      2     14     1  0.0000000  0.6508444  3
      5      1      8     11     1  0.0000000  0.6508444  3
      5     17     20     58     1  0.0000000  0.6508444  3
      8      1      2     14     1  0.0000000  0.6508444  3
      8      1      5     17     1  0.0000000  0.6508444  3
      8     11     23     88     1  0.0000000  0.6508444  3
     11     23     88     79     1  180.0000771  0.4184000  2
     11     23     88     79     1  0.0000000  1.6024720  3
     14     26    118    109     1  180.0000771  0.4184000  2
     14     26    118    109     1  0.0000000  1.6024720  3
     17     20     58     49     1  180.0000771  0.4184000  2
     17     20     58     49     1  0.0000000  1.6024720  3
     20     58     49     40     1  180.0000771  0.4184000  2
     20     58     49     40     1  0.0000000  1.6024720  3
     23     88     79     70     1  180.0000771  0.4184000  2
     23     88     79     70     1  0.0000000  1.6024720  3
     26    118    109    100     1  180.0000771  0.4184000  2
     26    118    109    100     1  0.0000000  1.6024720  3
     30     31     43     55     1  0.0000000  0.6508444  3
     30     34     46     52     1  0.0000000  0.6508444  3
     30     37     40     49     1  0.0000000  0.6508444  3
     31     30     34     46     1  0.0000000  0.6508444  3
     31     30     37     40     1  0.0000000  0.6508444  3
     31     43     55    178     1  0.0000000  0.6508444  3
     34     30     31     43     1  0.0000000  0.6508444  3
     34     30     37     40     1  0.0000000  0.6508444  3
     34     46     52    148     1  0.0000000  0.6508444  3
     37     30     31     43     1  0.0000000  0.6508444  3
     37     30     34     46     1  0.0000000  0.6508444  3
     37     40     49     58     1  0.0000000  0.6508444  3
     43     55    178    169     1  180.0000771  0.4184000  2
     43     55    178    169     1  0.0000000  1.6024720  3
     46     52    148    139     1  180.0000771  0.4184000  2
     46     52    148    139     1  0.0000000  1.6024720  3
     52    148    139    130     1  180.0000771  0.4184000  2
     52    148    139    130     1  0.0000000  1.6024720  3
     55    178    169    160     1  180.0000771  0.4184000  2
     55    178    169    160     1  0.0000000  1.6024720  3
     60     61     73     85     1  0.0000000  0.6508444  3
     60     64     76     82     1  0.0000000  0.6508444  3
     60     67     70     79     1  0.0000000  0.6508444  3
     61     60     64     76     1  0.0000000  0.6508444  3
     61     60     67     70     1  0.0000000  0.6508444  3
     61     73     85    238     1  0.0000000  0.6508444  3
     64     60     61     73     1  0.0000000  0.6508444  3
     64     60     67     70     1  0.0000000  0.6508444  3
     64     76     82    208     1  0.0000000  0.6508444  3
     67     60     61     73     1  0.0000000  0.6508444  3
     67     60     64     76     1  0.0000000  0.6508444  3
     67     70     79     88     1  0.0000000  0.6508444  3
     73     85    238    229     1  180.0000771  0.4184000  2
     73     85    238    229     1  0.0000000  1.6024720  3
     76     82    208    199     1  180.0000771  0.4184000  2
     76     82    208    199     1  0.0000000  1.6024720  3
     82    208    199    190     1  180.0000771  0.4184000  2
     82    208    199    190     1  0.0000000  1.6024720  3
     85    238    229    220     1  180.0000771  0.4184000  2
     85    238    229    220     1  0.0000000  1.6024720  3
     90     91    103    115     1  0.0000000  0.6508444  3
     90     94    106    112     1  0.0000000  0.6508444  3
     90     97    100    109     1  0.0000000  0.6508444  3
     91     90     94    106     1  0.0000000  0.6508444  3
     91     90     97    100     1  0.0000000  0.6508444  3
     91    103    115    298     1  0.0000000  0.6508444  3
     94     90     91    103     1  0.0000000  0.6508444  3
     94     90     97    100     1  0.0000000  0.6508444  3
     94    106    112    268     1  0.0000000  0.6508444  3
     97     90     91    103     1  0.0000000  0.6508444  3
     97     90     94    106     1  0.0000000  0.6508444  3
     97    100    109    118     1  0.0000000  0.6508444  3
    103    115    298    289     1  180.0000771  0.4184000  2
    103    115    298    289     1  0.0000000  1.6024720  3
    106    112    268    259     1  180.0000771  0.4184000  2
    106    112    268    259     1  0.0000000  1.6024720  3
    112    268    259    250     1  180.0000771  0.4184000  2
    112    268    259    250     1  0.0000000  1.6024720  3
    115    298    289    280     1  180.0000771  0.4184000  2
    115    298    289    280     1  0.0000000  1.6024720  3
    120    121    133    145     1  0.0000000  0.6508444  3
    120    124    136    142     1  0.0000000  0.6508444  3
    120    127    130    139     1  0.0000000  0.6508444  3
    121    120    124    136     1  0.0000000  0.6508444  3
    121    120    127    130     1  0.0000000  0.6508444  3
    121    133    145    358     1  0.0000000  0.6508444  3
    124    120    121    133     1  0.0000000  0.6508444  3
    124    120    127    130     1  0.0000000  0.6508444  3
    124    136    142    328     1  0.0000000  0.6508444  3
    127    120    121    133     1  0.0000000  0.6508444  3
    127    120    124    136     1  0.0000000  0.6508444  3
    127    130    139    148     1  0.0000000  0.6508444  3
    133    145    358    349     1  180.0000771  0.4184000  2
    133    145    358    349     1  0.0000000  1.6024720  3
    136    142    328    319     1  180.0000771  0.4184000  2
    136    142    328    319     1  0.0000000  1.6024720  3
    142    328    319    310     1  180.0000771  0.4184000  2
    142    328    319    310     1  0.0000000  1.6024720  3
    145    358    349    340     1  180.0000771  0.4184000  2
    145    358    349    340     1  0.0000000  1.6024720  3
    150    151    163    175     1  0.0000000  0.6508444  3
    150    154    166    172     1  0.0000000  0.6508444  3
    150    157    160    169     1  0.0000000  0.6508444  3
    151    150    154    166     1  0.0000000  0.6508444  3
    151    150    157    160     1  0.0000000  0.6508444  3
    151    163    175    418     1  0.0000000  0.6508444  3
    154    150    151    163     1  0.0000000  0.6508444  3
    154    150    157    160     1  0.0000000  0.6508444  3
    154    166    172    388     1  0.0000000  0.6508444  3
    157    150    151    163     1  0.0000000  0.6508444  3
    157    150    154    166     1  0.0000000  0.6508444  3
    157    160    169    178     1  0.0000000  0.6508444  3
    163    175    418    409     1  180.0000771  0.4184000  2
    163    175    418    409     1  0.0000000  1.6024720  3
    166    172    388    379     1  180.0000771  0.4184000  2
    166    172    388    379     1  0.0000000  1.6024720  3
    172    388    379    370     1  180.0000771  0.4184000  2
    172    388    379    370     1  0.0000000  1.6024720  3
    175    418    409    400     1  180.0000771  0.4184000  2
    175    418    409    400     1  0.0000000  1.6024720  3
    180    181    193    205     1  0.0000000  0.6508444  3
    180    184    196    202     1  0.0000000  0.6508444  3
    180    187    190    199     1  0.0000000  0.6508444  3
    181    180    184    196     1  0.0000000  0.6508444  3
    181    180    187    190     1  0.0000000  0.6508444  3
    181    193    205    478     1  0.0000000  0.6508444  3
    184    180    181    193     1  0.0000000  0.6508444  3
    184    180    187    190     1  0.0000000  0.6508444  3
    184    196    202    448     1  0.0000000  0.6508444  3
    187    180    181    193     1  0.0000000  0.6508444  3
    187    180    184    196     1  0.0000000  0.6508444  3
    187    190    199    208     1  0.0000000  0.6508444  3
    193    205    478    469     1  180.0000771  0.4184000  2
    193    205    478    469     1  0.0000000  1.6024720  3
    196    202    448    439     1  180.0000771  0.4184000  2
    196    202    448    439     1  0.0000000  1.6024720  3
    202    448    439    430     1  180.0000771  0.4184000  2
    202    448    439    430     1  0.0000000  1.6024720  3
    205    478    469    460     1  180.0000771  0.4184000  2
    205    478    469    460     1  0.0000000  1.6024720  3
    210    211    223    235     1  0.0000000  0.6508444  3
    210    214    226    232     1  0.0000000  0.6508444  3
    210    217    220    229     1  0.0000000  0.6508444  3
    211    210    214    226     1  0.0000000  0.6508444  3
    211    210    217    220     1  0.0000000  0.6508444  3
    211    223    235    538     1  0.0000000  0.6508444  3
    214    210    211    223     1  0.0000000  0.6508444  3
    214    210    217    220     1  0.0000000  0.6508444  3
    214    226    232    508     1  0.0000000  0.6508444  3
    217    210    211    223     1  0.0000000  0.6508444  3
    217    210    214    226     1  0.0000000  0.6508444  3
    217    220    229    238     1  0.0000000  0.6508444  3
    223    235    538    529     1  180.0000771  0.4184000  2
    223    235    538    529     1  0.0000000  1.6024720  3
    226    232    508    499     1  180.0000771  0.4184000  2
    226    232    508    499     1  0.0000000  1.6024720  3
    232    508    499    490     1  180.0000771  0.4184000  2
    232    508    499    490     1  0.0000000  1.6024720  3
    235    538    529    520     1  180.0000771  0.4184000  2
    235    538    529    520     1  0.0000000  1.6024720  3
    240    241    253    265     1  0.0000000  0.6508444  3
    240    244    256    262     1  0.0000000  0.6508444  3
    240    247    250    259     1  0.0000000  0.6508444  3
    241    240    244    256     1  0.0000000  0.6508444  3
    241    240    247    250     1  0.0000000  0.6508444  3
    241    253    265    598     1  0.0000000  0.6508444  3
    244    240    241    253     1  0.0000000  0.6508444  3
    244    240    247    250     1  0.0000000  0.6508444  3
    244    256    262    568     1  0.0000000  0.6508444  3
    247    240    241    253     1  0.0000000  0.6508444  3
    247    240    244    256     1  0.0000000  0.6508444  3
    247    250    259    268     1  0.0000000  0.6508444  3
    253    265    598    589     1  180.0000771  0.4184000  2
    253    265    598    589     1  0.0000000  1.6024720  3
    256    262    568    559     1  180.0000771  0.4184000  2
    256    262    568    559     1  0.0000000  1.6024720  3
    262    568    559    550     1  180.0000771  0.4184000  2
    262    568    559    550     1  0.0000000  1.6024720  3
    265    598    589    580     1  180.0000771  0.4184000  2
    265    598    589    580     1  0.0000000  1.6024720  3
    270    271    283    295     1  0.0000000  0.6508444  3
    270    274    286    292     1  0.0000000  0.6508444  3
    270    277    280    289     1  0.0000000  0.6508444  3
    271    270    274    286     1  0.0000000  0.6508444  3
    271    270    277    280     1  0.0000000  0.6508444  3
    271    283    295    658     1  0.0000000  0.6508444  3
    274    270    271    283     1  0.0000000  0.6508444  3
    274    270    277    280     1  0.0000000  0.6508444  3
    274    286    292    628     1  0.0000000  0.6508444  3
    277    270    271    283     1  0.0000000  0.6508444  3
    277    270    274    286     1  0.0000000  0.6508444  3
    277    280    289    298     1  0.0000000  0.6508444  3
    283    295    658    649     1  180.0000771  0.4184000  2
    283    295    658    649     1  0.0000000  1.6024720  3
    286    292    628    619     1  180.0000771  0.4184000  2
    286    292    628    619     1  0.0000000  1.6024720  3
    292    628    619    610     1  180.0000771  0.4184000  2
    292    628    619    610     1  0.0000000  1.6024720  3
    295    658    649    640     1  180.0000771  0.4184000  2
    295    658    649    640     1  0.0000000  1.6024720  3
    300    301    313    325     1  0.0000000  0.6508444  3
    300    304    316    322     1  0.0000000  0.6508444  3
    300    307    310    319     1  0.0000000  0.6508444  3
    301    300    304    316     1  0.0000000  0.6508444  3
    301    300    307    310     1  0.0000000  0.6508444  3
    301    313    325    718     1  0.0000000  0.6508444  3
    304    300    301    313     1  0.0000000  0.6508444  3
    304    300    307    310     1  0.0000000  0.6508444  3
    304    316    322    688     1  0.0000000  0.6508444  3
    307    300    301    313     1  0.0000000  0.6508444  3
    307    300    304    316     1  0.0000000  0.6508444  3
    307    310    319    328     1  0.0000000  0.6508444  3
    313    325    718    709     1  180.0000771  0.4184000  2
    313    325    718    709     1  0.0000000  1.6024720  3
    316    322    688    679     1  180.0000771  0.4184000  2
    316    322    688    679     1  0.0000000  1.6024720  3
    322    688    679    670     1  180.0000771  0.4184000  2
    322    688    679    670     1  0.0000000  1.6024720  3
    325    718    709    700     1  180.0000771  0.4184000  2
    325    718    709    700     1  0.0000000  1.6024720  3
    330    331    343    355     1  0.0000000  0.6508444  3
    330    334    346    352     1  0.0000000  0.6508444  3
    330    337    340    349     1  0.0000000  0.6508444  3
    331    330    334    346     1  0.0000000  0.6508444  3
    331    330    337    340     1  0.0000000  0.6508444  3
    331    343    355    778     1  0.0000000  0.6508444  3
    334    330    331    343     1  0.0000000  0.6508444  3
    334    330    337    340     1  0.0000000  0.6508444  3
    334    346    352    748     1  0.0000000  0.6508444  3
    337    330    331    343     1  0.0000000  0.6508444  3
    337    330    334    346     1  0.0000000  0.6508444  3
    337    340    349    358     1  0.0000000  0.6508444  3
    343    355    778    769     1  180.0000771  0.4184000  2
    343    355    778    769     1  0.0000000  1.6024720  3
    346    352    748    739     1  180.0000771  0.4184000  2
    346    352    748    739     1  0.0000000  1.6024720  3
    352    748    739    730     1  180.0000771  0.4184000  2
    352    748    739    730     1  0.0000000  1.6024720  3
    355    778    769    760     1  180.0000771  0.4184000  2
    355    778    769    760     1  0.0000000  1.6024720  3
    360    361    373    385     1  0.0000000  0.6508444  3
    360    364    376    382     1  0.0000000  0.6508444  3
    360    367    370    379     1  0.0000000  0.6508444  3
    361    360    364    376     1  0.0000000  0.6508444  3
    361    360    367    370     1  0.0000000  0.6508444  3
    361    373    385    838     1  0.0000000  0.6508444  3
    364    360    361    373     1  0.0000000  0.6508444  3
    364    360    367    370     1  0.0000000  0.6508444  3
    364    376    382    808     1  0.0000000  0.6508444  3
    367    360    361    373     1  0.0000000  0.6508444  3
    367    360    364    376     1  0.0000000  0.6508444  3
    367    370    379    388     1  0.0000000  0.6508444  3
    373    385    838    829     1  180.0000771  0.4184000  2
    373    385    838    829     1  0.0000000  1.6024720  3
    376    382    808    799     1  180.0000771  0.4184000  2
    376    382    808    799     1  0.0000000  1.6024720  3
    382    808    799    790     1  180.0000771  0.4184000  2
    382    808    799    790     1  0.0000000  1.6024720  3
    385    838    829    820     1  180.0000771  0.4184000  2
    385    838    829    820     1  0.0000000  1.6024720  3
    390    391    403    415     1  0.0000000  0.6508444  3
    390    394    406    412     1  0.0000000  0.6508444  3
    390    397    400    409     1  0.0000000  0.6508444  3
    391    390    394    406     1  0.0000000  0.6508444  3
    391    390    397    400     1  0.0000000  0.6508444  3
    391    403    415    898     1  0.0000000  0.6508444  3
    394    390    391    403     1  0.0000000  0.6508444  3
    394    390    397    400     1  0.0000000  0.6508444  3
    394    406    412    868     1  0.0000000  0.6508444  3
    397    390    391    403     1  0.0000000  0.6508444  3
    397    390    394    406     1  0.0000000  0.6508444  3
    397    400    409    418     1  0.0000000  0.6508444  3
    403    415    898    889     1  180.0000771  0.4184000  2
    403    415    898    889     1  0.0000000  1.6024720  3
    406    412    868    859     1  180.0000771  0.4184000  2
    406    412    868    859     1  0.0000000  1.6024720  3
    412    868    859    850     1  180.0000771  0.4184000  2
    412    868    859    850     1  0.0000000  1.6024720  3
    415    898    889    880     1  180.0000771  0.4184000  2
    415    898    889    880     1  0.0000000  1.6024720  3
    420    421    433    445     1  0.0000000  0.6508444  3
    420    424    436    442     1  0.0000000  0.6508444  3
    420    427    430    439     1  0.0000000  0.6508444  3
    421    420    424    436     1  0.0000000  0.6508444  3
    421    420    427    430     1  0.0000000  0.6508444  3
    421    433    445    958     1  0.0000000  0.6508444  3
    424    420    421    433     1  0.0000000  0.6508444  3
    424    420    427    430     1  0.0000000  0.6508444  3
    424    436    442    928     1  0.0000000  0.6508444  3
    427    420    421    433     1  0.0000000  0.6508444  3
    427    420    424    436     1  0.0000000  0.6508444  3
    427    430    439    448     1  0.0000000  0.6508444  3
    433    445    958    949     1  180.0000771  0.4184000  2
    433    445    958    949     1  0.0000000  1.6024720  3
    436    442    928    919     1  180.0000771  0.4184000  2
    436    442    928    919     1  0.0000000  1.6024720  3
    442    928    919    910     1  180.0000771  0.4184000  2
    442    928    919    910     1  0.0000000  1.6024720  3
    445    958    949    940     1  180.0000771  0.4184000  2
    445    958    949    940     1  0.0000000  1.6024720  3
    450    451    463    475     1  0.0000000  0.6508444  3
    450    454    466    472     1  0.0000000  0.6508444  3
    450    457    460    469     1  0.0000000  0.6508444  3
    451    450    454    466     1  0.0000000  0.6508444  3
    451    450    457    460     1  0.0000000  0.6508444  3
    451    463    475   1018     1  0.0000000  0.6508444  3
    454    450    451    463     1  0.0000000  0.6508444  3
    454    450    457    460     1  0.0000000  0.6508444  3
    454    466    472    988     1  0.0000000  0.6508444  3
    457    450    451    463     1  0.0000000  0.6508444  3
    457    450    454    466     1  0.0000000  0.6508444  3
    457    460    469    478     1  0.0000000  0.6508444  3
    463    475   1018   1009     1  180.0000771  0.4184000  2
    463    475   1018   1009     1  0.0000000  1.6024720  3
    466    472    988    979     1  180.0000771  0.4184000  2
    466    472    988    979     1  0.0000000  1.6024720  3
    472    988    979    970     1  180.0000771  0.4184000  2
    472    988    979    970     1  0.0000000  1.6024720  3
    475   1018   1009   1000     1  180.0000771  0.4184000  2
    475   1018   1009   1000     1  0.0000000  1.6024720  3
    480    481    493    505     1  0.0000000  0.6508444  3
    480    484    496    502     1  0.0000000  0.6508444  3
    480    487    490    499     1  0.0000000  0.6508444  3
    481    480    484    496     1  0.0000000  0.6508444  3
    481    480    487    490     1  0.0000000  0.6508444  3
    481    493    505   1078     1  0.0000000  0.6508444  3
    484    480    481    493     1  0.0000000  0.6508444  3
    484    480    487    490     1  0.0000000  0.6508444  3
    484    496    502   1048     1  0.0000000  0.6508444  3
    487    480    481    493     1  0.0000000  0.6508444  3
    487    480    484    496     1  0.0000000  0.6508444  3
    487    490    499    508     1  0.0000000  0.6508444  3
    493    505   1078   1069     1  180.0000771  0.4184000  2
    493    505   1078   1069     1  0.0000000  1.6024720  3
    496    502   1048   1039     1  180.0000771  0.4184000  2
    496    502   1048   1039     1  0.0000000  1.6024720  3
    502   1048   1039   1030     1  180.0000771  0.4184000  2
    502   1048   1039   1030     1  0.0000000  1.6024720  3
    505   1078   1069   1060     1  180.0000771  0.4184000  2
    505   1078   1069   1060     1  0.0000000  1.6024720  3
    510    511    523    535     1  0.0000000  0.6508444  3
    510    514    526    532     1  0.0000000  0.6508444  3
    510    517    520    529     1  0.0000000  0.6508444  3
    511    510    514    526     1  0.0000000  0.6508444  3
    511    510    517    520     1  0.0000000  0.6508444  3
    511    523    535   1138     1  0.0000000  0.6508444  3
    514    510    511    523     1  0.0000000  0.6508444  3
    514    510    517    520     1  0.0000000  0.6508444  3
    514    526    532   1108     1  0.0000000  0.6508444  3
    517    510    511    523     1  0.0000000  0.6508444  3
    517    510    514    526     1  0.0000000  0.6508444  3
    517    520    529    538     1  0.0000000  0.6508444  3
    523    535   1138   1129     1  180.0000771  0.4184000  2
    523    535   1138   1129     1  0.0000000  1.6024720  3
    526    532   1108   1099     1  180.0000771  0.4184000  2
    526    532   1108   1099     1  0.0000000  1.6024720  3
    532   1108   1099   1090     1  180.0000771  0.4184000  2
    532   1108   1099   1090     1  0.0000000  1.6024720  3
    535   1138   1129   1120     1  180.0000771  0.4184000  2
    535   1138   1129   1120     1  0.0000000  1.6024720  3
    540    541    553    565     1  0.0000000  0.6508444  3
    540    544    556    562     1  0.0000000  0.6508444  3
    540    547    550    559     1  0.0000000  0.6508444  3
    541    540    544    556     1  0.0000000  0.6508444  3
    541    540    547    550     1  0.0000000  0.6508444  3
    541    553    565   1198     1  0.0000000  0.6508444  3
    544    540    541    553     1  0.0000000  0.6508444  3
    544    540    547    550     1  0.0000000  0.6508444  3
    544    556    562   1168     1  0.0000000  0.6508444  3
    547    540    541    553     1  0.0000000  0.6508444  3
    547    540    544    556     1  0.0000000  0.6508444  3
    547    550    559    568     1  0.0000000  0.6508444  3
    553    565   1198   1189     1  180.0000771  0.4184000  2
    553    565   1198   1189     1  0.0000000  1.6024720  3
    556    562   1168   1159     1  180.0000771  0.4184000  2
    556    562   1168   1159     1  0.0000000  1.6024720  3
    562   1168   1159   1150     1  180.0000771  0.4184000  2
    562   1168   1159   1150     1  0.0000000  1.6024720  3
    565   1198   1189   1180     1  180.0000771  0.4184000  2
    565   1198   1189   1180     1  0.0000000  1.6024720  3
    570    571    583    595     1  0.0000000  0.6508444  3
    570    574    586    592     1  0.0000000  0.6508444  3
    570    577    580    589     1  0.0000000  0.6508444  3
    571    570    574    586     1  0.0000000  0.6508444  3
    571    570    577    580     1  0.0000000  0.6508444  3
    571    583    595   1258     1  0.0000000  0.6508444  3
    574    570    571    583     1  0.0000000  0.6508444  3
    574    570    577    580     1  0.0000000  0.6508444  3
    574    586    592   1228     1  0.0000000  0.6508444  3
    577    570    571    583     1  0.0000000  0.6508444  3
    577    570    574    586     1  0.0000000  0.6508444  3
    577    580    589    598     1  0.0000000  0.6508444  3
    583    595   1258   1249     1  180.0000771  0.4184000  2
    583    595   1258   1249     1  0.0000000  1.6024720  3
    586    592   1228   1219     1  180.0000771  0.4184000  2
    586    592   1228   1219     1  0.0000000  1.6024720  3
    592   1228   1219   1210     1  180.0000771  0.4184000  2
    592   1228   1219   1210     1  0.0000000  1.6024720  3
    595   1258   1249   1240     1  180.0000771  0.4184000  2
    595   1258   1249   1240     1  0.0000000  1.6024720  3
    600    601    613    625     1  0.0000000  0.6508444  3
    600    604    616    622     1  0.0000000  0.6508444  3
    600    607    610    619     1  0.0000000  0.6508444  3
    601    600    604    616     1  0.0000000  0.6508444  3
    601    600    607    610     1  0.0000000  0.6508444  3
    601    613    625   1318     1  0.0000000  0.6508444  3
    604    600    601    613     1  0.0000000  0.6508444  3
    604    600    607    610     1  0.0000000  0.6508444  3
    604    616    622   1288     1  0.0000000  0.6508444  3
    607    600    601    613     1  0.0000000  0.6508444  3
    607    600    604    616     1  0.0000000  0.6508444  3
    607    610    619    628     1  0.0000000  0.6508444  3
    613    625   1318   1309     1  180.0000771  0.4184000  2
    613    625   1318   1309     1  0.0000000  1.6024720  3
    616    622   1288   1279     1  180.0000771  0.4184000  2
    616    622   1288   1279     1  0.0000000  1.6024720  3
    622   1288   1279   1270     1  180.0000771  0.4184000  2
    622   1288   1279   1270     1  0.0000000  1.6024720  3
    625   1318   1309   1300     1  180.0000771  0.4184000  2
    625   1318   1309   1300     1  0.0000000  1.6024720  3
    630    631    643    655     1  0.0000000  0.6508444  3
    630    634    646    652     1  0.0000000  0.6508444  3
    630    637    640    649     1  0.0000000  0.6508444  3
    631    630    634    646     1  0.0000000  0.6508444  3
    631    630    637    640     1  0.0000000  0.6508444  3
    631    643    655   1378     1  0.0000000  0.6508444  3
    634    630    631    643     1  0.0000000  0.6508444  3
    634    630    637    640     1  0.0000000  0.6508444  3
    634    646    652   1348     1  0.0000000  0.6508444  3
    637    630    631    643     1  0.0000000  0.6508444  3
    637    630    634    646     1  0.0000000  0.6508444  3
    637    640    649    658     1  0.0000000  0.6508444  3
    643    655   1378   1369     1  180.0000771  0.4184000  2
    643    655   1378   1369     1  0.0000000  1.6024720  3
    646    652   1348   1339     1  180.0000771  0.4184000  2
    646    652   1348   1339     1  0.0000000  1.6024720  3
    652   1348   1339   1330     1  180.0000771  0.4184000  2
    652   1348   1339   1330     1  0.0000000  1.6024720  3
    655   1378   1369   1360     1  180.0000771  0.4184000  2
    655   1378   1369   1360     1  0.0000000  1.6024720  3
    660    661    673    685     1  0.0000000  0.6508444  3
    660    664    676    682     1  0.0000000  0.6508444  3
    660    667    670    679     1  0.0000000  0.6508444  3
    661    660    664    676     1  0.0000000  0.6508444  3
    661    660    667    670     1  0.0000000  0.6508444  3
    661    673    685   1438     1  0.0000000  0.6508444  3
    664    660    661    673     1  0.0000000  0.6508444  3
    664    660    667    670     1  0.0000000  0.6508444  3
    664    676    682   1408     1  0.0000000  0.6508444  3
    667    660    661    673     1  0.0000000  0.6508444  3
    667    660    664    676     1  0.0000000  0.6508444  3
    667    670    679    688     1  0.0000000  0.6508444  3
    673    685   1438   1429     1  180.0000771  0.4184000  2
    673    685   1438   1429     1  0.0000000  1.6024720  3
    676    682   1408   1399     1  180.0000771  0.4184000  2
    676    682   1408   1399     1  0.0000000  1.6024720  3
    682   1408   1399   1390     1  180.0000771  0.4184000  2
    682   1408   1399   1390     1  0.0000000  1.6024720  3
    685   1438   1429   1420     1  180.0000771  0.4184000  2
    685   1438   1429   1420     1  0.0000000  1.6024720  3
    690    691    703    715     1  0.0000000  0.6508444  3
    690    694    706    712     1  0.0000000  0.6508444  3
    690    697    700    709     1  0.0000000  0.6508444  3
    691    690    694    706     1  0.0000000  0.6508444  3
    691    690    697    700     1  0.0000000  0.6508444  3
    691    703    715   1498     1  0.0000000  0.6508444  3
    694    690    691    703     1  0.0000000  0.6508444  3
    694    690    697    700     1  0.0000000  0.6508444  3
    694    706    712   1468     1  0.0000000  0.6508444  3
    697    690    691    703     1  0.0000000  0.6508444  3
    697    690    694    706     1  0.0000000  0.6508444  3
    697    700    709    718     1  0.0000000  0.6508444  3
    703    715   1498   1489     1  180.0000771  0.4184000  2
    703    715   1498   1489     1  0.0000000  1.6024720  3
    706    712   1468   1459     1  180.0000771  0.4184000  2
    706    712   1468   1459     1  0.0000000  1.6024720  3
    712   1468   1459   1450     1  180.0000771  0.4184000  2
    712   1468   1459   1450     1  0.0000000  1.6024720  3
    715   1498   1489   1480     1  180.0000771  0.4184000  2
    715   1498   1489   1480     1  0.0000000  1.6024720  3
    720    721    733    745     1  0.0000000  0.6508444  3
    720    724    736    742     1  0.0000000  0.6508444  3
    720    727    730    739     1  0.0000000  0.6508444  3
    721    720    724    736     1  0.0000000  0.6508444  3
    721    720    727    730     1  0.0000000  0.6508444  3
    721    733    745   1558     1  0.0000000  0.6508444  3
    724    720    721    733     1  0.0000000  0.6508444  3
    724    720    727    730     1  0.0000000  0.6508444  3
    724    736    742   1528     1  0.0000000  0.6508444  3
    727    720    721    733     1  0.0000000  0.6508444  3
    727    720    724    736     1  0.0000000  0.6508444  3
    727    730    739    748     1  0.0000000  0.6508444  3
    733    745   1558   1549     1  180.0000771  0.4184000  2
    733    745   1558   1549     1  0.0000000  1.6024720  3
    736    742   1528   1519     1  180.0000771  0.4184000  2
    736    742   1528   1519     1  0.0000000  1.6024720  3
    742   1528   1519   1510     1  180.0000771  0.4184000  2
    742   1528   1519   1510     1  0.0000000  1.6024720  3
    745   1558   1549   1540     1  180.0000771  0.4184000  2
    745   1558   1549   1540     1  0.0000000  1.6024720  3
    750    751    763    775     1  0.0000000  0.6508444  3
    750    754    766    772     1  0.0000000  0.6508444  3
    750    757    760    769     1  0.0000000  0.6508444  3
    751    750    754    766     1  0.0000000  0.6508444  3
    751    750    757    760     1  0.0000000  0.6508444  3
    751    763    775   1618     1  0.0000000  0.6508444  3
    754    750    751    763     1  0.0000000  0.6508444  3
    754    750    757    760     1  0.0000000  0.6508444  3
    754    766    772   1588     1  0.0000000  0.6508444  3
    757    750    751    763     1  0.0000000  0.6508444  3
    757    750    754    766     1  0.0000000  0.6508444  3
    757    760    769    778     1  0.0000000  0.6508444  3
    763    775   1618   1609     1  180.0000771  0.4184000  2
    763    775   1618   1609     1  0.0000000  1.6024720  3
    766    772   1588   1579     1  180.0000771  0.4184000  2
    766    772   1588   1579     1  0.0000000  1.6024720  3
    772   1588   1579   1570     1  180.0000771  0.4184000  2
    772   1588   1579   1570     1  0.0000000  1.6024720  3
    775   1618   1609   1600     1  180.0000771  0.4184000  2
    775   1618   1609   1600     1  0.0000000  1.6024720  3
    780    781    793    805     1  0.0000000  0.6508444  3
    780    784    796    802     1  0.0000000  0.6508444  3
    780    787    790    799     1  0.0000000  0.6508444  3
    781    780    784    796     1  0.0000000  0.6508444  3
    781    780    787    790     1  0.0000000  0.6508444  3
    781    793    805   1678     1  0.0000000  0.6508444  3
    784    780    781    793     1  0.0000000  0.6508444  3
    784    780    787    790     1  0.0000000  0.6508444  3
    784    796    802   1648     1  0.0000000  0.6508444  3
    787    780    781    793     1  0.0000000  0.6508444  3
    787    780    784    796     1  0.0000000  0.6508444  3
    787    790    799    808     1  0.0000000  0.6508444  3
    793    805   1678   1669     1  180.0000771  0.4184000  2
    793    805   1678   1669     1  0.0000000  1.6024720  3
    796    802   1648   1639     1  180.0000771  0.4184000  2
    796    802   1648   1639     1  0.0000000  1.6024720  3
    802   1648   1639   1630     1  180.0000771  0.4184000  2
    802   1648   1639   1630     1  0.0000000  1.6024720  3
    805   1678   1669   1660     1  180.0000771  0.4184000  2
    805   1678   1669   1660     1  0.0000000  1.6024720  3
    810    811    823    835     1  0.0000000  0.6508444  3
    810    814    826    832     1  0.0000000  0.6508444  3
    810    817    820    829     1  0.0000000  0.6508444  3
    811    810    814    826     1  0.0000000  0.6508444  3
    811    810    817    820     1  0.0000000  0.6508444  3
    811    823    835   1738     1  0.0000000  0.6508444  3
    814    810    811    823     1  0.0000000  0.6508444  3
    814    810    817    820     1  0.0000000  0.6508444  3
    814    826    832   1708     1  0.0000000  0.6508444  3
    817    810    811    823     1  0.0000000  0.6508444  3
    817    810    814    826     1  0.0000000  0.6508444  3
    817    820    829    838     1  0.0000000  0.6508444  3
    823    835   1738   1729     1  180.0000771  0.4184000  2
    823    835   1738   1729     1  0.0000000  1.6024720  3
    826    832   1708   1699     1  180.0000771  0.4184000  2
    826    832   1708   1699     1  0.0000000  1.6024720  3
    832   1708   1699   1690     1  180.0000771  0.4184000  2
    832   1708   1699   1690     1  0.0000000  1.6024720  3
    835   1738   1729   1720     1  180.0000771  0.4184000  2
    835   1738   1729   1720     1  0.0000000  1.6024720  3
    840    841    853    865     1  0.0000000  0.6508444  3
    840    844    856    862     1  0.0000000  0.6508444  3
    840    847    850    859     1  0.0000000  0.6508444  3
    841    840    844    856     1  0.0000000  0.6508444  3
    841    840    847    850     1  0.0000000  0.6508444  3
    841    853    865   1798     1  0.0000000  0.6508444  3
    844    840    841    853     1  0.0000000  0.6508444  3
    844    840    847    850     1  0.0000000  0.6508444  3
    844    856    862   1768     1  0.0000000  0.6508444  3
    847    840    841    853     1  0.0000000  0.6508444  3
    847    840    844    856     1  0.0000000  0.6508444  3
    847    850    859    868     1  0.0000000  0.6508444  3
    853    865   1798   1789     1  180.0000771  0.4184000  2
    853    865   1798   1789     1  0.0000000  1.6024720  3
    856    862   1768   1759     1  180.0000771  0.4184000  2
    856    862   1768   1759     1  0.0000000  1.6024720  3
    862   1768   1759   1750     1  180.0000771  0.4184000  2
    862   1768   1759   1750     1  0.0000000  1.6024720  3
    865   1798   1789   1780     1  180.0000771  0.4184000  2
    865   1798   1789   1780     1  0.0000000  1.6024720  3
    870    871    883    895     1  0.0000000  0.6508444  3
    870    874    886    892     1  0.0000000  0.6508444  3
    870    877    880    889     1  0.0000000  0.6508444  3
    871    870    874    886     1  0.0000000  0.6508444  3
    871    870    877    880     1  0.0000000  0.6508444  3
    871    883    895   1858     1  0.0000000  0.6508444  3
    874    870    871    883     1  0.0000000  0.6508444  3
    874    870    877    880     1  0.0000000  0.6508444  3
    874    886    892   1828     1  0.0000000  0.6508444  3
    877    870    871    883     1  0.0000000  0.6508444  3
    877    870    874    886     1  0.0000000  0.6508444  3
    877    880    889    898     1  0.0000000  0.6508444  3
    883    895   1858   1849     1  180.0000771  0.4184000  2
    883    895   1858   1849     1  0.0000000  1.6024720  3
    886    892   1828   1819     1  180.0000771  0.4184000  2
    886    892   1828   1819     1  0.0000000  1.6024720  3
    892   1828   1819   1810     1  180.0000771  0.4184000  2
    892   1828   1819   1810     1  0.0000000  1.6024720  3
    895   1858   1849   1840     1  180.0000771  0.4184000  2
    895   1858   1849   1840     1  0.0000000  1.6024720  3
    900    901    913    925     1  0.0000000  0.6508444  3
    900    904    916    922     1  0.0000000  0.6508444  3
    900    907    910    919     1  0.0000000  0.6508444  3
    901    900    904    916     1  0.0000000  0.6508444  3
    901    900    907    910     1  0.0000000  0.6508444  3
    901    913    925   1918     1  0.0000000  0.6508444  3
    904    900    901    913     1  0.0000000  0.6508444  3
    904    900    907    910     1  0.0000000  0.6508444  3
    904    916    922   1888     1  0.0000000  0.6508444  3
    907    900    901    913     1  0.0000000  0.6508444  3
    907    900    904    916     1  0.0000000  0.6508444  3
    907    910    919    928     1  0.0000000  0.6508444  3
    913    925   1918   1909     1  180.0000771  0.4184000  2
    913    925   1918   1909     1  0.0000000  1.6024720  3
    916    922   1888   1879     1  180.0000771  0.4184000  2
    916    922   1888   1879     1  0.0000000  1.6024720  3
    922   1888   1879   1870     1  180.0000771  0.4184000  2
    922   1888   1879   1870     1  0.0000000  1.6024720  3
    925   1918   1909   1900     1  180.0000771  0.4184000  2
    925   1918   1909   1900     1  0.0000000  1.6024720  3
    930    931    943    955     1  0.0000000  0.6508444  3
    930    934    946    952     1  0.0000000  0.6508444  3
    930    937    940    949     1  0.0000000  0.6508444  3
    931    930    934    946     1  0.0000000  0.6508444  3
    931    930    937    940     1  0.0000000  0.6508444  3
    931    943    955   1978     1  0.0000000  0.6508444  3
    934    930    931    943     1  0.0000000  0.6508444  3
    934    930    937    940     1  0.0000000  0.6508444  3
    934    946    952   1948     1  0.0000000  0.6508444  3
    937    930    931    943     1  0.0000000  0.6508444  3
    937    930    934    946     1  0.0000000  0.6508444  3
    937    940    949    958     1  0.0000000  0.6508444  3
    943    955   1978   1969     1  180.0000771  0.4184000  2
    943    955   1978   1969     1  0.0000000  1.6024720  3
    946    952   1948   1939     1  180.0000771  0.4184000  2
    946    952   1948   1939     1  0.0000000  1.6024720  3
    952   1948   1939   1930     1  180.0000771  0.4184000  2
    952   1948   1939   1930     1  0.0000000  1.6024720  3
    955   1978   1969   1960     1  180.0000771  0.4184000  2
    955   1978   1969   1960     1  0.0000000  1.6024720  3
    960    961    973    985     1  0.0000000  0.6508444  3
    960    964    976    982     1  0.0000000  0.6508444  3
    960    967    970    979     1  0.0000000  0.6508444  3
    961    960    964    976     1  0.0000000  0.6508444  3
    961    960    967    970     1  0.0000000  0.6508444  3
    961    973    985   2038     1  0.0000000  0.6508444  3
    964    960    961    973     1  0.0000000  0.6508444  3
    964    960    967    970     1  0.0000000  0.6508444  3
    964    976    982   2008     1  0.0000000  0.6508444  3
    967    960    961    973     1  0.0000000  0.6508444  3
    967    960    964    976     1  0.0000000  0.6508444  3
    967    970    979    988     1  0.0000000  0.6508444  3
    973    985   2038   2029     1  180.0000771  0.4184000  2
    973    985   2038   2029     1  0.0000000  1.6024720  3
    976    982   2008   1999     1  180.0000771  0.4184000  2
    976    982   2008   1999     1  0.0000000  1.6024720  3
    982   2008   1999   1990     1  180.0000771  0.4184000  2
    982   2008   1999   1990     1  0.0000000  1.6024720  3
    985   2038   2029   2020     1  180.0000771  0.4184000  2
    985   2038   2029   2020     1  0.0000000  1.6024720  3
    990    991   1003   1015     1  0.0000000  0.6508444  3
    990    994   1006   1012     1  0.0000000  0.6508444  3
    990    997   1000   1009     1  0.0000000  0.6508444  3
    991    990    994   1006     1  0.0000000  0.6508444  3
    991    990    997   1000     1  0.0000000  0.6508444  3
    991   1003   1015   2098     1  0.0000000  0.6508444  3
    994    990    991   1003     1  0.0000000  0.6508444  3
    994    990    997   1000     1  0.0000000  0.6508444  3
    994   1006   1012   2068     1  0.0000000  0.6508444  3
    997    990    991   1003     1  0.0000000  0.6508444  3
    997    990    994   1006     1  0.0000000  0.6508444  3
    997   1000   1009   1018     1  0.0000000  0.6508444  3
   1003   1015   2098   2089     1  180.0000771  0.4184000  2
   1003   1015   2098   2089     1  0.0000000  1.6024720  3
   1006   1012   2068   2059     1  180.0000771  0.4184000  2
   1006   1012   2068   2059     1  0.0000000  1.6024720  3
   1012   2068   2059   2050     1  180.0000771  0.4184000  2
   1012   2068   2059   2050     1  0.0000000  1.6024720  3
   1015   2098   2089   2080     1  180.0000771  0.4184000  2
   1015   2098   2089   2080     1  0.0000000  1.6024720  3
   1020   1021   1033   1045     1  0.0000000  0.6508444  3
   1020   1024   1036   1042     1  0.0000000  0.6508444  3
   1020   1027   1030   1039     1  0.0000000  0.6508444  3
   1021   1020   1024   1036     1  0.0000000  0.6508444  3
   1021   1020   1027   1030     1  0.0000000  0.6508444  3
   1021   1033   1045   2158     1  0.0000000  0.6508444  3
   1024   1020   1021   1033     1  0.0000000  0.6508444  3
   1024   1020   1027   1030     1  0.0000000  0.6508444  3
   1024   1036   1042   2128     1  0.0000000  0.6508444  3
   1027   1020   1021   1033     1  0.0000000  0.6508444  3
   1027   1020   1024   1036     1  0.0000000  0.6508444  3
   1027   1030   1039   1048     1  0.0000000  0.6508444  3
   1033   1045   2158   2149     1  180.0000771  0.4184000  2
   1033   1045   2158   2149     1  0.0000000  1.6024720  3
   1036   1042   2128   2119     1  180.0000771  0.4184000  2
   1036   1042   2128   2119     1  0.0000000  1.6024720  3
   1042   2128   2119   2110     1  180.0000771  0.4184000  2
   1042   2128   2119   2110     1  0.0000000  1.6024720  3
   1045   2158   2149   2140     1  180.0000771  0.4184000  2
   1045   2158   2149   2140     1  0.0000000  1.6024720  3
   1050   1051   1063   1075     1  0.0000000  0.6508444  3
   1050   1054   1066   1072     1  0.0000000  0.6508444  3
   1050   1057   1060   1069     1  0.0000000  0.6508444  3
   1051   1050   1054   1066     1  0.0000000  0.6508444  3
   1051   1050   1057   1060     1  0.0000000  0.6508444  3
   1051   1063   1075   2218     1  0.0000000  0.6508444  3
   1054   1050   1051   1063     1  0.0000000  0.6508444  3
   1054   1050   1057   1060     1  0.0000000  0.6508444  3
   1054   1066   1072   2188     1  0.0000000  0.6508444  3
   1057   1050   1051   1063     1  0.0000000  0.6508444  3
   1057   1050   1054   1066     1  0.0000000  0.6508444  3
   1057   1060   1069   1078     1  0.0000000  0.6508444  3
   1063   1075   2218   2209     1  180.0000771  0.4184000  2
   1063   1075   2218   2209     1  0.0000000  1.6024720  3
   1066   1072   2188   2179     1  180.0000771  0.4184000  2
   1066   1072   2188   2179     1  0.0000000  1.6024720  3
   1072   2188   2179   2170     1  180.0000771  0.4184000  2
   1072   2188   2179   2170     1  0.0000000  1.6024720  3
   1075   2218   2209   2200     1  180.0000771  0.4184000  2
   1075   2218   2209   2200     1  0.0000000  1.6024720  3
   1080   1081   1093   1105     1  0.0000000  0.6508444  3
   1080   1084   1096   1102     1  0.0000000  0.6508444  3
   1080   1087   1090   1099     1  0.0000000  0.6508444  3
   1081   1080   1084   1096     1  0.0000000  0.6508444  3
   1081   1080   1087   1090     1  0.0000000  0.6508444  3
   1081   1093   1105   2278     1  0.0000000  0.6508444  3
   1084   1080   1081   1093     1  0.0000000  0.6508444  3
   1084   1080   1087   1090     1  0.0000000  0.6508444  3
   1084   1096   1102   2248     1  0.0000000  0.6508444  3
   1087   1080   1081   1093     1  0.0000000  0.6508444  3
   1087   1080   1084   1096     1  0.0000000  0.6508444  3
   1087   1090   1099   1108     1  0.0000000  0.6508444  3
   1093   1105   2278   2269     1  180.0000771  0.4184000  2
   1093   1105   2278   2269     1  0.0000000  1.6024720  3
   1096   1102   2248   2239     1  180.0000771  0.4184000  2
   1096   1102   2248   2239     1  0.0000000  1.6024720  3
   1102   2248   2239   2230     1  180.0000771  0.4184000  2
   1102   2248   2239   2230     1  0.0000000  1.6024720  3
   1105   2278   2269   2260     1  180.0000771  0.4184000  2
   1105   2278   2269   2260     1  0.0000000  1.6024720  3
   1110   1111   1123   1135     1  0.0000000  0.6508444  3
   1110   1114   1126   1132     1  0.0000000  0.6508444  3
   1110   1117   1120   1129     1  0.0000000  0.6508444  3
   1111   1110   1114   1126     1  0.0000000  0.6508444  3
   1111   1110   1117   1120     1  0.0000000  0.6508444  3
   1111   1123   1135   2338     1  0.0000000  0.6508444  3
   1114   1110   1111   1123     1  0.0000000  0.6508444  3
   1114   1110   1117   1120     1  0.0000000  0.6508444  3
   1114   1126   1132   2308     1  0.0000000  0.6508444  3
   1117   1110   1111   1123     1  0.0000000  0.6508444  3
   1117   1110   1114   1126     1  0.0000000  0.6508444  3
   1117   1120   1129   1138     1  0.0000000  0.6508444  3
   1123   1135   2338   2329     1  180.0000771  0.4184000  2
   1123   1135   2338   2329     1  0.0000000  1.6024720  3
   1126   1132   2308   2299     1  180.0000771  0.4184000  2
   1126   1132   2308   2299     1  0.0000000  1.6024720  3
   1132   2308   2299   2290     1  180.0000771  0.4184000  2
   1132   2308   2299   2290     1  0.0000000  1.6024720  3
   1135   2338   2329   2320     1  180.0000771  0.4184000  2
   1135   2338   2329   2320     1  0.0000000  1.6024720  3
   1140   1141   1153   1165     1  0.0000000  0.6508444  3
   1140   1144   1156   1162     1  0.0000000  0.6508444  3
   1140   1147   1150   1159     1  0.0000000  0.6508444  3
   1141   1140   1144   1156     1  0.0000000  0.6508444  3
   1141   1140   1147   1150     1  0.0000000  0.6508444  3
   1141   1153   1165   2398     1  0.0000000  0.6508444  3
   1144   1140   1141   1153     1  0.0000000  0.6508444  3
   1144   1140   1147   1150     1  0.0000000  0.6508444  3
   1144   1156   1162   2368     1  0.0000000  0.6508444  3
   1147   1140   1141   1153     1  0.0000000  0.6508444  3
   1147   1140   1144   1156     1  0.0000000  0.6508444  3
   1147   1150   1159   1168     1  0.0000000  0.6508444  3
   1153   1165   2398   2389     1  180.0000771  0.4184000  2
   1153   1165   2398   2389     1  0.0000000  1.6024720  3
   1156   1162   2368   2359     1  180.0000771  0.4184000  2
   1156   1162   2368   2359     1  0.0000000  1.6024720  3
   1162   2368   2359   2350     1  180.0000771  0.4184000  2
   1162   2368   2359   2350     1  0.0000000  1.6024720  3
   1165   2398   2389   2380     1  180.0000771  0.4184000  2
   1165   2398   2389   2380     1  0.0000000  1.6024720  3
   1170   1171   1183   1195     1  0.0000000  0.6508444  3
   1170   1174   1186   1192     1  0.0000000  0.6508444  3
   1170   1177   1180   1189     1  0.0000000  0.6508444  3
   1171   1170   1174   1186     1  0.0000000  0.6508444  3
   1171   1170   1177   1180     1  0.0000000  0.6508444  3
   1171   1183   1195   2458     1  0.0000000  0.6508444  3
   1174   1170   1171   1183     1  0.0000000  0.6508444  3
   1174   1170   1177   1180     1  0.0000000  0.6508444  3
   1174   1186   1192   2428     1  0.0000000  0.6508444  3
   1177   1170   1171   1183     1  0.0000000  0.6508444  3
   1177   1170   1174   1186     1  0.0000000  0.6508444  3
   1177   1180   1189   1198     1  0.0000000  0.6508444  3
   1183   1195   2458   2449     1  180.0000771  0.4184000  2
   1183   1195   2458   2449     1  0.0000000  1.6024720  3
   1186   1192   2428   2419     1  180.0000771  0.4184000  2
   1186   1192   2428   2419     1  0.0000000  1.6024720  3
   1192   2428   2419   2410     1  180.0000771  0.4184000  2
   1192   2428   2419   2410     1  0.0000000  1.6024720  3
   1195   2458   2449   2440     1  180.0000771  0.4184000  2
   1195   2458   2449   2440     1  0.0000000  1.6024720  3
   1200   1201   1213   1225     1  0.0000000  0.6508444  3
   1200   1204   1216   1222     1  0.0000000  0.6508444  3
   1200   1207   1210   1219     1  0.0000000  0.6508444  3
   1201   1200   1204   1216     1  0.0000000  0.6508444  3
   1201   1200   1207   1210     1  0.0000000  0.6508444  3
   1201   1213   1225   2518     1  0.0000000  0.6508444  3
   1204   1200   1201   1213     1  0.0000000  0.6508444  3
   1204   1200   1207   1210     1  0.0000000  0.6508444  3
   1204   1216   1222   2488     1  0.0000000  0.6508444  3
   1207   1200   1201   1213     1  0.0000000  0.6508444  3
   1207   1200   1204   1216     1  0.0000000  0.6508444  3
   1207   1210   1219   1228     1  0.0000000  0.6508444  3
   1213   1225   2518   2509     1  180.0000771  0.4184000  2
   1213   1225   2518   2509     1  0.0000000  1.6024720  3
   1216   1222   2488   2479     1  180.0000771  0.4184000  2
   1216   1222   2488   2479     1  0.0000000  1.6024720  3
   1222   2488   2479   2470     1  180.0000771  0.4184000  2
   1222   2488   2479   2470     1  0.0000000  1.6024720  3
   1225   2518   2509   2500     1  180.0000771  0.4184000  2
   1225   2518   2509   2500     1  0.0000000  1.6024720  3
   1230   1231   1243   1255     1  0.0000000  0.6508444  3
   1230   1234   1246   1252     1  0.0000000  0.6508444  3
   1230   1237   1240   1249     1  0.0000000  0.6508444  3
   1231   1230   1234   1246     1  0.0000000  0.6508444  3
   1231   1230   1237   1240     1  0.0000000  0.6508444  3
   1231   1243   1255   2578     1  0.0000000  0.6508444  3
   1234   1230   1231   1243     1  0.0000000  0.6508444  3
   1234   1230   1237   1240     1  0.0000000  0.6508444  3
   1234   1246   1252   2548     1  0.0000000  0.6508444  3
   1237   1230   1231   1243     1  0.0000000  0.6508444  3
   1237   1230   1234   1246     1  0.0000000  0.6508444  3
   1237   1240   1249   1258     1  0.0000000  0.6508444  3
   1243   1255   2578   2569     1  180.0000771  0.4184000  2
   1243   1255   2578   2569     1  0.0000000  1.6024720  3
   1246   1252   2548   2539     1  180.0000771  0.4184000  2
   1246   1252   2548   2539     1  0.0000000  1.6024720  3
   1252   2548   2539   2530     1  180.0000771  0.4184000  2
   1252   2548   2539   2530     1  0.0000000  1.6024720  3
   1255   2578   2569   2560     1  180.0000771  0.4184000  2
   1255   2578   2569   2560     1  0.0000000  1.6024720  3
   1260   1261   1273   1285     1  0.0000000  0.6508444  3
   1260   1264   1276   1282     1  0.0000000  0.6508444  3
   1260   1267   1270   1279     1  0.0000000  0.6508444  3
   1261   1260   1264   1276     1  0.0000000  0.6508444  3
   1261   1260   1267   1270     1  0.0000000  0.6508444  3
   1261   1273   1285   2638     1  0.0000000  0.6508444  3
   1264   1260   1261   1273     1  0.0000000  0.6508444  3
   1264   1260   1267   1270     1  0.0000000  0.6508444  3
   1264   1276   1282   2608     1  0.0000000  0.6508444  3
   1267   1260   1261   1273     1  0.0000000  0.6508444  3
   1267   1260   1264   1276     1  0.0000000  0.6508444  3
   1267   1270   1279   1288     1  0.0000000  0.6508444  3
   1273   1285   2638   2629     1  180.0000771  0.4184000  2
   1273   1285   2638   2629     1  0.0000000  1.6024720  3
   1276   1282   2608   2599     1  180.0000771  0.4184000  2
   1276   1282   2608   2599     1  0.0000000  1.6024720  3
   1282   2608   2599   2590     1  180.0000771  0.4184000  2
   1282   2608   2599   2590     1  0.0000000  1.6024720  3
   1285   2638   2629   2620     1  180.0000771  0.4184000  2
   1285   2638   2629   2620     1  0.0000000  1.6024720  3
   1290   1291   1303   1315     1  0.0000000  0.6508444  3
   1290   1294   1306   1312     1  0.0000000  0.6508444  3
   1290   1297   1300   1309     1  0.0000000  0.6508444  3
   1291   1290   1294   1306     1  0.0000000  0.6508444  3
   1291   1290   1297   1300     1  0.0000000  0.6508444  3
   1291   1303   1315   2698     1  0.0000000  0.6508444  3
   1294   1290   1291   1303     1  0.0000000  0.6508444  3
   1294   1290   1297   1300     1  0.0000000  0.6508444  3
   1294   1306   1312   2668     1  0.0000000  0.6508444  3
   1297   1290   1291   1303     1  0.0000000  0.6508444  3
   1297   1290   1294   1306     1  0.0000000  0.6508444  3
   1297   1300   1309   1318     1  0.0000000  0.6508444  3
   1303   1315   2698   2689     1  180.0000771  0.4184000  2
   1303   1315   2698   2689     1  0.0000000  1.6024720  3
   1306   1312   2668   2659     1  180.0000771  0.4184000  2
   1306   1312   2668   2659     1  0.0000000  1.6024720  3
   1312   2668   2659   2650     1  180.0000771  0.4184000  2
   1312   2668   2659   2650     1  0.0000000  1.6024720  3
   1315   2698   2689   2680     1  180.0000771  0.4184000  2
   1315   2698   2689   2680     1  0.0000000  1.6024720  3
   1320   1321   1333   1345     1  0.0000000  0.6508444  3
   1320   1324   1336   1342     1  0.0000000  0.6508444  3
   1320   1327   1330   1339     1  0.0000000  0.6508444  3
   1321   1320   1324   1336     1  0.0000000  0.6508444  3
   1321   1320   1327   1330     1  0.0000000  0.6508444  3
   1321   1333   1345   2758     1  0.0000000  0.6508444  3
   1324   1320   1321   1333     1  0.0000000  0.6508444  3
   1324   1320   1327   1330     1  0.0000000  0.6508444  3
   1324   1336   1342   2728     1  0.0000000  0.6508444  3
   1327   1320   1321   1333     1  0.0000000  0.6508444  3
   1327   1320   1324   1336     1  0.0000000  0.6508444  3
   1327   1330   1339   1348     1  0.0000000  0.6508444  3
   1333   1345   2758   2749     1  180.0000771  0.4184000  2
   1333   1345   2758   2749     1  0.0000000  1.6024720  3
   1336   1342   2728   2719     1  180.0000771  0.4184000  2
   1336   1342   2728   2719     1  0.0000000  1.6024720  3
   1342   2728   2719   2710     1  180.0000771  0.4184000  2
   1342   2728   2719   2710     1  0.0000000  1.6024720  3
   1345   2758   2749   2740     1  180.0000771  0.4184000  2
   1345   2758   2749   2740     1  0.0000000  1.6024720  3
   1350   1351   1363   1375     1  0.0000000  0.6508444  3
   1350   1354   1366   1372     1  0.0000000  0.6508444  3
   1350   1357   1360   1369     1  0.0000000  0.6508444  3
   1351   1350   1354   1366     1  0.0000000  0.6508444  3
   1351   1350   1357   1360     1  0.0000000  0.6508444  3
   1351   1363   1375   2818     1  0.0000000  0.6508444  3
   1354   1350   1351   1363     1  0.0000000  0.6508444  3
   1354   1350   1357   1360     1  0.0000000  0.6508444  3
   1354   1366   1372   2788     1  0.0000000  0.6508444  3
   1357   1350   1351   1363     1  0.0000000  0.6508444  3
   1357   1350   1354   1366     1  0.0000000  0.6508444  3
   1357   1360   1369   1378     1  0.0000000  0.6508444  3
   1363   1375   2818   2809     1  180.0000771  0.4184000  2
   1363   1375   2818   2809     1  0.0000000  1.6024720  3
   1366   1372   2788   2779     1  180.0000771  0.4184000  2
   1366   1372   2788   2779     1  0.0000000  1.6024720  3
   1372   2788   2779   2770     1  180.0000771  0.4184000  2
   1372   2788   2779   2770     1  0.0000000  1.6024720  3
   1375   2818   2809   2800     1  180.0000771  0.4184000  2
   1375   2818   2809   2800     1  0.0000000  1.6024720  3
   1380   1381   1393   1405     1  0.0000000  0.6508444  3
   1380   1384   1396   1402     1  0.0000000  0.6508444  3
   1380   1387   1390   1399     1  0.0000000  0.6508444  3
   1381   1380   1384   1396     1  0.0000000  0.6508444  3
   1381   1380   1387   1390     1  0.0000000  0.6508444  3
   1381   1393   1405   2878     1  0.0000000  0.6508444  3
   1384   1380   1381   1393     1  0.0000000  0.6508444  3
   1384   1380   1387   1390     1  0.0000000  0.6508444  3
   1384   1396   1402   2848     1  0.0000000  0.6508444  3
   1387   1380   1381   1393     1  0.0000000  0.6508444  3
   1387   1380   1384   1396     1  0.0000000  0.6508444  3
   1387   1390   1399   1408     1  0.0000000  0.6508444  3
   1393   1405   2878   2869     1  180.0000771  0.4184000  2
   1393   1405   2878   2869     1  0.0000000  1.6024720  3
   1396   1402   2848   2839     1  180.0000771  0.4184000  2
   1396   1402   2848   2839     1  0.0000000  1.6024720  3
   1402   2848   2839   2830     1  180.0000771  0.4184000  2
   1402   2848   2839   2830     1  0.0000000  1.6024720  3
   1405   2878   2869   2860     1  180.0000771  0.4184000  2
   1405   2878   2869   2860     1  0.0000000  1.6024720  3
   1410   1411   1423   1435     1  0.0000000  0.6508444  3
   1410   1414   1426   1432     1  0.0000000  0.6508444  3
   1410   1417   1420   1429     1  0.0000000  0.6508444  3
   1411   1410   1414   1426     1  0.0000000  0.6508444  3
   1411   1410   1417   1420     1  0.0000000  0.6508444  3
   1411   1423   1435   2938     1  0.0000000  0.6508444  3
   1414   1410   1411   1423     1  0.0000000  0.6508444  3
   1414   1410   1417   1420     1  0.0000000  0.6508444  3
   1414   1426   1432   2908     1  0.0000000  0.6508444  3
   1417   1410   1411   1423     1  0.0000000  0.6508444  3
   1417   1410   1414   1426     1  0.0000000  0.6508444  3
   1417   1420   1429   1438     1  0.0000000  0.6508444  3
   1423   1435   2938   2929     1  180.0000771  0.4184000  2
   1423   1435   2938   2929     1  0.0000000  1.6024720  3
   1426   1432   2908   2899     1  180.0000771  0.4184000  2
   1426   1432   2908   2899     1  0.0000000  1.6024720  3
   1432   2908   2899   2890     1  180.0000771  0.4184000  2
   1432   2908   2899   2890     1  0.0000000  1.6024720  3
   1435   2938   2929   2920     1  180.0000771  0.4184000  2
   1435   2938   2929   2920     1  0.0000000  1.6024720  3
   1440   1441   1453   1465     1  0.0000000  0.6508444  3
   1440   1444   1456   1462     1  0.0000000  0.6508444  3
   1440   1447   1450   1459     1  0.0000000  0.6508444  3
   1441   1440   1444   1456     1  0.0000000  0.6508444  3
   1441   1440   1447   1450     1  0.0000000  0.6508444  3
   1441   1453   1465   2998     1  0.0000000  0.6508444  3
   1444   1440   1441   1453     1  0.0000000  0.6508444  3
   1444   1440   1447   1450     1  0.0000000  0.6508444  3
   1444   1456   1462   2968     1  0.0000000  0.6508444  3
   1447   1440   1441   1453     1  0.0000000  0.6508444  3
   1447   1440   1444   1456     1  0.0000000  0.6508444  3
   1447   1450   1459   1468     1  0.0000000  0.6508444  3
   1453   1465   2998   2989     1  180.0000771  0.4184000  2
   1453   1465   2998   2989     1  0.0000000  1.6024720  3
   1456   1462   2968   2959     1  180.0000771  0.4184000  2
   1456   1462   2968   2959     1  0.0000000  1.6024720  3
   1462   2968   2959   2950     1  180.0000771  0.4184000  2
   1462   2968   2959   2950     1  0.0000000  1.6024720  3
   1465   2998   2989   2980     1  180.0000771  0.4184000  2
   1465   2998   2989   2980     1  0.0000000  1.6024720  3
   1470   1471   1483   1495     1  0.0000000  0.6508444  3
   1470   1474   1486   1492     1  0.0000000  0.6508444  3
   1470   1477   1480   1489     1  0.0000000  0.6508444  3
   1471   1470   1474   1486     1  0.0000000  0.6508444  3
   1471   1470   1477   1480     1  0.0000000  0.6508444  3
   1471   1483   1495   3058     1  0.0000000  0.6508444  3
   1474   1470   1471   1483     1  0.0000000  0.6508444  3
   1474   1470   1477   1480     1  0.0000000  0.6508444  3
   1474   1486   1492   3028     1  0.0000000  0.6508444  3
   1477   1470   1471   1483     1  0.0000000  0.6508444  3
   1477   1470   1474   1486     1  0.0000000  0.6508444  3
   1477   1480   1489   1498     1  0.0000000  0.6508444  3
   1483   1495   3058   3049     1  180.0000771  0.4184000  2
   1483   1495   3058   3049     1  0.0000000  1.6024720  3
   1486   1492   3028   3019     1  180.0000771  0.4184000  2
   1486   1492   3028   3019     1  0.0000000  1.6024720  3
   1492   3028   3019   3010     1  180.0000771  0.4184000  2
   1492   3028   3019   3010     1  0.0000000  1.6024720  3
   1495   3058   3049   3040     1  180.0000771  0.4184000  2
   1495   3058   3049   3040     1  0.0000000  1.6024720  3
   1500   1501   1513   1525     1  0.0000000  0.6508444  3
   1500   1504   1516   1522     1  0.0000000  0.6508444  3
   1500   1507   1510   1519     1  0.0000000  0.6508444  3
   1501   1500   1504   1516     1  0.0000000  0.6508444  3
   1501   1500   1507   1510     1  0.0000000  0.6508444  3
   1501   1513   1525   3118     1  0.0000000  0.6508444  3
   1504   1500   1501   1513     1  0.0000000  0.6508444  3
   1504   1500   1507   1510     1  0.0000000  0.6508444  3
   1504   1516   1522   3088     1  0.0000000  0.6508444  3
   1507   1500   1501   1513     1  0.0000000  0.6508444  3
   1507   1500   1504   1516     1  0.0000000  0.6508444  3
   1507   1510   1519   1528     1  0.0000000  0.6508444  3
   1513   1525   3118   3109     1  180.0000771  0.4184000  2
   1513   1525   3118   3109     1  0.0000000  1.6024720  3
   1516   1522   3088   3079     1  180.0000771  0.4184000  2
   1516   1522   3088   3079     1  0.0000000  1.6024720  3
   1522   3088   3079   3070     1  180.0000771  0.4184000  2
   1522   3088   3079   3070     1  0.0000000  1.6024720  3
   1525   3118   3109   3100     1  180.0000771  0.4184000  2
   1525   3118   3109   3100     1  0.0000000  1.6024720  3
   1530   1531   1543   1555     1  0.0000000  0.6508444  3
   1530   1534   1546   1552     1  0.0000000  0.6508444  3
   1530   1537   1540   1549     1  0.0000000  0.6508444  3
   1531   1530   1534   1546     1  0.0000000  0.6508444  3
   1531   1530   1537   1540     1  0.0000000  0.6508444  3
   1531   1543   1555   3178     1  0.0000000  0.6508444  3
   1534   1530   1531   1543     1  0.0000000  0.6508444  3
   1534   1530   1537   1540     1  0.0000000  0.6508444  3
   1534   1546   1552   3148     1  0.0000000  0.6508444  3
   1537   1530   1531   1543     1  0.0000000  0.6508444  3
   1537   1530   1534   1546     1  0.0000000  0.6508444  3
   1537   1540   1549   1558     1  0.0000000  0.6508444  3
   1543   1555   3178   3169     1  180.0000771  0.4184000  2
   1543   1555   3178   3169     1  0.0000000  1.6024720  3
   1546   1552   3148   3139     1  180.0000771  0.4184000  2
   1546   1552   3148   3139     1  0.0000000  1.6024720  3
   1552   3148   3139   3130     1  180.0000771  0.4184000  2
   1552   3148   3139   3130     1  0.0000000  1.6024720  3
   1555   3178   3169   3160     1  180.0000771  0.4184000  2
   1555   3178   3169   3160     1  0.0000000  1.6024720  3
   1560   1561   1573   1585     1  0.0000000  0.6508444  3
   1560   1564   1576   1582     1  0.0000000  0.6508444  3
   1560   1567   1570   1579     1  0.0000000  0.6508444  3
   1561   1560   1564   1576     1  0.0000000  0.6508444  3
   1561   1560   1567   1570     1  0.0000000  0.6508444  3
   1561   1573   1585   3238     1  0.0000000  0.6508444  3
   1564   1560   1561   1573     1  0.0000000  0.6508444  3
   1564   1560   1567   1570     1  0.0000000  0.6508444  3
   1564   1576   1582   3208     1  0.0000000  0.6508444  3
   1567   1560   1561   1573     1  0.0000000  0.6508444  3
   1567   1560   1564   1576     1  0.0000000  0.6508444  3
   1567   1570   1579   1588     1  0.0000000  0.6508444  3
   1573   1585   3238   3229     1  180.0000771  0.4184000  2
   1573   1585   3238   3229     1  0.0000000  1.6024720  3
   1576   1582   3208   3199     1  180.0000771  0.4184000  2
   1576   1582   3208   3199     1  0.0000000  1.6024720  3
   1582   3208   3199   3190     1  180.0000771  0.4184000  2
   1582   3208   3199   3190     1  0.0000000  1.6024720  3
   1585   3238   3229   3220     1  180.0000771  0.4184000  2
   1585   3238   3229   3220     1  0.0000000  1.6024720  3
   1590   1591   1603   1615     1  0.0000000  0.6508444  3
   1590   1594   1606   1612     1  0.0000000  0.6508444  3
   1590   1597   1600   1609     1  0.0000000  0.6508444  3
   1591   1590   1594   1606     1  0.0000000  0.6508444  3
   1591   1590   1597   1600     1  0.0000000  0.6508444  3
   1591   1603   1615   3298     1  0.0000000  0.6508444  3
   1594   1590   1591   1603     1  0.0000000  0.6508444  3
   1594   1590   1597   1600     1  0.0000000  0.6508444  3
   1594   1606   1612   3268     1  0.0000000  0.6508444  3
   1597   1590   1591   1603     1  0.0000000  0.6508444  3
   1597   1590   1594   1606     1  0.0000000  0.6508444  3
   1597   1600   1609   1618     1  0.0000000  0.6508444  3
   1603   1615   3298   3289     1  180.0000771  0.4184000  2
   1603   1615   3298   3289     1  0.0000000  1.6024720  3
   1606   1612   3268   3259     1  180.0000771  0.4184000  2
   1606   1612   3268   3259     1  0.0000000  1.6024720  3
   1612   3268   3259   3250     1  180.0000771  0.4184000  2
   1612   3268   3259   3250     1  0.0000000  1.6024720  3
   1615   3298   3289   3280     1  180.0000771  0.4184000  2
   1615   3298   3289   3280     1  0.0000000  1.6024720  3
   1620   1621   1633   1645     1  0.0000000  0.6508444  3
   1620   1624   1636   1642     1  0.0000000  0.6508444  3
   1620   1627   1630   1639     1  0.0000000  0.6508444  3
   1621   1620   1624   1636     1  0.0000000  0.6508444  3
   1621   1620   1627   1630     1  0.0000000  0.6508444  3
   1621   1633   1645   3358     1  0.0000000  0.6508444  3
   1624   1620   1621   1633     1  0.0000000  0.6508444  3
   1624   1620   1627   1630     1  0.0000000  0.6508444  3
   1624   1636   1642   3328     1  0.0000000  0.6508444  3
   1627   1620   1621   1633     1  0.0000000  0.6508444  3
   1627   1620   1624   1636     1  0.0000000  0.6508444  3
   1627   1630   1639   1648     1  0.0000000  0.6508444  3
   1633   1645   3358   3349     1  180.0000771  0.4184000  2
   1633   1645   3358   3349     1  0.0000000  1.6024720  3
   1636   1642   3328   3319     1  180.0000771  0.4184000  2
   1636   1642   3328   3319     1  0.0000000  1.6024720  3
   1642   3328   3319   3310     1  180.0000771  0.4184000  2
   1642   3328   3319   3310     1  0.0000000  1.6024720  3
   1645   3358   3349   3340     1  180.0000771  0.4184000  2
   1645   3358   3349   3340     1  0.0000000  1.6024720  3
   1650   1651   1663   1675     1  0.0000000  0.6508444  3
   1650   1654   1666   1672     1  0.0000000  0.6508444  3
   1650   1657   1660   1669     1  0.0000000  0.6508444  3
   1651   1650   1654   1666     1  0.0000000  0.6508444  3
   1651   1650   1657   1660     1  0.0000000  0.6508444  3
   1651   1663   1675   3418     1  0.0000000  0.6508444  3
   1654   1650   1651   1663     1  0.0000000  0.6508444  3
   1654   1650   1657   1660     1  0.0000000  0.6508444  3
   1654   1666   1672   3388     1  0.0000000  0.6508444  3
   1657   1650   1651   1663     1  0.0000000  0.6508444  3
   1657   1650   1654   1666     1  0.0000000  0.6508444  3
   1657   1660   1669   1678     1  0.0000000  0.6508444  3
   1663   1675   3418   3409     1  180.0000771  0.4184000  2
   1663   1675   3418   3409     1  0.0000000  1.6024720  3
   1666   1672   3388   3379     1  180.0000771  0.4184000  2
   1666   1672   3388   3379     1  0.0000000  1.6024720  3
   1672   3388   3379   3370     1  180.0000771  0.4184000  2
   1672   3388   3379   3370     1  0.0000000  1.6024720  3
   1675   3418   3409   3400     1  180.0000771  0.4184000  2
   1675   3418   3409   3400     1  0.0000000  1.6024720  3
   1680   1681   1693   1705     1  0.0000000  0.6508444  3
   1680   1684   1696   1702     1  0.0000000  0.6508444  3
   1680   1687   1690   1699     1  0.0000000  0.6508444  3
   1681   1680   1684   1696     1  0.0000000  0.6508444  3
   1681   1680   1687   1690     1  0.0000000  0.6508444  3
   1681   1693   1705   3478     1  0.0000000  0.6508444  3
   1684   1680   1681   1693     1  0.0000000  0.6508444  3
   1684   1680   1687   1690     1  0.0000000  0.6508444  3
   1684   1696   1702   3448     1  0.0000000  0.6508444  3
   1687   1680   1681   1693     1  0.0000000  0.6508444  3
   1687   1680   1684   1696     1  0.0000000  0.6508444  3
   1687   1690   1699   1708     1  0.0000000  0.6508444  3
   1693   1705   3478   3469     1  180.0000771  0.4184000  2
   1693   1705   3478   3469     1  0.0000000  1.6024720  3
   1696   1702   3448   3439     1  180.0000771  0.4184000  2
   1696   1702   3448   3439     1  0.0000000  1.6024720  3
   1702   3448   3439   3430     1  180.0000771  0.4184000  2
   1702   3448   3439   3430     1  0.0000000  1.6024720  3
   1705   3478   3469   3460     1  180.0000771  0.4184000  2
   1705   3478   3469   3460     1  0.0000000  1.6024720  3
   1710   1711   1723   1735     1  0.0000000  0.6508444  3
   1710   1714   1726   1732     1  0.0000000  0.6508444  3
   1710   1717   1720   1729     1  0.0000000  0.6508444  3
   1711   1710   1714   1726     1  0.0000000  0.6508444  3
   1711   1710   1717   1720     1  0.0000000  0.6508444  3
   1711   1723   1735   3538     1  0.0000000  0.6508444  3
   1714   1710   1711   1723     1  0.0000000  0.6508444  3
   1714   1710   1717   1720     1  0.0000000  0.6508444  3
   1714   1726   1732   3508     1  0.0000000  0.6508444  3
   1717   1710   1711   1723     1  0.0000000  0.6508444  3
   1717   1710   1714   1726     1  0.0000000  0.6508444  3
   1717   1720   1729   1738     1  0.0000000  0.6508444  3
   1723   1735   3538   3529     1  180.0000771  0.4184000  2
   1723   1735   3538   3529     1  0.0000000  1.6024720  3
   1726   1732   3508   3499     1  180.0000771  0.4184000  2
   1726   1732   3508   3499     1  0.0000000  1.6024720  3
   1732   3508   3499   3490     1  180.0000771  0.4184000  2
   1732   3508   3499   3490     1  0.0000000  1.6024720  3
   1735   3538   3529   3520     1  180.0000771  0.4184000  2
   1735   3538   3529   3520     1  0.0000000  1.6024720  3
   1740   1741   1753   1765     1  0.0000000  0.6508444  3
   1740   1744   1756   1762     1  0.0000000  0.6508444  3
   1740   1747   1750   1759     1  0.0000000  0.6508444  3
   1741   1740   1744   1756     1  0.0000000  0.6508444  3
   1741   1740   1747   1750     1  0.0000000  0.6508444  3
   1741   1753   1765   3598     1  0.0000000  0.6508444  3
   1744   1740   1741   1753     1  0.0000000  0.6508444  3
   1744   1740   1747   1750     1  0.0000000  0.6508444  3
   1744   1756   1762   3568     1  0.0000000  0.6508444  3
   1747   1740   1741   1753     1  0.0000000  0.6508444  3
   1747   1740   1744   1756     1  0.0000000  0.6508444  3
   1747   1750   1759   1768     1  0.0000000  0.6508444  3
   1753   1765   3598   3589     1  180.0000771  0.4184000  2
   1753   1765   3598   3589     1  0.0000000  1.6024720  3
   1756   1762   3568   3559     1  180.0000771  0.4184000  2
   1756   1762   3568   3559     1  0.0000000  1.6024720  3
   1762   3568   3559   3550     1  180.0000771  0.4184000  2
   1762   3568   3559   3550     1  0.0000000  1.6024720  3
   1765   3598   3589   3580     1  180.0000771  0.4184000  2
   1765   3598   3589   3580     1  0.0000000  1.6024720  3
   1770   1771   1783   1795     1  0.0000000  0.6508444  3
   1770   1774   1786   1792     1  0.0000000  0.6508444  3
   1770   1777   1780   1789     1  0.0000000  0.6508444  3
   1771   1770   1774   1786     1  0.0000000  0.6508444  3
   1771   1770   1777   1780     1  0.0000000  0.6508444  3
   1771   1783   1795   3658     1  0.0000000  0.6508444  3
   1774   1770   1771   1783     1  0.0000000  0.6508444  3
   1774   1770   1777   1780     1  0.0000000  0.6508444  3
   1774   1786   1792   3628     1  0.0000000  0.6508444  3
   1777   1770   1771   1783     1  0.0000000  0.6508444  3
   1777   1770   1774   1786     1  0.0000000  0.6508444  3
   1777   1780   1789   1798     1  0.0000000  0.6508444  3
   1783   1795   3658   3649     1  180.0000771  0.4184000  2
   1783   1795   3658   3649     1  0.0000000  1.6024720  3
   1786   1792   3628   3619     1  180.0000771  0.4184000  2
   1786   1792   3628   3619     1  0.0000000  1.6024720  3
   1792   3628   3619   3610     1  180.0000771  0.4184000  2
   1792   3628   3619   3610     1  0.0000000  1.6024720  3
   1795   3658   3649   3640     1  180.0000771  0.4184000  2
   1795   3658   3649   3640     1  0.0000000  1.6024720  3
   1800   1801   1813   1825     1  0.0000000  0.6508444  3
   1800   1804   1816   1822     1  0.0000000  0.6508444  3
   1800   1807   1810   1819     1  0.0000000  0.6508444  3
   1801   1800   1804   1816     1  0.0000000  0.6508444  3
   1801   1800   1807   1810     1  0.0000000  0.6508444  3
   1801   1813   1825   3718     1  0.0000000  0.6508444  3
   1804   1800   1801   1813     1  0.0000000  0.6508444  3
   1804   1800   1807   1810     1  0.0000000  0.6508444  3
   1804   1816   1822   3688     1  0.0000000  0.6508444  3
   1807   1800   1801   1813     1  0.0000000  0.6508444  3
   1807   1800   1804   1816     1  0.0000000  0.6508444  3
   1807   1810   1819   1828     1  0.0000000  0.6508444  3
   1813   1825   3718   3709     1  180.0000771  0.4184000  2
   1813   1825   3718   3709     1  0.0000000  1.6024720  3
   1816   1822   3688   3679     1  180.0000771  0.4184000  2
   1816   1822   3688   3679     1  0.0000000  1.6024720  3
   1822   3688   3679   3670     1  180.0000771  0.4184000  2
   1822   3688   3679   3670     1  0.0000000  1.6024720  3
   1825   3718   3709   3700     1  180.0000771  0.4184000  2
   1825   3718   3709   3700     1  0.0000000  1.6024720  3
   1830   1831   1843   1855     1  0.0000000  0.6508444  3
   1830   1834   1846   1852     1  0.0000000  0.6508444  3
   1830   1837   1840   1849     1  0.0000000  0.6508444  3
   1831   1830   1834   1846     1  0.0000000  0.6508444  3
   1831   1830   1837   1840     1  0.0000000  0.6508444  3
   1831   1843   1855   3778     1  0.0000000  0.6508444  3
   1834   1830   1831   1843     1  0.0000000  0.6508444  3
   1834   1830   1837   1840     1  0.0000000  0.6508444  3
   1834   1846   1852   3748     1  0.0000000  0.6508444  3
   1837   1830   1831   1843     1  0.0000000  0.6508444  3
   1837   1830   1834   1846     1  0.0000000  0.6508444  3
   1837   1840   1849   1858     1  0.0000000  0.6508444  3
   1843   1855   3778   3769     1  180.0000771  0.4184000  2
   1843   1855   3778   3769     1  0.0000000  1.6024720  3
   1846   1852   3748   3739     1  180.0000771  0.4184000  2
   1846   1852   3748   3739     1  0.0000000  1.6024720  3
   1852   3748   3739   3730     1  180.0000771  0.4184000  2
   1852   3748   3739   3730     1  0.0000000  1.6024720  3
   1855   3778   3769   3760     1  180.0000771  0.4184000  2
   1855   3778   3769   3760     1  0.0000000  1.6024720  3
   1860   1861   1873   1885     1  0.0000000  0.6508444  3
   1860   1864   1876   1882     1  0.0000000  0.6508444  3
   1860   1867   1870   1879     1  0.0000000  0.6508444  3
   1861   1860   1864   1876     1  0.0000000  0.6508444  3
   1861   1860   1867   1870     1  0.0000000  0.6508444  3
   1861   1873   1885   3838     1  0.0000000  0.6508444  3
   1864   1860   1861   1873     1  0.0000000  0.6508444  3
   1864   1860   1867   1870     1  0.0000000  0.6508444  3
   1864   1876   1882   3808     1  0.0000000  0.6508444  3
   1867   1860   1861   1873     1  0.0000000  0.6508444  3
   1867   1860   1864   1876     1  0.0000000  0.6508444  3
   1867   1870   1879   1888     1  0.0000000  0.6508444  3
   1873   1885   3838   3829     1  180.0000771  0.4184000  2
   1873   1885   3838   3829     1  0.0000000  1.6024720  3
   1876   1882   3808   3799     1  180.0000771  0.4184000  2
   1876   1882   3808   3799     1  0.0000000  1.6024720  3
   1882   3808   3799   3790     1  180.0000771  0.4184000  2
   1882   3808   3799   3790     1  0.0000000  1.6024720  3
   1885   3838   3829   3820     1  180.0000771  0.4184000  2
   1885   3838   3829   3820     1  0.0000000  1.6024720  3
   1890   1891   1903   1915     1  0.0000000  0.6508444  3
   1890   1894   1906   1912     1  0.0000000  0.6508444  3
   1890   1897   1900   1909     1  0.0000000  0.6508444  3
   1891   1890   1894   1906     1  0.0000000  0.6508444  3
   1891   1890   1897   1900     1  0.0000000  0.6508444  3
   1891   1903   1915   3898     1  0.0000000  0.6508444  3
   1894   1890   1891   1903     1  0.0000000  0.6508444  3
   1894   1890   1897   1900     1  0.0000000  0.6508444  3
   1894   1906   1912   3868     1  0.0000000  0.6508444  3
   1897   1890   1891   1903     1  0.0000000  0.6508444  3
   1897   1890   1894   1906     1  0.0000000  0.6508444  3
   1897   1900   1909   1918     1  0.0000000  0.6508444  3
   1903   1915   3898   3889     1  180.0000771  0.4184000  2
   1903   1915   3898   3889     1  0.0000000  1.6024720  3
   1906   1912   3868   3859     1  180.0000771  0.4184000  2
   1906   1912   3868   3859     1  0.0000000  1.6024720  3
   1912   3868   3859   3850     1  180.0000771  0.4184000  2
   1912   3868   3859   3850     1  0.0000000  1.6024720  3
   1915   3898   3889   3880     1  180.0000771  0.4184000  2
   1915   3898   3889   3880     1  0.0000000  1.6024720  3
   1920   1921   1933   1945     1  0.0000000  0.6508444  3
   1920   1924   1936   1942     1  0.0000000  0.6508444  3
   1920   1927   1930   1939     1  0.0000000  0.6508444  3
   1921   1920   1924   1936     1  0.0000000  0.6508444  3
   1921   1920   1927   1930     1  0.0000000  0.6508444  3
   1921   1933   1945   3958     1  0.0000000  0.6508444  3
   1924   1920   1921   1933     1  0.0000000  0.6508444  3
   1924   1920   1927   1930     1  0.0000000  0.6508444  3
   1924   1936   1942   3928     1  0.0000000  0.6508444  3
   1927   1920   1921   1933     1  0.0000000  0.6508444  3
   1927   1920   1924   1936     1  0.0000000  0.6508444  3
   1927   1930   1939   1948     1  0.0000000  0.6508444  3
   1933   1945   3958   3949     1  180.0000771  0.4184000  2
   1933   1945   3958   3949     1  0.0000000  1.6024720  3
   1936   1942   3928   3919     1  180.0000771  0.4184000  2
   1936   1942   3928   3919     1  0.0000000  1.6024720  3
   1942   3928   3919   3910     1  180.0000771  0.4184000  2
   1942   3928   3919   3910     1  0.0000000  1.6024720  3
   1945   3958   3949   3940     1  180.0000771  0.4184000  2
   1945   3958   3949   3940     1  0.0000000  1.6024720  3
   1950   1951   1963   1975     1  0.0000000  0.6508444  3
   1950   1954   1966   1972     1  0.0000000  0.6508444  3
   1950   1957   1960   1969     1  0.0000000  0.6508444  3
   1951   1950   1954   1966     1  0.0000000  0.6508444  3
   1951   1950   1957   1960     1  0.0000000  0.6508444  3
   1951   1963   1975   4018     1  0.0000000  0.6508444  3
   1954   1950   1951   1963     1  0.0000000  0.6508444  3
   1954   1950   1957   1960     1  0.0000000  0.6508444  3
   1954   1966   1972   3988     1  0.0000000  0.6508444  3
   1957   1950   1951   1963     1  0.0000000  0.6508444  3
   1957   1950   1954   1966     1  0.0000000  0.6508444  3
   1957   1960   1969   1978     1  0.0000000  0.6508444  3
   1963   1975   4018   4009     1  180.0000771  0.4184000  2
   1963   1975   4018   4009     1  0.0000000  1.6024720  3
   1966   1972   3988   3979     1  180.0000771  0.4184000  2
   1966   1972   3988   3979     1  0.0000000  1.6024720  3
   1972   3988   3979   3970     1  180.0000771  0.4184000  2
   1972   3988   3979   3970     1  0.0000000  1.6024720  3
   1975   4018   4009   4000     1  180.0000771  0.4184000  2
   1975   4018   4009   4000     1  0.0000000  1.6024720  3
   1980   1981   1993   2005     1  0.0000000  0.6508444  3
   1980   1984   1996   2002     1  0.0000000  0.6508444  3
   1980   1987   1990   1999     1  0.0000000  0.6508444  3
   1981   1980   1984   1996     1  0.0000000  0.6508444  3
   1981   1980   1987   1990     1  0.0000000  0.6508444  3
   1981   1993   2005   4078     1  0.0000000  0.6508444  3
   1984   1980   1981   1993     1  0.0000000  0.6508444  3
   1984   1980   1987   1990     1  0.0000000  0.6508444  3
   1984   1996   2002   4048     1  0.0000000  0.6508444  3
   1987   1980   1981   1993     1  0.0000000  0.6508444  3
   1987   1980   1984   1996     1  0.0000000  0.6508444  3
   1987   1990   1999   2008     1  0.0000000  0.6508444  3
   1993   2005   4078   4069     1  180.0000771  0.4184000  2
   1993   2005   4078   4069     1  0.0000000  1.6024720  3
   1996   2002   4048   4039     1  180.0000771  0.4184000  2
   1996   2002   4048   4039     1  0.0000000  1.6024720  3
   2002   4048   4039   4030     1  180.0000771  0.4184000  2
   2002   4048   4039   4030     1  0.0000000  1.6024720  3
   2005   4078   4069   4060     1  180.0000771  0.4184000  2
   2005   4078   4069   4060     1  0.0000000  1.6024720  3
   2010   2011   2023   2035     1  0.0000000  0.6508444  3
   2010   2014   2026   2032     1  0.0000000  0.6508444  3
   2010   2017   2020   2029     1  0.0000000  0.6508444  3
   2011   2010   2014   2026     1  0.0000000  0.6508444  3
   2011   2010   2017   2020     1  0.0000000  0.6508444  3
   2011   2023   2035   4138     1  0.0000000  0.6508444  3
   2014   2010   2011   2023     1  0.0000000  0.6508444  3
   2014   2010   2017   2020     1  0.0000000  0.6508444  3
   2014   2026   2032   4108     1  0.0000000  0.6508444  3
   2017   2010   2011   2023     1  0.0000000  0.6508444  3
   2017   2010   2014   2026     1  0.0000000  0.6508444  3
   2017   2020   2029   2038     1  0.0000000  0.6508444  3
   2023   2035   4138   4129     1  180.0000771  0.4184000  2
   2023   2035   4138   4129     1  0.0000000  1.6024720  3
   2026   2032   4108   4099     1  180.0000771  0.4184000  2
   2026   2032   4108   4099     1  0.0000000  1.6024720  3
   2032   4108   4099   4090     1  180.0000771  0.4184000  2
   2032   4108   4099   4090     1  0.0000000  1.6024720  3
   2035   4138   4129   4120     1  180.0000771  0.4184000  2
   2035   4138   4129   4120     1  0.0000000  1.6024720  3
   2040   2041   2053   2065     1  0.0000000  0.6508444  3
   2040   2044   2056   2062     1  0.0000000  0.6508444  3
   2040   2047   2050   2059     1  0.0000000  0.6508444  3
   2041   2040   2044   2056     1  0.0000000  0.6508444  3
   2041   2040   2047   2050     1  0.0000000  0.6508444  3
   2041   2053   2065   4198     1  0.0000000  0.6508444  3
   2044   2040   2041   2053     1  0.0000000  0.6508444  3
   2044   2040   2047   2050     1  0.0000000  0.6508444  3
   2044   2056   2062   4168     1  0.0000000  0.6508444  3
   2047   2040   2041   2053     1  0.0000000  0.6508444  3
   2047   2040   2044   2056     1  0.0000000  0.6508444  3
   2047   2050   2059   2068     1  0.0000000  0.6508444  3
   2053   2065   4198   4189     1  180.0000771  0.4184000  2
   2053   2065   4198   4189     1  0.0000000  1.6024720  3
   2056   2062   4168   4159     1  180.0000771  0.4184000  2
   2056   2062   4168   4159     1  0.0000000  1.6024720  3
   2062   4168   4159   4150     1  180.0000771  0.4184000  2
   2062   4168   4159   4150     1  0.0000000  1.6024720  3
   2065   4198   4189   4180     1  180.0000771  0.4184000  2
   2065   4198   4189   4180     1  0.0000000  1.6024720  3
   2070   2071   2083   2095     1  0.0000000  0.6508444  3
   2070   2074   2086   2092     1  0.0000000  0.6508444  3
   2070   2077   2080   2089     1  0.0000000  0.6508444  3
   2071   2070   2074   2086     1  0.0000000  0.6508444  3
   2071   2070   2077   2080     1  0.0000000  0.6508444  3
   2071   2083   2095   4258     1  0.0000000  0.6508444  3
   2074   2070   2071   2083     1  0.0000000  0.6508444  3
   2074   2070   2077   2080     1  0.0000000  0.6508444  3
   2074   2086   2092   4228     1  0.0000000  0.6508444  3
   2077   2070   2071   2083     1  0.0000000  0.6508444  3
   2077   2070   2074   2086     1  0.0000000  0.6508444  3
   2077   2080   2089   2098     1  0.0000000  0.6508444  3
   2083   2095   4258   4249     1  180.0000771  0.4184000  2
   2083   2095   4258   4249     1  0.0000000  1.6024720  3
   2086   2092   4228   4219     1  180.0000771  0.4184000  2
   2086   2092   4228   4219     1  0.0000000  1.6024720  3
   2092   4228   4219   4210     1  180.0000771  0.4184000  2
   2092   4228   4219   4210     1  0.0000000  1.6024720  3
   2095   4258   4249   4240     1  180.0000771  0.4184000  2
   2095   4258   4249   4240     1  0.0000000  1.6024720  3
   2100   2101   2113   2125     1  0.0000000  0.6508444  3
   2100   2104   2116   2122     1  0.0000000  0.6508444  3
   2100   2107   2110   2119     1  0.0000000  0.6508444  3
   2101   2100   2104   2116     1  0.0000000  0.6508444  3
   2101   2100   2107   2110     1  0.0000000  0.6508444  3
   2101   2113   2125   4318     1  0.0000000  0.6508444  3
   2104   2100   2101   2113     1  0.0000000  0.6508444  3
   2104   2100   2107   2110     1  0.0000000  0.6508444  3
   2104   2116   2122   4288     1  0.0000000  0.6508444  3
   2107   2100   2101   2113     1  0.0000000  0.6508444  3
   2107   2100   2104   2116     1  0.0000000  0.6508444  3
   2107   2110   2119   2128     1  0.0000000  0.6508444  3
   2113   2125   4318   4309     1  180.0000771  0.4184000  2
   2113   2125   4318   4309     1  0.0000000  1.6024720  3
   2116   2122   4288   4279     1  180.0000771  0.4184000  2
   2116   2122   4288   4279     1  0.0000000  1.6024720  3
   2122   4288   4279   4270     1  180.0000771  0.4184000  2
   2122   4288   4279   4270     1  0.0000000  1.6024720  3
   2125   4318   4309   4300     1  180.0000771  0.4184000  2
   2125   4318   4309   4300     1  0.0000000  1.6024720  3
   2130   2131   2143   2155     1  0.0000000  0.6508444  3
   2130   2134   2146   2152     1  0.0000000  0.6508444  3
   2130   2137   2140   2149     1  0.0000000  0.6508444  3
   2131   2130   2134   2146     1  0.0000000  0.6508444  3
   2131   2130   2137   2140     1  0.0000000  0.6508444  3
   2131   2143   2155   4378     1  0.0000000  0.6508444  3
   2134   2130   2131   2143     1  0.0000000  0.6508444  3
   2134   2130   2137   2140     1  0.0000000  0.6508444  3
   2134   2146   2152   4348     1  0.0000000  0.6508444  3
   2137   2130   2131   2143     1  0.0000000  0.6508444  3
   2137   2130   2134   2146     1  0.0000000  0.6508444  3
   2137   2140   2149   2158     1  0.0000000  0.6508444  3
   2143   2155   4378   4369     1  180.0000771  0.4184000  2
   2143   2155   4378   4369     1  0.0000000  1.6024720  3
   2146   2152   4348   4339     1  180.0000771  0.4184000  2
   2146   2152   4348   4339     1  0.0000000  1.6024720  3
   2152   4348   4339   4330     1  180.0000771  0.4184000  2
   2152   4348   4339   4330     1  0.0000000  1.6024720  3
   2155   4378   4369   4360     1  180.0000771  0.4184000  2
   2155   4378   4369   4360     1  0.0000000  1.6024720  3
   2160   2161   2173   2185     1  0.0000000  0.6508444  3
   2160   2164   2176   2182     1  0.0000000  0.6508444  3
   2160   2167   2170   2179     1  0.0000000  0.6508444  3
   2161   2160   2164   2176     1  0.0000000  0.6508444  3
   2161   2160   2167   2170     1  0.0000000  0.6508444  3
   2161   2173   2185   4438     1  0.0000000  0.6508444  3
   2164   2160   2161   2173     1  0.0000000  0.6508444  3
   2164   2160   2167   2170     1  0.0000000  0.6508444  3
   2164   2176   2182   4408     1  0.0000000  0.6508444  3
   2167   2160   2161   2173     1  0.0000000  0.6508444  3
   2167   2160   2164   2176     1  0.0000000  0.6508444  3
   2167   2170   2179   2188     1  0.0000000  0.6508444  3
   2173   2185   4438   4429     1  180.0000771  0.4184000  2
   2173   2185   4438   4429     1  0.0000000  1.6024720  3
   2176   2182   4408   4399     1  180.0000771  0.4184000  2
   2176   2182   4408   4399     1  0.0000000  1.6024720  3
   2182   4408   4399   4390     1  180.0000771  0.4184000  2
   2182   4408   4399   4390     1  0.0000000  1.6024720  3
   2185   4438   4429   4420     1  180.0000771  0.4184000  2
   2185   4438   4429   4420     1  0.0000000  1.6024720  3
   2190   2191   2203   2215     1  0.0000000  0.6508444  3
   2190   2194   2206   2212     1  0.0000000  0.6508444  3
   2190   2197   2200   2209     1  0.0000000  0.6508444  3
   2191   2190   2194   2206     1  0.0000000  0.6508444  3
   2191   2190   2197   2200     1  0.0000000  0.6508444  3
   2191   2203   2215   4498     1  0.0000000  0.6508444  3
   2194   2190   2191   2203     1  0.0000000  0.6508444  3
   2194   2190   2197   2200     1  0.0000000  0.6508444  3
   2194   2206   2212   4468     1  0.0000000  0.6508444  3
   2197   2190   2191   2203     1  0.0000000  0.6508444  3
   2197   2190   2194   2206     1  0.0000000  0.6508444  3
   2197   2200   2209   2218     1  0.0000000  0.6508444  3
   2203   2215   4498   4489     1  180.0000771  0.4184000  2
   2203   2215   4498   4489     1  0.0000000  1.6024720  3
   2206   2212   4468   4459     1  180.0000771  0.4184000  2
   2206   2212   4468   4459     1  0.0000000  1.6024720  3
   2212   4468   4459   4450     1  180.0000771  0.4184000  2
   2212   4468   4459   4450     1  0.0000000  1.6024720  3
   2215   4498   4489   4480     1  180.0000771  0.4184000  2
   2215   4498   4489   4480     1  0.0000000  1.6024720  3
   2220   2221   2233   2245     1  0.0000000  0.6508444  3
   2220   2224   2236   2242     1  0.0000000  0.6508444  3
   2220   2227   2230   2239     1  0.0000000  0.6508444  3
   2221   2220   2224   2236     1  0.0000000  0.6508444  3
   2221   2220   2227   2230     1  0.0000000  0.6508444  3
   2221   2233   2245   4558     1  0.0000000  0.6508444  3
   2224   2220   2221   2233     1  0.0000000  0.6508444  3
   2224   2220   2227   2230     1  0.0000000  0.6508444  3
   2224   2236   2242   4528     1  0.0000000  0.6508444  3
   2227   2220   2221   2233     1  0.0000000  0.6508444  3
   2227   2220   2224   2236     1  0.0000000  0.6508444  3
   2227   2230   2239   2248     1  0.0000000  0.6508444  3
   2233   2245   4558   4549     1  180.0000771  0.4184000  2
   2233   2245   4558   4549     1  0.0000000  1.6024720  3
   2236   2242   4528   4519     1  180.0000771  0.4184000  2
   2236   2242   4528   4519     1  0.0000000  1.6024720  3
   2242   4528   4519   4510     1  180.0000771  0.4184000  2
   2242   4528   4519   4510     1  0.0000000  1.6024720  3
   2245   4558   4549   4540     1  180.0000771  0.4184000  2
   2245   4558   4549   4540     1  0.0000000  1.6024720  3
   2250   2251   2263   2275     1  0.0000000  0.6508444  3
   2250   2254   2266   2272     1  0.0000000  0.6508444  3
   2250   2257   2260   2269     1  0.0000000  0.6508444  3
   2251   2250   2254   2266     1  0.0000000  0.6508444  3
   2251   2250   2257   2260     1  0.0000000  0.6508444  3
   2251   2263   2275   4618     1  0.0000000  0.6508444  3
   2254   2250   2251   2263     1  0.0000000  0.6508444  3
   2254   2250   2257   2260     1  0.0000000  0.6508444  3
   2254   2266   2272   4588     1  0.0000000  0.6508444  3
   2257   2250   2251   2263     1  0.0000000  0.6508444  3
   2257   2250   2254   2266     1  0.0000000  0.6508444  3
   2257   2260   2269   2278     1  0.0000000  0.6508444  3
   2263   2275   4618   4609     1  180.0000771  0.4184000  2
   2263   2275   4618   4609     1  0.0000000  1.6024720  3
   2266   2272   4588   4579     1  180.0000771  0.4184000  2
   2266   2272   4588   4579     1  0.0000000  1.6024720  3
   2272   4588   4579   4570     1  180.0000771  0.4184000  2
   2272   4588   4579   4570     1  0.0000000  1.6024720  3
   2275   4618   4609   4600     1  180.0000771  0.4184000  2
   2275   4618   4609   4600     1  0.0000000  1.6024720  3
   2280   2281   2293   2305     1  0.0000000  0.6508444  3
   2280   2284   2296   2302     1  0.0000000  0.6508444  3
   2280   2287   2290   2299     1  0.0000000  0.6508444  3
   2281   2280   2284   2296     1  0.0000000  0.6508444  3
   2281   2280   2287   2290     1  0.0000000  0.6508444  3
   2281   2293   2305   4678     1  0.0000000  0.6508444  3
   2284   2280   2281   2293     1  0.0000000  0.6508444  3
   2284   2280   2287   2290     1  0.0000000  0.6508444  3
   2284   2296   2302   4648     1  0.0000000  0.6508444  3
   2287   2280   2281   2293     1  0.0000000  0.6508444  3
   2287   2280   2284   2296     1  0.0000000  0.6508444  3
   2287   2290   2299   2308     1  0.0000000  0.6508444  3
   2293   2305   4678   4669     1  180.0000771  0.4184000  2
   2293   2305   4678   4669     1  0.0000000  1.6024720  3
   2296   2302   4648   4639     1  180.0000771  0.4184000  2
   2296   2302   4648   4639     1  0.0000000  1.6024720  3
   2302   4648   4639   4630     1  180.0000771  0.4184000  2
   2302   4648   4639   4630     1  0.0000000  1.6024720  3
   2305   4678   4669   4660     1  180.0000771  0.4184000  2
   2305   4678   4669   4660     1  0.0000000  1.6024720  3
   2310   2311   2323   2335     1  0.0000000  0.6508444  3
   2310   2314   2326   2332     1  0.0000000  0.6508444  3
   2310   2317   2320   2329     1  0.0000000  0.6508444  3
   2311   2310   2314   2326     1  0.0000000  0.6508444  3
   2311   2310   2317   2320     1  0.0000000  0.6508444  3
   2311   2323   2335   4738     1  0.0000000  0.6508444  3
   2314   2310   2311   2323     1  0.0000000  0.6508444  3
   2314   2310   2317   2320     1  0.0000000  0.6508444  3
   2314   2326   2332   4708     1  0.0000000  0.6508444  3
   2317   2310   2311   2323     1  0.0000000  0.6508444  3
   2317   2310   2314   2326     1  0.0000000  0.6508444  3
   2317   2320   2329   2338     1  0.0000000  0.6508444  3
   2323   2335   4738   4729     1  180.0000771  0.4184000  2
   2323   2335   4738   4729     1  0.0000000  1.6024720  3
   2326   2332   4708   4699     1  180.0000771  0.4184000  2
   2326   2332   4708   4699     1  0.0000000  1.6024720  3
   2332   4708   4699   4690     1  180.0000771  0.4184000  2
   2332   4708   4699   4690     1  0.0000000  1.6024720  3
   2335   4738   4729   4720     1  180.0000771  0.4184000  2
   2335   4738   4729   4720     1  0.0000000  1.6024720  3
   2340   2341   2353   2365     1  0.0000000  0.6508444  3
   2340   2344   2356   2362     1  0.0000000  0.6508444  3
   2340   2347   2350   2359     1  0.0000000  0.6508444  3
   2341   2340   2344   2356     1  0.0000000  0.6508444  3
   2341   2340   2347   2350     1  0.0000000  0.6508444  3
   2341   2353   2365   4798     1  0.0000000  0.6508444  3
   2344   2340   2341   2353     1  0.0000000  0.6508444  3
   2344   2340   2347   2350     1  0.0000000  0.6508444  3
   2344   2356   2362   4768     1  0.0000000  0.6508444  3
   2347   2340   2341   2353     1  0.0000000  0.6508444  3
   2347   2340   2344   2356     1  0.0000000  0.6508444  3
   2347   2350   2359   2368     1  0.0000000  0.6508444  3
   2353   2365   4798   4789     1  180.0000771  0.4184000  2
   2353   2365   4798   4789     1  0.0000000  1.6024720  3
   2356   2362   4768   4759     1  180.0000771  0.4184000  2
   2356   2362   4768   4759     1  0.0000000  1.6024720  3
   2362   4768   4759   4750     1  180.0000771  0.4184000  2
   2362   4768   4759   4750     1  0.0000000  1.6024720  3
   2365   4798   4789   4780     1  180.0000771  0.4184000  2
   2365   4798   4789   4780     1  0.0000000  1.6024720  3
   2370   2371   2383   2395     1  0.0000000  0.6508444  3
   2370   2374   2386   2392     1  0.0000000  0.6508444  3
   2370   2377   2380   2389     1  0.0000000  0.6508444  3
   2371   2370   2374   2386     1  0.0000000  0.6508444  3
   2371   2370   2377   2380     1  0.0000000  0.6508444  3
   2371   2383   2395   4858     1  0.0000000  0.6508444  3
   2374   2370   2371   2383     1  0.0000000  0.6508444  3
   2374   2370   2377   2380     1  0.0000000  0.6508444  3
   2374   2386   2392   4828     1  0.0000000  0.6508444  3
   2377   2370   2371   2383     1  0.0000000  0.6508444  3
   2377   2370   2374   2386     1  0.0000000  0.6508444  3
   2377   2380   2389   2398     1  0.0000000  0.6508444  3
   2383   2395   4858   4849     1  180.0000771  0.4184000  2
   2383   2395   4858   4849     1  0.0000000  1.6024720  3
   2386   2392   4828   4819     1  180.0000771  0.4184000  2
   2386   2392   4828   4819     1  0.0000000  1.6024720  3
   2392   4828   4819   4810     1  180.0000771  0.4184000  2
   2392   4828   4819   4810     1  0.0000000  1.6024720  3
   2395   4858   4849   4840     1  180.0000771  0.4184000  2
   2395   4858   4849   4840     1  0.0000000  1.6024720  3
   2400   2401   2413   2425     1  0.0000000  0.6508444  3
   2400   2404   2416   2422     1  0.0000000  0.6508444  3
   2400   2407   2410   2419     1  0.0000000  0.6508444  3
   2401   2400   2404   2416     1  0.0000000  0.6508444  3
   2401   2400   2407   2410     1  0.0000000  0.6508444  3
   2401   2413   2425   4918     1  0.0000000  0.6508444  3
   2404   2400   2401   2413     1  0.0000000  0.6508444  3
   2404   2400   2407   2410     1  0.0000000  0.6508444  3
   2404   2416   2422   4888     1  0.0000000  0.6508444  3
   2407   2400   2401   2413     1  0.0000000  0.6508444  3
   2407   2400   2404   2416     1  0.0000000  0.6508444  3
   2407   2410   2419   2428     1  0.0000000  0.6508444  3
   2413   2425   4918   4909     1  180.0000771  0.4184000  2
   2413   2425   4918   4909     1  0.0000000  1.6024720  3
   2416   2422   4888   4879     1  180.0000771  0.4184000  2
   2416   2422   4888   4879     1  0.0000000  1.6024720  3
   2422   4888   4879   4870     1  180.0000771  0.4184000  2
   2422   4888   4879   4870     1  0.0000000  1.6024720  3
   2425   4918   4909   4900     1  180.0000771  0.4184000  2
   2425   4918   4909   4900     1  0.0000000  1.6024720  3
   2430   2431   2443   2455     1  0.0000000  0.6508444  3
   2430   2434   2446   2452     1  0.0000000  0.6508444  3
   2430   2437   2440   2449     1  0.0000000  0.6508444  3
   2431   2430   2434   2446     1  0.0000000  0.6508444  3
   2431   2430   2437   2440     1  0.0000000  0.6508444  3
   2431   2443   2455   4978     1  0.0000000  0.6508444  3
   2434   2430   2431   2443     1  0.0000000  0.6508444  3
   2434   2430   2437   2440     1  0.0000000  0.6508444  3
   2434   2446   2452   4948     1  0.0000000  0.6508444  3
   2437   2430   2431   2443     1  0.0000000  0.6508444  3
   2437   2430   2434   2446     1  0.0000000  0.6508444  3
   2437   2440   2449   2458     1  0.0000000  0.6508444  3
   2443   2455   4978   4969     1  180.0000771  0.4184000  2
   2443   2455   4978   4969     1  0.0000000  1.6024720  3
   2446   2452   4948   4939     1  180.0000771  0.4184000  2
   2446   2452   4948   4939     1  0.0000000  1.6024720  3
   2452   4948   4939   4930     1  180.0000771  0.4184000  2
   2452   4948   4939   4930     1  0.0000000  1.6024720  3
   2455   4978   4969   4960     1  180.0000771  0.4184000  2
   2455   4978   4969   4960     1  0.0000000  1.6024720  3
   2460   2461   2473   2485     1  0.0000000  0.6508444  3
   2460   2464   2476   2482     1  0.0000000  0.6508444  3
   2460   2467   2470   2479     1  0.0000000  0.6508444  3
   2461   2460   2464   2476     1  0.0000000  0.6508444  3
   2461   2460   2467   2470     1  0.0000000  0.6508444  3
   2461   2473   2485   5038     1  0.0000000  0.6508444  3
   2464   2460   2461   2473     1  0.0000000  0.6508444  3
   2464   2460   2467   2470     1  0.0000000  0.6508444  3
   2464   2476   2482   5008     1  0.0000000  0.6508444  3
   2467   2460   2461   2473     1  0.0000000  0.6508444  3
   2467   2460   2464   2476     1  0.0000000  0.6508444  3
   2467   2470   2479   2488     1  0.0000000  0.6508444  3
   2473   2485   5038   5029     1  180.0000771  0.4184000  2
   2473   2485   5038   5029     1  0.0000000  1.6024720  3
   2476   2482   5008   4999     1  180.0000771  0.4184000  2
   2476   2482   5008   4999     1  0.0000000  1.6024720  3
   2482   5008   4999   4990     1  180.0000771  0.4184000  2
   2482   5008   4999   4990     1  0.0000000  1.6024720  3
   2485   5038   5029   5020     1  180.0000771  0.4184000  2
   2485   5038   5029   5020     1  0.0000000  1.6024720  3
   2490   2491   2503   2515     1  0.0000000  0.6508444  3
   2490   2494   2506   2512     1  0.0000000  0.6508444  3
   2490   2497   2500   2509     1  0.0000000  0.6508444  3
   2491   2490   2494   2506     1  0.0000000  0.6508444  3
   2491   2490   2497   2500     1  0.0000000  0.6508444  3
   2491   2503   2515   5098     1  0.0000000  0.6508444  3
   2494   2490   2491   2503     1  0.0000000  0.6508444  3
   2494   2490   2497   2500     1  0.0000000  0.6508444  3
   2494   2506   2512   5068     1  0.0000000  0.6508444  3
   2497   2490   2491   2503     1  0.0000000  0.6508444  3
   2497   2490   2494   2506     1  0.0000000  0.6508444  3
   2497   2500   2509   2518     1  0.0000000  0.6508444  3
   2503   2515   5098   5089     1  180.0000771  0.4184000  2
   2503   2515   5098   5089     1  0.0000000  1.6024720  3
   2506   2512   5068   5059     1  180.0000771  0.4184000  2
   2506   2512   5068   5059     1  0.0000000  1.6024720  3
   2512   5068   5059   5050     1  180.0000771  0.4184000  2
   2512   5068   5059   5050     1  0.0000000  1.6024720  3
   2515   5098   5089   5080     1  180.0000771  0.4184000  2
   2515   5098   5089   5080     1  0.0000000  1.6024720  3
   2520   2521   2533   2545     1  0.0000000  0.6508444  3
   2520   2524   2536   2542     1  0.0000000  0.6508444  3
   2520   2527   2530   2539     1  0.0000000  0.6508444  3
   2521   2520   2524   2536     1  0.0000000  0.6508444  3
   2521   2520   2527   2530     1  0.0000000  0.6508444  3
   2521   2533   2545   5158     1  0.0000000  0.6508444  3
   2524   2520   2521   2533     1  0.0000000  0.6508444  3
   2524   2520   2527   2530     1  0.0000000  0.6508444  3
   2524   2536   2542   5128     1  0.0000000  0.6508444  3
   2527   2520   2521   2533     1  0.0000000  0.6508444  3
   2527   2520   2524   2536     1  0.0000000  0.6508444  3
   2527   2530   2539   2548     1  0.0000000  0.6508444  3
   2533   2545   5158   5149     1  180.0000771  0.4184000  2
   2533   2545   5158   5149     1  0.0000000  1.6024720  3
   2536   2542   5128   5119     1  180.0000771  0.4184000  2
   2536   2542   5128   5119     1  0.0000000  1.6024720  3
   2542   5128   5119   5110     1  180.0000771  0.4184000  2
   2542   5128   5119   5110     1  0.0000000  1.6024720  3
   2545   5158   5149   5140     1  180.0000771  0.4184000  2
   2545   5158   5149   5140     1  0.0000000  1.6024720  3
   2550   2551   2563   2575     1  0.0000000  0.6508444  3
   2550   2554   2566   2572     1  0.0000000  0.6508444  3
   2550   2557   2560   2569     1  0.0000000  0.6508444  3
   2551   2550   2554   2566     1  0.0000000  0.6508444  3
   2551   2550   2557   2560     1  0.0000000  0.6508444  3
   2551   2563   2575   5218     1  0.0000000  0.6508444  3
   2554   2550   2551   2563     1  0.0000000  0.6508444  3
   2554   2550   2557   2560     1  0.0000000  0.6508444  3
   2554   2566   2572   5188     1  0.0000000  0.6508444  3
   2557   2550   2551   2563     1  0.0000000  0.6508444  3
   2557   2550   2554   2566     1  0.0000000  0.6508444  3
   2557   2560   2569   2578     1  0.0000000  0.6508444  3
   2563   2575   5218   5209     1  180.0000771  0.4184000  2
   2563   2575   5218   5209     1  0.0000000  1.6024720  3
   2566   2572   5188   5179     1  180.0000771  0.4184000  2
   2566   2572   5188   5179     1  0.0000000  1.6024720  3
   2572   5188   5179   5170     1  180.0000771  0.4184000  2
   2572   5188   5179   5170     1  0.0000000  1.6024720  3
   2575   5218   5209   5200     1  180.0000771  0.4184000  2
   2575   5218   5209   5200     1  0.0000000  1.6024720  3
   2580   2581   2593   2605     1  0.0000000  0.6508444  3
   2580   2584   2596   2602     1  0.0000000  0.6508444  3
   2580   2587   2590   2599     1  0.0000000  0.6508444  3
   2581   2580   2584   2596     1  0.0000000  0.6508444  3
   2581   2580   2587   2590     1  0.0000000  0.6508444  3
   2581   2593   2605   5278     1  0.0000000  0.6508444  3
   2584   2580   2581   2593     1  0.0000000  0.6508444  3
   2584   2580   2587   2590     1  0.0000000  0.6508444  3
   2584   2596   2602   5248     1  0.0000000  0.6508444  3
   2587   2580   2581   2593     1  0.0000000  0.6508444  3
   2587   2580   2584   2596     1  0.0000000  0.6508444  3
   2587   2590   2599   2608     1  0.0000000  0.6508444  3
   2593   2605   5278   5269     1  180.0000771  0.4184000  2
   2593   2605   5278   5269     1  0.0000000  1.6024720  3
   2596   2602   5248   5239     1  180.0000771  0.4184000  2
   2596   2602   5248   5239     1  0.0000000  1.6024720  3
   2602   5248   5239   5230     1  180.0000771  0.4184000  2
   2602   5248   5239   5230     1  0.0000000  1.6024720  3
   2605   5278   5269   5260     1  180.0000771  0.4184000  2
   2605   5278   5269   5260     1  0.0000000  1.6024720  3
   2610   2611   2623   2635     1  0.0000000  0.6508444  3
   2610   2614   2626   2632     1  0.0000000  0.6508444  3
   2610   2617   2620   2629     1  0.0000000  0.6508444  3
   2611   2610   2614   2626     1  0.0000000  0.6508444  3
   2611   2610   2617   2620     1  0.0000000  0.6508444  3
   2611   2623   2635   5338     1  0.0000000  0.6508444  3
   2614   2610   2611   2623     1  0.0000000  0.6508444  3
   2614   2610   2617   2620     1  0.0000000  0.6508444  3
   2614   2626   2632   5308     1  0.0000000  0.6508444  3
   2617   2610   2611   2623     1  0.0000000  0.6508444  3
   2617   2610   2614   2626     1  0.0000000  0.6508444  3
   2617   2620   2629   2638     1  0.0000000  0.6508444  3
   2623   2635   5338   5329     1  180.0000771  0.4184000  2
   2623   2635   5338   5329     1  0.0000000  1.6024720  3
   2626   2632   5308   5299     1  180.0000771  0.4184000  2
   2626   2632   5308   5299     1  0.0000000  1.6024720  3
   2632   5308   5299   5290     1  180.0000771  0.4184000  2
   2632   5308   5299   5290     1  0.0000000  1.6024720  3
   2635   5338   5329   5320     1  180.0000771  0.4184000  2
   2635   5338   5329   5320     1  0.0000000  1.6024720  3
   2640   2641   2653   2665     1  0.0000000  0.6508444  3
   2640   2644   2656   2662     1  0.0000000  0.6508444  3
   2640   2647   2650   2659     1  0.0000000  0.6508444  3
   2641   2640   2644   2656     1  0.0000000  0.6508444  3
   2641   2640   2647   2650     1  0.0000000  0.6508444  3
   2641   2653   2665   5398     1  0.0000000  0.6508444  3
   2644   2640   2641   2653     1  0.0000000  0.6508444  3
   2644   2640   2647   2650     1  0.0000000  0.6508444  3
   2644   2656   2662   5368     1  0.0000000  0.6508444  3
   2647   2640   2641   2653     1  0.0000000  0.6508444  3
   2647   2640   2644   2656     1  0.0000000  0.6508444  3
   2647   2650   2659   2668     1  0.0000000  0.6508444  3
   2653   2665   5398   5389     1  180.0000771  0.4184000  2
   2653   2665   5398   5389     1  0.0000000  1.6024720  3
   2656   2662   5368   5359     1  180.0000771  0.4184000  2
   2656   2662   5368   5359     1  0.0000000  1.6024720  3
   2662   5368   5359   5350     1  180.0000771  0.4184000  2
   2662   5368   5359   5350     1  0.0000000  1.6024720  3
   2665   5398   5389   5380     1  180.0000771  0.4184000  2
   2665   5398   5389   5380     1  0.0000000  1.6024720  3
   2670   2671   2683   2695     1  0.0000000  0.6508444  3
   2670   2674   2686   2692     1  0.0000000  0.6508444  3
   2670   2677   2680   2689     1  0.0000000  0.6508444  3
   2671   2670   2674   2686     1  0.0000000  0.6508444  3
   2671   2670   2677   2680     1  0.0000000  0.6508444  3
   2671   2683   2695   5458     1  0.0000000  0.6508444  3
   2674   2670   2671   2683     1  0.0000000  0.6508444  3
   2674   2670   2677   2680     1  0.0000000  0.6508444  3
   2674   2686   2692   5428     1  0.0000000  0.6508444  3
   2677   2670   2671   2683     1  0.0000000  0.6508444  3
   2677   2670   2674   2686     1  0.0000000  0.6508444  3
   2677   2680   2689   2698     1  0.0000000  0.6508444  3
   2683   2695   5458   5449     1  180.0000771  0.4184000  2
   2683   2695   5458   5449     1  0.0000000  1.6024720  3
   2686   2692   5428   5419     1  180.0000771  0.4184000  2
   2686   2692   5428   5419     1  0.0000000  1.6024720  3
   2692   5428   5419   5410     1  180.0000771  0.4184000  2
   2692   5428   5419   5410     1  0.0000000  1.6024720  3
   2695   5458   5449   5440     1  180.0000771  0.4184000  2
   2695   5458   5449   5440     1  0.0000000  1.6024720  3
   2700   2701   2713   2725     1  0.0000000  0.6508444  3
   2700   2704   2716   2722     1  0.0000000  0.6508444  3
   2700   2707   2710   2719     1  0.0000000  0.6508444  3
   2701   2700   2704   2716     1  0.0000000  0.6508444  3
   2701   2700   2707   2710     1  0.0000000  0.6508444  3
   2701   2713   2725   5518     1  0.0000000  0.6508444  3
   2704   2700   2701   2713     1  0.0000000  0.6508444  3
   2704   2700   2707   2710     1  0.0000000  0.6508444  3
   2704   2716   2722   5488     1  0.0000000  0.6508444  3
   2707   2700   2701   2713     1  0.0000000  0.6508444  3
   2707   2700   2704   2716     1  0.0000000  0.6508444  3
   2707   2710   2719   2728     1  0.0000000  0.6508444  3
   2713   2725   5518   5509     1  180.0000771  0.4184000  2
   2713   2725   5518   5509     1  0.0000000  1.6024720  3
   2716   2722   5488   5479     1  180.0000771  0.4184000  2
   2716   2722   5488   5479     1  0.0000000  1.6024720  3
   2722   5488   5479   5470     1  180.0000771  0.4184000  2
   2722   5488   5479   5470     1  0.0000000  1.6024720  3
   2725   5518   5509   5500     1  180.0000771  0.4184000  2
   2725   5518   5509   5500     1  0.0000000  1.6024720  3
   2730   2731   2743   2755     1  0.0000000  0.6508444  3
   2730   2734   2746   2752     1  0.0000000  0.6508444  3
   2730   2737   2740   2749     1  0.0000000  0.6508444  3
   2731   2730   2734   2746     1  0.0000000  0.6508444  3
   2731   2730   2737   2740     1  0.0000000  0.6508444  3
   2731   2743   2755   5578     1  0.0000000  0.6508444  3
   2734   2730   2731   2743     1  0.0000000  0.6508444  3
   2734   2730   2737   2740     1  0.0000000  0.6508444  3
   2734   2746   2752   5548     1  0.0000000  0.6508444  3
   2737   2730   2731   2743     1  0.0000000  0.6508444  3
   2737   2730   2734   2746     1  0.0000000  0.6508444  3
   2737   2740   2749   2758     1  0.0000000  0.6508444  3
   2743   2755   5578   5569     1  180.0000771  0.4184000  2
   2743   2755   5578   5569     1  0.0000000  1.6024720  3
   2746   2752   5548   5539     1  180.0000771  0.4184000  2
   2746   2752   5548   5539     1  0.0000000  1.6024720  3
   2752   5548   5539   5530     1  180.0000771  0.4184000  2
   2752   5548   5539   5530     1  0.0000000  1.6024720  3
   2755   5578   5569   5560     1  180.0000771  0.4184000  2
   2755   5578   5569   5560     1  0.0000000  1.6024720  3
   2760   2761   2773   2785     1  0.0000000  0.6508444  3
   2760   2764   2776   2782     1  0.0000000  0.6508444  3
   2760   2767   2770   2779     1  0.0000000  0.6508444  3
   2761   2760   2764   2776     1  0.0000000  0.6508444  3
   2761   2760   2767   2770     1  0.0000000  0.6508444  3
   2761   2773   2785   5638     1  0.0000000  0.6508444  3
   2764   2760   2761   2773     1  0.0000000  0.6508444  3
   2764   2760   2767   2770     1  0.0000000  0.6508444  3
   2764   2776   2782   5608     1  0.0000000  0.6508444  3
   2767   2760   2761   2773     1  0.0000000  0.6508444  3
   2767   2760   2764   2776     1  0.0000000  0.6508444  3
   2767   2770   2779   2788     1  0.0000000  0.6508444  3
   2773   2785   5638   5629     1  180.0000771  0.4184000  2
   2773   2785   5638   5629     1  0.0000000  1.6024720  3
   2776   2782   5608   5599     1  180.0000771  0.4184000  2
   2776   2782   5608   5599     1  0.0000000  1.6024720  3
   2782   5608   5599   5590     1  180.0000771  0.4184000  2
   2782   5608   5599   5590     1  0.0000000  1.6024720  3
   2785   5638   5629   5620     1  180.0000771  0.4184000  2
   2785   5638   5629   5620     1  0.0000000  1.6024720  3
   2790   2791   2803   2815     1  0.0000000  0.6508444  3
   2790   2794   2806   2812     1  0.0000000  0.6508444  3
   2790   2797   2800   2809     1  0.0000000  0.6508444  3
   2791   2790   2794   2806     1  0.0000000  0.6508444  3
   2791   2790   2797   2800     1  0.0000000  0.6508444  3
   2791   2803   2815   5698     1  0.0000000  0.6508444  3
   2794   2790   2791   2803     1  0.0000000  0.6508444  3
   2794   2790   2797   2800     1  0.0000000  0.6508444  3
   2794   2806   2812   5668     1  0.0000000  0.6508444  3
   2797   2790   2791   2803     1  0.0000000  0.6508444  3
   2797   2790   2794   2806     1  0.0000000  0.6508444  3
   2797   2800   2809   2818     1  0.0000000  0.6508444  3
   2803   2815   5698   5689     1  180.0000771  0.4184000  2
   2803   2815   5698   5689     1  0.0000000  1.6024720  3
   2806   2812   5668   5659     1  180.0000771  0.4184000  2
   2806   2812   5668   5659     1  0.0000000  1.6024720  3
   2812   5668   5659   5650     1  180.0000771  0.4184000  2
   2812   5668   5659   5650     1  0.0000000  1.6024720  3
   2815   5698   5689   5680     1  180.0000771  0.4184000  2
   2815   5698   5689   5680     1  0.0000000  1.6024720  3
   2820   2821   2833   2845     1  0.0000000  0.6508444  3
   2820   2824   2836   2842     1  0.0000000  0.6508444  3
   2820   2827   2830   2839     1  0.0000000  0.6508444  3
   2821   2820   2824   2836     1  0.0000000  0.6508444  3
   2821   2820   2827   2830     1  0.0000000  0.6508444  3
   2821   2833   2845   5726     1  0.0000000  0.6508444  3
   2824   2820   2821   2833     1  0.0000000  0.6508444  3
   2824   2820   2827   2830     1  0.0000000  0.6508444  3
   2824   2836   2842   5712     1  0.0000000  0.6508444  3
   2827   2820   2821   2833     1  0.0000000  0.6508444  3
   2827   2820   2824   2836     1  0.0000000  0.6508444  3
   2827   2830   2839   2848     1  0.0000000  0.6508444  3
   2833   2845   5726   5720     1  180.0000771  0.4184000  2
   2833   2845   5726   5720     1  0.0000000  1.6024720  3
   2836   2842   5712   5706     1  180.0000771  0.4184000  2
   2836   2842   5712   5706     1  0.0000000  1.6024720  3
   2842   5712   5706   5703     1  180.0000771  0.4184000  2
   2842   5712   5706   5703     1  0.0000000  1.6024720  3
   2845   5726   5720   5717     1  180.0000771  0.4184000  2
   2845   5726   5720   5717     1  0.0000000  1.6024720  3
   2850   2851   2863   2875     1  0.0000000  0.6508444  3
   2850   2854   2866   2872     1  0.0000000  0.6508444  3
   2850   2857   2860   2869     1  0.0000000  0.6508444  3
   2851   2850   2854   2866     1  0.0000000  0.6508444  3
   2851   2850   2857   2860     1  0.0000000  0.6508444  3
   2851   2863   2875   5754     1  0.0000000  0.6508444  3
   2854   2850   2851   2863     1  0.0000000  0.6508444  3
   2854   2850   2857   2860     1  0.0000000  0.6508444  3
   2854   2866   2872   5740     1  0.0000000  0.6508444  3
   2857   2850   2851   2863     1  0.0000000  0.6508444  3
   2857   2850   2854   2866     1  0.0000000  0.6508444  3
   2857   2860   2869   2878     1  0.0000000  0.6508444  3
   2863   2875   5754   5748     1  180.0000771  0.4184000  2
   2863   2875   5754   5748     1  0.0000000  1.6024720  3
   2866   2872   5740   5734     1  180.0000771  0.4184000  2
   2866   2872   5740   5734     1  0.0000000  1.6024720  3
   2872   5740   5734   5731     1  180.0000771  0.4184000  2
   2872   5740   5734   5731     1  0.0000000  1.6024720  3
   2875   5754   5748   5745     1  180.0000771  0.4184000  2
   2875   5754   5748   5745     1  0.0000000  1.6024720  3
   2880   2881   2893   2905     1  0.0000000  0.6508444  3
   2880   2884   2896   2902     1  0.0000000  0.6508444  3
   2880   2887   2890   2899     1  0.0000000  0.6508444  3
   2881   2880   2884   2896     1  0.0000000  0.6508444  3
   2881   2880   2887   2890     1  0.0000000  0.6508444  3
   2881   2893   2905   5782     1  0.0000000  0.6508444  3
   2884   2880   2881   2893     1  0.0000000  0.6508444  3
   2884   2880   2887   2890     1  0.0000000  0.6508444  3
   2884   2896   2902   5768     1  0.0000000  0.6508444  3
   2887   2880   2881   2893     1  0.0000000  0.6508444  3
   2887   2880   2884   2896     1  0.0000000  0.6508444  3
   2887   2890   2899   2908     1  0.0000000  0.6508444  3
   2893   2905   5782   5776     1  180.0000771  0.4184000  2
   2893   2905   5782   5776     1  0.0000000  1.6024720  3
   2896   2902   5768   5762     1  180.0000771  0.4184000  2
   2896   2902   5768   5762     1  0.0000000  1.6024720  3
   2902   5768   5762   5759     1  180.0000771  0.4184000  2
   2902   5768   5762   5759     1  0.0000000  1.6024720  3
   2905   5782   5776   5773     1  180.0000771  0.4184000  2
   2905   5782   5776   5773     1  0.0000000  1.6024720  3
   2910   2911   2923   2935     1  0.0000000  0.6508444  3
   2910   2914   2926   2932     1  0.0000000  0.6508444  3
   2910   2917   2920   2929     1  0.0000000  0.6508444  3
   2911   2910   2914   2926     1  0.0000000  0.6508444  3
   2911   2910   2917   2920     1  0.0000000  0.6508444  3
   2911   2923   2935   5810     1  0.0000000  0.6508444  3
   2914   2910   2911   2923     1  0.0000000  0.6508444  3
   2914   2910   2917   2920     1  0.0000000  0.6508444  3
   2914   2926   2932   5796     1  0.0000000  0.6508444  3
   2917   2910   2911   2923     1  0.0000000  0.6508444  3
   2917   2910   2914   2926     1  0.0000000  0.6508444  3
   2917   2920   2929   2938     1  0.0000000  0.6508444  3
   2923   2935   5810   5804     1  180.0000771  0.4184000  2
   2923   2935   5810   5804     1  0.0000000  1.6024720  3
   2926   2932   5796   5790     1  180.0000771  0.4184000  2
   2926   2932   5796   5790     1  0.0000000  1.6024720  3
   2932   5796   5790   5787     1  180.0000771  0.4184000  2
   2932   5796   5790   5787     1  0.0000000  1.6024720  3
   2935   5810   5804   5801     1  180.0000771  0.4184000  2
   2935   5810   5804   5801     1  0.0000000  1.6024720  3
   2940   2941   2953   2965     1  0.0000000  0.6508444  3
   2940   2944   2956   2962     1  0.0000000  0.6508444  3
   2940   2947   2950   2959     1  0.0000000  0.6508444  3
   2941   2940   2944   2956     1  0.0000000  0.6508444  3
   2941   2940   2947   2950     1  0.0000000  0.6508444  3
   2941   2953   2965   5838     1  0.0000000  0.6508444  3
   2944   2940   2941   2953     1  0.0000000  0.6508444  3
   2944   2940   2947   2950     1  0.0000000  0.6508444  3
   2944   2956   2962   5824     1  0.0000000  0.6508444  3
   2947   2940   2941   2953     1  0.0000000  0.6508444  3
   2947   2940   2944   2956     1  0.0000000  0.6508444  3
   2947   2950   2959   2968     1  0.0000000  0.6508444  3
   2953   2965   5838   5832     1  180.0000771  0.4184000  2
   2953   2965   5838   5832     1  0.0000000  1.6024720  3
   2956   2962   5824   5818     1  180.0000771  0.4184000  2
   2956   2962   5824   5818     1  0.0000000  1.6024720  3
   2962   5824   5818   5815     1  180.0000771  0.4184000  2
   2962   5824   5818   5815     1  0.0000000  1.6024720  3
   2965   5838   5832   5829     1  180.0000771  0.4184000  2
   2965   5838   5832   5829     1  0.0000000  1.6024720  3
   2970   2971   2983   2995     1  0.0000000  0.6508444  3
   2970   2974   2986   2992     1  0.0000000  0.6508444  3
   2970   2977   2980   2989     1  0.0000000  0.6508444  3
   2971   2970   2974   2986     1  0.0000000  0.6508444  3
   2971   2970   2977   2980     1  0.0000000  0.6508444  3
   2971   2983   2995   5866     1  0.0000000  0.6508444  3
   2974   2970   2971   2983     1  0.0000000  0.6508444  3
   2974   2970   2977   2980     1  0.0000000  0.6508444  3
   2974   2986   2992   5852     1  0.0000000  0.6508444  3
   2977   2970   2971   2983     1  0.0000000  0.6508444  3
   2977   2970   2974   2986     1  0.0000000  0.6508444  3
   2977   2980   2989   2998     1  0.0000000  0.6508444  3
   2983   2995   5866   5860     1  180.0000771  0.4184000  2
   2983   2995   5866   5860     1  0.0000000  1.6024720  3
   2986   2992   5852   5846     1  180.0000771  0.4184000  2
   2986   2992   5852   5846     1  0.0000000  1.6024720  3
   2992   5852   5846   5843     1  180.0000771  0.4184000  2
   2992   5852   5846   5843     1  0.0000000  1.6024720  3
   2995   5866   5860   5857     1  180.0000771  0.4184000  2
   2995   5866   5860   5857     1  0.0000000  1.6024720  3
   3000   3001   3013   3025     1  0.0000000  0.6508444  3
   3000   3004   3016   3022     1  0.0000000  0.6508444  3
   3000   3007   3010   3019     1  0.0000000  0.6508444  3
   3001   3000   3004   3016     1  0.0000000  0.6508444  3
   3001   3000   3007   3010     1  0.0000000  0.6508444  3
   3001   3013   3025   5894     1  0.0000000  0.6508444  3
   3004   3000   3001   3013     1  0.0000000  0.6508444  3
   3004   3000   3007   3010     1  0.0000000  0.6508444  3
   3004   3016   3022   5880     1  0.0000000  0.6508444  3
   3007   3000   3001   3013     1  0.0000000  0.6508444  3
   3007   3000   3004   3016     1  0.0000000  0.6508444  3
   3007   3010   3019   3028     1  0.0000000  0.6508444  3
   3013   3025   5894   5888     1  180.0000771  0.4184000  2
   3013   3025   5894   5888     1  0.0000000  1.6024720  3
   3016   3022   5880   5874     1  180.0000771  0.4184000  2
   3016   3022   5880   5874     1  0.0000000  1.6024720  3
   3022   5880   5874   5871     1  180.0000771  0.4184000  2
   3022   5880   5874   5871     1  0.0000000  1.6024720  3
   3025   5894   5888   5885     1  180.0000771  0.4184000  2
   3025   5894   5888   5885     1  0.0000000  1.6024720  3
   3030   3031   3043   3055     1  0.0000000  0.6508444  3
   3030   3034   3046   3052     1  0.0000000  0.6508444  3
   3030   3037   3040   3049     1  0.0000000  0.6508444  3
   3031   3030   3034   3046     1  0.0000000  0.6508444  3
   3031   3030   3037   3040     1  0.0000000  0.6508444  3
   3031   3043   3055   5922     1  0.0000000  0.6508444  3
   3034   3030   3031   3043     1  0.0000000  0.6508444  3
   3034   3030   3037   3040     1  0.0000000  0.6508444  3
   3034   3046   3052   5908     1  0.0000000  0.6508444  3
   3037   3030   3031   3043     1  0.0000000  0.6508444  3
   3037   3030   3034   3046     1  0.0000000  0.6508444  3
   3037   3040   3049   3058     1  0.0000000  0.6508444  3
   3043   3055   5922   5916     1  180.0000771  0.4184000  2
   3043   3055   5922   5916     1  0.0000000  1.6024720  3
   3046   3052   5908   5902     1  180.0000771  0.4184000  2
   3046   3052   5908   5902     1  0.0000000  1.6024720  3
   3052   5908   5902   5899     1  180.0000771  0.4184000  2
   3052   5908   5902   5899     1  0.0000000  1.6024720  3
   3055   5922   5916   5913     1  180.0000771  0.4184000  2
   3055   5922   5916   5913     1  0.0000000  1.6024720  3
   3060   3061   3073   3085     1  0.0000000  0.6508444  3
   3060   3064   3076   3082     1  0.0000000  0.6508444  3
   3060   3067   3070   3079     1  0.0000000  0.6508444  3
   3061   3060   3064   3076     1  0.0000000  0.6508444  3
   3061   3060   3067   3070     1  0.0000000  0.6508444  3
   3061   3073   3085   5950     1  0.0000000  0.6508444  3
   3064   3060   3061   3073     1  0.0000000  0.6508444  3
   3064   3060   3067   3070     1  0.0000000  0.6508444  3
   3064   3076   3082   5936     1  0.0000000  0.6508444  3
   3067   3060   3061   3073     1  0.0000000  0.6508444  3
   3067   3060   3064   3076     1  0.0000000  0.6508444  3
   3067   3070   3079   3088     1  0.0000000  0.6508444  3
   3073   3085   5950   5944     1  180.0000771  0.4184000  2
   3073   3085   5950   5944     1  0.0000000  1.6024720  3
   3076   3082   5936   5930     1  180.0000771  0.4184000  2
   3076   3082   5936   5930     1  0.0000000  1.6024720  3
   3082   5936   5930   5927     1  180.0000771  0.4184000  2
   3082   5936   5930   5927     1  0.0000000  1.6024720  3
   3085   5950   5944   5941     1  180.0000771  0.4184000  2
   3085   5950   5944   5941     1  0.0000000  1.6024720  3
   3090   3091   3103   3115     1  0.0000000  0.6508444  3
   3090   3094   3106   3112     1  0.0000000  0.6508444  3
   3090   3097   3100   3109     1  0.0000000  0.6508444  3
   3091   3090   3094   3106     1  0.0000000  0.6508444  3
   3091   3090   3097   3100     1  0.0000000  0.6508444  3
   3091   3103   3115   5978     1  0.0000000  0.6508444  3
   3094   3090   3091   3103     1  0.0000000  0.6508444  3
   3094   3090   3097   3100     1  0.0000000  0.6508444  3
   3094   3106   3112   5964     1  0.0000000  0.6508444  3
   3097   3090   3091   3103     1  0.0000000  0.6508444  3
   3097   3090   3094   3106     1  0.0000000  0.6508444  3
   3097   3100   3109   3118     1  0.0000000  0.6508444  3
   3103   3115   5978   5972     1  180.0000771  0.4184000  2
   3103   3115   5978   5972     1  0.0000000  1.6024720  3
   3106   3112   5964   5958     1  180.0000771  0.4184000  2
   3106   3112   5964   5958     1  0.0000000  1.6024720  3
   3112   5964   5958   5955     1  180.0000771  0.4184000  2
   3112   5964   5958   5955     1  0.0000000  1.6024720  3
   3115   5978   5972   5969     1  180.0000771  0.4184000  2
   3115   5978   5972   5969     1  0.0000000  1.6024720  3
   3120   3121   3133   3145     1  0.0000000  0.6508444  3
   3120   3124   3136   3142     1  0.0000000  0.6508444  3
   3120   3127   3130   3139     1  0.0000000  0.6508444  3
   3121   3120   3124   3136     1  0.0000000  0.6508444  3
   3121   3120   3127   3130     1  0.0000000  0.6508444  3
   3121   3133   3145   6006     1  0.0000000  0.6508444  3
   3124   3120   3121   3133     1  0.0000000  0.6508444  3
   3124   3120   3127   3130     1  0.0000000  0.6508444  3
   3124   3136   3142   5992     1  0.0000000  0.6508444  3
   3127   3120   3121   3133     1  0.0000000  0.6508444  3
   3127   3120   3124   3136     1  0.0000000  0.6508444  3
   3127   3130   3139   3148     1  0.0000000  0.6508444  3
   3133   3145   6006   6000     1  180.0000771  0.4184000  2
   3133   3145   6006   6000     1  0.0000000  1.6024720  3
   3136   3142   5992   5986     1  180.0000771  0.4184000  2
   3136   3142   5992   5986     1  0.0000000  1.6024720  3
   3142   5992   5986   5983     1  180.0000771  0.4184000  2
   3142   5992   5986   5983     1  0.0000000  1.6024720  3
   3145   6006   6000   5997     1  180.0000771  0.4184000  2
   3145   6006   6000   5997     1  0.0000000  1.6024720  3
   3150   3151   3163   3175     1  0.0000000  0.6508444  3
   3150   3154   3166   3172     1  0.0000000  0.6508444  3
   3150   3157   3160   3169     1  0.0000000  0.6508444  3
   3151   3150   3154   3166     1  0.0000000  0.6508444  3
   3151   3150   3157   3160     1  0.0000000  0.6508444  3
   3151   3163   3175   6034     1  0.0000000  0.6508444  3
   3154   3150   3151   3163     1  0.0000000  0.6508444  3
   3154   3150   3157   3160     1  0.0000000  0.6508444  3
   3154   3166   3172   6020     1  0.0000000  0.6508444  3
   3157   3150   3151   3163     1  0.0000000  0.6508444  3
   3157   3150   3154   3166     1  0.0000000  0.6508444  3
   3157   3160   3169   3178     1  0.0000000  0.6508444  3
   3163   3175   6034   6028     1  180.0000771  0.4184000  2
   3163   3175   6034   6028     1  0.0000000  1.6024720  3
   3166   3172   6020   6014     1  180.0000771  0.4184000  2
   3166   3172   6020   6014     1  0.0000000  1.6024720  3
   3172   6020   6014   6011     1  180.0000771  0.4184000  2
   3172   6020   6014   6011     1  0.0000000  1.6024720  3
   3175   6034   6028   6025     1  180.0000771  0.4184000  2
   3175   6034   6028   6025     1  0.0000000  1.6024720  3
   3180   3181   3193   3205     1  0.0000000  0.6508444  3
   3180   3184   3196   3202     1  0.0000000  0.6508444  3
   3180   3187   3190   3199     1  0.0000000  0.6508444  3
   3181   3180   3184   3196     1  0.0000000  0.6508444  3
   3181   3180   3187   3190     1  0.0000000  0.6508444  3
   3181   3193   3205   6062     1  0.0000000  0.6508444  3
   3184   3180   3181   3193     1  0.0000000  0.6508444  3
   3184   3180   3187   3190     1  0.0000000  0.6508444  3
   3184   3196   3202   6048     1  0.0000000  0.6508444  3
   3187   3180   3181   3193     1  0.0000000  0.6508444  3
   3187   3180   3184   3196     1  0.0000000  0.6508444  3
   3187   3190   3199   3208     1  0.0000000  0.6508444  3
   3193   3205   6062   6056     1  180.0000771  0.4184000  2
   3193   3205   6062   6056     1  0.0000000  1.6024720  3
   3196   3202   6048   6042     1  180.0000771  0.4184000  2
   3196   3202   6048   6042     1  0.0000000  1.6024720  3
   3202   6048   6042   6039     1  180.0000771  0.4184000  2
   3202   6048   6042   6039     1  0.0000000  1.6024720  3
   3205   6062   6056   6053     1  180.0000771  0.4184000  2
   3205   6062   6056   6053     1  0.0000000  1.6024720  3
   3210   3211   3223   3235     1  0.0000000  0.6508444  3
   3210   3214   3226   3232     1  0.0000000  0.6508444  3
   3210   3217   3220   3229     1  0.0000000  0.6508444  3
   3211   3210   3214   3226     1  0.0000000  0.6508444  3
   3211   3210   3217   3220     1  0.0000000  0.6508444  3
   3211   3223   3235   6090     1  0.0000000  0.6508444  3
   3214   3210   3211   3223     1  0.0000000  0.6508444  3
   3214   3210   3217   3220     1  0.0000000  0.6508444  3
   3214   3226   3232   6076     1  0.0000000  0.6508444  3
   3217   3210   3211   3223     1  0.0000000  0.6508444  3
   3217   3210   3214   3226     1  0.0000000  0.6508444  3
   3217   3220   3229   3238     1  0.0000000  0.6508444  3
   3223   3235   6090   6084     1  180.0000771  0.4184000  2
   3223   3235   6090   6084     1  0.0000000  1.6024720  3
   3226   3232   6076   6070     1  180.0000771  0.4184000  2
   3226   3232   6076   6070     1  0.0000000  1.6024720  3
   3232   6076   6070   6067     1  180.0000771  0.4184000  2
   3232   6076   6070   6067     1  0.0000000  1.6024720  3
   3235   6090   6084   6081     1  180.0000771  0.4184000  2
   3235   6090   6084   6081     1  0.0000000  1.6024720  3
   3240   3241   3253   3265     1  0.0000000  0.6508444  3
   3240   3244   3256   3262     1  0.0000000  0.6508444  3
   3240   3247   3250   3259     1  0.0000000  0.6508444  3
   3241   3240   3244   3256     1  0.0000000  0.6508444  3
   3241   3240   3247   3250     1  0.0000000  0.6508444  3
   3241   3253   3265   6118     1  0.0000000  0.6508444  3
   3244   3240   3241   3253     1  0.0000000  0.6508444  3
   3244   3240   3247   3250     1  0.0000000  0.6508444  3
   3244   3256   3262   6104     1  0.0000000  0.6508444  3
   3247   3240   3241   3253     1  0.0000000  0.6508444  3
   3247   3240   3244   3256     1  0.0000000  0.6508444  3
   3247   3250   3259   3268     1  0.0000000  0.6508444  3
   3253   3265   6118   6112     1  180.0000771  0.4184000  2
   3253   3265   6118   6112     1  0.0000000  1.6024720  3
   3256   3262   6104   6098     1  180.0000771  0.4184000  2
   3256   3262   6104   6098     1  0.0000000  1.6024720  3
   3262   6104   6098   6095     1  180.0000771  0.4184000  2
   3262   6104   6098   6095     1  0.0000000  1.6024720  3
   3265   6118   6112   6109     1  180.0000771  0.4184000  2
   3265   6118   6112   6109     1  0.0000000  1.6024720  3
   3270   3271   3283   3295     1  0.0000000  0.6508444  3
   3270   3274   3286   3292     1  0.0000000  0.6508444  3
   3270   3277   3280   3289     1  0.0000000  0.6508444  3
   3271   3270   3274   3286     1  0.0000000  0.6508444  3
   3271   3270   3277   3280     1  0.0000000  0.6508444  3
   3271   3283   3295   6146     1  0.0000000  0.6508444  3
   3274   3270   3271   3283     1  0.0000000  0.6508444  3
   3274   3270   3277   3280     1  0.0000000  0.6508444  3
   3274   3286   3292   6132     1  0.0000000  0.6508444  3
   3277   3270   3271   3283     1  0.0000000  0.6508444  3
   3277   3270   3274   3286     1  0.0000000  0.6508444  3
   3277   3280   3289   3298     1  0.0000000  0.6508444  3
   3283   3295   6146   6140     1  180.0000771  0.4184000  2
   3283   3295   6146   6140     1  0.0000000  1.6024720  3
   3286   3292   6132   6126     1  180.0000771  0.4184000  2
   3286   3292   6132   6126     1  0.0000000  1.6024720  3
   3292   6132   6126   6123     1  180.0000771  0.4184000  2
   3292   6132   6126   6123     1  0.0000000  1.6024720  3
   3295   6146   6140   6137     1  180.0000771  0.4184000  2
   3295   6146   6140   6137     1  0.0000000  1.6024720  3
   3300   3301   3313   3325     1  0.0000000  0.6508444  3
   3300   3304   3316   3322     1  0.0000000  0.6508444  3
   3300   3307   3310   3319     1  0.0000000  0.6508444  3
   3301   3300   3304   3316     1  0.0000000  0.6508444  3
   3301   3300   3307   3310     1  0.0000000  0.6508444  3
   3301   3313   3325   6174     1  0.0000000  0.6508444  3
   3304   3300   3301   3313     1  0.0000000  0.6508444  3
   3304   3300   3307   3310     1  0.0000000  0.6508444  3
   3304   3316   3322   6160     1  0.0000000  0.6508444  3
   3307   3300   3301   3313     1  0.0000000  0.6508444  3
   3307   3300   3304   3316     1  0.0000000  0.6508444  3
   3307   3310   3319   3328     1  0.0000000  0.6508444  3
   3313   3325   6174   6168     1  180.0000771  0.4184000  2
   3313   3325   6174   6168     1  0.0000000  1.6024720  3
   3316   3322   6160   6154     1  180.0000771  0.4184000  2
   3316   3322   6160   6154     1  0.0000000  1.6024720  3
   3322   6160   6154   6151     1  180.0000771  0.4184000  2
   3322   6160   6154   6151     1  0.0000000  1.6024720  3
   3325   6174   6168   6165     1  180.0000771  0.4184000  2
   3325   6174   6168   6165     1  0.0000000  1.6024720  3
   3330   3331   3343   3355     1  0.0000000  0.6508444  3
   3330   3334   3346   3352     1  0.0000000  0.6508444  3
   3330   3337   3340   3349     1  0.0000000  0.6508444  3
   3331   3330   3334   3346     1  0.0000000  0.6508444  3
   3331   3330   3337   3340     1  0.0000000  0.6508444  3
   3331   3343   3355   6202     1  0.0000000  0.6508444  3
   3334   3330   3331   3343     1  0.0000000  0.6508444  3
   3334   3330   3337   3340     1  0.0000000  0.6508444  3
   3334   3346   3352   6188     1  0.0000000  0.6508444  3
   3337   3330   3331   3343     1  0.0000000  0.6508444  3
   3337   3330   3334   3346     1  0.0000000  0.6508444  3
   3337   3340   3349   3358     1  0.0000000  0.6508444  3
   3343   3355   6202   6196     1  180.0000771  0.4184000  2
   3343   3355   6202   6196     1  0.0000000  1.6024720  3
   3346   3352   6188   6182     1  180.0000771  0.4184000  2
   3346   3352   6188   6182     1  0.0000000  1.6024720  3
   3352   6188   6182   6179     1  180.0000771  0.4184000  2
   3352   6188   6182   6179     1  0.0000000  1.6024720  3
   3355   6202   6196   6193     1  180.0000771  0.4184000  2
   3355   6202   6196   6193     1  0.0000000  1.6024720  3
   3360   3361   3373   3385     1  0.0000000  0.6508444  3
   3360   3364   3376   3382     1  0.0000000  0.6508444  3
   3360   3367   3370   3379     1  0.0000000  0.6508444  3
   3361   3360   3364   3376     1  0.0000000  0.6508444  3
   3361   3360   3367   3370     1  0.0000000  0.6508444  3
   3361   3373   3385   6230     1  0.0000000  0.6508444  3
   3364   3360   3361   3373     1  0.0000000  0.6508444  3
   3364   3360   3367   3370     1  0.0000000  0.6508444  3
   3364   3376   3382   6216     1  0.0000000  0.6508444  3
   3367   3360   3361   3373     1  0.0000000  0.6508444  3
   3367   3360   3364   3376     1  0.0000000  0.6508444  3
   3367   3370   3379   3388     1  0.0000000  0.6508444  3
   3373   3385   6230   6224     1  180.0000771  0.4184000  2
   3373   3385   6230   6224     1  0.0000000  1.6024720  3
   3376   3382   6216   6210     1  180.0000771  0.4184000  2
   3376   3382   6216   6210     1  0.0000000  1.6024720  3
   3382   6216   6210   6207     1  180.0000771  0.4184000  2
   3382   6216   6210   6207     1  0.0000000  1.6024720  3
   3385   6230   6224   6221     1  180.0000771  0.4184000  2
   3385   6230   6224   6221     1  0.0000000  1.6024720  3
   3390   3391   3403   3415     1  0.0000000  0.6508444  3
   3390   3394   3406   3412     1  0.0000000  0.6508444  3
   3390   3397   3400   3409     1  0.0000000  0.6508444  3
   3391   3390   3394   3406     1  0.0000000  0.6508444  3
   3391   3390   3397   3400     1  0.0000000  0.6508444  3
   3391   3403   3415   6258     1  0.0000000  0.6508444  3
   3394   3390   3391   3403     1  0.0000000  0.6508444  3
   3394   3390   3397   3400     1  0.0000000  0.6508444  3
   3394   3406   3412   6244     1  0.0000000  0.6508444  3
   3397   3390   3391   3403     1  0.0000000  0.6508444  3
   3397   3390   3394   3406     1  0.0000000  0.6508444  3
   3397   3400   3409   3418     1  0.0000000  0.6508444  3
   3403   3415   6258   6252     1  180.0000771  0.4184000  2
   3403   3415   6258   6252     1  0.0000000  1.6024720  3
   3406   3412   6244   6238     1  180.0000771  0.4184000  2
   3406   3412   6244   6238     1  0.0000000  1.6024720  3
   3412   6244   6238   6235     1  180.0000771  0.4184000  2
   3412   6244   6238   6235     1  0.0000000  1.6024720  3
   3415   6258   6252   6249     1  180.0000771  0.4184000  2
   3415   6258   6252   6249     1  0.0000000  1.6024720  3
   3420   3421   3433   3445     1  0.0000000  0.6508444  3
   3420   3424   3436   3442     1  0.0000000  0.6508444  3
   3420   3427   3430   3439     1  0.0000000  0.6508444  3
   3421   3420   3424   3436     1  0.0000000  0.6508444  3
   3421   3420   3427   3430     1  0.0000000  0.6508444  3
   3421   3433   3445   6286     1  0.0000000  0.6508444  3
   3424   3420   3421   3433     1  0.0000000  0.6508444  3
   3424   3420   3427   3430     1  0.0000000  0.6508444  3
   3424   3436   3442   6272     1  0.0000000  0.6508444  3
   3427   3420   3421   3433     1  0.0000000  0.6508444  3
   3427   3420   3424   3436     1  0.0000000  0.6508444  3
   3427   3430   3439   3448     1  0.0000000  0.6508444  3
   3433   3445   6286   6280     1  180.0000771  0.4184000  2
   3433   3445   6286   6280     1  0.0000000  1.6024720  3
   3436   3442   6272   6266     1  180.0000771  0.4184000  2
   3436   3442   6272   6266     1  0.0000000  1.6024720  3
   3442   6272   6266   6263     1  180.0000771  0.4184000  2
   3442   6272   6266   6263     1  0.0000000  1.6024720  3
   3445   6286   6280   6277     1  180.0000771  0.4184000  2
   3445   6286   6280   6277     1  0.0000000  1.6024720  3
   3450   3451   3463   3475     1  0.0000000  0.6508444  3
   3450   3454   3466   3472     1  0.0000000  0.6508444  3
   3450   3457   3460   3469     1  0.0000000  0.6508444  3
   3451   3450   3454   3466     1  0.0000000  0.6508444  3
   3451   3450   3457   3460     1  0.0000000  0.6508444  3
   3451   3463   3475   6314     1  0.0000000  0.6508444  3
   3454   3450   3451   3463     1  0.0000000  0.6508444  3
   3454   3450   3457   3460     1  0.0000000  0.6508444  3
   3454   3466   3472   6300     1  0.0000000  0.6508444  3
   3457   3450   3451   3463     1  0.0000000  0.6508444  3
   3457   3450   3454   3466     1  0.0000000  0.6508444  3
   3457   3460   3469   3478     1  0.0000000  0.6508444  3
   3463   3475   6314   6308     1  180.0000771  0.4184000  2
   3463   3475   6314   6308     1  0.0000000  1.6024720  3
   3466   3472   6300   6294     1  180.0000771  0.4184000  2
   3466   3472   6300   6294     1  0.0000000  1.6024720  3
   3472   6300   6294   6291     1  180.0000771  0.4184000  2
   3472   6300   6294   6291     1  0.0000000  1.6024720  3
   3475   6314   6308   6305     1  180.0000771  0.4184000  2
   3475   6314   6308   6305     1  0.0000000  1.6024720  3
   3480   3481   3493   3505     1  0.0000000  0.6508444  3
   3480   3484   3496   3502     1  0.0000000  0.6508444  3
   3480   3487   3490   3499     1  0.0000000  0.6508444  3
   3481   3480   3484   3496     1  0.0000000  0.6508444  3
   3481   3480   3487   3490     1  0.0000000  0.6508444  3
   3481   3493   3505   6342     1  0.0000000  0.6508444  3
   3484   3480   3481   3493     1  0.0000000  0.6508444  3
   3484   3480   3487   3490     1  0.0000000  0.6508444  3
   3484   3496   3502   6328     1  0.0000000  0.6508444  3
   3487   3480   3481   3493     1  0.0000000  0.6508444  3
   3487   3480   3484   3496     1  0.0000000  0.6508444  3
   3487   3490   3499   3508     1  0.0000000  0.6508444  3
   3493   3505   6342   6336     1  180.0000771  0.4184000  2
   3493   3505   6342   6336     1  0.0000000  1.6024720  3
   3496   3502   6328   6322     1  180.0000771  0.4184000  2
   3496   3502   6328   6322     1  0.0000000  1.6024720  3
   3502   6328   6322   6319     1  180.0000771  0.4184000  2
   3502   6328   6322   6319     1  0.0000000  1.6024720  3
   3505   6342   6336   6333     1  180.0000771  0.4184000  2
   3505   6342   6336   6333     1  0.0000000  1.6024720  3
   3510   3511   3523   3535     1  0.0000000  0.6508444  3
   3510   3514   3526   3532     1  0.0000000  0.6508444  3
   3510   3517   3520   3529     1  0.0000000  0.6508444  3
   3511   3510   3514   3526     1  0.0000000  0.6508444  3
   3511   3510   3517   3520     1  0.0000000  0.6508444  3
   3511   3523   3535   6370     1  0.0000000  0.6508444  3
   3514   3510   3511   3523     1  0.0000000  0.6508444  3
   3514   3510   3517   3520     1  0.0000000  0.6508444  3
   3514   3526   3532   6356     1  0.0000000  0.6508444  3
   3517   3510   3511   3523     1  0.0000000  0.6508444  3
   3517   3510   3514   3526     1  0.0000000  0.6508444  3
   3517   3520   3529   3538     1  0.0000000  0.6508444  3
   3523   3535   6370   6364     1  180.0000771  0.4184000  2
   3523   3535   6370   6364     1  0.0000000  1.6024720  3
   3526   3532   6356   6350     1  180.0000771  0.4184000  2
   3526   3532   6356   6350     1  0.0000000  1.6024720  3
   3532   6356   6350   6347     1  180.0000771  0.4184000  2
   3532   6356   6350   6347     1  0.0000000  1.6024720  3
   3535   6370   6364   6361     1  180.0000771  0.4184000  2
   3535   6370   6364   6361     1  0.0000000  1.6024720  3
   3540   3541   3553   3565     1  0.0000000  0.6508444  3
   3540   3544   3556   3562     1  0.0000000  0.6508444  3
   3540   3547   3550   3559     1  0.0000000  0.6508444  3
   3541   3540   3544   3556     1  0.0000000  0.6508444  3
   3541   3540   3547   3550     1  0.0000000  0.6508444  3
   3541   3553   3565   6398     1  0.0000000  0.6508444  3
   3544   3540   3541   3553     1  0.0000000  0.6508444  3
   3544   3540   3547   3550     1  0.0000000  0.6508444  3
   3544   3556   3562   6384     1  0.0000000  0.6508444  3
   3547   3540   3541   3553     1  0.0000000  0.6508444  3
   3547   3540   3544   3556     1  0.0000000  0.6508444  3
   3547   3550   3559   3568     1  0.0000000  0.6508444  3
   3553   3565   6398   6392     1  180.0000771  0.4184000  2
   3553   3565   6398   6392     1  0.0000000  1.6024720  3
   3556   3562   6384   6378     1  180.0000771  0.4184000  2
   3556   3562   6384   6378     1  0.0000000  1.6024720  3
   3562   6384   6378   6375     1  180.0000771  0.4184000  2
   3562   6384   6378   6375     1  0.0000000  1.6024720  3
   3565   6398   6392   6389     1  180.0000771  0.4184000  2
   3565   6398   6392   6389     1  0.0000000  1.6024720  3
   3570   3571   3583   3595     1  0.0000000  0.6508444  3
   3570   3574   3586   3592     1  0.0000000  0.6508444  3
   3570   3577   3580   3589     1  0.0000000  0.6508444  3
   3571   3570   3574   3586     1  0.0000000  0.6508444  3
   3571   3570   3577   3580     1  0.0000000  0.6508444  3
   3571   3583   3595   6426     1  0.0000000  0.6508444  3
   3574   3570   3571   3583     1  0.0000000  0.6508444  3
   3574   3570   3577   3580     1  0.0000000  0.6508444  3
   3574   3586   3592   6412     1  0.0000000  0.6508444  3
   3577   3570   3571   3583     1  0.0000000  0.6508444  3
   3577   3570   3574   3586     1  0.0000000  0.6508444  3
   3577   3580   3589   3598     1  0.0000000  0.6508444  3
   3583   3595   6426   6420     1  180.0000771  0.4184000  2
   3583   3595   6426   6420     1  0.0000000  1.6024720  3
   3586   3592   6412   6406     1  180.0000771  0.4184000  2
   3586   3592   6412   6406     1  0.0000000  1.6024720  3
   3592   6412   6406   6403     1  180.0000771  0.4184000  2
   3592   6412   6406   6403     1  0.0000000  1.6024720  3
   3595   6426   6420   6417     1  180.0000771  0.4184000  2
   3595   6426   6420   6417     1  0.0000000  1.6024720  3
   3600   3601   3613   3625     1  0.0000000  0.6508444  3
   3600   3604   3616   3622     1  0.0000000  0.6508444  3
   3600   3607   3610   3619     1  0.0000000  0.6508444  3
   3601   3600   3604   3616     1  0.0000000  0.6508444  3
   3601   3600   3607   3610     1  0.0000000  0.6508444  3
   3601   3613   3625   6454     1  0.0000000  0.6508444  3
   3604   3600   3601   3613     1  0.0000000  0.6508444  3
   3604   3600   3607   3610     1  0.0000000  0.6508444  3
   3604   3616   3622   6440     1  0.0000000  0.6508444  3
   3607   3600   3601   3613     1  0.0000000  0.6508444  3
   3607   3600   3604   3616     1  0.0000000  0.6508444  3
   3607   3610   3619   3628     1  0.0000000  0.6508444  3
   3613   3625   6454   6448     1  180.0000771  0.4184000  2
   3613   3625   6454   6448     1  0.0000000  1.6024720  3
   3616   3622   6440   6434     1  180.0000771  0.4184000  2
   3616   3622   6440   6434     1  0.0000000  1.6024720  3
   3622   6440   6434   6431     1  180.0000771  0.4184000  2
   3622   6440   6434   6431     1  0.0000000  1.6024720  3
   3625   6454   6448   6445     1  180.0000771  0.4184000  2
   3625   6454   6448   6445     1  0.0000000  1.6024720  3
   3630   3631   3643   3655     1  0.0000000  0.6508444  3
   3630   3634   3646   3652     1  0.0000000  0.6508444  3
   3630   3637   3640   3649     1  0.0000000  0.6508444  3
   3631   3630   3634   3646     1  0.0000000  0.6508444  3
   3631   3630   3637   3640     1  0.0000000  0.6508444  3
   3631   3643   3655   6482     1  0.0000000  0.6508444  3
   3634   3630   3631   3643     1  0.0000000  0.6508444  3
   3634   3630   3637   3640     1  0.0000000  0.6508444  3
   3634   3646   3652   6468     1  0.0000000  0.6508444  3
   3637   3630   3631   3643     1  0.0000000  0.6508444  3
   3637   3630   3634   3646     1  0.0000000  0.6508444  3
   3637   3640   3649   3658     1  0.0000000  0.6508444  3
   3643   3655   6482   6476     1  180.0000771  0.4184000  2
   3643   3655   6482   6476     1  0.0000000  1.6024720  3
   3646   3652   6468   6462     1  180.0000771  0.4184000  2
   3646   3652   6468   6462     1  0.0000000  1.6024720  3
   3652   6468   6462   6459     1  180.0000771  0.4184000  2
   3652   6468   6462   6459     1  0.0000000  1.6024720  3
   3655   6482   6476   6473     1  180.0000771  0.4184000  2
   3655   6482   6476   6473     1  0.0000000  1.6024720  3
   3660   3661   3673   3685     1  0.0000000  0.6508444  3
   3660   3664   3676   3682     1  0.0000000  0.6508444  3
   3660   3667   3670   3679     1  0.0000000  0.6508444  3
   3661   3660   3664   3676     1  0.0000000  0.6508444  3
   3661   3660   3667   3670     1  0.0000000  0.6508444  3
   3661   3673   3685   6510     1  0.0000000  0.6508444  3
   3664   3660   3661   3673     1  0.0000000  0.6508444  3
   3664   3660   3667   3670     1  0.0000000  0.6508444  3
   3664   3676   3682   6496     1  0.0000000  0.6508444  3
   3667   3660   3661   3673     1  0.0000000  0.6508444  3
   3667   3660   3664   3676     1  0.0000000  0.6508444  3
   3667   3670   3679   3688     1  0.0000000  0.6508444  3
   3673   3685   6510   6504     1  180.0000771  0.4184000  2
   3673   3685   6510   6504     1  0.0000000  1.6024720  3
   3676   3682   6496   6490     1  180.0000771  0.4184000  2
   3676   3682   6496   6490     1  0.0000000  1.6024720  3
   3682   6496   6490   6487     1  180.0000771  0.4184000  2
   3682   6496   6490   6487     1  0.0000000  1.6024720  3
   3685   6510   6504   6501     1  180.0000771  0.4184000  2
   3685   6510   6504   6501     1  0.0000000  1.6024720  3
   3690   3691   3703   3715     1  0.0000000  0.6508444  3
   3690   3694   3706   3712     1  0.0000000  0.6508444  3
   3690   3697   3700   3709     1  0.0000000  0.6508444  3
   3691   3690   3694   3706     1  0.0000000  0.6508444  3
   3691   3690   3697   3700     1  0.0000000  0.6508444  3
   3691   3703   3715   6538     1  0.0000000  0.6508444  3
   3694   3690   3691   3703     1  0.0000000  0.6508444  3
   3694   3690   3697   3700     1  0.0000000  0.6508444  3
   3694   3706   3712   6524     1  0.0000000  0.6508444  3
   3697   3690   3691   3703     1  0.0000000  0.6508444  3
   3697   3690   3694   3706     1  0.0000000  0.6508444  3
   3697   3700   3709   3718     1  0.0000000  0.6508444  3
   3703   3715   6538   6532     1  180.0000771  0.4184000  2
   3703   3715   6538   6532     1  0.0000000  1.6024720  3
   3706   3712   6524   6518     1  180.0000771  0.4184000  2
   3706   3712   6524   6518     1  0.0000000  1.6024720  3
   3712   6524   6518   6515     1  180.0000771  0.4184000  2
   3712   6524   6518   6515     1  0.0000000  1.6024720  3
   3715   6538   6532   6529     1  180.0000771  0.4184000  2
   3715   6538   6532   6529     1  0.0000000  1.6024720  3
   3720   3721   3733   3745     1  0.0000000  0.6508444  3
   3720   3724   3736   3742     1  0.0000000  0.6508444  3
   3720   3727   3730   3739     1  0.0000000  0.6508444  3
   3721   3720   3724   3736     1  0.0000000  0.6508444  3
   3721   3720   3727   3730     1  0.0000000  0.6508444  3
   3721   3733   3745   6566     1  0.0000000  0.6508444  3
   3724   3720   3721   3733     1  0.0000000  0.6508444  3
   3724   3720   3727   3730     1  0.0000000  0.6508444  3
   3724   3736   3742   6552     1  0.0000000  0.6508444  3
   3727   3720   3721   3733     1  0.0000000  0.6508444  3
   3727   3720   3724   3736     1  0.0000000  0.6508444  3
   3727   3730   3739   3748     1  0.0000000  0.6508444  3
   3733   3745   6566   6560     1  180.0000771  0.4184000  2
   3733   3745   6566   6560     1  0.0000000  1.6024720  3
   3736   3742   6552   6546     1  180.0000771  0.4184000  2
   3736   3742   6552   6546     1  0.0000000  1.6024720  3
   3742   6552   6546   6543     1  180.0000771  0.4184000  2
   3742   6552   6546   6543     1  0.0000000  1.6024720  3
   3745   6566   6560   6557     1  180.0000771  0.4184000  2
   3745   6566   6560   6557     1  0.0000000  1.6024720  3
   3750   3751   3763   3775     1  0.0000000  0.6508444  3
   3750   3754   3766   3772     1  0.0000000  0.6508444  3
   3750   3757   3760   3769     1  0.0000000  0.6508444  3
   3751   3750   3754   3766     1  0.0000000  0.6508444  3
   3751   3750   3757   3760     1  0.0000000  0.6508444  3
   3751   3763   3775   6594     1  0.0000000  0.6508444  3
   3754   3750   3751   3763     1  0.0000000  0.6508444  3
   3754   3750   3757   3760     1  0.0000000  0.6508444  3
   3754   3766   3772   6580     1  0.0000000  0.6508444  3
   3757   3750   3751   3763     1  0.0000000  0.6508444  3
   3757   3750   3754   3766     1  0.0000000  0.6508444  3
   3757   3760   3769   3778     1  0.0000000  0.6508444  3
   3763   3775   6594   6588     1  180.0000771  0.4184000  2
   3763   3775   6594   6588     1  0.0000000  1.6024720  3
   3766   3772   6580   6574     1  180.0000771  0.4184000  2
   3766   3772   6580   6574     1  0.0000000  1.6024720  3
   3772   6580   6574   6571     1  180.0000771  0.4184000  2
   3772   6580   6574   6571     1  0.0000000  1.6024720  3
   3775   6594   6588   6585     1  180.0000771  0.4184000  2
   3775   6594   6588   6585     1  0.0000000  1.6024720  3
   3780   3781   3793   3805     1  0.0000000  0.6508444  3
   3780   3784   3796   3802     1  0.0000000  0.6508444  3
   3780   3787   3790   3799     1  0.0000000  0.6508444  3
   3781   3780   3784   3796     1  0.0000000  0.6508444  3
   3781   3780   3787   3790     1  0.0000000  0.6508444  3
   3781   3793   3805   6622     1  0.0000000  0.6508444  3
   3784   3780   3781   3793     1  0.0000000  0.6508444  3
   3784   3780   3787   3790     1  0.0000000  0.6508444  3
   3784   3796   3802   6608     1  0.0000000  0.6508444  3
   3787   3780   3781   3793     1  0.0000000  0.6508444  3
   3787   3780   3784   3796     1  0.0000000  0.6508444  3
   3787   3790   3799   3808     1  0.0000000  0.6508444  3
   3793   3805   6622   6616     1  180.0000771  0.4184000  2
   3793   3805   6622   6616     1  0.0000000  1.6024720  3
   3796   3802   6608   6602     1  180.0000771  0.4184000  2
   3796   3802   6608   6602     1  0.0000000  1.6024720  3
   3802   6608   6602   6599     1  180.0000771  0.4184000  2
   3802   6608   6602   6599     1  0.0000000  1.6024720  3
   3805   6622   6616   6613     1  180.0000771  0.4184000  2
   3805   6622   6616   6613     1  0.0000000  1.6024720  3
   3810   3811   3823   3835     1  0.0000000  0.6508444  3
   3810   3814   3826   3832     1  0.0000000  0.6508444  3
   3810   3817   3820   3829     1  0.0000000  0.6508444  3
   3811   3810   3814   3826     1  0.0000000  0.6508444  3
   3811   3810   3817   3820     1  0.0000000  0.6508444  3
   3811   3823   3835   6650     1  0.0000000  0.6508444  3
   3814   3810   3811   3823     1  0.0000000  0.6508444  3
   3814   3810   3817   3820     1  0.0000000  0.6508444  3
   3814   3826   3832   6636     1  0.0000000  0.6508444  3
   3817   3810   3811   3823     1  0.0000000  0.6508444  3
   3817   3810   3814   3826     1  0.0000000  0.6508444  3
   3817   3820   3829   3838     1  0.0000000  0.6508444  3
   3823   3835   6650   6644     1  180.0000771  0.4184000  2
   3823   3835   6650   6644     1  0.0000000  1.6024720  3
   3826   3832   6636   6630     1  180.0000771  0.4184000  2
   3826   3832   6636   6630     1  0.0000000  1.6024720  3
   3832   6636   6630   6627     1  180.0000771  0.4184000  2
   3832   6636   6630   6627     1  0.0000000  1.6024720  3
   3835   6650   6644   6641     1  180.0000771  0.4184000  2
   3835   6650   6644   6641     1  0.0000000  1.6024720  3
   3840   3841   3853   3865     1  0.0000000  0.6508444  3
   3840   3844   3856   3862     1  0.0000000  0.6508444  3
   3840   3847   3850   3859     1  0.0000000  0.6508444  3
   3841   3840   3844   3856     1  0.0000000  0.6508444  3
   3841   3840   3847   3850     1  0.0000000  0.6508444  3
   3841   3853   3865   6678     1  0.0000000  0.6508444  3
   3844   3840   3841   3853     1  0.0000000  0.6508444  3
   3844   3840   3847   3850     1  0.0000000  0.6508444  3
   3844   3856   3862   6664     1  0.0000000  0.6508444  3
   3847   3840   3841   3853     1  0.0000000  0.6508444  3
   3847   3840   3844   3856     1  0.0000000  0.6508444  3
   3847   3850   3859   3868     1  0.0000000  0.6508444  3
   3853   3865   6678   6672     1  180.0000771  0.4184000  2
   3853   3865   6678   6672     1  0.0000000  1.6024720  3
   3856   3862   6664   6658     1  180.0000771  0.4184000  2
   3856   3862   6664   6658     1  0.0000000  1.6024720  3
   3862   6664   6658   6655     1  180.0000771  0.4184000  2
   3862   6664   6658   6655     1  0.0000000  1.6024720  3
   3865   6678   6672   6669     1  180.0000771  0.4184000  2
   3865   6678   6672   6669     1  0.0000000  1.6024720  3
   3870   3871   3883   3895     1  0.0000000  0.6508444  3
   3870   3874   3886   3892     1  0.0000000  0.6508444  3
   3870   3877   3880   3889     1  0.0000000  0.6508444  3
   3871   3870   3874   3886     1  0.0000000  0.6508444  3
   3871   3870   3877   3880     1  0.0000000  0.6508444  3
   3871   3883   3895   6706     1  0.0000000  0.6508444  3
   3874   3870   3871   3883     1  0.0000000  0.6508444  3
   3874   3870   3877   3880     1  0.0000000  0.6508444  3
   3874   3886   3892   6692     1  0.0000000  0.6508444  3
   3877   3870   3871   3883     1  0.0000000  0.6508444  3
   3877   3870   3874   3886     1  0.0000000  0.6508444  3
   3877   3880   3889   3898     1  0.0000000  0.6508444  3
   3883   3895   6706   6700     1  180.0000771  0.4184000  2
   3883   3895   6706   6700     1  0.0000000  1.6024720  3
   3886   3892   6692   6686     1  180.0000771  0.4184000  2
   3886   3892   6692   6686     1  0.0000000  1.6024720  3
   3892   6692   6686   6683     1  180.0000771  0.4184000  2
   3892   6692   6686   6683     1  0.0000000  1.6024720  3
   3895   6706   6700   6697     1  180.0000771  0.4184000  2
   3895   6706   6700   6697     1  0.0000000  1.6024720  3
   3900   3901   3913   3925     1  0.0000000  0.6508444  3
   3900   3904   3916   3922     1  0.0000000  0.6508444  3
   3900   3907   3910   3919     1  0.0000000  0.6508444  3
   3901   3900   3904   3916     1  0.0000000  0.6508444  3
   3901   3900   3907   3910     1  0.0000000  0.6508444  3
   3901   3913   3925   6734     1  0.0000000  0.6508444  3
   3904   3900   3901   3913     1  0.0000000  0.6508444  3
   3904   3900   3907   3910     1  0.0000000  0.6508444  3
   3904   3916   3922   6720     1  0.0000000  0.6508444  3
   3907   3900   3901   3913     1  0.0000000  0.6508444  3
   3907   3900   3904   3916     1  0.0000000  0.6508444  3
   3907   3910   3919   3928     1  0.0000000  0.6508444  3
   3913   3925   6734   6728     1  180.0000771  0.4184000  2
   3913   3925   6734   6728     1  0.0000000  1.6024720  3
   3916   3922   6720   6714     1  180.0000771  0.4184000  2
   3916   3922   6720   6714     1  0.0000000  1.6024720  3
   3922   6720   6714   6711     1  180.0000771  0.4184000  2
   3922   6720   6714   6711     1  0.0000000  1.6024720  3
   3925   6734   6728   6725     1  180.0000771  0.4184000  2
   3925   6734   6728   6725     1  0.0000000  1.6024720  3
   3930   3931   3943   3955     1  0.0000000  0.6508444  3
   3930   3934   3946   3952     1  0.0000000  0.6508444  3
   3930   3937   3940   3949     1  0.0000000  0.6508444  3
   3931   3930   3934   3946     1  0.0000000  0.6508444  3
   3931   3930   3937   3940     1  0.0000000  0.6508444  3
   3931   3943   3955   6762     1  0.0000000  0.6508444  3
   3934   3930   3931   3943     1  0.0000000  0.6508444  3
   3934   3930   3937   3940     1  0.0000000  0.6508444  3
   3934   3946   3952   6748     1  0.0000000  0.6508444  3
   3937   3930   3931   3943     1  0.0000000  0.6508444  3
   3937   3930   3934   3946     1  0.0000000  0.6508444  3
   3937   3940   3949   3958     1  0.0000000  0.6508444  3
   3943   3955   6762   6756     1  180.0000771  0.4184000  2
   3943   3955   6762   6756     1  0.0000000  1.6024720  3
   3946   3952   6748   6742     1  180.0000771  0.4184000  2
   3946   3952   6748   6742     1  0.0000000  1.6024720  3
   3952   6748   6742   6739     1  180.0000771  0.4184000  2
   3952   6748   6742   6739     1  0.0000000  1.6024720  3
   3955   6762   6756   6753     1  180.0000771  0.4184000  2
   3955   6762   6756   6753     1  0.0000000  1.6024720  3
   3960   3961   3973   3985     1  0.0000000  0.6508444  3
   3960   3964   3976   3982     1  0.0000000  0.6508444  3
   3960   3967   3970   3979     1  0.0000000  0.6508444  3
   3961   3960   3964   3976     1  0.0000000  0.6508444  3
   3961   3960   3967   3970     1  0.0000000  0.6508444  3
   3961   3973   3985   6790     1  0.0000000  0.6508444  3
   3964   3960   3961   3973     1  0.0000000  0.6508444  3
   3964   3960   3967   3970     1  0.0000000  0.6508444  3
   3964   3976   3982   6776     1  0.0000000  0.6508444  3
   3967   3960   3961   3973     1  0.0000000  0.6508444  3
   3967   3960   3964   3976     1  0.0000000  0.6508444  3
   3967   3970   3979   3988     1  0.0000000  0.6508444  3
   3973   3985   6790   6784     1  180.0000771  0.4184000  2
   3973   3985   6790   6784     1  0.0000000  1.6024720  3
   3976   3982   6776   6770     1  180.0000771  0.4184000  2
   3976   3982   6776   6770     1  0.0000000  1.6024720  3
   3982   6776   6770   6767     1  180.0000771  0.4184000  2
   3982   6776   6770   6767     1  0.0000000  1.6024720  3
   3985   6790   6784   6781     1  180.0000771  0.4184000  2
   3985   6790   6784   6781     1  0.0000000  1.6024720  3
   3990   3991   4003   4015     1  0.0000000  0.6508444  3
   3990   3994   4006   4012     1  0.0000000  0.6508444  3
   3990   3997   4000   4009     1  0.0000000  0.6508444  3
   3991   3990   3994   4006     1  0.0000000  0.6508444  3
   3991   3990   3997   4000     1  0.0000000  0.6508444  3
   3991   4003   4015   6818     1  0.0000000  0.6508444  3
   3994   3990   3991   4003     1  0.0000000  0.6508444  3
   3994   3990   3997   4000     1  0.0000000  0.6508444  3
   3994   4006   4012   6804     1  0.0000000  0.6508444  3
   3997   3990   3991   4003     1  0.0000000  0.6508444  3
   3997   3990   3994   4006     1  0.0000000  0.6508444  3
   3997   4000   4009   4018     1  0.0000000  0.6508444  3
   4003   4015   6818   6812     1  180.0000771  0.4184000  2
   4003   4015   6818   6812     1  0.0000000  1.6024720  3
   4006   4012   6804   6798     1  180.0000771  0.4184000  2
   4006   4012   6804   6798     1  0.0000000  1.6024720  3
   4012   6804   6798   6795     1  180.0000771  0.4184000  2
   4012   6804   6798   6795     1  0.0000000  1.6024720  3
   4015   6818   6812   6809     1  180.0000771  0.4184000  2
   4015   6818   6812   6809     1  0.0000000  1.6024720  3
   4020   4021   4033   4045     1  0.0000000  0.6508444  3
   4020   4024   4036   4042     1  0.0000000  0.6508444  3
   4020   4027   4030   4039     1  0.0000000  0.6508444  3
   4021   4020   4024   4036     1  0.0000000  0.6508444  3
   4021   4020   4027   4030     1  0.0000000  0.6508444  3
   4021   4033   4045   6846     1  0.0000000  0.6508444  3
   4024   4020   4021   4033     1  0.0000000  0.6508444  3
   4024   4020   4027   4030     1  0.0000000  0.6508444  3
   4024   4036   4042   6832     1  0.0000000  0.6508444  3
   4027   4020   4021   4033     1  0.0000000  0.6508444  3
   4027   4020   4024   4036     1  0.0000000  0.6508444  3
   4027   4030   4039   4048     1  0.0000000  0.6508444  3
   4033   4045   6846   6840     1  180.0000771  0.4184000  2
   4033   4045   6846   6840     1  0.0000000  1.6024720  3
   4036   4042   6832   6826     1  180.0000771  0.4184000  2
   4036   4042   6832   6826     1  0.0000000  1.6024720  3
   4042   6832   6826   6823     1  180.0000771  0.4184000  2
   4042   6832   6826   6823     1  0.0000000  1.6024720  3
   4045   6846   6840   6837     1  180.0000771  0.4184000  2
   4045   6846   6840   6837     1  0.0000000  1.6024720  3
   4050   4051   4063   4075     1  0.0000000  0.6508444  3
   4050   4054   4066   4072     1  0.0000000  0.6508444  3
   4050   4057   4060   4069     1  0.0000000  0.6508444  3
   4051   4050   4054   4066     1  0.0000000  0.6508444  3
   4051   4050   4057   4060     1  0.0000000  0.6508444  3
   4051   4063   4075   6874     1  0.0000000  0.6508444  3
   4054   4050   4051   4063     1  0.0000000  0.6508444  3
   4054   4050   4057   4060     1  0.0000000  0.6508444  3
   4054   4066   4072   6860     1  0.0000000  0.6508444  3
   4057   4050   4051   4063     1  0.0000000  0.6508444  3
   4057   4050   4054   4066     1  0.0000000  0.6508444  3
   4057   4060   4069   4078     1  0.0000000  0.6508444  3
   4063   4075   6874   6868     1  180.0000771  0.4184000  2
   4063   4075   6874   6868     1  0.0000000  1.6024720  3
   4066   4072   6860   6854     1  180.0000771  0.4184000  2
   4066   4072   6860   6854     1  0.0000000  1.6024720  3
   4072   6860   6854   6851     1  180.0000771  0.4184000  2
   4072   6860   6854   6851     1  0.0000000  1.6024720  3
   4075   6874   6868   6865     1  180.0000771  0.4184000  2
   4075   6874   6868   6865     1  0.0000000  1.6024720  3
   4080   4081   4093   4105     1  0.0000000  0.6508444  3
   4080   4084   4096   4102     1  0.0000000  0.6508444  3
   4080   4087   4090   4099     1  0.0000000  0.6508444  3
   4081   4080   4084   4096     1  0.0000000  0.6508444  3
   4081   4080   4087   4090     1  0.0000000  0.6508444  3
   4081   4093   4105   6902     1  0.0000000  0.6508444  3
   4084   4080   4081   4093     1  0.0000000  0.6508444  3
   4084   4080   4087   4090     1  0.0000000  0.6508444  3
   4084   4096   4102   6888     1  0.0000000  0.6508444  3
   4087   4080   4081   4093     1  0.0000000  0.6508444  3
   4087   4080   4084   4096     1  0.0000000  0.6508444  3
   4087   4090   4099   4108     1  0.0000000  0.6508444  3
   4093   4105   6902   6896     1  180.0000771  0.4184000  2
   4093   4105   6902   6896     1  0.0000000  1.6024720  3
   4096   4102   6888   6882     1  180.0000771  0.4184000  2
   4096   4102   6888   6882     1  0.0000000  1.6024720  3
   4102   6888   6882   6879     1  180.0000771  0.4184000  2
   4102   6888   6882   6879     1  0.0000000  1.6024720  3
   4105   6902   6896   6893     1  180.0000771  0.4184000  2
   4105   6902   6896   6893     1  0.0000000  1.6024720  3
   4110   4111   4123   4135     1  0.0000000  0.6508444  3
   4110   4114   4126   4132     1  0.0000000  0.6508444  3
   4110   4117   4120   4129     1  0.0000000  0.6508444  3
   4111   4110   4114   4126     1  0.0000000  0.6508444  3
   4111   4110   4117   4120     1  0.0000000  0.6508444  3
   4111   4123   4135   6930     1  0.0000000  0.6508444  3
   4114   4110   4111   4123     1  0.0000000  0.6508444  3
   4114   4110   4117   4120     1  0.0000000  0.6508444  3
   4114   4126   4132   6916     1  0.0000000  0.6508444  3
   4117   4110   4111   4123     1  0.0000000  0.6508444  3
   4117   4110   4114   4126     1  0.0000000  0.6508444  3
   4117   4120   4129   4138     1  0.0000000  0.6508444  3
   4123   4135   6930   6924     1  180.0000771  0.4184000  2
   4123   4135   6930   6924     1  0.0000000  1.6024720  3
   4126   4132   6916   6910     1  180.0000771  0.4184000  2
   4126   4132   6916   6910     1  0.0000000  1.6024720  3
   4132   6916   6910   6907     1  180.0000771  0.4184000  2
   4132   6916   6910   6907     1  0.0000000  1.6024720  3
   4135   6930   6924   6921     1  180.0000771  0.4184000  2
   4135   6930   6924   6921     1  0.0000000  1.6024720  3
   4140   4141   4153   4165     1  0.0000000  0.6508444  3
   4140   4144   4156   4162     1  0.0000000  0.6508444  3
   4140   4147   4150   4159     1  0.0000000  0.6508444  3
   4141   4140   4144   4156     1  0.0000000  0.6508444  3
   4141   4140   4147   4150     1  0.0000000  0.6508444  3
   4141   4153   4165   6958     1  0.0000000  0.6508444  3
   4144   4140   4141   4153     1  0.0000000  0.6508444  3
   4144   4140   4147   4150     1  0.0000000  0.6508444  3
   4144   4156   4162   6944     1  0.0000000  0.6508444  3
   4147   4140   4141   4153     1  0.0000000  0.6508444  3
   4147   4140   4144   4156     1  0.0000000  0.6508444  3
   4147   4150   4159   4168     1  0.0000000  0.6508444  3
   4153   4165   6958   6952     1  180.0000771  0.4184000  2
   4153   4165   6958   6952     1  0.0000000  1.6024720  3
   4156   4162   6944   6938     1  180.0000771  0.4184000  2
   4156   4162   6944   6938     1  0.0000000  1.6024720  3
   4162   6944   6938   6935     1  180.0000771  0.4184000  2
   4162   6944   6938   6935     1  0.0000000  1.6024720  3
   4165   6958   6952   6949     1  180.0000771  0.4184000  2
   4165   6958   6952   6949     1  0.0000000  1.6024720  3
   4170   4171   4183   4195     1  0.0000000  0.6508444  3
   4170   4174   4186   4192     1  0.0000000  0.6508444  3
   4170   4177   4180   4189     1  0.0000000  0.6508444  3
   4171   4170   4174   4186     1  0.0000000  0.6508444  3
   4171   4170   4177   4180     1  0.0000000  0.6508444  3
   4171   4183   4195   6986     1  0.0000000  0.6508444  3
   4174   4170   4171   4183     1  0.0000000  0.6508444  3
   4174   4170   4177   4180     1  0.0000000  0.6508444  3
   4174   4186   4192   6972     1  0.0000000  0.6508444  3
   4177   4170   4171   4183     1  0.0000000  0.6508444  3
   4177   4170   4174   4186     1  0.0000000  0.6508444  3
   4177   4180   4189   4198     1  0.0000000  0.6508444  3
   4183   4195   6986   6980     1  180.0000771  0.4184000  2
   4183   4195   6986   6980     1  0.0000000  1.6024720  3
   4186   4192   6972   6966     1  180.0000771  0.4184000  2
   4186   4192   6972   6966     1  0.0000000  1.6024720  3
   4192   6972   6966   6963     1  180.0000771  0.4184000  2
   4192   6972   6966   6963     1  0.0000000  1.6024720  3
   4195   6986   6980   6977     1  180.0000771  0.4184000  2
   4195   6986   6980   6977     1  0.0000000  1.6024720  3
   4200   4201   4213   4225     1  0.0000000  0.6508444  3
   4200   4204   4216   4222     1  0.0000000  0.6508444  3
   4200   4207   4210   4219     1  0.0000000  0.6508444  3
   4201   4200   4204   4216     1  0.0000000  0.6508444  3
   4201   4200   4207   4210     1  0.0000000  0.6508444  3
   4201   4213   4225   7014     1  0.0000000  0.6508444  3
   4204   4200   4201   4213     1  0.0000000  0.6508444  3
   4204   4200   4207   4210     1  0.0000000  0.6508444  3
   4204   4216   4222   7000     1  0.0000000  0.6508444  3
   4207   4200   4201   4213     1  0.0000000  0.6508444  3
   4207   4200   4204   4216     1  0.0000000  0.6508444  3
   4207   4210   4219   4228     1  0.0000000  0.6508444  3
   4213   4225   7014   7008     1  180.0000771  0.4184000  2
   4213   4225   7014   7008     1  0.0000000  1.6024720  3
   4216   4222   7000   6994     1  180.0000771  0.4184000  2
   4216   4222   7000   6994     1  0.0000000  1.6024720  3
   4222   7000   6994   6991     1  180.0000771  0.4184000  2
   4222   7000   6994   6991     1  0.0000000  1.6024720  3
   4225   7014   7008   7005     1  180.0000771  0.4184000  2
   4225   7014   7008   7005     1  0.0000000  1.6024720  3
   4230   4231   4243   4255     1  0.0000000  0.6508444  3
   4230   4234   4246   4252     1  0.0000000  0.6508444  3
   4230   4237   4240   4249     1  0.0000000  0.6508444  3
   4231   4230   4234   4246     1  0.0000000  0.6508444  3
   4231   4230   4237   4240     1  0.0000000  0.6508444  3
   4231   4243   4255   7042     1  0.0000000  0.6508444  3
   4234   4230   4231   4243     1  0.0000000  0.6508444  3
   4234   4230   4237   4240     1  0.0000000  0.6508444  3
   4234   4246   4252   7028     1  0.0000000  0.6508444  3
   4237   4230   4231   4243     1  0.0000000  0.6508444  3
   4237   4230   4234   4246     1  0.0000000  0.6508444  3
   4237   4240   4249   4258     1  0.0000000  0.6508444  3
   4243   4255   7042   7036     1  180.0000771  0.4184000  2
   4243   4255   7042   7036     1  0.0000000  1.6024720  3
   4246   4252   7028   7022     1  180.0000771  0.4184000  2
   4246   4252   7028   7022     1  0.0000000  1.6024720  3
   4252   7028   7022   7019     1  180.0000771  0.4184000  2
   4252   7028   7022   7019     1  0.0000000  1.6024720  3
   4255   7042   7036   7033     1  180.0000771  0.4184000  2
   4255   7042   7036   7033     1  0.0000000  1.6024720  3
   4260   4261   4273   4285     1  0.0000000  0.6508444  3
   4260   4264   4276   4282     1  0.0000000  0.6508444  3
   4260   4267   4270   4279     1  0.0000000  0.6508444  3
   4261   4260   4264   4276     1  0.0000000  0.6508444  3
   4261   4260   4267   4270     1  0.0000000  0.6508444  3
   4261   4273   4285   7070     1  0.0000000  0.6508444  3
   4264   4260   4261   4273     1  0.0000000  0.6508444  3
   4264   4260   4267   4270     1  0.0000000  0.6508444  3
   4264   4276   4282   7056     1  0.0000000  0.6508444  3
   4267   4260   4261   4273     1  0.0000000  0.6508444  3
   4267   4260   4264   4276     1  0.0000000  0.6508444  3
   4267   4270   4279   4288     1  0.0000000  0.6508444  3
   4273   4285   7070   7064     1  180.0000771  0.4184000  2
   4273   4285   7070   7064     1  0.0000000  1.6024720  3
   4276   4282   7056   7050     1  180.0000771  0.4184000  2
   4276   4282   7056   7050     1  0.0000000  1.6024720  3
   4282   7056   7050   7047     1  180.0000771  0.4184000  2
   4282   7056   7050   7047     1  0.0000000  1.6024720  3
   4285   7070   7064   7061     1  180.0000771  0.4184000  2
   4285   7070   7064   7061     1  0.0000000  1.6024720  3
   4290   4291   4303   4315     1  0.0000000  0.6508444  3
   4290   4294   4306   4312     1  0.0000000  0.6508444  3
   4290   4297   4300   4309     1  0.0000000  0.6508444  3
   4291   4290   4294   4306     1  0.0000000  0.6508444  3
   4291   4290   4297   4300     1  0.0000000  0.6508444  3
   4291   4303   4315   7098     1  0.0000000  0.6508444  3
   4294   4290   4291   4303     1  0.0000000  0.6508444  3
   4294   4290   4297   4300     1  0.0000000  0.6508444  3
   4294   4306   4312   7084     1  0.0000000  0.6508444  3
   4297   4290   4291   4303     1  0.0000000  0.6508444  3
   4297   4290   4294   4306     1  0.0000000  0.6508444  3
   4297   4300   4309   4318     1  0.0000000  0.6508444  3
   4303   4315   7098   7092     1  180.0000771  0.4184000  2
   4303   4315   7098   7092     1  0.0000000  1.6024720  3
   4306   4312   7084   7078     1  180.0000771  0.4184000  2
   4306   4312   7084   7078     1  0.0000000  1.6024720  3
   4312   7084   7078   7075     1  180.0000771  0.4184000  2
   4312   7084   7078   7075     1  0.0000000  1.6024720  3
   4315   7098   7092   7089     1  180.0000771  0.4184000  2
   4315   7098   7092   7089     1  0.0000000  1.6024720  3
   4320   4321   4333   4345     1  0.0000000  0.6508444  3
   4320   4324   4336   4342     1  0.0000000  0.6508444  3
   4320   4327   4330   4339     1  0.0000000  0.6508444  3
   4321   4320   4324   4336     1  0.0000000  0.6508444  3
   4321   4320   4327   4330     1  0.0000000  0.6508444  3
   4321   4333   4345   7126     1  0.0000000  0.6508444  3
   4324   4320   4321   4333     1  0.0000000  0.6508444  3
   4324   4320   4327   4330     1  0.0000000  0.6508444  3
   4324   4336   4342   7112     1  0.0000000  0.6508444  3
   4327   4320   4321   4333     1  0.0000000  0.6508444  3
   4327   4320   4324   4336     1  0.0000000  0.6508444  3
   4327   4330   4339   4348     1  0.0000000  0.6508444  3
   4333   4345   7126   7120     1  180.0000771  0.4184000  2
   4333   4345   7126   7120     1  0.0000000  1.6024720  3
   4336   4342   7112   7106     1  180.0000771  0.4184000  2
   4336   4342   7112   7106     1  0.0000000  1.6024720  3
   4342   7112   7106   7103     1  180.0000771  0.4184000  2
   4342   7112   7106   7103     1  0.0000000  1.6024720  3
   4345   7126   7120   7117     1  180.0000771  0.4184000  2
   4345   7126   7120   7117     1  0.0000000  1.6024720  3
   4350   4351   4363   4375     1  0.0000000  0.6508444  3
   4350   4354   4366   4372     1  0.0000000  0.6508444  3
   4350   4357   4360   4369     1  0.0000000  0.6508444  3
   4351   4350   4354   4366     1  0.0000000  0.6508444  3
   4351   4350   4357   4360     1  0.0000000  0.6508444  3
   4351   4363   4375   7154     1  0.0000000  0.6508444  3
   4354   4350   4351   4363     1  0.0000000  0.6508444  3
   4354   4350   4357   4360     1  0.0000000  0.6508444  3
   4354   4366   4372   7140     1  0.0000000  0.6508444  3
   4357   4350   4351   4363     1  0.0000000  0.6508444  3
   4357   4350   4354   4366     1  0.0000000  0.6508444  3
   4357   4360   4369   4378     1  0.0000000  0.6508444  3
   4363   4375   7154   7148     1  180.0000771  0.4184000  2
   4363   4375   7154   7148     1  0.0000000  1.6024720  3
   4366   4372   7140   7134     1  180.0000771  0.4184000  2
   4366   4372   7140   7134     1  0.0000000  1.6024720  3
   4372   7140   7134   7131     1  180.0000771  0.4184000  2
   4372   7140   7134   7131     1  0.0000000  1.6024720  3
   4375   7154   7148   7145     1  180.0000771  0.4184000  2
   4375   7154   7148   7145     1  0.0000000  1.6024720  3
   4380   4381   4393   4405     1  0.0000000  0.6508444  3
   4380   4384   4396   4402     1  0.0000000  0.6508444  3
   4380   4387   4390   4399     1  0.0000000  0.6508444  3
   4381   4380   4384   4396     1  0.0000000  0.6508444  3
   4381   4380   4387   4390     1  0.0000000  0.6508444  3
   4381   4393   4405   7182     1  0.0000000  0.6508444  3
   4384   4380   4381   4393     1  0.0000000  0.6508444  3
   4384   4380   4387   4390     1  0.0000000  0.6508444  3
   4384   4396   4402   7168     1  0.0000000  0.6508444  3
   4387   4380   4381   4393     1  0.0000000  0.6508444  3
   4387   4380   4384   4396     1  0.0000000  0.6508444  3
   4387   4390   4399   4408     1  0.0000000  0.6508444  3
   4393   4405   7182   7176     1  180.0000771  0.4184000  2
   4393   4405   7182   7176     1  0.0000000  1.6024720  3
   4396   4402   7168   7162     1  180.0000771  0.4184000  2
   4396   4402   7168   7162     1  0.0000000  1.6024720  3
   4402   7168   7162   7159     1  180.0000771  0.4184000  2
   4402   7168   7162   7159     1  0.0000000  1.6024720  3
   4405   7182   7176   7173     1  180.0000771  0.4184000  2
   4405   7182   7176   7173     1  0.0000000  1.6024720  3
   4410   4411   4423   4435     1  0.0000000  0.6508444  3
   4410   4414   4426   4432     1  0.0000000  0.6508444  3
   4410   4417   4420   4429     1  0.0000000  0.6508444  3
   4411   4410   4414   4426     1  0.0000000  0.6508444  3
   4411   4410   4417   4420     1  0.0000000  0.6508444  3
   4411   4423   4435   7210     1  0.0000000  0.6508444  3
   4414   4410   4411   4423     1  0.0000000  0.6508444  3
   4414   4410   4417   4420     1  0.0000000  0.6508444  3
   4414   4426   4432   7196     1  0.0000000  0.6508444  3
   4417   4410   4411   4423     1  0.0000000  0.6508444  3
   4417   4410   4414   4426     1  0.0000000  0.6508444  3
   4417   4420   4429   4438     1  0.0000000  0.6508444  3
   4423   4435   7210   7204     1  180.0000771  0.4184000  2
   4423   4435   7210   7204     1  0.0000000  1.6024720  3
   4426   4432   7196   7190     1  180.0000771  0.4184000  2
   4426   4432   7196   7190     1  0.0000000  1.6024720  3
   4432   7196   7190   7187     1  180.0000771  0.4184000  2
   4432   7196   7190   7187     1  0.0000000  1.6024720  3
   4435   7210   7204   7201     1  180.0000771  0.4184000  2
   4435   7210   7204   7201     1  0.0000000  1.6024720  3
   4440   4441   4453   4465     1  0.0000000  0.6508444  3
   4440   4444   4456   4462     1  0.0000000  0.6508444  3
   4440   4447   4450   4459     1  0.0000000  0.6508444  3
   4441   4440   4444   4456     1  0.0000000  0.6508444  3
   4441   4440   4447   4450     1  0.0000000  0.6508444  3
   4441   4453   4465   7238     1  0.0000000  0.6508444  3
   4444   4440   4441   4453     1  0.0000000  0.6508444  3
   4444   4440   4447   4450     1  0.0000000  0.6508444  3
   4444   4456   4462   7224     1  0.0000000  0.6508444  3
   4447   4440   4441   4453     1  0.0000000  0.6508444  3
   4447   4440   4444   4456     1  0.0000000  0.6508444  3
   4447   4450   4459   4468     1  0.0000000  0.6508444  3
   4453   4465   7238   7232     1  180.0000771  0.4184000  2
   4453   4465   7238   7232     1  0.0000000  1.6024720  3
   4456   4462   7224   7218     1  180.0000771  0.4184000  2
   4456   4462   7224   7218     1  0.0000000  1.6024720  3
   4462   7224   7218   7215     1  180.0000771  0.4184000  2
   4462   7224   7218   7215     1  0.0000000  1.6024720  3
   4465   7238   7232   7229     1  180.0000771  0.4184000  2
   4465   7238   7232   7229     1  0.0000000  1.6024720  3
   4470   4471   4483   4495     1  0.0000000  0.6508444  3
   4470   4474   4486   4492     1  0.0000000  0.6508444  3
   4470   4477   4480   4489     1  0.0000000  0.6508444  3
   4471   4470   4474   4486     1  0.0000000  0.6508444  3
   4471   4470   4477   4480     1  0.0000000  0.6508444  3
   4471   4483   4495   7266     1  0.0000000  0.6508444  3
   4474   4470   4471   4483     1  0.0000000  0.6508444  3
   4474   4470   4477   4480     1  0.0000000  0.6508444  3
   4474   4486   4492   7252     1  0.0000000  0.6508444  3
   4477   4470   4471   4483     1  0.0000000  0.6508444  3
   4477   4470   4474   4486     1  0.0000000  0.6508444  3
   4477   4480   4489   4498     1  0.0000000  0.6508444  3
   4483   4495   7266   7260     1  180.0000771  0.4184000  2
   4483   4495   7266   7260     1  0.0000000  1.6024720  3
   4486   4492   7252   7246     1  180.0000771  0.4184000  2
   4486   4492   7252   7246     1  0.0000000  1.6024720  3
   4492   7252   7246   7243     1  180.0000771  0.4184000  2
   4492   7252   7246   7243     1  0.0000000  1.6024720  3
   4495   7266   7260   7257     1  180.0000771  0.4184000  2
   4495   7266   7260   7257     1  0.0000000  1.6024720  3
   4500   4501   4513   4525     1  0.0000000  0.6508444  3
   4500   4504   4516   4522     1  0.0000000  0.6508444  3
   4500   4507   4510   4519     1  0.0000000  0.6508444  3
   4501   4500   4504   4516     1  0.0000000  0.6508444  3
   4501   4500   4507   4510     1  0.0000000  0.6508444  3
   4501   4513   4525   7294     1  0.0000000  0.6508444  3
   4504   4500   4501   4513     1  0.0000000  0.6508444  3
   4504   4500   4507   4510     1  0.0000000  0.6508444  3
   4504   4516   4522   7280     1  0.0000000  0.6508444  3
   4507   4500   4501   4513     1  0.0000000  0.6508444  3
   4507   4500   4504   4516     1  0.0000000  0.6508444  3
   4507   4510   4519   4528     1  0.0000000  0.6508444  3
   4513   4525   7294   7288     1  180.0000771  0.4184000  2
   4513   4525   7294   7288     1  0.0000000  1.6024720  3
   4516   4522   7280   7274     1  180.0000771  0.4184000  2
   4516   4522   7280   7274     1  0.0000000  1.6024720  3
   4522   7280   7274   7271     1  180.0000771  0.4184000  2
   4522   7280   7274   7271     1  0.0000000  1.6024720  3
   4525   7294   7288   7285     1  180.0000771  0.4184000  2
   4525   7294   7288   7285     1  0.0000000  1.6024720  3
   4530   4531   4543   4555     1  0.0000000  0.6508444  3
   4530   4534   4546   4552     1  0.0000000  0.6508444  3
   4530   4537   4540   4549     1  0.0000000  0.6508444  3
   4531   4530   4534   4546     1  0.0000000  0.6508444  3
   4531   4530   4537   4540     1  0.0000000  0.6508444  3
   4531   4543   4555   7322     1  0.0000000  0.6508444  3
   4534   4530   4531   4543     1  0.0000000  0.6508444  3
   4534   4530   4537   4540     1  0.0000000  0.6508444  3
   4534   4546   4552   7308     1  0.0000000  0.6508444  3
   4537   4530   4531   4543     1  0.0000000  0.6508444  3
   4537   4530   4534   4546     1  0.0000000  0.6508444  3
   4537   4540   4549   4558     1  0.0000000  0.6508444  3
   4543   4555   7322   7316     1  180.0000771  0.4184000  2
   4543   4555   7322   7316     1  0.0000000  1.6024720  3
   4546   4552   7308   7302     1  180.0000771  0.4184000  2
   4546   4552   7308   7302     1  0.0000000  1.6024720  3
   4552   7308   7302   7299     1  180.0000771  0.4184000  2
   4552   7308   7302   7299     1  0.0000000  1.6024720  3
   4555   7322   7316   7313     1  180.0000771  0.4184000  2
   4555   7322   7316   7313     1  0.0000000  1.6024720  3
   4560   4561   4573   4585     1  0.0000000  0.6508444  3
   4560   4564   4576   4582     1  0.0000000  0.6508444  3
   4560   4567   4570   4579     1  0.0000000  0.6508444  3
   4561   4560   4564   4576     1  0.0000000  0.6508444  3
   4561   4560   4567   4570     1  0.0000000  0.6508444  3
   4561   4573   4585   7350     1  0.0000000  0.6508444  3
   4564   4560   4561   4573     1  0.0000000  0.6508444  3
   4564   4560   4567   4570     1  0.0000000  0.6508444  3
   4564   4576   4582   7336     1  0.0000000  0.6508444  3
   4567   4560   4561   4573     1  0.0000000  0.6508444  3
   4567   4560   4564   4576     1  0.0000000  0.6508444  3
   4567   4570   4579   4588     1  0.0000000  0.6508444  3
   4573   4585   7350   7344     1  180.0000771  0.4184000  2
   4573   4585   7350   7344     1  0.0000000  1.6024720  3
   4576   4582   7336   7330     1  180.0000771  0.4184000  2
   4576   4582   7336   7330     1  0.0000000  1.6024720  3
   4582   7336   7330   7327     1  180.0000771  0.4184000  2
   4582   7336   7330   7327     1  0.0000000  1.6024720  3
   4585   7350   7344   7341     1  180.0000771  0.4184000  2
   4585   7350   7344   7341     1  0.0000000  1.6024720  3
   4590   4591   4603   4615     1  0.0000000  0.6508444  3
   4590   4594   4606   4612     1  0.0000000  0.6508444  3
   4590   4597   4600   4609     1  0.0000000  0.6508444  3
   4591   4590   4594   4606     1  0.0000000  0.6508444  3
   4591   4590   4597   4600     1  0.0000000  0.6508444  3
   4591   4603   4615   7378     1  0.0000000  0.6508444  3
   4594   4590   4591   4603     1  0.0000000  0.6508444  3
   4594   4590   4597   4600     1  0.0000000  0.6508444  3
   4594   4606   4612   7364     1  0.0000000  0.6508444  3
   4597   4590   4591   4603     1  0.0000000  0.6508444  3
   4597   4590   4594   4606     1  0.0000000  0.6508444  3
   4597   4600   4609   4618     1  0.0000000  0.6508444  3
   4603   4615   7378   7372     1  180.0000771  0.4184000  2
   4603   4615   7378   7372     1  0.0000000  1.6024720  3
   4606   4612   7364   7358     1  180.0000771  0.4184000  2
   4606   4612   7364   7358     1  0.0000000  1.6024720  3
   4612   7364   7358   7355     1  180.0000771  0.4184000  2
   4612   7364   7358   7355     1  0.0000000  1.6024720  3
   4615   7378   7372   7369     1  180.0000771  0.4184000  2
   4615   7378   7372   7369     1  0.0000000  1.6024720  3
   4620   4621   4633   4645     1  0.0000000  0.6508444  3
   4620   4624   4636   4642     1  0.0000000  0.6508444  3
   4620   4627   4630   4639     1  0.0000000  0.6508444  3
   4621   4620   4624   4636     1  0.0000000  0.6508444  3
   4621   4620   4627   4630     1  0.0000000  0.6508444  3
   4621   4633   4645   7406     1  0.0000000  0.6508444  3
   4624   4620   4621   4633     1  0.0000000  0.6508444  3
   4624   4620   4627   4630     1  0.0000000  0.6508444  3
   4624   4636   4642   7392     1  0.0000000  0.6508444  3
   4627   4620   4621   4633     1  0.0000000  0.6508444  3
   4627   4620   4624   4636     1  0.0000000  0.6508444  3
   4627   4630   4639   4648     1  0.0000000  0.6508444  3
   4633   4645   7406   7400     1  180.0000771  0.4184000  2
   4633   4645   7406   7400     1  0.0000000  1.6024720  3
   4636   4642   7392   7386     1  180.0000771  0.4184000  2
   4636   4642   7392   7386     1  0.0000000  1.6024720  3
   4642   7392   7386   7383     1  180.0000771  0.4184000  2
   4642   7392   7386   7383     1  0.0000000  1.6024720  3
   4645   7406   7400   7397     1  180.0000771  0.4184000  2
   4645   7406   7400   7397     1  0.0000000  1.6024720  3
   4650   4651   4663   4675     1  0.0000000  0.6508444  3
   4650   4654   4666   4672     1  0.0000000  0.6508444  3
   4650   4657   4660   4669     1  0.0000000  0.6508444  3
   4651   4650   4654   4666     1  0.0000000  0.6508444  3
   4651   4650   4657   4660     1  0.0000000  0.6508444  3
   4651   4663   4675   7434     1  0.0000000  0.6508444  3
   4654   4650   4651   4663     1  0.0000000  0.6508444  3
   4654   4650   4657   4660     1  0.0000000  0.6508444  3
   4654   4666   4672   7420     1  0.0000000  0.6508444  3
   4657   4650   4651   4663     1  0.0000000  0.6508444  3
   4657   4650   4654   4666     1  0.0000000  0.6508444  3
   4657   4660   4669   4678     1  0.0000000  0.6508444  3
   4663   4675   7434   7428     1  180.0000771  0.4184000  2
   4663   4675   7434   7428     1  0.0000000  1.6024720  3
   4666   4672   7420   7414     1  180.0000771  0.4184000  2
   4666   4672   7420   7414     1  0.0000000  1.6024720  3
   4672   7420   7414   7411     1  180.0000771  0.4184000  2
   4672   7420   7414   7411     1  0.0000000  1.6024720  3
   4675   7434   7428   7425     1  180.0000771  0.4184000  2
   4675   7434   7428   7425     1  0.0000000  1.6024720  3
   4680   4681   4693   4705     1  0.0000000  0.6508444  3
   4680   4684   4696   4702     1  0.0000000  0.6508444  3
   4680   4687   4690   4699     1  0.0000000  0.6508444  3
   4681   4680   4684   4696     1  0.0000000  0.6508444  3
   4681   4680   4687   4690     1  0.0000000  0.6508444  3
   4681   4693   4705   7462     1  0.0000000  0.6508444  3
   4684   4680   4681   4693     1  0.0000000  0.6508444  3
   4684   4680   4687   4690     1  0.0000000  0.6508444  3
   4684   4696   4702   7448     1  0.0000000  0.6508444  3
   4687   4680   4681   4693     1  0.0000000  0.6508444  3
   4687   4680   4684   4696     1  0.0000000  0.6508444  3
   4687   4690   4699   4708     1  0.0000000  0.6508444  3
   4693   4705   7462   7456     1  180.0000771  0.4184000  2
   4693   4705   7462   7456     1  0.0000000  1.6024720  3
   4696   4702   7448   7442     1  180.0000771  0.4184000  2
   4696   4702   7448   7442     1  0.0000000  1.6024720  3
   4702   7448   7442   7439     1  180.0000771  0.4184000  2
   4702   7448   7442   7439     1  0.0000000  1.6024720  3
   4705   7462   7456   7453     1  180.0000771  0.4184000  2
   4705   7462   7456   7453     1  0.0000000  1.6024720  3
   4710   4711   4723   4735     1  0.0000000  0.6508444  3
   4710   4714   4726   4732     1  0.0000000  0.6508444  3
   4710   4717   4720   4729     1  0.0000000  0.6508444  3
   4711   4710   4714   4726     1  0.0000000  0.6508444  3
   4711   4710   4717   4720     1  0.0000000  0.6508444  3
   4711   4723   4735   7490     1  0.0000000  0.6508444  3
   4714   4710   4711   4723     1  0.0000000  0.6508444  3
   4714   4710   4717   4720     1  0.0000000  0.6508444  3
   4714   4726   4732   7476     1  0.0000000  0.6508444  3
   4717   4710   4711   4723     1  0.0000000  0.6508444  3
   4717   4710   4714   4726     1  0.0000000  0.6508444  3
   4717   4720   4729   4738     1  0.0000000  0.6508444  3
   4723   4735   7490   7484     1  180.0000771  0.4184000  2
   4723   4735   7490   7484     1  0.0000000  1.6024720  3
   4726   4732   7476   7470     1  180.0000771  0.4184000  2
   4726   4732   7476   7470     1  0.0000000  1.6024720  3
   4732   7476   7470   7467     1  180.0000771  0.4184000  2
   4732   7476   7470   7467     1  0.0000000  1.6024720  3
   4735   7490   7484   7481     1  180.0000771  0.4184000  2
   4735   7490   7484   7481     1  0.0000000  1.6024720  3
   4740   4741   4753   4765     1  0.0000000  0.6508444  3
   4740   4744   4756   4762     1  0.0000000  0.6508444  3
   4740   4747   4750   4759     1  0.0000000  0.6508444  3
   4741   4740   4744   4756     1  0.0000000  0.6508444  3
   4741   4740   4747   4750     1  0.0000000  0.6508444  3
   4741   4753   4765   7518     1  0.0000000  0.6508444  3
   4744   4740   4741   4753     1  0.0000000  0.6508444  3
   4744   4740   4747   4750     1  0.0000000  0.6508444  3
   4744   4756   4762   7504     1  0.0000000  0.6508444  3
   4747   4740   4741   4753     1  0.0000000  0.6508444  3
   4747   4740   4744   4756     1  0.0000000  0.6508444  3
   4747   4750   4759   4768     1  0.0000000  0.6508444  3
   4753   4765   7518   7512     1  180.0000771  0.4184000  2
   4753   4765   7518   7512     1  0.0000000  1.6024720  3
   4756   4762   7504   7498     1  180.0000771  0.4184000  2
   4756   4762   7504   7498     1  0.0000000  1.6024720  3
   4762   7504   7498   7495     1  180.0000771  0.4184000  2
   4762   7504   7498   7495     1  0.0000000  1.6024720  3
   4765   7518   7512   7509     1  180.0000771  0.4184000  2
   4765   7518   7512   7509     1  0.0000000  1.6024720  3
   4770   4771   4783   4795     1  0.0000000  0.6508444  3
   4770   4774   4786   4792     1  0.0000000  0.6508444  3
   4770   4777   4780   4789     1  0.0000000  0.6508444  3
   4771   4770   4774   4786     1  0.0000000  0.6508444  3
   4771   4770   4777   4780     1  0.0000000  0.6508444  3
   4771   4783   4795   7546     1  0.0000000  0.6508444  3
   4774   4770   4771   4783     1  0.0000000  0.6508444  3
   4774   4770   4777   4780     1  0.0000000  0.6508444  3
   4774   4786   4792   7532     1  0.0000000  0.6508444  3
   4777   4770   4771   4783     1  0.0000000  0.6508444  3
   4777   4770   4774   4786     1  0.0000000  0.6508444  3
   4777   4780   4789   4798     1  0.0000000  0.6508444  3
   4783   4795   7546   7540     1  180.0000771  0.4184000  2
   4783   4795   7546   7540     1  0.0000000  1.6024720  3
   4786   4792   7532   7526     1  180.0000771  0.4184000  2
   4786   4792   7532   7526     1  0.0000000  1.6024720  3
   4792   7532   7526   7523     1  180.0000771  0.4184000  2
   4792   7532   7526   7523     1  0.0000000  1.6024720  3
   4795   7546   7540   7537     1  180.0000771  0.4184000  2
   4795   7546   7540   7537     1  0.0000000  1.6024720  3
   4800   4801   4813   4825     1  0.0000000  0.6508444  3
   4800   4804   4816   4822     1  0.0000000  0.6508444  3
   4800   4807   4810   4819     1  0.0000000  0.6508444  3
   4801   4800   4804   4816     1  0.0000000  0.6508444  3
   4801   4800   4807   4810     1  0.0000000  0.6508444  3
   4801   4813   4825   7574     1  0.0000000  0.6508444  3
   4804   4800   4801   4813     1  0.0000000  0.6508444  3
   4804   4800   4807   4810     1  0.0000000  0.6508444  3
   4804   4816   4822   7560     1  0.0000000  0.6508444  3
   4807   4800   4801   4813     1  0.0000000  0.6508444  3
   4807   4800   4804   4816     1  0.0000000  0.6508444  3
   4807   4810   4819   4828     1  0.0000000  0.6508444  3
   4813   4825   7574   7568     1  180.0000771  0.4184000  2
   4813   4825   7574   7568     1  0.0000000  1.6024720  3
   4816   4822   7560   7554     1  180.0000771  0.4184000  2
   4816   4822   7560   7554     1  0.0000000  1.6024720  3
   4822   7560   7554   7551     1  180.0000771  0.4184000  2
   4822   7560   7554   7551     1  0.0000000  1.6024720  3
   4825   7574   7568   7565     1  180.0000771  0.4184000  2
   4825   7574   7568   7565     1  0.0000000  1.6024720  3
   4830   4831   4843   4855     1  0.0000000  0.6508444  3
   4830   4834   4846   4852     1  0.0000000  0.6508444  3
   4830   4837   4840   4849     1  0.0000000  0.6508444  3
   4831   4830   4834   4846     1  0.0000000  0.6508444  3
   4831   4830   4837   4840     1  0.0000000  0.6508444  3
   4831   4843   4855   7602     1  0.0000000  0.6508444  3
   4834   4830   4831   4843     1  0.0000000  0.6508444  3
   4834   4830   4837   4840     1  0.0000000  0.6508444  3
   4834   4846   4852   7588     1  0.0000000  0.6508444  3
   4837   4830   4831   4843     1  0.0000000  0.6508444  3
   4837   4830   4834   4846     1  0.0000000  0.6508444  3
   4837   4840   4849   4858     1  0.0000000  0.6508444  3
   4843   4855   7602   7596     1  180.0000771  0.4184000  2
   4843   4855   7602   7596     1  0.0000000  1.6024720  3
   4846   4852   7588   7582     1  180.0000771  0.4184000  2
   4846   4852   7588   7582     1  0.0000000  1.6024720  3
   4852   7588   7582   7579     1  180.0000771  0.4184000  2
   4852   7588   7582   7579     1  0.0000000  1.6024720  3
   4855   7602   7596   7593     1  180.0000771  0.4184000  2
   4855   7602   7596   7593     1  0.0000000  1.6024720  3
   4860   4861   4873   4885     1  0.0000000  0.6508444  3
   4860   4864   4876   4882     1  0.0000000  0.6508444  3
   4860   4867   4870   4879     1  0.0000000  0.6508444  3
   4861   4860   4864   4876     1  0.0000000  0.6508444  3
   4861   4860   4867   4870     1  0.0000000  0.6508444  3
   4861   4873   4885   7630     1  0.0000000  0.6508444  3
   4864   4860   4861   4873     1  0.0000000  0.6508444  3
   4864   4860   4867   4870     1  0.0000000  0.6508444  3
   4864   4876   4882   7616     1  0.0000000  0.6508444  3
   4867   4860   4861   4873     1  0.0000000  0.6508444  3
   4867   4860   4864   4876     1  0.0000000  0.6508444  3
   4867   4870   4879   4888     1  0.0000000  0.6508444  3
   4873   4885   7630   7624     1  180.0000771  0.4184000  2
   4873   4885   7630   7624     1  0.0000000  1.6024720  3
   4876   4882   7616   7610     1  180.0000771  0.4184000  2
   4876   4882   7616   7610     1  0.0000000  1.6024720  3
   4882   7616   7610   7607     1  180.0000771  0.4184000  2
   4882   7616   7610   7607     1  0.0000000  1.6024720  3
   4885   7630   7624   7621     1  180.0000771  0.4184000  2
   4885   7630   7624   7621     1  0.0000000  1.6024720  3
   4890   4891   4903   4915     1  0.0000000  0.6508444  3
   4890   4894   4906   4912     1  0.0000000  0.6508444  3
   4890   4897   4900   4909     1  0.0000000  0.6508444  3
   4891   4890   4894   4906     1  0.0000000  0.6508444  3
   4891   4890   4897   4900     1  0.0000000  0.6508444  3
   4891   4903   4915   7658     1  0.0000000  0.6508444  3
   4894   4890   4891   4903     1  0.0000000  0.6508444  3
   4894   4890   4897   4900     1  0.0000000  0.6508444  3
   4894   4906   4912   7644     1  0.0000000  0.6508444  3
   4897   4890   4891   4903     1  0.0000000  0.6508444  3
   4897   4890   4894   4906     1  0.0000000  0.6508444  3
   4897   4900   4909   4918     1  0.0000000  0.6508444  3
   4903   4915   7658   7652     1  180.0000771  0.4184000  2
   4903   4915   7658   7652     1  0.0000000  1.6024720  3
   4906   4912   7644   7638     1  180.0000771  0.4184000  2
   4906   4912   7644   7638     1  0.0000000  1.6024720  3
   4912   7644   7638   7635     1  180.0000771  0.4184000  2
   4912   7644   7638   7635     1  0.0000000  1.6024720  3
   4915   7658   7652   7649     1  180.0000771  0.4184000  2
   4915   7658   7652   7649     1  0.0000000  1.6024720  3
   4920   4921   4933   4945     1  0.0000000  0.6508444  3
   4920   4924   4936   4942     1  0.0000000  0.6508444  3
   4920   4927   4930   4939     1  0.0000000  0.6508444  3
   4921   4920   4924   4936     1  0.0000000  0.6508444  3
   4921   4920   4927   4930     1  0.0000000  0.6508444  3
   4921   4933   4945   7686     1  0.0000000  0.6508444  3
   4924   4920   4921   4933     1  0.0000000  0.6508444  3
   4924   4920   4927   4930     1  0.0000000  0.6508444  3
   4924   4936   4942   7672     1  0.0000000  0.6508444  3
   4927   4920   4921   4933     1  0.0000000  0.6508444  3
   4927   4920   4924   4936     1  0.0000000  0.6508444  3
   4927   4930   4939   4948     1  0.0000000  0.6508444  3
   4933   4945   7686   7680     1  180.0000771  0.4184000  2
   4933   4945   7686   7680     1  0.0000000  1.6024720  3
   4936   4942   7672   7666     1  180.0000771  0.4184000  2
   4936   4942   7672   7666     1  0.0000000  1.6024720  3
   4942   7672   7666   7663     1  180.0000771  0.4184000  2
   4942   7672   7666   7663     1  0.0000000  1.6024720  3
   4945   7686   7680   7677     1  180.0000771  0.4184000  2
   4945   7686   7680   7677     1  0.0000000  1.6024720  3
   4950   4951   4963   4975     1  0.0000000  0.6508444  3
   4950   4954   4966   4972     1  0.0000000  0.6508444  3
   4950   4957   4960   4969     1  0.0000000  0.6508444  3
   4951   4950   4954   4966     1  0.0000000  0.6508444  3
   4951   4950   4957   4960     1  0.0000000  0.6508444  3
   4951   4963   4975   7714     1  0.0000000  0.6508444  3
   4954   4950   4951   4963     1  0.0000000  0.6508444  3
   4954   4950   4957   4960     1  0.0000000  0.6508444  3
   4954   4966   4972   7700     1  0.0000000  0.6508444  3
   4957   4950   4951   4963     1  0.0000000  0.6508444  3
   4957   4950   4954   4966     1  0.0000000  0.6508444  3
   4957   4960   4969   4978     1  0.0000000  0.6508444  3
   4963   4975   7714   7708     1  180.0000771  0.4184000  2
   4963   4975   7714   7708     1  0.0000000  1.6024720  3
   4966   4972   7700   7694     1  180.0000771  0.4184000  2
   4966   4972   7700   7694     1  0.0000000  1.6024720  3
   4972   7700   7694   7691     1  180.0000771  0.4184000  2
   4972   7700   7694   7691     1  0.0000000  1.6024720  3
   4975   7714   7708   7705     1  180.0000771  0.4184000  2
   4975   7714   7708   7705     1  0.0000000  1.6024720  3
   4980   4981   4993   5005     1  0.0000000  0.6508444  3
   4980   4984   4996   5002     1  0.0000000  0.6508444  3
   4980   4987   4990   4999     1  0.0000000  0.6508444  3
   4981   4980   4984   4996     1  0.0000000  0.6508444  3
   4981   4980   4987   4990     1  0.0000000  0.6508444  3
   4981   4993   5005   7742     1  0.0000000  0.6508444  3
   4984   4980   4981   4993     1  0.0000000  0.6508444  3
   4984   4980   4987   4990     1  0.0000000  0.6508444  3
   4984   4996   5002   7728     1  0.0000000  0.6508444  3
   4987   4980   4981   4993     1  0.0000000  0.6508444  3
   4987   4980   4984   4996     1  0.0000000  0.6508444  3
   4987   4990   4999   5008     1  0.0000000  0.6508444  3
   4993   5005   7742   7736     1  180.0000771  0.4184000  2
   4993   5005   7742   7736     1  0.0000000  1.6024720  3
   4996   5002   7728   7722     1  180.0000771  0.4184000  2
   4996   5002   7728   7722     1  0.0000000  1.6024720  3
   5002   7728   7722   7719     1  180.0000771  0.4184000  2
   5002   7728   7722   7719     1  0.0000000  1.6024720  3
   5005   7742   7736   7733     1  180.0000771  0.4184000  2
   5005   7742   7736   7733     1  0.0000000  1.6024720  3
   5010   5011   5023   5035     1  0.0000000  0.6508444  3
   5010   5014   5026   5032     1  0.0000000  0.6508444  3
   5010   5017   5020   5029     1  0.0000000  0.6508444  3
   5011   5010   5014   5026     1  0.0000000  0.6508444  3
   5011   5010   5017   5020     1  0.0000000  0.6508444  3
   5011   5023   5035   7770     1  0.0000000  0.6508444  3
   5014   5010   5011   5023     1  0.0000000  0.6508444  3
   5014   5010   5017   5020     1  0.0000000  0.6508444  3
   5014   5026   5032   7756     1  0.0000000  0.6508444  3
   5017   5010   5011   5023     1  0.0000000  0.6508444  3
   5017   5010   5014   5026     1  0.0000000  0.6508444  3
   5017   5020   5029   5038     1  0.0000000  0.6508444  3
   5023   5035   7770   7764     1  180.0000771  0.4184000  2
   5023   5035   7770   7764     1  0.0000000  1.6024720  3
   5026   5032   7756   7750     1  180.0000771  0.4184000  2
   5026   5032   7756   7750     1  0.0000000  1.6024720  3
   5032   7756   7750   7747     1  180.0000771  0.4184000  2
   5032   7756   7750   7747     1  0.0000000  1.6024720  3
   5035   7770   7764   7761     1  180.0000771  0.4184000  2
   5035   7770   7764   7761     1  0.0000000  1.6024720  3
   5040   5041   5053   5065     1  0.0000000  0.6508444  3
   5040   5044   5056   5062     1  0.0000000  0.6508444  3
   5040   5047   5050   5059     1  0.0000000  0.6508444  3
   5041   5040   5044   5056     1  0.0000000  0.6508444  3
   5041   5040   5047   5050     1  0.0000000  0.6508444  3
   5041   5053   5065   7798     1  0.0000000  0.6508444  3
   5044   5040   5041   5053     1  0.0000000  0.6508444  3
   5044   5040   5047   5050     1  0.0000000  0.6508444  3
   5044   5056   5062   7784     1  0.0000000  0.6508444  3
   5047   5040   5041   5053     1  0.0000000  0.6508444  3
   5047   5040   5044   5056     1  0.0000000  0.6508444  3
   5047   5050   5059   5068     1  0.0000000  0.6508444  3
   5053   5065   7798   7792     1  180.0000771  0.4184000  2
   5053   5065   7798   7792     1  0.0000000  1.6024720  3
   5056   5062   7784   7778     1  180.0000771  0.4184000  2
   5056   5062   7784   7778     1  0.0000000  1.6024720  3
   5062   7784   7778   7775     1  180.0000771  0.4184000  2
   5062   7784   7778   7775     1  0.0000000  1.6024720  3
   5065   7798   7792   7789     1  180.0000771  0.4184000  2
   5065   7798   7792   7789     1  0.0000000  1.6024720  3
   5070   5071   5083   5095     1  0.0000000  0.6508444  3
   5070   5074   5086   5092     1  0.0000000  0.6508444  3
   5070   5077   5080   5089     1  0.0000000  0.6508444  3
   5071   5070   5074   5086     1  0.0000000  0.6508444  3
   5071   5070   5077   5080     1  0.0000000  0.6508444  3
   5071   5083   5095   7826     1  0.0000000  0.6508444  3
   5074   5070   5071   5083     1  0.0000000  0.6508444  3
   5074   5070   5077   5080     1  0.0000000  0.6508444  3
   5074   5086   5092   7812     1  0.0000000  0.6508444  3
   5077   5070   5071   5083     1  0.0000000  0.6508444  3
   5077   5070   5074   5086     1  0.0000000  0.6508444  3
   5077   5080   5089   5098     1  0.0000000  0.6508444  3
   5083   5095   7826   7820     1  180.0000771  0.4184000  2
   5083   5095   7826   7820     1  0.0000000  1.6024720  3
   5086   5092   7812   7806     1  180.0000771  0.4184000  2
   5086   5092   7812   7806     1  0.0000000  1.6024720  3
   5092   7812   7806   7803     1  180.0000771  0.4184000  2
   5092   7812   7806   7803     1  0.0000000  1.6024720  3
   5095   7826   7820   7817     1  180.0000771  0.4184000  2
   5095   7826   7820   7817     1  0.0000000  1.6024720  3
   5100   5101   5113   5125     1  0.0000000  0.6508444  3
   5100   5104   5116   5122     1  0.0000000  0.6508444  3
   5100   5107   5110   5119     1  0.0000000  0.6508444  3
   5101   5100   5104   5116     1  0.0000000  0.6508444  3
   5101   5100   5107   5110     1  0.0000000  0.6508444  3
   5101   5113   5125   7854     1  0.0000000  0.6508444  3
   5104   5100   5101   5113     1  0.0000000  0.6508444  3
   5104   5100   5107   5110     1  0.0000000  0.6508444  3
   5104   5116   5122   7840     1  0.0000000  0.6508444  3
   5107   5100   5101   5113     1  0.0000000  0.6508444  3
   5107   5100   5104   5116     1  0.0000000  0.6508444  3
   5107   5110   5119   5128     1  0.0000000  0.6508444  3
   5113   5125   7854   7848     1  180.0000771  0.4184000  2
   5113   5125   7854   7848     1  0.0000000  1.6024720  3
   5116   5122   7840   7834     1  180.0000771  0.4184000  2
   5116   5122   7840   7834     1  0.0000000  1.6024720  3
   5122   7840   7834   7831     1  180.0000771  0.4184000  2
   5122   7840   7834   7831     1  0.0000000  1.6024720  3
   5125   7854   7848   7845     1  180.0000771  0.4184000  2
   5125   7854   7848   7845     1  0.0000000  1.6024720  3
   5130   5131   5143   5155     1  0.0000000  0.6508444  3
   5130   5134   5146   5152     1  0.0000000  0.6508444  3
   5130   5137   5140   5149     1  0.0000000  0.6508444  3
   5131   5130   5134   5146     1  0.0000000  0.6508444  3
   5131   5130   5137   5140     1  0.0000000  0.6508444  3
   5131   5143   5155   7882     1  0.0000000  0.6508444  3
   5134   5130   5131   5143     1  0.0000000  0.6508444  3
   5134   5130   5137   5140     1  0.0000000  0.6508444  3
   5134   5146   5152   7868     1  0.0000000  0.6508444  3
   5137   5130   5131   5143     1  0.0000000  0.6508444  3
   5137   5130   5134   5146     1  0.0000000  0.6508444  3
   5137   5140   5149   5158     1  0.0000000  0.6508444  3
   5143   5155   7882   7876     1  180.0000771  0.4184000  2
   5143   5155   7882   7876     1  0.0000000  1.6024720  3
   5146   5152   7868   7862     1  180.0000771  0.4184000  2
   5146   5152   7868   7862     1  0.0000000  1.6024720  3
   5152   7868   7862   7859     1  180.0000771  0.4184000  2
   5152   7868   7862   7859     1  0.0000000  1.6024720  3
   5155   7882   7876   7873     1  180.0000771  0.4184000  2
   5155   7882   7876   7873     1  0.0000000  1.6024720  3
   5160   5161   5173   5185     1  0.0000000  0.6508444  3
   5160   5164   5176   5182     1  0.0000000  0.6508444  3
   5160   5167   5170   5179     1  0.0000000  0.6508444  3
   5161   5160   5164   5176     1  0.0000000  0.6508444  3
   5161   5160   5167   5170     1  0.0000000  0.6508444  3
   5161   5173   5185   7910     1  0.0000000  0.6508444  3
   5164   5160   5161   5173     1  0.0000000  0.6508444  3
   5164   5160   5167   5170     1  0.0000000  0.6508444  3
   5164   5176   5182   7896     1  0.0000000  0.6508444  3
   5167   5160   5161   5173     1  0.0000000  0.6508444  3
   5167   5160   5164   5176     1  0.0000000  0.6508444  3
   5167   5170   5179   5188     1  0.0000000  0.6508444  3
   5173   5185   7910   7904     1  180.0000771  0.4184000  2
   5173   5185   7910   7904     1  0.0000000  1.6024720  3
   5176   5182   7896   7890     1  180.0000771  0.4184000  2
   5176   5182   7896   7890     1  0.0000000  1.6024720  3
   5182   7896   7890   7887     1  180.0000771  0.4184000  2
   5182   7896   7890   7887     1  0.0000000  1.6024720  3
   5185   7910   7904   7901     1  180.0000771  0.4184000  2
   5185   7910   7904   7901     1  0.0000000  1.6024720  3
   5190   5191   5203   5215     1  0.0000000  0.6508444  3
   5190   5194   5206   5212     1  0.0000000  0.6508444  3
   5190   5197   5200   5209     1  0.0000000  0.6508444  3
   5191   5190   5194   5206     1  0.0000000  0.6508444  3
   5191   5190   5197   5200     1  0.0000000  0.6508444  3
   5191   5203   5215   7938     1  0.0000000  0.6508444  3
   5194   5190   5191   5203     1  0.0000000  0.6508444  3
   5194   5190   5197   5200     1  0.0000000  0.6508444  3
   5194   5206   5212   7924     1  0.0000000  0.6508444  3
   5197   5190   5191   5203     1  0.0000000  0.6508444  3
   5197   5190   5194   5206     1  0.0000000  0.6508444  3
   5197   5200   5209   5218     1  0.0000000  0.6508444  3
   5203   5215   7938   7932     1  180.0000771  0.4184000  2
   5203   5215   7938   7932     1  0.0000000  1.6024720  3
   5206   5212   7924   7918     1  180.0000771  0.4184000  2
   5206   5212   7924   7918     1  0.0000000  1.6024720  3
   5212   7924   7918   7915     1  180.0000771  0.4184000  2
   5212   7924   7918   7915     1  0.0000000  1.6024720  3
   5215   7938   7932   7929     1  180.0000771  0.4184000  2
   5215   7938   7932   7929     1  0.0000000  1.6024720  3
   5220   5221   5233   5245     1  0.0000000  0.6508444  3
   5220   5224   5236   5242     1  0.0000000  0.6508444  3
   5220   5227   5230   5239     1  0.0000000  0.6508444  3
   5221   5220   5224   5236     1  0.0000000  0.6508444  3
   5221   5220   5227   5230     1  0.0000000  0.6508444  3
   5221   5233   5245   7966     1  0.0000000  0.6508444  3
   5224   5220   5221   5233     1  0.0000000  0.6508444  3
   5224   5220   5227   5230     1  0.0000000  0.6508444  3
   5224   5236   5242   7952     1  0.0000000  0.6508444  3
   5227   5220   5221   5233     1  0.0000000  0.6508444  3
   5227   5220   5224   5236     1  0.0000000  0.6508444  3
   5227   5230   5239   5248     1  0.0000000  0.6508444  3
   5233   5245   7966   7960     1  180.0000771  0.4184000  2
   5233   5245   7966   7960     1  0.0000000  1.6024720  3
   5236   5242   7952   7946     1  180.0000771  0.4184000  2
   5236   5242   7952   7946     1  0.0000000  1.6024720  3
   5242   7952   7946   7943     1  180.0000771  0.4184000  2
   5242   7952   7946   7943     1  0.0000000  1.6024720  3
   5245   7966   7960   7957     1  180.0000771  0.4184000  2
   5245   7966   7960   7957     1  0.0000000  1.6024720  3
   5250   5251   5263   5275     1  0.0000000  0.6508444  3
   5250   5254   5266   5272     1  0.0000000  0.6508444  3
   5250   5257   5260   5269     1  0.0000000  0.6508444  3
   5251   5250   5254   5266     1  0.0000000  0.6508444  3
   5251   5250   5257   5260     1  0.0000000  0.6508444  3
   5251   5263   5275   7994     1  0.0000000  0.6508444  3
   5254   5250   5251   5263     1  0.0000000  0.6508444  3
   5254   5250   5257   5260     1  0.0000000  0.6508444  3
   5254   5266   5272   7980     1  0.0000000  0.6508444  3
   5257   5250   5251   5263     1  0.0000000  0.6508444  3
   5257   5250   5254   5266     1  0.0000000  0.6508444  3
   5257   5260   5269   5278     1  0.0000000  0.6508444  3
   5263   5275   7994   7988     1  180.0000771  0.4184000  2
   5263   5275   7994   7988     1  0.0000000  1.6024720  3
   5266   5272   7980   7974     1  180.0000771  0.4184000  2
   5266   5272   7980   7974     1  0.0000000  1.6024720  3
   5272   7980   7974   7971     1  180.0000771  0.4184000  2
   5272   7980   7974   7971     1  0.0000000  1.6024720  3
   5275   7994   7988   7985     1  180.0000771  0.4184000  2
   5275   7994   7988   7985     1  0.0000000  1.6024720  3
   5280   5281   5293   5305     1  0.0000000  0.6508444  3
   5280   5284   5296   5302     1  0.0000000  0.6508444  3
   5280   5287   5290   5299     1  0.0000000  0.6508444  3
   5281   5280   5284   5296     1  0.0000000  0.6508444  3
   5281   5280   5287   5290     1  0.0000000  0.6508444  3
   5281   5293   5305   8022     1  0.0000000  0.6508444  3
   5284   5280   5281   5293     1  0.0000000  0.6508444  3
   5284   5280   5287   5290     1  0.0000000  0.6508444  3
   5284   5296   5302   8008     1  0.0000000  0.6508444  3
   5287   5280   5281   5293     1  0.0000000  0.6508444  3
   5287   5280   5284   5296     1  0.0000000  0.6508444  3
   5287   5290   5299   5308     1  0.0000000  0.6508444  3
   5293   5305   8022   8016     1  180.0000771  0.4184000  2
   5293   5305   8022   8016     1  0.0000000  1.6024720  3
   5296   5302   8008   8002     1  180.0000771  0.4184000  2
   5296   5302   8008   8002     1  0.0000000  1.6024720  3
   5302   8008   8002   7999     1  180.0000771  0.4184000  2
   5302   8008   8002   7999     1  0.0000000  1.6024720  3
   5305   8022   8016   8013     1  180.0000771  0.4184000  2
   5305   8022   8016   8013     1  0.0000000  1.6024720  3
   5310   5311   5323   5335     1  0.0000000  0.6508444  3
   5310   5314   5326   5332     1  0.0000000  0.6508444  3
   5310   5317   5320   5329     1  0.0000000  0.6508444  3
   5311   5310   5314   5326     1  0.0000000  0.6508444  3
   5311   5310   5317   5320     1  0.0000000  0.6508444  3
   5311   5323   5335   8050     1  0.0000000  0.6508444  3
   5314   5310   5311   5323     1  0.0000000  0.6508444  3
   5314   5310   5317   5320     1  0.0000000  0.6508444  3
   5314   5326   5332   8036     1  0.0000000  0.6508444  3
   5317   5310   5311   5323     1  0.0000000  0.6508444  3
   5317   5310   5314   5326     1  0.0000000  0.6508444  3
   5317   5320   5329   5338     1  0.0000000  0.6508444  3
   5323   5335   8050   8044     1  180.0000771  0.4184000  2
   5323   5335   8050   8044     1  0.0000000  1.6024720  3
   5326   5332   8036   8030     1  180.0000771  0.4184000  2
   5326   5332   8036   8030     1  0.0000000  1.6024720  3
   5332   8036   8030   8027     1  180.0000771  0.4184000  2
   5332   8036   8030   8027     1  0.0000000  1.6024720  3
   5335   8050   8044   8041     1  180.0000771  0.4184000  2
   5335   8050   8044   8041     1  0.0000000  1.6024720  3
   5340   5341   5353   5365     1  0.0000000  0.6508444  3
   5340   5344   5356   5362     1  0.0000000  0.6508444  3
   5340   5347   5350   5359     1  0.0000000  0.6508444  3
   5341   5340   5344   5356     1  0.0000000  0.6508444  3
   5341   5340   5347   5350     1  0.0000000  0.6508444  3
   5341   5353   5365   8078     1  0.0000000  0.6508444  3
   5344   5340   5341   5353     1  0.0000000  0.6508444  3
   5344   5340   5347   5350     1  0.0000000  0.6508444  3
   5344   5356   5362   8064     1  0.0000000  0.6508444  3
   5347   5340   5341   5353     1  0.0000000  0.6508444  3
   5347   5340   5344   5356     1  0.0000000  0.6508444  3
   5347   5350   5359   5368     1  0.0000000  0.6508444  3
   5353   5365   8078   8072     1  180.0000771  0.4184000  2
   5353   5365   8078   8072     1  0.0000000  1.6024720  3
   5356   5362   8064   8058     1  180.0000771  0.4184000  2
   5356   5362   8064   8058     1  0.0000000  1.6024720  3
   5362   8064   8058   8055     1  180.0000771  0.4184000  2
   5362   8064   8058   8055     1  0.0000000  1.6024720  3
   5365   8078   8072   8069     1  180.0000771  0.4184000  2
   5365   8078   8072   8069     1  0.0000000  1.6024720  3
   5370   5371   5383   5395     1  0.0000000  0.6508444  3
   5370   5374   5386   5392     1  0.0000000  0.6508444  3
   5370   5377   5380   5389     1  0.0000000  0.6508444  3
   5371   5370   5374   5386     1  0.0000000  0.6508444  3
   5371   5370   5377   5380     1  0.0000000  0.6508444  3
   5371   5383   5395   8106     1  0.0000000  0.6508444  3
   5374   5370   5371   5383     1  0.0000000  0.6508444  3
   5374   5370   5377   5380     1  0.0000000  0.6508444  3
   5374   5386   5392   8092     1  0.0000000  0.6508444  3
   5377   5370   5371   5383     1  0.0000000  0.6508444  3
   5377   5370   5374   5386     1  0.0000000  0.6508444  3
   5377   5380   5389   5398     1  0.0000000  0.6508444  3
   5383   5395   8106   8100     1  180.0000771  0.4184000  2
   5383   5395   8106   8100     1  0.0000000  1.6024720  3
   5386   5392   8092   8086     1  180.0000771  0.4184000  2
   5386   5392   8092   8086     1  0.0000000  1.6024720  3
   5392   8092   8086   8083     1  180.0000771  0.4184000  2
   5392   8092   8086   8083     1  0.0000000  1.6024720  3
   5395   8106   8100   8097     1  180.0000771  0.4184000  2
   5395   8106   8100   8097     1  0.0000000  1.6024720  3
   5400   5401   5413   5425     1  0.0000000  0.6508444  3
   5400   5404   5416   5422     1  0.0000000  0.6508444  3
   5400   5407   5410   5419     1  0.0000000  0.6508444  3
   5401   5400   5404   5416     1  0.0000000  0.6508444  3
   5401   5400   5407   5410     1  0.0000000  0.6508444  3
   5401   5413   5425   8134     1  0.0000000  0.6508444  3
   5404   5400   5401   5413     1  0.0000000  0.6508444  3
   5404   5400   5407   5410     1  0.0000000  0.6508444  3
   5404   5416   5422   8120     1  0.0000000  0.6508444  3
   5407   5400   5401   5413     1  0.0000000  0.6508444  3
   5407   5400   5404   5416     1  0.0000000  0.6508444  3
   5407   5410   5419   5428     1  0.0000000  0.6508444  3
   5413   5425   8134   8128     1  180.0000771  0.4184000  2
   5413   5425   8134   8128     1  0.0000000  1.6024720  3
   5416   5422   8120   8114     1  180.0000771  0.4184000  2
   5416   5422   8120   8114     1  0.0000000  1.6024720  3
   5422   8120   8114   8111     1  180.0000771  0.4184000  2
   5422   8120   8114   8111     1  0.0000000  1.6024720  3
   5425   8134   8128   8125     1  180.0000771  0.4184000  2
   5425   8134   8128   8125     1  0.0000000  1.6024720  3
   5430   5431   5443   5455     1  0.0000000  0.6508444  3
   5430   5434   5446   5452     1  0.0000000  0.6508444  3
   5430   5437   5440   5449     1  0.0000000  0.6508444  3
   5431   5430   5434   5446     1  0.0000000  0.6508444  3
   5431   5430   5437   5440     1  0.0000000  0.6508444  3
   5431   5443   5455   8162     1  0.0000000  0.6508444  3
   5434   5430   5431   5443     1  0.0000000  0.6508444  3
   5434   5430   5437   5440     1  0.0000000  0.6508444  3
   5434   5446   5452   8148     1  0.0000000  0.6508444  3
   5437   5430   5431   5443     1  0.0000000  0.6508444  3
   5437   5430   5434   5446     1  0.0000000  0.6508444  3
   5437   5440   5449   5458     1  0.0000000  0.6508444  3
   5443   5455   8162   8156     1  180.0000771  0.4184000  2
   5443   5455   8162   8156     1  0.0000000  1.6024720  3
   5446   5452   8148   8142     1  180.0000771  0.4184000  2
   5446   5452   8148   8142     1  0.0000000  1.6024720  3
   5452   8148   8142   8139     1  180.0000771  0.4184000  2
   5452   8148   8142   8139     1  0.0000000  1.6024720  3
   5455   8162   8156   8153     1  180.0000771  0.4184000  2
   5455   8162   8156   8153     1  0.0000000  1.6024720  3
   5460   5461   5473   5485     1  0.0000000  0.6508444  3
   5460   5464   5476   5482     1  0.0000000  0.6508444  3
   5460   5467   5470   5479     1  0.0000000  0.6508444  3
   5461   5460   5464   5476     1  0.0000000  0.6508444  3
   5461   5460   5467   5470     1  0.0000000  0.6508444  3
   5461   5473   5485   8190     1  0.0000000  0.6508444  3
   5464   5460   5461   5473     1  0.0000000  0.6508444  3
   5464   5460   5467   5470     1  0.0000000  0.6508444  3
   5464   5476   5482   8176     1  0.0000000  0.6508444  3
   5467   5460   5461   5473     1  0.0000000  0.6508444  3
   5467   5460   5464   5476     1  0.0000000  0.6508444  3
   5467   5470   5479   5488     1  0.0000000  0.6508444  3
   5473   5485   8190   8184     1  180.0000771  0.4184000  2
   5473   5485   8190   8184     1  0.0000000  1.6024720  3
   5476   5482   8176   8170     1  180.0000771  0.4184000  2
   5476   5482   8176   8170     1  0.0000000  1.6024720  3
   5482   8176   8170   8167     1  180.0000771  0.4184000  2
   5482   8176   8170   8167     1  0.0000000  1.6024720  3
   5485   8190   8184   8181     1  180.0000771  0.4184000  2
   5485   8190   8184   8181     1  0.0000000  1.6024720  3
   5490   5491   5503   5515     1  0.0000000  0.6508444  3
   5490   5494   5506   5512     1  0.0000000  0.6508444  3
   5490   5497   5500   5509     1  0.0000000  0.6508444  3
   5491   5490   5494   5506     1  0.0000000  0.6508444  3
   5491   5490   5497   5500     1  0.0000000  0.6508444  3
   5491   5503   5515   8218     1  0.0000000  0.6508444  3
   5494   5490   5491   5503     1  0.0000000  0.6508444  3
   5494   5490   5497   5500     1  0.0000000  0.6508444  3
   5494   5506   5512   8204     1  0.0000000  0.6508444  3
   5497   5490   5491   5503     1  0.0000000  0.6508444  3
   5497   5490   5494   5506     1  0.0000000  0.6508444  3
   5497   5500   5509   5518     1  0.0000000  0.6508444  3
   5503   5515   8218   8212     1  180.0000771  0.4184000  2
   5503   5515   8218   8212     1  0.0000000  1.6024720  3
   5506   5512   8204   8198     1  180.0000771  0.4184000  2
   5506   5512   8204   8198     1  0.0000000  1.6024720  3
   5512   8204   8198   8195     1  180.0000771  0.4184000  2
   5512   8204   8198   8195     1  0.0000000  1.6024720  3
   5515   8218   8212   8209     1  180.0000771  0.4184000  2
   5515   8218   8212   8209     1  0.0000000  1.6024720  3
   5520   5521   5533   5545     1  0.0000000  0.6508444  3
   5520   5524   5536   5542     1  0.0000000  0.6508444  3
   5520   5527   5530   5539     1  0.0000000  0.6508444  3
   5521   5520   5524   5536     1  0.0000000  0.6508444  3
   5521   5520   5527   5530     1  0.0000000  0.6508444  3
   5521   5533   5545   8246     1  0.0000000  0.6508444  3
   5524   5520   5521   5533     1  0.0000000  0.6508444  3
   5524   5520   5527   5530     1  0.0000000  0.6508444  3
   5524   5536   5542   8232     1  0.0000000  0.6508444  3
   5527   5520   5521   5533     1  0.0000000  0.6508444  3
   5527   5520   5524   5536     1  0.0000000  0.6508444  3
   5527   5530   5539   5548     1  0.0000000  0.6508444  3
   5533   5545   8246   8240     1  180.0000771  0.4184000  2
   5533   5545   8246   8240     1  0.0000000  1.6024720  3
   5536   5542   8232   8226     1  180.0000771  0.4184000  2
   5536   5542   8232   8226     1  0.0000000  1.6024720  3
   5542   8232   8226   8223     1  180.0000771  0.4184000  2
   5542   8232   8226   8223     1  0.0000000  1.6024720  3
   5545   8246   8240   8237     1  180.0000771  0.4184000  2
   5545   8246   8240   8237     1  0.0000000  1.6024720  3
   5550   5551   5563   5575     1  0.0000000  0.6508444  3
   5550   5554   5566   5572     1  0.0000000  0.6508444  3
   5550   5557   5560   5569     1  0.0000000  0.6508444  3
   5551   5550   5554   5566     1  0.0000000  0.6508444  3
   5551   5550   5557   5560     1  0.0000000  0.6508444  3
   5551   5563   5575   8274     1  0.0000000  0.6508444  3
   5554   5550   5551   5563     1  0.0000000  0.6508444  3
   5554   5550   5557   5560     1  0.0000000  0.6508444  3
   5554   5566   5572   8260     1  0.0000000  0.6508444  3
   5557   5550   5551   5563     1  0.0000000  0.6508444  3
   5557   5550   5554   5566     1  0.0000000  0.6508444  3
   5557   5560   5569   5578     1  0.0000000  0.6508444  3
   5563   5575   8274   8268     1  180.0000771  0.4184000  2
   5563   5575   8274   8268     1  0.0000000  1.6024720  3
   5566   5572   8260   8254     1  180.0000771  0.4184000  2
   5566   5572   8260   8254     1  0.0000000  1.6024720  3
   5572   8260   8254   8251     1  180.0000771  0.4184000  2
   5572   8260   8254   8251     1  0.0000000  1.6024720  3
   5575   8274   8268   8265     1  180.0000771  0.4184000  2
   5575   8274   8268   8265     1  0.0000000  1.6024720  3
   5580   5581   5593   5605     1  0.0000000  0.6508444  3
   5580   5584   5596   5602     1  0.0000000  0.6508444  3
   5580   5587   5590   5599     1  0.0000000  0.6508444  3
   5581   5580   5584   5596     1  0.0000000  0.6508444  3
   5581   5580   5587   5590     1  0.0000000  0.6508444  3
   5581   5593   5605   8302     1  0.0000000  0.6508444  3
   5584   5580   5581   5593     1  0.0000000  0.6508444  3
   5584   5580   5587   5590     1  0.0000000  0.6508444  3
   5584   5596   5602   8288     1  0.0000000  0.6508444  3
   5587   5580   5581   5593     1  0.0000000  0.6508444  3
   5587   5580   5584   5596     1  0.0000000  0.6508444  3
   5587   5590   5599   5608     1  0.0000000  0.6508444  3
   5593   5605   8302   8296     1  180.0000771  0.4184000  2
   5593   5605   8302   8296     1  0.0000000  1.6024720  3
   5596   5602   8288   8282     1  180.0000771  0.4184000  2
   5596   5602   8288   8282     1  0.0000000  1.6024720  3
   5602   8288   8282   8279     1  180.0000771  0.4184000  2
   5602   8288   8282   8279     1  0.0000000  1.6024720  3
   5605   8302   8296   8293     1  180.0000771  0.4184000  2
   5605   8302   8296   8293     1  0.0000000  1.6024720  3
   5610   5611   5623   5635     1  0.0000000  0.6508444  3
   5610   5614   5626   5632     1  0.0000000  0.6508444  3
   5610   5617   5620   5629     1  0.0000000  0.6508444  3
   5611   5610   5614   5626     1  0.0000000  0.6508444  3
   5611   5610   5617   5620     1  0.0000000  0.6508444  3
   5611   5623   5635   8330     1  0.0000000  0.6508444  3
   5614   5610   5611   5623     1  0.0000000  0.6508444  3
   5614   5610   5617   5620     1  0.0000000  0.6508444  3
   5614   5626   5632   8316     1  0.0000000  0.6508444  3
   5617   5610   5611   5623     1  0.0000000  0.6508444  3
   5617   5610   5614   5626     1  0.0000000  0.6508444  3
   5617   5620   5629   5638     1  0.0000000  0.6508444  3
   5623   5635   8330   8324     1  180.0000771  0.4184000  2
   5623   5635   8330   8324     1  0.0000000  1.6024720  3
   5626   5632   8316   8310     1  180.0000771  0.4184000  2
   5626   5632   8316   8310     1  0.0000000  1.6024720  3
   5632   8316   8310   8307     1  180.0000771  0.4184000  2
   5632   8316   8310   8307     1  0.0000000  1.6024720  3
   5635   8330   8324   8321     1  180.0000771  0.4184000  2
   5635   8330   8324   8321     1  0.0000000  1.6024720  3
   5640   5641   5653   5665     1  0.0000000  0.6508444  3
   5640   5644   5656   5662     1  0.0000000  0.6508444  3
   5640   5647   5650   5659     1  0.0000000  0.6508444  3
   5641   5640   5644   5656     1  0.0000000  0.6508444  3
   5641   5640   5647   5650     1  0.0000000  0.6508444  3
   5641   5653   5665   8358     1  0.0000000  0.6508444  3
   5644   5640   5641   5653     1  0.0000000  0.6508444  3
   5644   5640   5647   5650     1  0.0000000  0.6508444  3
   5644   5656   5662   8344     1  0.0000000  0.6508444  3
   5647   5640   5641   5653     1  0.0000000  0.6508444  3
   5647   5640   5644   5656     1  0.0000000  0.6508444  3
   5647   5650   5659   5668     1  0.0000000  0.6508444  3
   5653   5665   8358   8352     1  180.0000771  0.4184000  2
   5653   5665   8358   8352     1  0.0000000  1.6024720  3
   5656   5662   8344   8338     1  180.0000771  0.4184000  2
   5656   5662   8344   8338     1  0.0000000  1.6024720  3
   5662   8344   8338   8335     1  180.0000771  0.4184000  2
   5662   8344   8338   8335     1  0.0000000  1.6024720  3
   5665   8358   8352   8349     1  180.0000771  0.4184000  2
   5665   8358   8352   8349     1  0.0000000  1.6024720  3
   5670   5671   5683   5695     1  0.0000000  0.6508444  3
   5670   5674   5686   5692     1  0.0000000  0.6508444  3
   5670   5677   5680   5689     1  0.0000000  0.6508444  3
   5671   5670   5674   5686     1  0.0000000  0.6508444  3
   5671   5670   5677   5680     1  0.0000000  0.6508444  3
   5671   5683   5695   8386     1  0.0000000  0.6508444  3
   5674   5670   5671   5683     1  0.0000000  0.6508444  3
   5674   5670   5677   5680     1  0.0000000  0.6508444  3
   5674   5686   5692   8372     1  0.0000000  0.6508444  3
   5677   5670   5671   5683     1  0.0000000  0.6508444  3
   5677   5670   5674   5686     1  0.0000000  0.6508444  3
   5677   5680   5689   5698     1  0.0000000  0.6508444  3
   5683   5695   8386   8380     1  180.0000771  0.4184000  2
   5683   5695   8386   8380     1  0.0000000  1.6024720  3
   5686   5692   8372   8366     1  180.0000771  0.4184000  2
   5686   5692   8372   8366     1  0.0000000  1.6024720  3
   5692   8372   8366   8363     1  180.0000771  0.4184000  2
   5692   8372   8366   8363     1  0.0000000  1.6024720  3
   5695   8386   8380   8377     1  180.0000771  0.4184000  2
   5695   8386   8380   8377     1  0.0000000  1.6024720  3
   5700   5703   5706   5712     1  0.0000000  0.6508444  3
   5706   5703   5700   5709     1  0.0000000  0.6508444  3
   5714   5717   5720   5726     1  0.0000000  0.6508444  3
   5720   5717   5714   5723     1  0.0000000  0.6508444  3
   5728   5731   5734   5740     1  0.0000000  0.6508444  3
   5734   5731   5728   5737     1  0.0000000  0.6508444  3
   5742   5745   5748   5754     1  0.0000000  0.6508444  3
   5748   5745   5742   5751     1  0.0000000  0.6508444  3
   5756   5759   5762   5768     1  0.0000000  0.6508444  3
   5762   5759   5756   5765     1  0.0000000  0.6508444  3
   5770   5773   5776   5782     1  0.0000000  0.6508444  3
   5776   5773   5770   5779     1  0.0000000  0.6508444  3
   5784   5787   5790   5796     1  0.0000000  0.6508444  3
   5790   5787   5784   5793     1  0.0000000  0.6508444  3
   5798   5801   5804   5810     1  0.0000000  0.6508444  3
   5804   5801   5798   5807     1  0.0000000  0.6508444  3
   5812   5815   5818   5824     1  0.0000000  0.6508444  3
   5818   5815   5812   5821     1  0.0000000  0.6508444  3
   5826   5829   5832   5838     1  0.0000000  0.6508444  3
   5832   5829   5826   5835     1  0.0000000  0.6508444  3
   5840   5843   5846   5852     1  0.0000000  0.6508444  3
   5846   5843   5840   5849     1  0.0000000  0.6508444  3
   5854   5857   5860   5866     1  0.0000000  0.6508444  3
   5860   5857   5854   5863     1  0.0000000  0.6508444  3
   5868   5871   5874   5880     1  0.0000000  0.6508444  3
   5874   5871   5868   5877     1  0.0000000  0.6508444  3
   5882   5885   5888   5894     1  0.0000000  0.6508444  3
   5888   5885   5882   5891     1  0.0000000  0.6508444  3
   5896   5899   5902   5908     1  0.0000000  0.6508444  3
   5902   5899   5896   5905     1  0.0000000  0.6508444  3
   5910   5913   5916   5922     1  0.0000000  0.6508444  3
   5916   5913   5910   5919     1  0.0000000  0.6508444  3
   5924   5927   5930   5936     1  0.0000000  0.6508444  3
   5930   5927   5924   5933     1  0.0000000  0.6508444  3
   5938   5941   5944   5950     1  0.0000000  0.6508444  3
   5944   5941   5938   5947     1  0.0000000  0.6508444  3
   5952   5955   5958   5964     1  0.0000000  0.6508444  3
   5958   5955   5952   5961     1  0.0000000  0.6508444  3
   5966   5969   5972   5978     1  0.0000000  0.6508444  3
   5972   5969   5966   5975     1  0.0000000  0.6508444  3
   5980   5983   5986   5992     1  0.0000000  0.6508444  3
   5986   5983   5980   5989     1  0.0000000  0.6508444  3
   5994   5997   6000   6006     1  0.0000000  0.6508444  3
   6000   5997   5994   6003     1  0.0000000  0.6508444  3
   6008   6011   6014   6020     1  0.0000000  0.6508444  3
   6014   6011   6008   6017     1  0.0000000  0.6508444  3
   6022   6025   6028   6034     1  0.0000000  0.6508444  3
   6028   6025   6022   6031     1  0.0000000  0.6508444  3
   6036   6039   6042   6048     1  0.0000000  0.6508444  3
   6042   6039   6036   6045     1  0.0000000  0.6508444  3
   6050   6053   6056   6062     1  0.0000000  0.6508444  3
   6056   6053   6050   6059     1  0.0000000  0.6508444  3
   6064   6067   6070   6076     1  0.0000000  0.6508444  3
   6070   6067   6064   6073     1  0.0000000  0.6508444  3
   6078   6081   6084   6090     1  0.0000000  0.6508444  3
   6084   6081   6078   6087     1  0.0000000  0.6508444  3
   6092   6095   6098   6104     1  0.0000000  0.6508444  3
   6098   6095   6092   6101     1  0.0000000  0.6508444  3
   6106   6109   6112   6118     1  0.0000000  0.6508444  3
   6112   6109   6106   6115     1  0.0000000  0.6508444  3
   6120   6123   6126   6132     1  0.0000000  0.6508444  3
   6126   6123   6120   6129     1  0.0000000  0.6508444  3
   6134   6137   6140   6146     1  0.0000000  0.6508444  3
   6140   6137   6134   6143     1  0.0000000  0.6508444  3
   6148   6151   6154   6160     1  0.0000000  0.6508444  3
   6154   6151   6148   6157     1  0.0000000  0.6508444  3
   6162   6165   6168   6174     1  0.0000000  0.6508444  3
   6168   6165   6162   6171     1  0.0000000  0.6508444  3
   6176   6179   6182   6188     1  0.0000000  0.6508444  3
   6182   6179   6176   6185     1  0.0000000  0.6508444  3
   6190   6193   6196   6202     1  0.0000000  0.6508444  3
   6196   6193   6190   6199     1  0.0000000  0.6508444  3
   6204   6207   6210   6216     1  0.0000000  0.6508444  3
   6210   6207   6204   6213     1  0.0000000  0.6508444  3
   6218   6221   6224   6230     1  0.0000000  0.6508444  3
   6224   6221   6218   6227     1  0.0000000  0.6508444  3
   6232   6235   6238   6244     1  0.0000000  0.6508444  3
   6238   6235   6232   6241     1  0.0000000  0.6508444  3
   6246   6249   6252   6258     1  0.0000000  0.6508444  3
   6252   6249   6246   6255     1  0.0000000  0.6508444  3
   6260   6263   6266   6272     1  0.0000000  0.6508444  3
   6266   6263   6260   6269     1  0.0000000  0.6508444  3
   6274   6277   6280   6286     1  0.0000000  0.6508444  3
   6280   6277   6274   6283     1  0.0000000  0.6508444  3
   6288   6291   6294   6300     1  0.0000000  0.6508444  3
   6294   6291   6288   6297     1  0.0000000  0.6508444  3
   6302   6305   6308   6314     1  0.0000000  0.6508444  3
   6308   6305   6302   6311     1  0.0000000  0.6508444  3
   6316   6319   6322   6328     1  0.0000000  0.6508444  3
   6322   6319   6316   6325     1  0.0000000  0.6508444  3
   6330   6333   6336   6342     1  0.0000000  0.6508444  3
   6336   6333   6330   6339     1  0.0000000  0.6508444  3
   6344   6347   6350   6356     1  0.0000000  0.6508444  3
   6350   6347   6344   6353     1  0.0000000  0.6508444  3
   6358   6361   6364   6370     1  0.0000000  0.6508444  3
   6364   6361   6358   6367     1  0.0000000  0.6508444  3
   6372   6375   6378   6384     1  0.0000000  0.6508444  3
   6378   6375   6372   6381     1  0.0000000  0.6508444  3
   6386   6389   6392   6398     1  0.0000000  0.6508444  3
   6392   6389   6386   6395     1  0.0000000  0.6508444  3
   6400   6403   6406   6412     1  0.0000000  0.6508444  3
   6406   6403   6400   6409     1  0.0000000  0.6508444  3
   6414   6417   6420   6426     1  0.0000000  0.6508444  3
   6420   6417   6414   6423     1  0.0000000  0.6508444  3
   6428   6431   6434   6440     1  0.0000000  0.6508444  3
   6434   6431   6428   6437     1  0.0000000  0.6508444  3
   6442   6445   6448   6454     1  0.0000000  0.6508444  3
   6448   6445   6442   6451     1  0.0000000  0.6508444  3
   6456   6459   6462   6468     1  0.0000000  0.6508444  3
   6462   6459   6456   6465     1  0.0000000  0.6508444  3
   6470   6473   6476   6482     1  0.0000000  0.6508444  3
   6476   6473   6470   6479     1  0.0000000  0.6508444  3
   6484   6487   6490   6496     1  0.0000000  0.6508444  3
   6490   6487   6484   6493     1  0.0000000  0.6508444  3
   6498   6501   6504   6510     1  0.0000000  0.6508444  3
   6504   6501   6498   6507     1  0.0000000  0.6508444  3
   6512   6515   6518   6524     1  0.0000000  0.6508444  3
   6518   6515   6512   6521     1  0.0000000  0.6508444  3
   6526   6529   6532   6538     1  0.0000000  0.6508444  3
   6532   6529   6526   6535     1  0.0000000  0.6508444  3
   6540   6543   6546   6552     1  0.0000000  0.6508444  3
   6546   6543   6540   6549     1  0.0000000  0.6508444  3
   6554   6557   6560   6566     1  0.0000000  0.6508444  3
   6560   6557   6554   6563     1  0.0000000  0.6508444  3
   6568   6571   6574   6580     1  0.0000000  0.6508444  3
   6574   6571   6568   6577     1  0.0000000  0.6508444  3
   6582   6585   6588   6594     1  0.0000000  0.6508444  3
   6588   6585   6582   6591     1  0.0000000  0.6508444  3
   6596   6599   6602   6608     1  0.0000000  0.6508444  3
   6602   6599   6596   6605     1  0.0000000  0.6508444  3
   6610   6613   6616   6622     1  0.0000000  0.6508444  3
   6616   6613   6610   6619     1  0.0000000  0.6508444  3
   6624   6627   6630   6636     1  0.0000000  0.6508444  3
   6630   6627   6624   6633     1  0.0000000  0.6508444  3
   6638   6641   6644   6650     1  0.0000000  0.6508444  3
   6644   6641   6638   6647     1  0.0000000  0.6508444  3
   6652   6655   6658   6664     1  0.0000000  0.6508444  3
   6658   6655   6652   6661     1  0.0000000  0.6508444  3
   6666   6669   6672   6678     1  0.0000000  0.6508444  3
   6672   6669   6666   6675     1  0.0000000  0.6508444  3
   6680   6683   6686   6692     1  0.0000000  0.6508444  3
   6686   6683   6680   6689     1  0.0000000  0.6508444  3
   6694   6697   6700   6706     1  0.0000000  0.6508444  3
   6700   6697   6694   6703     1  0.0000000  0.6508444  3
   6708   6711   6714   6720     1  0.0000000  0.6508444  3
   6714   6711   6708   6717     1  0.0000000  0.6508444  3
   6722   6725   6728   6734     1  0.0000000  0.6508444  3
   6728   6725   6722   6731     1  0.0000000  0.6508444  3
   6736   6739   6742   6748     1  0.0000000  0.6508444  3
   6742   6739   6736   6745     1  0.0000000  0.6508444  3
   6750   6753   6756   6762     1  0.0000000  0.6508444  3
   6756   6753   6750   6759     1  0.0000000  0.6508444  3
   6764   6767   6770   6776     1  0.0000000  0.6508444  3
   6770   6767   6764   6773     1  0.0000000  0.6508444  3
   6778   6781   6784   6790     1  0.0000000  0.6508444  3
   6784   6781   6778   6787     1  0.0000000  0.6508444  3
   6792   6795   6798   6804     1  0.0000000  0.6508444  3
   6798   6795   6792   6801     1  0.0000000  0.6508444  3
   6806   6809   6812   6818     1  0.0000000  0.6508444  3
   6812   6809   6806   6815     1  0.0000000  0.6508444  3
   6820   6823   6826   6832     1  0.0000000  0.6508444  3
   6826   6823   6820   6829     1  0.0000000  0.6508444  3
   6834   6837   6840   6846     1  0.0000000  0.6508444  3
   6840   6837   6834   6843     1  0.0000000  0.6508444  3
   6848   6851   6854   6860     1  0.0000000  0.6508444  3
   6854   6851   6848   6857     1  0.0000000  0.6508444  3
   6862   6865   6868   6874     1  0.0000000  0.6508444  3
   6868   6865   6862   6871     1  0.0000000  0.6508444  3
   6876   6879   6882   6888     1  0.0000000  0.6508444  3
   6882   6879   6876   6885     1  0.0000000  0.6508444  3
   6890   6893   6896   6902     1  0.0000000  0.6508444  3
   6896   6893   6890   6899     1  0.0000000  0.6508444  3
   6904   6907   6910   6916     1  0.0000000  0.6508444  3
   6910   6907   6904   6913     1  0.0000000  0.6508444  3
   6918   6921   6924   6930     1  0.0000000  0.6508444  3
   6924   6921   6918   6927     1  0.0000000  0.6508444  3
   6932   6935   6938   6944     1  0.0000000  0.6508444  3
   6938   6935   6932   6941     1  0.0000000  0.6508444  3
   6946   6949   6952   6958     1  0.0000000  0.6508444  3
   6952   6949   6946   6955     1  0.0000000  0.6508444  3
   6960   6963   6966   6972     1  0.0000000  0.6508444  3
   6966   6963   6960   6969     1  0.0000000  0.6508444  3
   6974   6977   6980   6986     1  0.0000000  0.6508444  3
   6980   6977   6974   6983     1  0.0000000  0.6508444  3
   6988   6991   6994   7000     1  0.0000000  0.6508444  3
   6994   6991   6988   6997     1  0.0000000  0.6508444  3
   7002   7005   7008   7014     1  0.0000000  0.6508444  3
   7008   7005   7002   7011     1  0.0000000  0.6508444  3
   7016   7019   7022   7028     1  0.0000000  0.6508444  3
   7022   7019   7016   7025     1  0.0000000  0.6508444  3
   7030   7033   7036   7042     1  0.0000000  0.6508444  3
   7036   7033   7030   7039     1  0.0000000  0.6508444  3
   7044   7047   7050   7056     1  0.0000000  0.6508444  3
   7050   7047   7044   7053     1  0.0000000  0.6508444  3
   7058   7061   7064   7070     1  0.0000000  0.6508444  3
   7064   7061   7058   7067     1  0.0000000  0.6508444  3
   7072   7075   7078   7084     1  0.0000000  0.6508444  3
   7078   7075   7072   7081     1  0.0000000  0.6508444  3
   7086   7089   7092   7098     1  0.0000000  0.6508444  3
   7092   7089   7086   7095     1  0.0000000  0.6508444  3
   7100   7103   7106   7112     1  0.0000000  0.6508444  3
   7106   7103   7100   7109     1  0.0000000  0.6508444  3
   7114   7117   7120   7126     1  0.0000000  0.6508444  3
   7120   7117   7114   7123     1  0.0000000  0.6508444  3
   7128   7131   7134   7140     1  0.0000000  0.6508444  3
   7134   7131   7128   7137     1  0.0000000  0.6508444  3
   7142   7145   7148   7154     1  0.0000000  0.6508444  3
   7148   7145   7142   7151     1  0.0000000  0.6508444  3
   7156   7159   7162   7168     1  0.0000000  0.6508444  3
   7162   7159   7156   7165     1  0.0000000  0.6508444  3
   7170   7173   7176   7182     1  0.0000000  0.6508444  3
   7176   7173   7170   7179     1  0.0000000  0.6508444  3
   7184   7187   7190   7196     1  0.0000000  0.6508444  3
   7190   7187   7184   7193     1  0.0000000  0.6508444  3
   7198   7201   7204   7210     1  0.0000000  0.6508444  3
   7204   7201   7198   7207     1  0.0000000  0.6508444  3
   7212   7215   7218   7224     1  0.0000000  0.6508444  3
   7218   7215   7212   7221     1  0.0000000  0.6508444  3
   7226   7229   7232   7238     1  0.0000000  0.6508444  3
   7232   7229   7226   7235     1  0.0000000  0.6508444  3
   7240   7243   7246   7252     1  0.0000000  0.6508444  3
   7246   7243   7240   7249     1  0.0000000  0.6508444  3
   7254   7257   7260   7266     1  0.0000000  0.6508444  3
   7260   7257   7254   7263     1  0.0000000  0.6508444  3
   7268   7271   7274   7280     1  0.0000000  0.6508444  3
   7274   7271   7268   7277     1  0.0000000  0.6508444  3
   7282   7285   7288   7294     1  0.0000000  0.6508444  3
   7288   7285   7282   7291     1  0.0000000  0.6508444  3
   7296   7299   7302   7308     1  0.0000000  0.6508444  3
   7302   7299   7296   7305     1  0.0000000  0.6508444  3
   7310   7313   7316   7322     1  0.0000000  0.6508444  3
   7316   7313   7310   7319     1  0.0000000  0.6508444  3
   7324   7327   7330   7336     1  0.0000000  0.6508444  3
   7330   7327   7324   7333     1  0.0000000  0.6508444  3
   7338   7341   7344   7350     1  0.0000000  0.6508444  3
   7344   7341   7338   7347     1  0.0000000  0.6508444  3
   7352   7355   7358   7364     1  0.0000000  0.6508444  3
   7358   7355   7352   7361     1  0.0000000  0.6508444  3
   7366   7369   7372   7378     1  0.0000000  0.6508444  3
   7372   7369   7366   7375     1  0.0000000  0.6508444  3
   7380   7383   7386   7392     1  0.0000000  0.6508444  3
   7386   7383   7380   7389     1  0.0000000  0.6508444  3
   7394   7397   7400   7406     1  0.0000000  0.6508444  3
   7400   7397   7394   7403     1  0.0000000  0.6508444  3
   7408   7411   7414   7420     1  0.0000000  0.6508444  3
   7414   7411   7408   7417     1  0.0000000  0.6508444  3
   7422   7425   7428   7434     1  0.0000000  0.6508444  3
   7428   7425   7422   7431     1  0.0000000  0.6508444  3
   7436   7439   7442   7448     1  0.0000000  0.6508444  3
   7442   7439   7436   7445     1  0.0000000  0.6508444  3
   7450   7453   7456   7462     1  0.0000000  0.6508444  3
   7456   7453   7450   7459     1  0.0000000  0.6508444  3
   7464   7467   7470   7476     1  0.0000000  0.6508444  3
   7470   7467   7464   7473     1  0.0000000  0.6508444  3
   7478   7481   7484   7490     1  0.0000000  0.6508444  3
   7484   7481   7478   7487     1  0.0000000  0.6508444  3
   7492   7495   7498   7504     1  0.0000000  0.6508444  3
   7498   7495   7492   7501     1  0.0000000  0.6508444  3
   7506   7509   7512   7518     1  0.0000000  0.6508444  3
   7512   7509   7506   7515     1  0.0000000  0.6508444  3
   7520   7523   7526   7532     1  0.0000000  0.6508444  3
   7526   7523   7520   7529     1  0.0000000  0.6508444  3
   7534   7537   7540   7546     1  0.0000000  0.6508444  3
   7540   7537   7534   7543     1  0.0000000  0.6508444  3
   7548   7551   7554   7560     1  0.0000000  0.6508444  3
   7554   7551   7548   7557     1  0.0000000  0.6508444  3
   7562   7565   7568   7574     1  0.0000000  0.6508444  3
   7568   7565   7562   7571     1  0.0000000  0.6508444  3
   7576   7579   7582   7588     1  0.0000000  0.6508444  3
   7582   7579   7576   7585     1  0.0000000  0.6508444  3
   7590   7593   7596   7602     1  0.0000000  0.6508444  3
   7596   7593   7590   7599     1  0.0000000  0.6508444  3
   7604   7607   7610   7616     1  0.0000000  0.6508444  3
   7610   7607   7604   7613     1  0.0000000  0.6508444  3
   7618   7621   7624   7630     1  0.0000000  0.6508444  3
   7624   7621   7618   7627     1  0.0000000  0.6508444  3
   7632   7635   7638   7644     1  0.0000000  0.6508444  3
   7638   7635   7632   7641     1  0.0000000  0.6508444  3
   7646   7649   7652   7658     1  0.0000000  0.6508444  3
   7652   7649   7646   7655     1  0.0000000  0.6508444  3
   7660   7663   7666   7672     1  0.0000000  0.6508444  3
   7666   7663   7660   7669     1  0.0000000  0.6508444  3
   7674   7677   7680   7686     1  0.0000000  0.6508444  3
   7680   7677   7674   7683     1  0.0000000  0.6508444  3
   7688   7691   7694   7700     1  0.0000000  0.6508444  3
   7694   7691   7688   7697     1  0.0000000  0.6508444  3
   7702   7705   7708   7714     1  0.0000000  0.6508444  3
   7708   7705   7702   7711     1  0.0000000  0.6508444  3
   7716   7719   7722   7728     1  0.0000000  0.6508444  3
   7722   7719   7716   7725     1  0.0000000  0.6508444  3
   7730   7733   7736   7742     1  0.0000000  0.6508444  3
   7736   7733   7730   7739     1  0.0000000  0.6508444  3
   7744   7747   7750   7756     1  0.0000000  0.6508444  3
   7750   7747   7744   7753     1  0.0000000  0.6508444  3
   7758   7761   7764   7770     1  0.0000000  0.6508444  3
   7764   7761   7758   7767     1  0.0000000  0.6508444  3
   7772   7775   7778   7784     1  0.0000000  0.6508444  3
   7778   7775   7772   7781     1  0.0000000  0.6508444  3
   7786   7789   7792   7798     1  0.0000000  0.6508444  3
   7792   7789   7786   7795     1  0.0000000  0.6508444  3
   7800   7803   7806   7812     1  0.0000000  0.6508444  3
   7806   7803   7800   7809     1  0.0000000  0.6508444  3
   7814   7817   7820   7826     1  0.0000000  0.6508444  3
   7820   7817   7814   7823     1  0.0000000  0.6508444  3
   7828   7831   7834   7840     1  0.0000000  0.6508444  3
   7834   7831   7828   7837     1  0.0000000  0.6508444  3
   7842   7845   7848   7854     1  0.0000000  0.6508444  3
   7848   7845   7842   7851     1  0.0000000  0.6508444  3
   7856   7859   7862   7868     1  0.0000000  0.6508444  3
   7862   7859   7856   7865     1  0.0000000  0.6508444  3
   7870   7873   7876   7882     1  0.0000000  0.6508444  3
   7876   7873   7870   7879     1  0.0000000  0.6508444  3
   7884   7887   7890   7896     1  0.0000000  0.6508444  3
   7890   7887   7884   7893     1  0.0000000  0.6508444  3
   7898   7901   7904   7910     1  0.0000000  0.6508444  3
   7904   7901   7898   7907     1  0.0000000  0.6508444  3
   7912   7915   7918   7924     1  0.0000000  0.6508444  3
   7918   7915   7912   7921     1  0.0000000  0.6508444  3
   7926   7929   7932   7938     1  0.0000000  0.6508444  3
   7932   7929   7926   7935     1  0.0000000  0.6508444  3
   7940   7943   7946   7952     1  0.0000000  0.6508444  3
   7946   7943   7940   7949     1  0.0000000  0.6508444  3
   7954   7957   7960   7966     1  0.0000000  0.6508444  3
   7960   7957   7954   7963     1  0.0000000  0.6508444  3
   7968   7971   7974   7980     1  0.0000000  0.6508444  3
   7974   7971   7968   7977     1  0.0000000  0.6508444  3
   7982   7985   7988   7994     1  0.0000000  0.6508444  3
   7988   7985   7982   7991     1  0.0000000  0.6508444  3
   7996   7999   8002   8008     1  0.0000000  0.6508444  3
   8002   7999   7996   8005     1  0.0000000  0.6508444  3
   8010   8013   8016   8022     1  0.0000000  0.6508444  3
   8016   8013   8010   8019     1  0.0000000  0.6508444  3
   8024   8027   8030   8036     1  0.0000000  0.6508444  3
   8030   8027   8024   8033     1  0.0000000  0.6508444  3
   8038   8041   8044   8050     1  0.0000000  0.6508444  3
   8044   8041   8038   8047     1  0.0000000  0.6508444  3
   8052   8055   8058   8064     1  0.0000000  0.6508444  3
   8058   8055   8052   8061     1  0.0000000  0.6508444  3
   8066   8069   8072   8078     1  0.0000000  0.6508444  3
   8072   8069   8066   8075     1  0.0000000  0.6508444  3
   8080   8083   8086   8092     1  0.0000000  0.6508444  3
   8086   8083   8080   8089     1  0.0000000  0.6508444  3
   8094   8097   8100   8106     1  0.0000000  0.6508444  3
   8100   8097   8094   8103     1  0.0000000  0.6508444  3
   8108   8111   8114   8120     1  0.0000000  0.6508444  3
   8114   8111   8108   8117     1  0.0000000  0.6508444  3
   8122   8125   8128   8134     1  0.0000000  0.6508444  3
   8128   8125   8122   8131     1  0.0000000  0.6508444  3
   8136   8139   8142   8148     1  0.0000000  0.6508444  3
   8142   8139   8136   8145     1  0.0000000  0.6508444  3
   8150   8153   8156   8162     1  0.0000000  0.6508444  3
   8156   8153   8150   8159     1  0.0000000  0.6508444  3
   8164   8167   8170   8176     1  0.0000000  0.6508444  3
   8170   8167   8164   8173     1  0.0000000  0.6508444  3
   8178   8181   8184   8190     1  0.0000000  0.6508444  3
   8184   8181   8178   8187     1  0.0000000  0.6508444  3
   8192   8195   8198   8204     1  0.0000000  0.6508444  3
   8198   8195   8192   8201     1  0.0000000  0.6508444  3
   8206   8209   8212   8218     1  0.0000000  0.6508444  3
   8212   8209   8206   8215     1  0.0000000  0.6508444  3
   8220   8223   8226   8232     1  0.0000000  0.6508444  3
   8226   8223   8220   8229     1  0.0000000  0.6508444  3
   8234   8237   8240   8246     1  0.0000000  0.6508444  3
   8240   8237   8234   8243     1  0.0000000  0.6508444  3
   8248   8251   8254   8260     1  0.0000000  0.6508444  3
   8254   8251   8248   8257     1  0.0000000  0.6508444  3
   8262   8265   8268   8274     1  0.0000000  0.6508444  3
   8268   8265   8262   8271     1  0.0000000  0.6508444  3
   8276   8279   8282   8288     1  0.0000000  0.6508444  3
   8282   8279   8276   8285     1  0.0000000  0.6508444  3
   8290   8293   8296   8302     1  0.0000000  0.6508444  3
   8296   8293   8290   8299     1  0.0000000  0.6508444  3
   8304   8307   8310   8316     1  0.0000000  0.6508444  3
   8310   8307   8304   8313     1  0.0000000  0.6508444  3
   8318   8321   8324   8330     1  0.0000000  0.6508444  3
   8324   8321   8318   8327     1  0.0000000  0.6508444  3
   8332   8335   8338   8344     1  0.0000000  0.6508444  3
   8338   8335   8332   8341     1  0.0000000  0.6508444  3
   8346   8349   8352   8358     1  0.0000000  0.6508444  3
   8352   8349   8346   8355     1  0.0000000  0.6508444  3
   8360   8363   8366   8372     1  0.0000000  0.6508444  3
   8366   8363   8360   8369     1  0.0000000  0.6508444  3
   8374   8377   8380   8386     1  0.0000000  0.6508444  3
   8380   8377   8374   8383     1  0.0000000  0.6508444  3
      1      2     14     15     1  0.0000000  0.6508444  3
      1      2     14     16     1  0.0000000  0.6508444  3
      1      5     17     18     1  0.0000000  0.6508444  3
      1      5     17     19     1  0.0000000  0.6508444  3
      1      8     11     12     1  0.0000000  0.6508444  3
      1      8     11     13     1  0.0000000  0.6508444  3
      2      1      5      6     1  0.0000000  0.6508444  3
      2      1      5      7     1  0.0000000  0.6508444  3
      2      1      8      9     1  0.0000000  0.6508444  3
      2      1      8     10     1  0.0000000  0.6508444  3
      2     14     26     27     1  0.0000000  0.6508444  3
      2     14     26     28     1  0.0000000  0.6508444  3
      5      1      2      3     1  0.0000000  0.6508444  3
      8      1      2      3     1  0.0000000  0.6508444  3
     29      1      2      3     1  0.0000000  0.6508444  3
      3      2     14     26     1  0.0000000  0.6508444  3
      3      2     14     15     1  0.0000000  0.6508444  3
      3      2     14     16     1  0.0000000  0.6508444  3
      5      1      2      4     1  0.0000000  0.6508444  3
      8      1      2      4     1  0.0000000  0.6508444  3
     29      1      2      4     1  0.0000000  0.6508444  3
      4      2     14     26     1  0.0000000  0.6508444  3
      4      2     14     15     1  0.0000000  0.6508444  3
      4      2     14     16     1  0.0000000  0.6508444  3
      5      1      8      9     1  0.0000000  0.6508444  3
      5      1      8     10     1  0.0000000  0.6508444  3
      5     17     20     21     1  0.0000000  0.6508444  3
      5     17     20     22     1  0.0000000  0.6508444  3
      8      1      5      6     1  0.0000000  0.6508444  3
     29      1      5      6     1  0.0000000  0.6508444  3
      6      5     17     20     1  0.0000000  0.6508444  3
      6      5     17     18     1  0.0000000  0.6508444  3
      6      5     17     19     1  0.0000000  0.6508444  3
      8      1      5      7     1  0.0000000  0.6508444  3
     29      1      5      7     1  0.0000000  0.6508444  3
      7      5     17     20     1  0.0000000  0.6508444  3
      7      5     17     18     1  0.0000000  0.6508444  3
      7      5     17     19     1  0.0000000  0.6508444  3
      8     11     23     24     1  0.0000000  0.6508444  3
      8     11     23     25     1  0.0000000  0.6508444  3
     29      1      8      9     1  0.0000000  0.6508444  3
      9      8     11     23     1  0.0000000  0.6508444  3
      9      8     11     12     1  0.0000000  0.6508444  3
      9      8     11     13     1  0.0000000  0.6508444  3
     29      1      8     10     1  0.0000000  0.6508444  3
     10      8     11     23     1  0.0000000  0.6508444  3
     10      8     11     12     1  0.0000000  0.6508444  3
     10      8     11     13     1  0.0000000  0.6508444  3
     29      1      8     11     1  0.0000000  0.6508444  3
     12     11     23     88     1  0.0000000  1.0460000  1
     12     11     23     88     1  0.0000000  0.0000000  3
     12     11     23     24     1  0.0000000  0.6508444  3
     12     11     23     25     1  0.0000000  0.6508444  3
     13     11     23     88     1  0.0000000  1.0460000  1
     13     11     23     88     1  0.0000000  0.0000000  3
     13     11     23     24     1  0.0000000  0.6508444  3
     13     11     23     25     1  0.0000000  0.6508444  3
     29      1      2     14     1  0.0000000  0.6508444  3
     15     14     26    118     1  0.0000000  1.0460000  1
     15     14     26    118     1  0.0000000  0.0000000  3
     15     14     26     27     1  0.0000000  0.6508444  3
     15     14     26     28     1  0.0000000  0.6508444  3
     16     14     26    118     1  0.0000000  1.0460000  1
     16     14     26    118     1  0.0000000  0.0000000  3
     16     14     26     27     1  0.0000000  0.6508444  3
     16     14     26     28     1  0.0000000  0.6508444  3
     29      1      5     17     1  0.0000000  0.6508444  3
     18     17     20     58     1  0.0000000  1.0460000  1
     18     17     20     58     1  0.0000000  0.0000000  3
     18     17     20     21     1  0.0000000  0.6508444  3
     18     17     20     22     1  0.0000000  0.6508444  3
     19     17     20     58     1  0.0000000  1.0460000  1
     19     17     20     58     1  0.0000000  0.0000000  3
     19     17     20     21     1  0.0000000  0.6508444  3
     19     17     20     22     1  0.0000000  0.6508444  3
     20     58     49     50     1  0.0000000  1.6038667  3
     20     58     49     51     1  0.0000000  1.6038667  3
     21     20     58     49     1  0.0000000  1.6038667  3
     22     20     58     49     1  0.0000000  1.6038667  3
     23     88     79     80     1  0.0000000  1.6038667  3
     23     88     79     81     1  0.0000000  1.6038667  3
     24     23     88     79     1  0.0000000  1.6038667  3
     25     23     88     79     1  0.0000000  1.6038667  3
     26    118    109    110     1  0.0000000  1.6038667  3
     26    118    109    111     1  0.0000000  1.6038667  3
     27     26    118    109     1  0.0000000  1.6038667  3
     28     26    118    109     1  0.0000000  1.6038667  3
     30     31     43     44     1  0.0000000  0.6508444  3
     30     31     43     45     1  0.0000000  0.6508444  3
     30     34     46     47     1  0.0000000  0.6508444  3
     30     34     46     48     1  0.0000000  0.6508444  3
     30     37     40     41     1  0.0000000  0.6508444  3
     30     37     40     42     1  0.0000000  0.6508444  3
     31     30     34     35     1  0.0000000  0.6508444  3
     31     30     34     36     1  0.0000000  0.6508444  3
     31     30     37     38     1  0.0000000  0.6508444  3
     31     30     37     39     1  0.0000000  0.6508444  3
     31     43     55     56     1  0.0000000  0.6508444  3
     31     43     55     57     1  0.0000000  0.6508444  3
     32     31     30     34     1  0.0000000  0.6508444  3
     32     31     30     37     1  0.0000000  0.6508444  3
     32     31     30     59     1  0.0000000  0.6508444  3
     32     31     43     55     1  0.0000000  0.6508444  3
     32     31     43     44     1  0.0000000  0.6508444  3
     32     31     43     45     1  0.0000000  0.6508444  3
     33     31     30     34     1  0.0000000  0.6508444  3
     33     31     30     37     1  0.0000000  0.6508444  3
     33     31     30     59     1  0.0000000  0.6508444  3
     33     31     43     55     1  0.0000000  0.6508444  3
     33     31     43     44     1  0.0000000  0.6508444  3
     33     31     43     45     1  0.0000000  0.6508444  3
     34     30     37     38     1  0.0000000  0.6508444  3
     34     30     37     39     1  0.0000000  0.6508444  3
     34     46     52     53     1  0.0000000  0.6508444  3
     34     46     52     54     1  0.0000000  0.6508444  3
     35     34     30     37     1  0.0000000  0.6508444  3
     35     34     30     59     1  0.0000000  0.6508444  3
     35     34     46     52     1  0.0000000  0.6508444  3
     35     34     46     47     1  0.0000000  0.6508444  3
     35     34     46     48     1  0.0000000  0.6508444  3
     36     34     30     37     1  0.0000000  0.6508444  3
     36     34     30     59     1  0.0000000  0.6508444  3
     36     34     46     52     1  0.0000000  0.6508444  3
     36     34     46     47     1  0.0000000  0.6508444  3
     36     34     46     48     1  0.0000000  0.6508444  3
     37     40     49     50     1  0.0000000  0.6508444  3
     37     40     49     51     1  0.0000000  0.6508444  3
     38     37     30     59     1  0.0000000  0.6508444  3
     38     37     40     49     1  0.0000000  0.6508444  3
     38     37     40     41     1  0.0000000  0.6508444  3
     38     37     40     42     1  0.0000000  0.6508444  3
     39     37     30     59     1  0.0000000  0.6508444  3
     39     37     40     49     1  0.0000000  0.6508444  3
     39     37     40     41     1  0.0000000  0.6508444  3
     39     37     40     42     1  0.0000000  0.6508444  3
     40     37     30     59     1  0.0000000  0.6508444  3
     41     40     49     58     1  0.0000000  1.0460000  1
     41     40     49     58     1  0.0000000  0.0000000  3
     41     40     49     50     1  0.0000000  0.6508444  3
     41     40     49     51     1  0.0000000  0.6508444  3
     42     40     49     58     1  0.0000000  1.0460000  1
     42     40     49     58     1  0.0000000  0.0000000  3
     42     40     49     50     1  0.0000000  0.6508444  3
     42     40     49     51     1  0.0000000  0.6508444  3
     43     31     30     59     1  0.0000000  0.6508444  3
     44     43     55    178     1  0.0000000  1.0460000  1
     44     43     55    178     1  0.0000000  0.0000000  3
     44     43     55     56     1  0.0000000  0.6508444  3
     44     43     55     57     1  0.0000000  0.6508444  3
     45     43     55    178     1  0.0000000  1.0460000  1
     45     43     55    178     1  0.0000000  0.0000000  3
     45     43     55     56     1  0.0000000  0.6508444  3
     45     43     55     57     1  0.0000000  0.6508444  3
     46     34     30     59     1  0.0000000  0.6508444  3
     47     46     52    148     1  0.0000000  1.0460000  1
     47     46     52    148     1  0.0000000  0.0000000  3
     47     46     52     53     1  0.0000000  0.6508444  3
     47     46     52     54     1  0.0000000  0.6508444  3
     48     46     52    148     1  0.0000000  1.0460000  1
     48     46     52    148     1  0.0000000  0.0000000  3
     48     46     52     53     1  0.0000000  0.6508444  3
     48     46     52     54     1  0.0000000  0.6508444  3
     52    148    139    140     1  0.0000000  1.6038667  3
     52    148    139    141     1  0.0000000  1.6038667  3
     53     52    148    139     1  0.0000000  1.6038667  3
     54     52    148    139     1  0.0000000  1.6038667  3
     55    178    169    170     1  0.0000000  1.6038667  3
     55    178    169    171     1  0.0000000  1.6038667  3
     56     55    178    169     1  0.0000000  1.6038667  3
     57     55    178    169     1  0.0000000  1.6038667  3
     60     61     73     74     1  0.0000000  0.6508444  3
     60     61     73     75     1  0.0000000  0.6508444  3
     60     64     76     77     1  0.0000000  0.6508444  3
     60     64     76     78     1  0.0000000  0.6508444  3
     60     67     70     71     1  0.0000000  0.6508444  3
     60     67     70     72     1  0.0000000  0.6508444  3
     61     60     64     65     1  0.0000000  0.6508444  3
     61     60     64     66     1  0.0000000  0.6508444  3
     61     60     67     68     1  0.0000000  0.6508444  3
     61     60     67     69     1  0.0000000  0.6508444  3
     61     73     85     86     1  0.0000000  0.6508444  3
     61     73     85     87     1  0.0000000  0.6508444  3
     62     61     60     64     1  0.0000000  0.6508444  3
     62     61     60     67     1  0.0000000  0.6508444  3
     62     61     60     89     1  0.0000000  0.6508444  3
     62     61     73     85     1  0.0000000  0.6508444  3
     62     61     73     74     1  0.0000000  0.6508444  3
     62     61     73     75     1  0.0000000  0.6508444  3
     63     61     60     64     1  0.0000000  0.6508444  3
     63     61     60     67     1  0.0000000  0.6508444  3
     63     61     60     89     1  0.0000000  0.6508444  3
     63     61     73     85     1  0.0000000  0.6508444  3
     63     61     73     74     1  0.0000000  0.6508444  3
     63     61     73     75     1  0.0000000  0.6508444  3
     64     60     67     68     1  0.0000000  0.6508444  3
     64     60     67     69     1  0.0000000  0.6508444  3
     64     76     82     83     1  0.0000000  0.6508444  3
     64     76     82     84     1  0.0000000  0.6508444  3
     65     64     60     67     1  0.0000000  0.6508444  3
     65     64     60     89     1  0.0000000  0.6508444  3
     65     64     76     82     1  0.0000000  0.6508444  3
     65     64     76     77     1  0.0000000  0.6508444  3
     65     64     76     78     1  0.0000000  0.6508444  3
     66     64     60     67     1  0.0000000  0.6508444  3
     66     64     60     89     1  0.0000000  0.6508444  3
     66     64     76     82     1  0.0000000  0.6508444  3
     66     64     76     77     1  0.0000000  0.6508444  3
     66     64     76     78     1  0.0000000  0.6508444  3
     67     70     79     80     1  0.0000000  0.6508444  3
     67     70     79     81     1  0.0000000  0.6508444  3
     68     67     60     89     1  0.0000000  0.6508444  3
     68     67     70     79     1  0.0000000  0.6508444  3
     68     67     70     71     1  0.0000000  0.6508444  3
     68     67     70     72     1  0.0000000  0.6508444  3
     69     67     60     89     1  0.0000000  0.6508444  3
     69     67     70     79     1  0.0000000  0.6508444  3
     69     67     70     71     1  0.0000000  0.6508444  3
     69     67     70     72     1  0.0000000  0.6508444  3
     70     67     60     89     1  0.0000000  0.6508444  3
     71     70     79     88     1  0.0000000  1.0460000  1
     71     70     79     88     1  0.0000000  0.0000000  3
     71     70     79     80     1  0.0000000  0.6508444  3
     71     70     79     81     1  0.0000000  0.6508444  3
     72     70     79     88     1  0.0000000  1.0460000  1
     72     70     79     88     1  0.0000000  0.0000000  3
     72     70     79     80     1  0.0000000  0.6508444  3
     72     70     79     81     1  0.0000000  0.6508444  3
     73     61     60     89     1  0.0000000  0.6508444  3
     74     73     85    238     1  0.0000000  1.0460000  1
     74     73     85    238     1  0.0000000  0.0000000  3
     74     73     85     86     1  0.0000000  0.6508444  3
     74     73     85     87     1  0.0000000  0.6508444  3
     75     73     85    238     1  0.0000000  1.0460000  1
     75     73     85    238     1  0.0000000  0.0000000  3
     75     73     85     86     1  0.0000000  0.6508444  3
     75     73     85     87     1  0.0000000  0.6508444  3
     76     64     60     89     1  0.0000000  0.6508444  3
     77     76     82    208     1  0.0000000  1.0460000  1
     77     76     82    208     1  0.0000000  0.0000000  3
     77     76     82     83     1  0.0000000  0.6508444  3
     77     76     82     84     1  0.0000000  0.6508444  3
     78     76     82    208     1  0.0000000  1.0460000  1
     78     76     82    208     1  0.0000000  0.0000000  3
     78     76     82     83     1  0.0000000  0.6508444  3
     78     76     82     84     1  0.0000000  0.6508444  3
     82    208    199    200     1  0.0000000  1.6038667  3
     82    208    199    201     1  0.0000000  1.6038667  3
     83     82    208    199     1  0.0000000  1.6038667  3
     84     82    208    199     1  0.0000000  1.6038667  3
     85    238    229    230     1  0.0000000  1.6038667  3
     85    238    229    231     1  0.0000000  1.6038667  3
     86     85    238    229     1  0.0000000  1.6038667  3
     87     85    238    229     1  0.0000000  1.6038667  3
     90     91    103    104     1  0.0000000  0.6508444  3
     90     91    103    105     1  0.0000000  0.6508444  3
     90     94    106    107     1  0.0000000  0.6508444  3
     90     94    106    108     1  0.0000000  0.6508444  3
     90     97    100    101     1  0.0000000  0.6508444  3
     90     97    100    102     1  0.0000000  0.6508444  3
     91     90     94     95     1  0.0000000  0.6508444  3
     91     90     94     96     1  0.0000000  0.6508444  3
     91     90     97     98     1  0.0000000  0.6508444  3
     91     90     97     99     1  0.0000000  0.6508444  3
     91    103    115    116     1  0.0000000  0.6508444  3
     91    103    115    117     1  0.0000000  0.6508444  3
     92     91     90     94     1  0.0000000  0.6508444  3
     92     91     90     97     1  0.0000000  0.6508444  3
     92     91     90    119     1  0.0000000  0.6508444  3
     92     91    103    115     1  0.0000000  0.6508444  3
     92     91    103    104     1  0.0000000  0.6508444  3
     92     91    103    105     1  0.0000000  0.6508444  3
     93     91     90     94     1  0.0000000  0.6508444  3
     93     91     90     97     1  0.0000000  0.6508444  3
     93     91     90    119     1  0.0000000  0.6508444  3
     93     91    103    115     1  0.0000000  0.6508444  3
     93     91    103    104     1  0.0000000  0.6508444  3
     93     91    103    105     1  0.0000000  0.6508444  3
     94     90     97     98     1  0.0000000  0.6508444  3
     94     90     97     99     1  0.0000000  0.6508444  3
     94    106    112    113     1  0.0000000  0.6508444  3
     94    106    112    114     1  0.0000000  0.6508444  3
     95     94     90     97     1  0.0000000  0.6508444  3
     95     94     90    119     1  0.0000000  0.6508444  3
     95     94    106    112     1  0.0000000  0.6508444  3
     95     94    106    107     1  0.0000000  0.6508444  3
     95     94    106    108     1  0.0000000  0.6508444  3
     96     94     90     97     1  0.0000000  0.6508444  3
     96     94     90    119     1  0.0000000  0.6508444  3
     96     94    106    112     1  0.0000000  0.6508444  3
     96     94    106    107     1  0.0000000  0.6508444  3
     96     94    106    108     1  0.0000000  0.6508444  3
     97    100    109    110     1  0.0000000  0.6508444  3
     97    100    109    111     1  0.0000000  0.6508444  3
     98     97     90    119     1  0.0000000  0.6508444  3
     98     97    100    109     1  0.0000000  0.6508444  3
     98     97    100    101     1  0.0000000  0.6508444  3
     98     97    100    102     1  0.0000000  0.6508444  3
     99     97     90    119     1  0.0000000  0.6508444  3
     99     97    100    109     1  0.0000000  0.6508444  3
     99     97    100    101     1  0.0000000  0.6508444  3
     99     97    100    102     1  0.0000000  0.6508444  3
    100     97     90    119     1  0.0000000  0.6508444  3
    101    100    109    118     1  0.0000000  1.0460000  1
    101    100    109    118     1  0.0000000  0.0000000  3
    101    100    109    110     1  0.0000000  0.6508444  3
    101    100    109    111     1  0.0000000  0.6508444  3
    102    100    109    118     1  0.0000000  1.0460000  1
    102    100    109    118     1  0.0000000  0.0000000  3
    102    100    109    110     1  0.0000000  0.6508444  3
    102    100    109    111     1  0.0000000  0.6508444  3
    103     91     90    119     1  0.0000000  0.6508444  3
    104    103    115    298     1  0.0000000  1.0460000  1
    104    103    115    298     1  0.0000000  0.0000000  3
    104    103    115    116     1  0.0000000  0.6508444  3
    104    103    115    117     1  0.0000000  0.6508444  3
    105    103    115    298     1  0.0000000  1.0460000  1
    105    103    115    298     1  0.0000000  0.0000000  3
    105    103    115    116     1  0.0000000  0.6508444  3
    105    103    115    117     1  0.0000000  0.6508444  3
    106     94     90    119     1  0.0000000  0.6508444  3
    107    106    112    268     1  0.0000000  1.0460000  1
    107    106    112    268     1  0.0000000  0.0000000  3
    107    106    112    113     1  0.0000000  0.6508444  3
    107    106    112    114     1  0.0000000  0.6508444  3
    108    106    112    268     1  0.0000000  1.0460000  1
    108    106    112    268     1  0.0000000  0.0000000  3
    108    106    112    113     1  0.0000000  0.6508444  3
    108    106    112    114     1  0.0000000  0.6508444  3
    112    268    259    260     1  0.0000000  1.6038667  3
    112    268    259    261     1  0.0000000  1.6038667  3
    113    112    268    259     1  0.0000000  1.6038667  3
    114    112    268    259     1  0.0000000  1.6038667  3
    115    298    289    290     1  0.0000000  1.6038667  3
    115    298    289    291     1  0.0000000  1.6038667  3
    116    115    298    289     1  0.0000000  1.6038667  3
    117    115    298    289     1  0.0000000  1.6038667  3
    120    121    133    134     1  0.0000000  0.6508444  3
    120    121    133    135     1  0.0000000  0.6508444  3
    120    124    136    137     1  0.0000000  0.6508444  3
    120    124    136    138     1  0.0000000  0.6508444  3
    120    127    130    131     1  0.0000000  0.6508444  3
    120    127    130    132     1  0.0000000  0.6508444  3
    121    120    124    125     1  0.0000000  0.6508444  3
    121    120    124    126     1  0.0000000  0.6508444  3
    121    120    127    128     1  0.0000000  0.6508444  3
    121    120    127    129     1  0.0000000  0.6508444  3
    121    133    145    146     1  0.0000000  0.6508444  3
    121    133    145    147     1  0.0000000  0.6508444  3
    122    121    120    124     1  0.0000000  0.6508444  3
    122    121    120    127     1  0.0000000  0.6508444  3
    122    121    120    149     1  0.0000000  0.6508444  3
    122    121    133    145     1  0.0000000  0.6508444  3
    122    121    133    134     1  0.0000000  0.6508444  3
    122    121    133    135     1  0.0000000  0.6508444  3
    123    121    120    124     1  0.0000000  0.6508444  3
    123    121    120    127     1  0.0000000  0.6508444  3
    123    121    120    149     1  0.0000000  0.6508444  3
    123    121    133    145     1  0.0000000  0.6508444  3
    123    121    133    134     1  0.0000000  0.6508444  3
    123    121    133    135     1  0.0000000  0.6508444  3
    124    120    127    128     1  0.0000000  0.6508444  3
    124    120    127    129     1  0.0000000  0.6508444  3
    124    136    142    143     1  0.0000000  0.6508444  3
    124    136    142    144     1  0.0000000  0.6508444  3
    125    124    120    127     1  0.0000000  0.6508444  3
    125    124    120    149     1  0.0000000  0.6508444  3
    125    124    136    142     1  0.0000000  0.6508444  3
    125    124    136    137     1  0.0000000  0.6508444  3
    125    124    136    138     1  0.0000000  0.6508444  3
    126    124    120    127     1  0.0000000  0.6508444  3
    126    124    120    149     1  0.0000000  0.6508444  3
    126    124    136    142     1  0.0000000  0.6508444  3
    126    124    136    137     1  0.0000000  0.6508444  3
    126    124    136    138     1  0.0000000  0.6508444  3
    127    130    139    140     1  0.0000000  0.6508444  3
    127    130    139    141     1  0.0000000  0.6508444  3
    128    127    120    149     1  0.0000000  0.6508444  3
    128    127    130    139     1  0.0000000  0.6508444  3
    128    127    130    131     1  0.0000000  0.6508444  3
    128    127    130    132     1  0.0000000  0.6508444  3
    129    127    120    149     1  0.0000000  0.6508444  3
    129    127    130    139     1  0.0000000  0.6508444  3
    129    127    130    131     1  0.0000000  0.6508444  3
    129    127    130    132     1  0.0000000  0.6508444  3
    130    127    120    149     1  0.0000000  0.6508444  3
    131    130    139    148     1  0.0000000  1.0460000  1
    131    130    139    148     1  0.0000000  0.0000000  3
    131    130    139    140     1  0.0000000  0.6508444  3
    131    130    139    141     1  0.0000000  0.6508444  3
    132    130    139    148     1  0.0000000  1.0460000  1
    132    130    139    148     1  0.0000000  0.0000000  3
    132    130    139    140     1  0.0000000  0.6508444  3
    132    130    139    141     1  0.0000000  0.6508444  3
    133    121    120    149     1  0.0000000  0.6508444  3
    134    133    145    358     1  0.0000000  1.0460000  1
    134    133    145    358     1  0.0000000  0.0000000  3
    134    133    145    146     1  0.0000000  0.6508444  3
    134    133    145    147     1  0.0000000  0.6508444  3
    135    133    145    358     1  0.0000000  1.0460000  1
    135    133    145    358     1  0.0000000  0.0000000  3
    135    133    145    146     1  0.0000000  0.6508444  3
    135    133    145    147     1  0.0000000  0.6508444  3
    136    124    120    149     1  0.0000000  0.6508444  3
    137    136    142    328     1  0.0000000  1.0460000  1
    137    136    142    328     1  0.0000000  0.0000000  3
    137    136    142    143     1  0.0000000  0.6508444  3
    137    136    142    144     1  0.0000000  0.6508444  3
    138    136    142    328     1  0.0000000  1.0460000  1
    138    136    142    328     1  0.0000000  0.0000000  3
    138    136    142    143     1  0.0000000  0.6508444  3
    138    136    142    144     1  0.0000000  0.6508444  3
    142    328    319    320     1  0.0000000  1.6038667  3
    142    328    319    321     1  0.0000000  1.6038667  3
    143    142    328    319     1  0.0000000  1.6038667  3
    144    142    328    319     1  0.0000000  1.6038667  3
    145    358    349    350     1  0.0000000  1.6038667  3
    145    358    349    351     1  0.0000000  1.6038667  3
    146    145    358    349     1  0.0000000  1.6038667  3
    147    145    358    349     1  0.0000000  1.6038667  3
    150    151    163    164     1  0.0000000  0.6508444  3
    150    151    163    165     1  0.0000000  0.6508444  3
    150    154    166    167     1  0.0000000  0.6508444  3
    150    154    166    168     1  0.0000000  0.6508444  3
    150    157    160    161     1  0.0000000  0.6508444  3
    150    157    160    162     1  0.0000000  0.6508444  3
    151    150    154    155     1  0.0000000  0.6508444  3
    151    150    154    156     1  0.0000000  0.6508444  3
    151    150    157    158     1  0.0000000  0.6508444  3
    151    150    157    159     1  0.0000000  0.6508444  3
    151    163    175    176     1  0.0000000  0.6508444  3
    151    163    175    177     1  0.0000000  0.6508444  3
    152    151    150    154     1  0.0000000  0.6508444  3
    152    151    150    157     1  0.0000000  0.6508444  3
    152    151    150    179     1  0.0000000  0.6508444  3
    152    151    163    175     1  0.0000000  0.6508444  3
    152    151    163    164     1  0.0000000  0.6508444  3
    152    151    163    165     1  0.0000000  0.6508444  3
    153    151    150    154     1  0.0000000  0.6508444  3
    153    151    150    157     1  0.0000000  0.6508444  3
    153    151    150    179     1  0.0000000  0.6508444  3
    153    151    163    175     1  0.0000000  0.6508444  3
    153    151    163    164     1  0.0000000  0.6508444  3
    153    151    163    165     1  0.0000000  0.6508444  3
    154    150    157    158     1  0.0000000  0.6508444  3
    154    150    157    159     1  0.0000000  0.6508444  3
    154    166    172    173     1  0.0000000  0.6508444  3
    154    166    172    174     1  0.0000000  0.6508444  3
    155    154    150    157     1  0.0000000  0.6508444  3
    155    154    150    179     1  0.0000000  0.6508444  3
    155    154    166    172     1  0.0000000  0.6508444  3
    155    154    166    167     1  0.0000000  0.6508444  3
    155    154    166    168     1  0.0000000  0.6508444  3
    156    154    150    157     1  0.0000000  0.6508444  3
    156    154    150    179     1  0.0000000  0.6508444  3
    156    154    166    172     1  0.0000000  0.6508444  3
    156    154    166    167     1  0.0000000  0.6508444  3
    156    154    166    168     1  0.0000000  0.6508444  3
    157    160    169    170     1  0.0000000  0.6508444  3
    157    160    169    171     1  0.0000000  0.6508444  3
    158    157    150    179     1  0.0000000  0.6508444  3
    158    157    160    169     1  0.0000000  0.6508444  3
    158    157    160    161     1  0.0000000  0.6508444  3
    158    157    160    162     1  0.0000000  0.6508444  3
    159    157    150    179     1  0.0000000  0.6508444  3
    159    157    160    169     1  0.0000000  0.6508444  3
    159    157    160    161     1  0.0000000  0.6508444  3
    159    157    160    162     1  0.0000000  0.6508444  3
    160    157    150    179     1  0.0000000  0.6508444  3
    161    160    169    178     1  0.0000000  1.0460000  1
    161    160    169    178     1  0.0000000  0.0000000  3
    161    160    169    170     1  0.0000000  0.6508444  3
    161    160    169    171     1  0.0000000  0.6508444  3
    162    160    169    178     1  0.0000000  1.0460000  1
    162    160    169    178     1  0.0000000  0.0000000  3
    162    160    169    170     1  0.0000000  0.6508444  3
    162    160    169    171     1  0.0000000  0.6508444  3
    163    151    150    179     1  0.0000000  0.6508444  3
    164    163    175    418     1  0.0000000  1.0460000  1
    164    163    175    418     1  0.0000000  0.0000000  3
    164    163    175    176     1  0.0000000  0.6508444  3
    164    163    175    177     1  0.0000000  0.6508444  3
    165    163    175    418     1  0.0000000  1.0460000  1
    165    163    175    418     1  0.0000000  0.0000000  3
    165    163    175    176     1  0.0000000  0.6508444  3
    165    163    175    177     1  0.0000000  0.6508444  3
    166    154    150    179     1  0.0000000  0.6508444  3
    167    166    172    388     1  0.0000000  1.0460000  1
    167    166    172    388     1  0.0000000  0.0000000  3
    167    166    172    173     1  0.0000000  0.6508444  3
    167    166    172    174     1  0.0000000  0.6508444  3
    168    166    172    388     1  0.0000000  1.0460000  1
    168    166    172    388     1  0.0000000  0.0000000  3
    168    166    172    173     1  0.0000000  0.6508444  3
    168    166    172    174     1  0.0000000  0.6508444  3
    172    388    379    380     1  0.0000000  1.6038667  3
    172    388    379    381     1  0.0000000  1.6038667  3
    173    172    388    379     1  0.0000000  1.6038667  3
    174    172    388    379     1  0.0000000  1.6038667  3
    175    418    409    410     1  0.0000000  1.6038667  3
    175    418    409    411     1  0.0000000  1.6038667  3
    176    175    418    409     1  0.0000000  1.6038667  3
    177    175    418    409     1  0.0000000  1.6038667  3
    180    181    193    194     1  0.0000000  0.6508444  3
    180    181    193    195     1  0.0000000  0.6508444  3
    180    184    196    197     1  0.0000000  0.6508444  3
    180    184    196    198     1  0.0000000  0.6508444  3
    180    187    190    191     1  0.0000000  0.6508444  3
    180    187    190    192     1  0.0000000  0.6508444  3
    181    180    184    185     1  0.0000000  0.6508444  3
    181    180    184    186     1  0.0000000  0.6508444  3
    181    180    187    188     1  0.0000000  0.6508444  3
    181    180    187    189     1  0.0000000  0.6508444  3
    181    193    205    206     1  0.0000000  0.6508444  3
    181    193    205    207     1  0.0000000  0.6508444  3
    182    181    180    184     1  0.0000000  0.6508444  3
    182    181    180    187     1  0.0000000  0.6508444  3
    182    181    180    209     1  0.0000000  0.6508444  3
    182    181    193    205     1  0.0000000  0.6508444  3
    182    181    193    194     1  0.0000000  0.6508444  3
    182    181    193    195     1  0.0000000  0.6508444  3
    183    181    180    184     1  0.0000000  0.6508444  3
    183    181    180    187     1  0.0000000  0.6508444  3
    183    181    180    209     1  0.0000000  0.6508444  3
    183    181    193    205     1  0.0000000  0.6508444  3
    183    181    193    194     1  0.0000000  0.6508444  3
    183    181    193    195     1  0.0000000  0.6508444  3
    184    180    187    188     1  0.0000000  0.6508444  3
    184    180    187    189     1  0.0000000  0.6508444  3
    184    196    202    203     1  0.0000000  0.6508444  3
    184    196    202    204     1  0.0000000  0.6508444  3
    185    184    180    187     1  0.0000000  0.6508444  3
    185    184    180    209     1  0.0000000  0.6508444  3
    185    184    196    202     1  0.0000000  0.6508444  3
    185    184    196    197     1  0.0000000  0.6508444  3
    185    184    196    198     1  0.0000000  0.6508444  3
    186    184    180    187     1  0.0000000  0.6508444  3
    186    184    180    209     1  0.0000000  0.6508444  3
    186    184    196    202     1  0.0000000  0.6508444  3
    186    184    196    197     1  0.0000000  0.6508444  3
    186    184    196    198     1  0.0000000  0.6508444  3
    187    190    199    200     1  0.0000000  0.6508444  3
    187    190    199    201     1  0.0000000  0.6508444  3
    188    187    180    209     1  0.0000000  0.6508444  3
    188    187    190    199     1  0.0000000  0.6508444  3
    188    187    190    191     1  0.0000000  0.6508444  3
    188    187    190    192     1  0.0000000  0.6508444  3
    189    187    180    209     1  0.0000000  0.6508444  3
    189    187    190    199     1  0.0000000  0.6508444  3
    189    187    190    191     1  0.0000000  0.6508444  3
    189    187    190    192     1  0.0000000  0.6508444  3
    190    187    180    209     1  0.0000000  0.6508444  3
    191    190    199    208     1  0.0000000  1.0460000  1
    191    190    199    208     1  0.0000000  0.0000000  3
    191    190    199    200     1  0.0000000  0.6508444  3
    191    190    199    201     1  0.0000000  0.6508444  3
    192    190    199    208     1  0.0000000  1.0460000  1
    192    190    199    208     1  0.0000000  0.0000000  3
    192    190    199    200     1  0.0000000  0.6508444  3
    192    190    199    201     1  0.0000000  0.6508444  3
    193    181    180    209     1  0.0000000  0.6508444  3
    194    193    205    478     1  0.0000000  1.0460000  1
    194    193    205    478     1  0.0000000  0.0000000  3
    194    193    205    206     1  0.0000000  0.6508444  3
    194    193    205    207     1  0.0000000  0.6508444  3
    195    193    205    478     1  0.0000000  1.0460000  1
    195    193    205    478     1  0.0000000  0.0000000  3
    195    193    205    206     1  0.0000000  0.6508444  3
    195    193    205    207     1  0.0000000  0.6508444  3
    196    184    180    209     1  0.0000000  0.6508444  3
    197    196    202    448     1  0.0000000  1.0460000  1
    197    196    202    448     1  0.0000000  0.0000000  3
    197    196    202    203     1  0.0000000  0.6508444  3
    197    196    202    204     1  0.0000000  0.6508444  3
    198    196    202    448     1  0.0000000  1.0460000  1
    198    196    202    448     1  0.0000000  0.0000000  3
    198    196    202    203     1  0.0000000  0.6508444  3
    198    196    202    204     1  0.0000000  0.6508444  3
    202    448    439    440     1  0.0000000  1.6038667  3
    202    448    439    441     1  0.0000000  1.6038667  3
    203    202    448    439     1  0.0000000  1.6038667  3
    204    202    448    439     1  0.0000000  1.6038667  3
    205    478    469    470     1  0.0000000  1.6038667  3
    205    478    469    471     1  0.0000000  1.6038667  3
    206    205    478    469     1  0.0000000  1.6038667  3
    207    205    478    469     1  0.0000000  1.6038667  3
    210    211    223    224     1  0.0000000  0.6508444  3
    210    211    223    225     1  0.0000000  0.6508444  3
    210    214    226    227     1  0.0000000  0.6508444  3
    210    214    226    228     1  0.0000000  0.6508444  3
    210    217    220    221     1  0.0000000  0.6508444  3
    210    217    220    222     1  0.0000000  0.6508444  3
    211    210    214    215     1  0.0000000  0.6508444  3
    211    210    214    216     1  0.0000000  0.6508444  3
    211    210    217    218     1  0.0000000  0.6508444  3
    211    210    217    219     1  0.0000000  0.6508444  3
    211    223    235    236     1  0.0000000  0.6508444  3
    211    223    235    237     1  0.0000000  0.6508444  3
    212    211    210    214     1  0.0000000  0.6508444  3
    212    211    210    217     1  0.0000000  0.6508444  3
    212    211    210    239     1  0.0000000  0.6508444  3
    212    211    223    235     1  0.0000000  0.6508444  3
    212    211    223    224     1  0.0000000  0.6508444  3
    212    211    223    225     1  0.0000000  0.6508444  3
    213    211    210    214     1  0.0000000  0.6508444  3
    213    211    210    217     1  0.0000000  0.6508444  3
    213    211    210    239     1  0.0000000  0.6508444  3
    213    211    223    235     1  0.0000000  0.6508444  3
    213    211    223    224     1  0.0000000  0.6508444  3
    213    211    223    225     1  0.0000000  0.6508444  3
    214    210    217    218     1  0.0000000  0.6508444  3
    214    210    217    219     1  0.0000000  0.6508444  3
    214    226    232    233     1  0.0000000  0.6508444  3
    214    226    232    234     1  0.0000000  0.6508444  3
    215    214    210    217     1  0.0000000  0.6508444  3
    215    214    210    239     1  0.0000000  0.6508444  3
    215    214    226    232     1  0.0000000  0.6508444  3
    215    214    226    227     1  0.0000000  0.6508444  3
    215    214    226    228     1  0.0000000  0.6508444  3
    216    214    210    217     1  0.0000000  0.6508444  3
    216    214    210    239     1  0.0000000  0.6508444  3
    216    214    226    232     1  0.0000000  0.6508444  3
    216    214    226    227     1  0.0000000  0.6508444  3
    216    214    226    228     1  0.0000000  0.6508444  3
    217    220    229    230     1  0.0000000  0.6508444  3
    217    220    229    231     1  0.0000000  0.6508444  3
    218    217    210    239     1  0.0000000  0.6508444  3
    218    217    220    229     1  0.0000000  0.6508444  3
    218    217    220    221     1  0.0000000  0.6508444  3
    218    217    220    222     1  0.0000000  0.6508444  3
    219    217    210    239     1  0.0000000  0.6508444  3
    219    217    220    229     1  0.0000000  0.6508444  3
    219    217    220    221     1  0.0000000  0.6508444  3
    219    217    220    222     1  0.0000000  0.6508444  3
    220    217    210    239     1  0.0000000  0.6508444  3
    221    220    229    238     1  0.0000000  1.0460000  1
    221    220    229    238     1  0.0000000  0.0000000  3
    221    220    229    230     1  0.0000000  0.6508444  3
    221    220    229    231     1  0.0000000  0.6508444  3
    222    220    229    238     1  0.0000000  1.0460000  1
    222    220    229    238     1  0.0000000  0.0000000  3
    222    220    229    230     1  0.0000000  0.6508444  3
    222    220    229    231     1  0.0000000  0.6508444  3
    223    211    210    239     1  0.0000000  0.6508444  3
    224    223    235    538     1  0.0000000  1.0460000  1
    224    223    235    538     1  0.0000000  0.0000000  3
    224    223    235    236     1  0.0000000  0.6508444  3
    224    223    235    237     1  0.0000000  0.6508444  3
    225    223    235    538     1  0.0000000  1.0460000  1
    225    223    235    538     1  0.0000000  0.0000000  3
    225    223    235    236     1  0.0000000  0.6508444  3
    225    223    235    237     1  0.0000000  0.6508444  3
    226    214    210    239     1  0.0000000  0.6508444  3
    227    226    232    508     1  0.0000000  1.0460000  1
    227    226    232    508     1  0.0000000  0.0000000  3
    227    226    232    233     1  0.0000000  0.6508444  3
    227    226    232    234     1  0.0000000  0.6508444  3
    228    226    232    508     1  0.0000000  1.0460000  1
    228    226    232    508     1  0.0000000  0.0000000  3
    228    226    232    233     1  0.0000000  0.6508444  3
    228    226    232    234     1  0.0000000  0.6508444  3
    232    508    499    500     1  0.0000000  1.6038667  3
    232    508    499    501     1  0.0000000  1.6038667  3
    233    232    508    499     1  0.0000000  1.6038667  3
    234    232    508    499     1  0.0000000  1.6038667  3
    235    538    529    530     1  0.0000000  1.6038667  3
    235    538    529    531     1  0.0000000  1.6038667  3
    236    235    538    529     1  0.0000000  1.6038667  3
    237    235    538    529     1  0.0000000  1.6038667  3
    240    241    253    254     1  0.0000000  0.6508444  3
    240    241    253    255     1  0.0000000  0.6508444  3
    240    244    256    257     1  0.0000000  0.6508444  3
    240    244    256    258     1  0.0000000  0.6508444  3
    240    247    250    251     1  0.0000000  0.6508444  3
    240    247    250    252     1  0.0000000  0.6508444  3
    241    240    244    245     1  0.0000000  0.6508444  3
    241    240    244    246     1  0.0000000  0.6508444  3
    241    240    247    248     1  0.0000000  0.6508444  3
    241    240    247    249     1  0.0000000  0.6508444  3
    241    253    265    266     1  0.0000000  0.6508444  3
    241    253    265    267     1  0.0000000  0.6508444  3
    242    241    240    244     1  0.0000000  0.6508444  3
    242    241    240    247     1  0.0000000  0.6508444  3
    242    241    240    269     1  0.0000000  0.6508444  3
    242    241    253    265     1  0.0000000  0.6508444  3
    242    241    253    254     1  0.0000000  0.6508444  3
    242    241    253    255     1  0.0000000  0.6508444  3
    243    241    240    244     1  0.0000000  0.6508444  3
    243    241    240    247     1  0.0000000  0.6508444  3
    243    241    240    269     1  0.0000000  0.6508444  3
    243    241    253    265     1  0.0000000  0.6508444  3
    243    241    253    254     1  0.0000000  0.6508444  3
    243    241    253    255     1  0.0000000  0.6508444  3
    244    240    247    248     1  0.0000000  0.6508444  3
    244    240    247    249     1  0.0000000  0.6508444  3
    244    256    262    263     1  0.0000000  0.6508444  3
    244    256    262    264     1  0.0000000  0.6508444  3
    245    244    240    247     1  0.0000000  0.6508444  3
    245    244    240    269     1  0.0000000  0.6508444  3
    245    244    256    262     1  0.0000000  0.6508444  3
    245    244    256    257     1  0.0000000  0.6508444  3
    245    244    256    258     1  0.0000000  0.6508444  3
    246    244    240    247     1  0.0000000  0.6508444  3
    246    244    240    269     1  0.0000000  0.6508444  3
    246    244    256    262     1  0.0000000  0.6508444  3
    246    244    256    257     1  0.0000000  0.6508444  3
    246    244    256    258     1  0.0000000  0.6508444  3
    247    250    259    260     1  0.0000000  0.6508444  3
    247    250    259    261     1  0.0000000  0.6508444  3
    248    247    240    269     1  0.0000000  0.6508444  3
    248    247    250    259     1  0.0000000  0.6508444  3
    248    247    250    251     1  0.0000000  0.6508444  3
    248    247    250    252     1  0.0000000  0.6508444  3
    249    247    240    269     1  0.0000000  0.6508444  3
    249    247    250    259     1  0.0000000  0.6508444  3
    249    247    250    251     1  0.0000000  0.6508444  3
    249    247    250    252     1  0.0000000  0.6508444  3
    250    247    240    269     1  0.0000000  0.6508444  3
    251    250    259    268     1  0.0000000  1.0460000  1
    251    250    259    268     1  0.0000000  0.0000000  3
    251    250    259    260     1  0.0000000  0.6508444  3
    251    250    259    261     1  0.0000000  0.6508444  3
    252    250    259    268     1  0.0000000  1.0460000  1
    252    250    259    268     1  0.0000000  0.0000000  3
    252    250    259    260     1  0.0000000  0.6508444  3
    252    250    259    261     1  0.0000000  0.6508444  3
    253    241    240    269     1  0.0000000  0.6508444  3
    254    253    265    598     1  0.0000000  1.0460000  1
    254    253    265    598     1  0.0000000  0.0000000  3
    254    253    265    266     1  0.0000000  0.6508444  3
    254    253    265    267     1  0.0000000  0.6508444  3
    255    253    265    598     1  0.0000000  1.0460000  1
    255    253    265    598     1  0.0000000  0.0000000  3
    255    253    265    266     1  0.0000000  0.6508444  3
    255    253    265    267     1  0.0000000  0.6508444  3
    256    244    240    269     1  0.0000000  0.6508444  3
    257    256    262    568     1  0.0000000  1.0460000  1
    257    256    262    568     1  0.0000000  0.0000000  3
    257    256    262    263     1  0.0000000  0.6508444  3
    257    256    262    264     1  0.0000000  0.6508444  3
    258    256    262    568     1  0.0000000  1.0460000  1
    258    256    262    568     1  0.0000000  0.0000000  3
    258    256    262    263     1  0.0000000  0.6508444  3
    258    256    262    264     1  0.0000000  0.6508444  3
    262    568    559    560     1  0.0000000  1.6038667  3
    262    568    559    561     1  0.0000000  1.6038667  3
    263    262    568    559     1  0.0000000  1.6038667  3
    264    262    568    559     1  0.0000000  1.6038667  3
    265    598    589    590     1  0.0000000  1.6038667  3
    265    598    589    591     1  0.0000000  1.6038667  3
    266    265    598    589     1  0.0000000  1.6038667  3
    267    265    598    589     1  0.0000000  1.6038667  3
    270    271    283    284     1  0.0000000  0.6508444  3
    270    271    283    285     1  0.0000000  0.6508444  3
    270    274    286    287     1  0.0000000  0.6508444  3
    270    274    286    288     1  0.0000000  0.6508444  3
    270    277    280    281     1  0.0000000  0.6508444  3
    270    277    280    282     1  0.0000000  0.6508444  3
    271    270    274    275     1  0.0000000  0.6508444  3
    271    270    274    276     1  0.0000000  0.6508444  3
    271    270    277    278     1  0.0000000  0.6508444  3
    271    270    277    279     1  0.0000000  0.6508444  3
    271    283    295    296     1  0.0000000  0.6508444  3
    271    283    295    297     1  0.0000000  0.6508444  3
    272    271    270    274     1  0.0000000  0.6508444  3
    272    271    270    277     1  0.0000000  0.6508444  3
    272    271    270    299     1  0.0000000  0.6508444  3
    272    271    283    295     1  0.0000000  0.6508444  3
    272    271    283    284     1  0.0000000  0.6508444  3
    272    271    283    285     1  0.0000000  0.6508444  3
    273    271    270    274     1  0.0000000  0.6508444  3
    273    271    270    277     1  0.0000000  0.6508444  3
    273    271    270    299     1  0.0000000  0.6508444  3
    273    271    283    295     1  0.0000000  0.6508444  3
    273    271    283    284     1  0.0000000  0.6508444  3
    273    271    283    285     1  0.0000000  0.6508444  3
    274    270    277    278     1  0.0000000  0.6508444  3
    274    270    277    279     1  0.0000000  0.6508444  3
    274    286    292    293     1  0.0000000  0.6508444  3
    274    286    292    294     1  0.0000000  0.6508444  3
    275    274    270    277     1  0.0000000  0.6508444  3
    275    274    270    299     1  0.0000000  0.6508444  3
    275    274    286    292     1  0.0000000  0.6508444  3
    275    274    286    287     1  0.0000000  0.6508444  3
    275    274    286    288     1  0.0000000  0.6508444  3
    276    274    270    277     1  0.0000000  0.6508444  3
    276    274    270    299     1  0.0000000  0.6508444  3
    276    274    286    292     1  0.0000000  0.6508444  3
    276    274    286    287     1  0.0000000  0.6508444  3
    276    274    286    288     1  0.0000000  0.6508444  3
    277    280    289    290     1  0.0000000  0.6508444  3
    277    280    289    291     1  0.0000000  0.6508444  3
    278    277    270    299     1  0.0000000  0.6508444  3
    278    277    280    289     1  0.0000000  0.6508444  3
    278    277    280    281     1  0.0000000  0.6508444  3
    278    277    280    282     1  0.0000000  0.6508444  3
    279    277    270    299     1  0.0000000  0.6508444  3
    279    277    280    289     1  0.0000000  0.6508444  3
    279    277    280    281     1  0.0000000  0.6508444  3
    279    277    280    282     1  0.0000000  0.6508444  3
    280    277    270    299     1  0.0000000  0.6508444  3
    281    280    289    298     1  0.0000000  1.0460000  1
    281    280    289    298     1  0.0000000  0.0000000  3
    281    280    289    290     1  0.0000000  0.6508444  3
    281    280    289    291     1  0.0000000  0.6508444  3
    282    280    289    298     1  0.0000000  1.0460000  1
    282    280    289    298     1  0.0000000  0.0000000  3
    282    280    289    290     1  0.0000000  0.6508444  3
    282    280    289    291     1  0.0000000  0.6508444  3
    283    271    270    299     1  0.0000000  0.6508444  3
    284    283    295    658     1  0.0000000  1.0460000  1
    284    283    295    658     1  0.0000000  0.0000000  3
    284    283    295    296     1  0.0000000  0.6508444  3
    284    283    295    297     1  0.0000000  0.6508444  3
    285    283    295    658     1  0.0000000  1.0460000  1
    285    283    295    658     1  0.0000000  0.0000000  3
    285    283    295    296     1  0.0000000  0.6508444  3
    285    283    295    297     1  0.0000000  0.6508444  3
    286    274    270    299     1  0.0000000  0.6508444  3
    287    286    292    628     1  0.0000000  1.0460000  1
    287    286    292    628     1  0.0000000  0.0000000  3
    287    286    292    293     1  0.0000000  0.6508444  3
    287    286    292    294     1  0.0000000  0.6508444  3
    288    286    292    628     1  0.0000000  1.0460000  1
    288    286    292    628     1  0.0000000  0.0000000  3
    288    286    292    293     1  0.0000000  0.6508444  3
    288    286    292    294     1  0.0000000  0.6508444  3
    292    628    619    620     1  0.0000000  1.6038667  3
    292    628    619    621     1  0.0000000  1.6038667  3
    293    292    628    619     1  0.0000000  1.6038667  3
    294    292    628    619     1  0.0000000  1.6038667  3
    295    658    649    650     1  0.0000000  1.6038667  3
    295    658    649    651     1  0.0000000  1.6038667  3
    296    295    658    649     1  0.0000000  1.6038667  3
    297    295    658    649     1  0.0000000  1.6038667  3
    300    301    313    314     1  0.0000000  0.6508444  3
    300    301    313    315     1  0.0000000  0.6508444  3
    300    304    316    317     1  0.0000000  0.6508444  3
    300    304    316    318     1  0.0000000  0.6508444  3
    300    307    310    311     1  0.0000000  0.6508444  3
    300    307    310    312     1  0.0000000  0.6508444  3
    301    300    304    305     1  0.0000000  0.6508444  3
    301    300    304    306     1  0.0000000  0.6508444  3
    301    300    307    308     1  0.0000000  0.6508444  3
    301    300    307    309     1  0.0000000  0.6508444  3
    301    313    325    326     1  0.0000000  0.6508444  3
    301    313    325    327     1  0.0000000  0.6508444  3
    302    301    300    304     1  0.0000000  0.6508444  3
    302    301    300    307     1  0.0000000  0.6508444  3
    302    301    300    329     1  0.0000000  0.6508444  3
    302    301    313    325     1  0.0000000  0.6508444  3
    302    301    313    314     1  0.0000000  0.6508444  3
    302    301    313    315     1  0.0000000  0.6508444  3
    303    301    300    304     1  0.0000000  0.6508444  3
    303    301    300    307     1  0.0000000  0.6508444  3
    303    301    300    329     1  0.0000000  0.6508444  3
    303    301    313    325     1  0.0000000  0.6508444  3
    303    301    313    314     1  0.0000000  0.6508444  3
    303    301    313    315     1  0.0000000  0.6508444  3
    304    300    307    308     1  0.0000000  0.6508444  3
    304    300    307    309     1  0.0000000  0.6508444  3
    304    316    322    323     1  0.0000000  0.6508444  3
    304    316    322    324     1  0.0000000  0.6508444  3
    305    304    300    307     1  0.0000000  0.6508444  3
    305    304    300    329     1  0.0000000  0.6508444  3
    305    304    316    322     1  0.0000000  0.6508444  3
    305    304    316    317     1  0.0000000  0.6508444  3
    305    304    316    318     1  0.0000000  0.6508444  3
    306    304    300    307     1  0.0000000  0.6508444  3
    306    304    300    329     1  0.0000000  0.6508444  3
    306    304    316    322     1  0.0000000  0.6508444  3
    306    304    316    317     1  0.0000000  0.6508444  3
    306    304    316    318     1  0.0000000  0.6508444  3
    307    310    319    320     1  0.0000000  0.6508444  3
    307    310    319    321     1  0.0000000  0.6508444  3
    308    307    300    329     1  0.0000000  0.6508444  3
    308    307    310    319     1  0.0000000  0.6508444  3
    308    307    310    311     1  0.0000000  0.6508444  3
    308    307    310    312     1  0.0000000  0.6508444  3
    309    307    300    329     1  0.0000000  0.6508444  3
    309    307    310    319     1  0.0000000  0.6508444  3
    309    307    310    311     1  0.0000000  0.6508444  3
    309    307    310    312     1  0.0000000  0.6508444  3
    310    307    300    329     1  0.0000000  0.6508444  3
    311    310    319    328     1  0.0000000  1.0460000  1
    311    310    319    328     1  0.0000000  0.0000000  3
    311    310    319    320     1  0.0000000  0.6508444  3
    311    310    319    321     1  0.0000000  0.6508444  3
    312    310    319    328     1  0.0000000  1.0460000  1
    312    310    319    328     1  0.0000000  0.0000000  3
    312    310    319    320     1  0.0000000  0.6508444  3
    312    310    319    321     1  0.0000000  0.6508444  3
    313    301    300    329     1  0.0000000  0.6508444  3
    314    313    325    718     1  0.0000000  1.0460000  1
    314    313    325    718     1  0.0000000  0.0000000  3
    314    313    325    326     1  0.0000000  0.6508444  3
    314    313    325    327     1  0.0000000  0.6508444  3
    315    313    325    718     1  0.0000000  1.0460000  1
    315    313    325    718     1  0.0000000  0.0000000  3
    315    313    325    326     1  0.0000000  0.6508444  3
    315    313    325    327     1  0.0000000  0.6508444  3
    316    304    300    329     1  0.0000000  0.6508444  3
    317    316    322    688     1  0.0000000  1.0460000  1
    317    316    322    688     1  0.0000000  0.0000000  3
    317    316    322    323     1  0.0000000  0.6508444  3
    317    316    322    324     1  0.0000000  0.6508444  3
    318    316    322    688     1  0.0000000  1.0460000  1
    318    316    322    688     1  0.0000000  0.0000000  3
    318    316    322    323     1  0.0000000  0.6508444  3
    318    316    322    324     1  0.0000000  0.6508444  3
    322    688    679    680     1  0.0000000  1.6038667  3
    322    688    679    681     1  0.0000000  1.6038667  3
    323    322    688    679     1  0.0000000  1.6038667  3
    324    322    688    679     1  0.0000000  1.6038667  3
    325    718    709    710     1  0.0000000  1.6038667  3
    325    718    709    711     1  0.0000000  1.6038667  3
    326    325    718    709     1  0.0000000  1.6038667  3
    327    325    718    709     1  0.0000000  1.6038667  3
    330    331    343    344     1  0.0000000  0.6508444  3
    330    331    343    345     1  0.0000000  0.6508444  3
    330    334    346    347     1  0.0000000  0.6508444  3
    330    334    346    348     1  0.0000000  0.6508444  3
    330    337    340    341     1  0.0000000  0.6508444  3
    330    337    340    342     1  0.0000000  0.6508444  3
    331    330    334    335     1  0.0000000  0.6508444  3
    331    330    334    336     1  0.0000000  0.6508444  3
    331    330    337    338     1  0.0000000  0.6508444  3
    331    330    337    339     1  0.0000000  0.6508444  3
    331    343    355    356     1  0.0000000  0.6508444  3
    331    343    355    357     1  0.0000000  0.6508444  3
    332    331    330    334     1  0.0000000  0.6508444  3
    332    331    330    337     1  0.0000000  0.6508444  3
    332    331    330    359     1  0.0000000  0.6508444  3
    332    331    343    355     1  0.0000000  0.6508444  3
    332    331    343    344     1  0.0000000  0.6508444  3
    332    331    343    345     1  0.0000000  0.6508444  3
    333    331    330    334     1  0.0000000  0.6508444  3
    333    331    330    337     1  0.0000000  0.6508444  3
    333    331    330    359     1  0.0000000  0.6508444  3
    333    331    343    355     1  0.0000000  0.6508444  3
    333    331    343    344     1  0.0000000  0.6508444  3
    333    331    343    345     1  0.0000000  0.6508444  3
    334    330    337    338     1  0.0000000  0.6508444  3
    334    330    337    339     1  0.0000000  0.6508444  3
    334    346    352    353     1  0.0000000  0.6508444  3
    334    346    352    354     1  0.0000000  0.6508444  3
    335    334    330    337     1  0.0000000  0.6508444  3
    335    334    330    359     1  0.0000000  0.6508444  3
    335    334    346    352     1  0.0000000  0.6508444  3
    335    334    346    347     1  0.0000000  0.6508444  3
    335    334    346    348     1  0.0000000  0.6508444  3
    336    334    330    337     1  0.0000000  0.6508444  3
    336    334    330    359     1  0.0000000  0.6508444  3
    336    334    346    352     1  0.0000000  0.6508444  3
    336    334    346    347     1  0.0000000  0.6508444  3
    336    334    346    348     1  0.0000000  0.6508444  3
    337    340    349    350     1  0.0000000  0.6508444  3
    337    340    349    351     1  0.0000000  0.6508444  3
    338    337    330    359     1  0.0000000  0.6508444  3
    338    337    340    349     1  0.0000000  0.6508444  3
    338    337    340    341     1  0.0000000  0.6508444  3
    338    337    340    342     1  0.0000000  0.6508444  3
    339    337    330    359     1  0.0000000  0.6508444  3
    339    337    340    349     1  0.0000000  0.6508444  3
    339    337    340    341     1  0.0000000  0.6508444  3
    339    337    340    342     1  0.0000000  0.6508444  3
    340    337    330    359     1  0.0000000  0.6508444  3
    341    340    349    358     1  0.0000000  1.0460000  1
    341    340    349    358     1  0.0000000  0.0000000  3
    341    340    349    350     1  0.0000000  0.6508444  3
    341    340    349    351     1  0.0000000  0.6508444  3
    342    340    349    358     1  0.0000000  1.0460000  1
    342    340    349    358     1  0.0000000  0.0000000  3
    342    340    349    350     1  0.0000000  0.6508444  3
    342    340    349    351     1  0.0000000  0.6508444  3
    343    331    330    359     1  0.0000000  0.6508444  3
    344    343    355    778     1  0.0000000  1.0460000  1
    344    343    355    778     1  0.0000000  0.0000000  3
    344    343    355    356     1  0.0000000  0.6508444  3
    344    343    355    357     1  0.0000000  0.6508444  3
    345    343    355    778     1  0.0000000  1.0460000  1
    345    343    355    778     1  0.0000000  0.0000000  3
    345    343    355    356     1  0.0000000  0.6508444  3
    345    343    355    357     1  0.0000000  0.6508444  3
    346    334    330    359     1  0.0000000  0.6508444  3
    347    346    352    748     1  0.0000000  1.0460000  1
    347    346    352    748     1  0.0000000  0.0000000  3
    347    346    352    353     1  0.0000000  0.6508444  3
    347    346    352    354     1  0.0000000  0.6508444  3
    348    346    352    748     1  0.0000000  1.0460000  1
    348    346    352    748     1  0.0000000  0.0000000  3
    348    346    352    353     1  0.0000000  0.6508444  3
    348    346    352    354     1  0.0000000  0.6508444  3
    352    748    739    740     1  0.0000000  1.6038667  3
    352    748    739    741     1  0.0000000  1.6038667  3
    353    352    748    739     1  0.0000000  1.6038667  3
    354    352    748    739     1  0.0000000  1.6038667  3
    355    778    769    770     1  0.0000000  1.6038667  3
    355    778    769    771     1  0.0000000  1.6038667  3
    356    355    778    769     1  0.0000000  1.6038667  3
    357    355    778    769     1  0.0000000  1.6038667  3
    360    361    373    374     1  0.0000000  0.6508444  3
    360    361    373    375     1  0.0000000  0.6508444  3
    360    364    376    377     1  0.0000000  0.6508444  3
    360    364    376    378     1  0.0000000  0.6508444  3
    360    367    370    371     1  0.0000000  0.6508444  3
    360    367    370    372     1  0.0000000  0.6508444  3
    361    360    364    365     1  0.0000000  0.6508444  3
    361    360    364    366     1  0.0000000  0.6508444  3
    361    360    367    368     1  0.0000000  0.6508444  3
    361    360    367    369     1  0.0000000  0.6508444  3
    361    373    385    386     1  0.0000000  0.6508444  3
    361    373    385    387     1  0.0000000  0.6508444  3
    362    361    360    364     1  0.0000000  0.6508444  3
    362    361    360    367     1  0.0000000  0.6508444  3
    362    361    360    389     1  0.0000000  0.6508444  3
    362    361    373    385     1  0.0000000  0.6508444  3
    362    361    373    374     1  0.0000000  0.6508444  3
    362    361    373    375     1  0.0000000  0.6508444  3
    363    361    360    364     1  0.0000000  0.6508444  3
    363    361    360    367     1  0.0000000  0.6508444  3
    363    361    360    389     1  0.0000000  0.6508444  3
    363    361    373    385     1  0.0000000  0.6508444  3
    363    361    373    374     1  0.0000000  0.6508444  3
    363    361    373    375     1  0.0000000  0.6508444  3
    364    360    367    368     1  0.0000000  0.6508444  3
    364    360    367    369     1  0.0000000  0.6508444  3
    364    376    382    383     1  0.0000000  0.6508444  3
    364    376    382    384     1  0.0000000  0.6508444  3
    365    364    360    367     1  0.0000000  0.6508444  3
    365    364    360    389     1  0.0000000  0.6508444  3
    365    364    376    382     1  0.0000000  0.6508444  3
    365    364    376    377     1  0.0000000  0.6508444  3
    365    364    376    378     1  0.0000000  0.6508444  3
    366    364    360    367     1  0.0000000  0.6508444  3
    366    364    360    389     1  0.0000000  0.6508444  3
    366    364    376    382     1  0.0000000  0.6508444  3
    366    364    376    377     1  0.0000000  0.6508444  3
    366    364    376    378     1  0.0000000  0.6508444  3
    367    370    379    380     1  0.0000000  0.6508444  3
    367    370    379    381     1  0.0000000  0.6508444  3
    368    367    360    389     1  0.0000000  0.6508444  3
    368    367    370    379     1  0.0000000  0.6508444  3
    368    367    370    371     1  0.0000000  0.6508444  3
    368    367    370    372     1  0.0000000  0.6508444  3
    369    367    360    389     1  0.0000000  0.6508444  3
    369    367    370    379     1  0.0000000  0.6508444  3
    369    367    370    371     1  0.0000000  0.6508444  3
    369    367    370    372     1  0.0000000  0.6508444  3
    370    367    360    389     1  0.0000000  0.6508444  3
    371    370    379    388     1  0.0000000  1.0460000  1
    371    370    379    388     1  0.0000000  0.0000000  3
    371    370    379    380     1  0.0000000  0.6508444  3
    371    370    379    381     1  0.0000000  0.6508444  3
    372    370    379    388     1  0.0000000  1.0460000  1
    372    370    379    388     1  0.0000000  0.0000000  3
    372    370    379    380     1  0.0000000  0.6508444  3
    372    370    379    381     1  0.0000000  0.6508444  3
    373    361    360    389     1  0.0000000  0.6508444  3
    374    373    385    838     1  0.0000000  1.0460000  1
    374    373    385    838     1  0.0000000  0.0000000  3
    374    373    385    386     1  0.0000000  0.6508444  3
    374    373    385    387     1  0.0000000  0.6508444  3
    375    373    385    838     1  0.0000000  1.0460000  1
    375    373    385    838     1  0.0000000  0.0000000  3
    375    373    385    386     1  0.0000000  0.6508444  3
    375    373    385    387     1  0.0000000  0.6508444  3
    376    364    360    389     1  0.0000000  0.6508444  3
    377    376    382    808     1  0.0000000  1.0460000  1
    377    376    382    808     1  0.0000000  0.0000000  3
    377    376    382    383     1  0.0000000  0.6508444  3
    377    376    382    384     1  0.0000000  0.6508444  3
    378    376    382    808     1  0.0000000  1.0460000  1
    378    376    382    808     1  0.0000000  0.0000000  3
    378    376    382    383     1  0.0000000  0.6508444  3
    378    376    382    384     1  0.0000000  0.6508444  3
    382    808    799    800     1  0.0000000  1.6038667  3
    382    808    799    801     1  0.0000000  1.6038667  3
    383    382    808    799     1  0.0000000  1.6038667  3
    384    382    808    799     1  0.0000000  1.6038667  3
    385    838    829    830     1  0.0000000  1.6038667  3
    385    838    829    831     1  0.0000000  1.6038667  3
    386    385    838    829     1  0.0000000  1.6038667  3
    387    385    838    829     1  0.0000000  1.6038667  3
    390    391    403    404     1  0.0000000  0.6508444  3
    390    391    403    405     1  0.0000000  0.6508444  3
    390    394    406    407     1  0.0000000  0.6508444  3
    390    394    406    408     1  0.0000000  0.6508444  3
    390    397    400    401     1  0.0000000  0.6508444  3
    390    397    400    402     1  0.0000000  0.6508444  3
    391    390    394    395     1  0.0000000  0.6508444  3
    391    390    394    396     1  0.0000000  0.6508444  3
    391    390    397    398     1  0.0000000  0.6508444  3
    391    390    397    399     1  0.0000000  0.6508444  3
    391    403    415    416     1  0.0000000  0.6508444  3
    391    403    415    417     1  0.0000000  0.6508444  3
    392    391    390    394     1  0.0000000  0.6508444  3
    392    391    390    397     1  0.0000000  0.6508444  3
    392    391    390    419     1  0.0000000  0.6508444  3
    392    391    403    415     1  0.0000000  0.6508444  3
    392    391    403    404     1  0.0000000  0.6508444  3
    392    391    403    405     1  0.0000000  0.6508444  3
    393    391    390    394     1  0.0000000  0.6508444  3
    393    391    390    397     1  0.0000000  0.6508444  3
    393    391    390    419     1  0.0000000  0.6508444  3
    393    391    403    415     1  0.0000000  0.6508444  3
    393    391    403    404     1  0.0000000  0.6508444  3
    393    391    403    405     1  0.0000000  0.6508444  3
    394    390    397    398     1  0.0000000  0.6508444  3
    394    390    397    399     1  0.0000000  0.6508444  3
    394    406    412    413     1  0.0000000  0.6508444  3
    394    406    412    414     1  0.0000000  0.6508444  3
    395    394    390    397     1  0.0000000  0.6508444  3
    395    394    390    419     1  0.0000000  0.6508444  3
    395    394    406    412     1  0.0000000  0.6508444  3
    395    394    406    407     1  0.0000000  0.6508444  3
    395    394    406    408     1  0.0000000  0.6508444  3
    396    394    390    397     1  0.0000000  0.6508444  3
    396    394    390    419     1  0.0000000  0.6508444  3
    396    394    406    412     1  0.0000000  0.6508444  3
    396    394    406    407     1  0.0000000  0.6508444  3
    396    394    406    408     1  0.0000000  0.6508444  3
    397    400    409    410     1  0.0000000  0.6508444  3
    397    400    409    411     1  0.0000000  0.6508444  3
    398    397    390    419     1  0.0000000  0.6508444  3
    398    397    400    409     1  0.0000000  0.6508444  3
    398    397    400    401     1  0.0000000  0.6508444  3
    398    397    400    402     1  0.0000000  0.6508444  3
    399    397    390    419     1  0.0000000  0.6508444  3
    399    397    400    409     1  0.0000000  0.6508444  3
    399    397    400    401     1  0.0000000  0.6508444  3
    399    397    400    402     1  0.0000000  0.6508444  3
    400    397    390    419     1  0.0000000  0.6508444  3
    401    400    409    418     1  0.0000000  1.0460000  1
    401    400    409    418     1  0.0000000  0.0000000  3
    401    400    409    410     1  0.0000000  0.6508444  3
    401    400    409    411     1  0.0000000  0.6508444  3
    402    400    409    418     1  0.0000000  1.0460000  1
    402    400    409    418     1  0.0000000  0.0000000  3
    402    400    409    410     1  0.0000000  0.6508444  3
    402    400    409    411     1  0.0000000  0.6508444  3
    403    391    390    419     1  0.0000000  0.6508444  3
    404    403    415    898     1  0.0000000  1.0460000  1
    404    403    415    898     1  0.0000000  0.0000000  3
    404    403    415    416     1  0.0000000  0.6508444  3
    404    403    415    417     1  0.0000000  0.6508444  3
    405    403    415    898     1  0.0000000  1.0460000  1
    405    403    415    898     1  0.0000000  0.0000000  3
    405    403    415    416     1  0.0000000  0.6508444  3
    405    403    415    417     1  0.0000000  0.6508444  3
    406    394    390    419     1  0.0000000  0.6508444  3
    407    406    412    868     1  0.0000000  1.0460000  1
    407    406    412    868     1  0.0000000  0.0000000  3
    407    406    412    413     1  0.0000000  0.6508444  3
    407    406    412    414     1  0.0000000  0.6508444  3
    408    406    412    868     1  0.0000000  1.0460000  1
    408    406    412    868     1  0.0000000  0.0000000  3
    408    406    412    413     1  0.0000000  0.6508444  3
    408    406    412    414     1  0.0000000  0.6508444  3
    412    868    859    860     1  0.0000000  1.6038667  3
    412    868    859    861     1  0.0000000  1.6038667  3
    413    412    868    859     1  0.0000000  1.6038667  3
    414    412    868    859     1  0.0000000  1.6038667  3
    415    898    889    890     1  0.0000000  1.6038667  3
    415    898    889    891     1  0.0000000  1.6038667  3
    416    415    898    889     1  0.0000000  1.6038667  3
    417    415    898    889     1  0.0000000  1.6038667  3
    420    421    433    434     1  0.0000000  0.6508444  3
    420    421    433    435     1  0.0000000  0.6508444  3
    420    424    436    437     1  0.0000000  0.6508444  3
    420    424    436    438     1  0.0000000  0.6508444  3
    420    427    430    431     1  0.0000000  0.6508444  3
    420    427    430    432     1  0.0000000  0.6508444  3
    421    420    424    425     1  0.0000000  0.6508444  3
    421    420    424    426     1  0.0000000  0.6508444  3
    421    420    427    428     1  0.0000000  0.6508444  3
    421    420    427    429     1  0.0000000  0.6508444  3
    421    433    445    446     1  0.0000000  0.6508444  3
    421    433    445    447     1  0.0000000  0.6508444  3
    422    421    420    424     1  0.0000000  0.6508444  3
    422    421    420    427     1  0.0000000  0.6508444  3
    422    421    420    449     1  0.0000000  0.6508444  3
    422    421    433    445     1  0.0000000  0.6508444  3
    422    421    433    434     1  0.0000000  0.6508444  3
    422    421    433    435     1  0.0000000  0.6508444  3
    423    421    420    424     1  0.0000000  0.6508444  3
    423    421    420    427     1  0.0000000  0.6508444  3
    423    421    420    449     1  0.0000000  0.6508444  3
    423    421    433    445     1  0.0000000  0.6508444  3
    423    421    433    434     1  0.0000000  0.6508444  3
    423    421    433    435     1  0.0000000  0.6508444  3
    424    420    427    428     1  0.0000000  0.6508444  3
    424    420    427    429     1  0.0000000  0.6508444  3
    424    436    442    443     1  0.0000000  0.6508444  3
    424    436    442    444     1  0.0000000  0.6508444  3
    425    424    420    427     1  0.0000000  0.6508444  3
    425    424    420    449     1  0.0000000  0.6508444  3
    425    424    436    442     1  0.0000000  0.6508444  3
    425    424    436    437     1  0.0000000  0.6508444  3
    425    424    436    438     1  0.0000000  0.6508444  3
    426    424    420    427     1  0.0000000  0.6508444  3
    426    424    420    449     1  0.0000000  0.6508444  3
    426    424    436    442     1  0.0000000  0.6508444  3
    426    424    436    437     1  0.0000000  0.6508444  3
    426    424    436    438     1  0.0000000  0.6508444  3
    427    430    439    440     1  0.0000000  0.6508444  3
    427    430    439    441     1  0.0000000  0.6508444  3
    428    427    420    449     1  0.0000000  0.6508444  3
    428    427    430    439     1  0.0000000  0.6508444  3
    428    427    430    431     1  0.0000000  0.6508444  3
    428    427    430    432     1  0.0000000  0.6508444  3
    429    427    420    449     1  0.0000000  0.6508444  3
    429    427    430    439     1  0.0000000  0.6508444  3
    429    427    430    431     1  0.0000000  0.6508444  3
    429    427    430    432     1  0.0000000  0.6508444  3
    430    427    420    449     1  0.0000000  0.6508444  3
    431    430    439    448     1  0.0000000  1.0460000  1
    431    430    439    448     1  0.0000000  0.0000000  3
    431    430    439    440     1  0.0000000  0.6508444  3
    431    430    439    441     1  0.0000000  0.6508444  3
    432    430    439    448     1  0.0000000  1.0460000  1
    432    430    439    448     1  0.0000000  0.0000000  3
    432    430    439    440     1  0.0000000  0.6508444  3
    432    430    439    441     1  0.0000000  0.6508444  3
    433    421    420    449     1  0.0000000  0.6508444  3
    434    433    445    958     1  0.0000000  1.0460000  1
    434    433    445    958     1  0.0000000  0.0000000  3
    434    433    445    446     1  0.0000000  0.6508444  3
    434    433    445    447     1  0.0000000  0.6508444  3
    435    433    445    958     1  0.0000000  1.0460000  1
    435    433    445    958     1  0.0000000  0.0000000  3
    435    433    445    446     1  0.0000000  0.6508444  3
    435    433    445    447     1  0.0000000  0.6508444  3
    436    424    420    449     1  0.0000000  0.6508444  3
    437    436    442    928     1  0.0000000  1.0460000  1
    437    436    442    928     1  0.0000000  0.0000000  3
    437    436    442    443     1  0.0000000  0.6508444  3
    437    436    442    444     1  0.0000000  0.6508444  3
    438    436    442    928     1  0.0000000  1.0460000  1
    438    436    442    928     1  0.0000000  0.0000000  3
    438    436    442    443     1  0.0000000  0.6508444  3
    438    436    442    444     1  0.0000000  0.6508444  3
    442    928    919    920     1  0.0000000  1.6038667  3
    442    928    919    921     1  0.0000000  1.6038667  3
    443    442    928    919     1  0.0000000  1.6038667  3
    444    442    928    919     1  0.0000000  1.6038667  3
    445    958    949    950     1  0.0000000  1.6038667  3
    445    958    949    951     1  0.0000000  1.6038667  3
    446    445    958    949     1  0.0000000  1.6038667  3
    447    445    958    949     1  0.0000000  1.6038667  3
    450    451    463    464     1  0.0000000  0.6508444  3
    450    451    463    465     1  0.0000000  0.6508444  3
    450    454    466    467     1  0.0000000  0.6508444  3
    450    454    466    468     1  0.0000000  0.6508444  3
    450    457    460    461     1  0.0000000  0.6508444  3
    450    457    460    462     1  0.0000000  0.6508444  3
    451    450    454    455     1  0.0000000  0.6508444  3
    451    450    454    456     1  0.0000000  0.6508444  3
    451    450    457    458     1  0.0000000  0.6508444  3
    451    450    457    459     1  0.0000000  0.6508444  3
    451    463    475    476     1  0.0000000  0.6508444  3
    451    463    475    477     1  0.0000000  0.6508444  3
    452    451    450    454     1  0.0000000  0.6508444  3
    452    451    450    457     1  0.0000000  0.6508444  3
    452    451    450    479     1  0.0000000  0.6508444  3
    452    451    463    475     1  0.0000000  0.6508444  3
    452    451    463    464     1  0.0000000  0.6508444  3
    452    451    463    465     1  0.0000000  0.6508444  3
    453    451    450    454     1  0.0000000  0.6508444  3
    453    451    450    457     1  0.0000000  0.6508444  3
    453    451    450    479     1  0.0000000  0.6508444  3
    453    451    463    475     1  0.0000000  0.6508444  3
    453    451    463    464     1  0.0000000  0.6508444  3
    453    451    463    465     1  0.0000000  0.6508444  3
    454    450    457    458     1  0.0000000  0.6508444  3
    454    450    457    459     1  0.0000000  0.6508444  3
    454    466    472    473     1  0.0000000  0.6508444  3
    454    466    472    474     1  0.0000000  0.6508444  3
    455    454    450    457     1  0.0000000  0.6508444  3
    455    454    450    479     1  0.0000000  0.6508444  3
    455    454    466    472     1  0.0000000  0.6508444  3
    455    454    466    467     1  0.0000000  0.6508444  3
    455    454    466    468     1  0.0000000  0.6508444  3
    456    454    450    457     1  0.0000000  0.6508444  3
    456    454    450    479     1  0.0000000  0.6508444  3
    456    454    466    472     1  0.0000000  0.6508444  3
    456    454    466    467     1  0.0000000  0.6508444  3
    456    454    466    468     1  0.0000000  0.6508444  3
    457    460    469    470     1  0.0000000  0.6508444  3
    457    460    469    471     1  0.0000000  0.6508444  3
    458    457    450    479     1  0.0000000  0.6508444  3
    458    457    460    469     1  0.0000000  0.6508444  3
    458    457    460    461     1  0.0000000  0.6508444  3
    458    457    460    462     1  0.0000000  0.6508444  3
    459    457    450    479     1  0.0000000  0.6508444  3
    459    457    460    469     1  0.0000000  0.6508444  3
    459    457    460    461     1  0.0000000  0.6508444  3
    459    457    460    462     1  0.0000000  0.6508444  3
    460    457    450    479     1  0.0000000  0.6508444  3
    461    460    469    478     1  0.0000000  1.0460000  1
    461    460    469    478     1  0.0000000  0.0000000  3
    461    460    469    470     1  0.0000000  0.6508444  3
    461    460    469    471     1  0.0000000  0.6508444  3
    462    460    469    478     1  0.0000000  1.0460000  1
    462    460    469    478     1  0.0000000  0.0000000  3
    462    460    469    470     1  0.0000000  0.6508444  3
    462    460    469    471     1  0.0000000  0.6508444  3
    463    451    450    479     1  0.0000000  0.6508444  3
    464    463    475   1018     1  0.0000000  1.0460000  1
    464    463    475   1018     1  0.0000000  0.0000000  3
    464    463    475    476     1  0.0000000  0.6508444  3
    464    463    475    477     1  0.0000000  0.6508444  3
    465    463    475   1018     1  0.0000000  1.0460000  1
    465    463    475   1018     1  0.0000000  0.0000000  3
    465    463    475    476     1  0.0000000  0.6508444  3
    465    463    475    477     1  0.0000000  0.6508444  3
    466    454    450    479     1  0.0000000  0.6508444  3
    467    466    472    988     1  0.0000000  1.0460000  1
    467    466    472    988     1  0.0000000  0.0000000  3
    467    466    472    473     1  0.0000000  0.6508444  3
    467    466    472    474     1  0.0000000  0.6508444  3
    468    466    472    988     1  0.0000000  1.0460000  1
    468    466    472    988     1  0.0000000  0.0000000  3
    468    466    472    473     1  0.0000000  0.6508444  3
    468    466    472    474     1  0.0000000  0.6508444  3
    472    988    979    980     1  0.0000000  1.6038667  3
    472    988    979    981     1  0.0000000  1.6038667  3
    473    472    988    979     1  0.0000000  1.6038667  3
    474    472    988    979     1  0.0000000  1.6038667  3
    475   1018   1009   1010     1  0.0000000  1.6038667  3
    475   1018   1009   1011     1  0.0000000  1.6038667  3
    476    475   1018   1009     1  0.0000000  1.6038667  3
    477    475   1018   1009     1  0.0000000  1.6038667  3
    480    481    493    494     1  0.0000000  0.6508444  3
    480    481    493    495     1  0.0000000  0.6508444  3
    480    484    496    497     1  0.0000000  0.6508444  3
    480    484    496    498     1  0.0000000  0.6508444  3
    480    487    490    491     1  0.0000000  0.6508444  3
    480    487    490    492     1  0.0000000  0.6508444  3
    481    480    484    485     1  0.0000000  0.6508444  3
    481    480    484    486     1  0.0000000  0.6508444  3
    481    480    487    488     1  0.0000000  0.6508444  3
    481    480    487    489     1  0.0000000  0.6508444  3
    481    493    505    506     1  0.0000000  0.6508444  3
    481    493    505    507     1  0.0000000  0.6508444  3
    482    481    480    484     1  0.0000000  0.6508444  3
    482    481    480    487     1  0.0000000  0.6508444  3
    482    481    480    509     1  0.0000000  0.6508444  3
    482    481    493    505     1  0.0000000  0.6508444  3
    482    481    493    494     1  0.0000000  0.6508444  3
    482    481    493    495     1  0.0000000  0.6508444  3
    483    481    480    484     1  0.0000000  0.6508444  3
    483    481    480    487     1  0.0000000  0.6508444  3
    483    481    480    509     1  0.0000000  0.6508444  3
    483    481    493    505     1  0.0000000  0.6508444  3
    483    481    493    494     1  0.0000000  0.6508444  3
    483    481    493    495     1  0.0000000  0.6508444  3
    484    480    487    488     1  0.0000000  0.6508444  3
    484    480    487    489     1  0.0000000  0.6508444  3
    484    496    502    503     1  0.0000000  0.6508444  3
    484    496    502    504     1  0.0000000  0.6508444  3
    485    484    480    487     1  0.0000000  0.6508444  3
    485    484    480    509     1  0.0000000  0.6508444  3
    485    484    496    502     1  0.0000000  0.6508444  3
    485    484    496    497     1  0.0000000  0.6508444  3
    485    484    496    498     1  0.0000000  0.6508444  3
    486    484    480    487     1  0.0000000  0.6508444  3
    486    484    480    509     1  0.0000000  0.6508444  3
    486    484    496    502     1  0.0000000  0.6508444  3
    486    484    496    497     1  0.0000000  0.6508444  3
    486    484    496    498     1  0.0000000  0.6508444  3
    487    490    499    500     1  0.0000000  0.6508444  3
    487    490    499    501     1  0.0000000  0.6508444  3
    488    487    480    509     1  0.0000000  0.6508444  3
    488    487    490    499     1  0.0000000  0.6508444  3
    488    487    490    491     1  0.0000000  0.6508444  3
    488    487    490    492     1  0.0000000  0.6508444  3
    489    487    480    509     1  0.0000000  0.6508444  3
    489    487    490    499     1  0.0000000  0.6508444  3
    489    487    490    491     1  0.0000000  0.6508444  3
    489    487    490    492     1  0.0000000  0.6508444  3
    490    487    480    509     1  0.0000000  0.6508444  3
    491    490    499    508     1  0.0000000  1.0460000  1
    491    490    499    508     1  0.0000000  0.0000000  3
    491    490    499    500     1  0.0000000  0.6508444  3
    491    490    499    501     1  0.0000000  0.6508444  3
    492    490    499    508     1  0.0000000  1.0460000  1
    492    490    499    508     1  0.0000000  0.0000000  3
    492    490    499    500     1  0.0000000  0.6508444  3
    492    490    499    501     1  0.0000000  0.6508444  3
    493    481    480    509     1  0.0000000  0.6508444  3
    494    493    505   1078     1  0.0000000  1.0460000  1
    494    493    505   1078     1  0.0000000  0.0000000  3
    494    493    505    506     1  0.0000000  0.6508444  3
    494    493    505    507     1  0.0000000  0.6508444  3
    495    493    505   1078     1  0.0000000  1.0460000  1
    495    493    505   1078     1  0.0000000  0.0000000  3
    495    493    505    506     1  0.0000000  0.6508444  3
    495    493    505    507     1  0.0000000  0.6508444  3
    496    484    480    509     1  0.0000000  0.6508444  3
    497    496    502   1048     1  0.0000000  1.0460000  1
    497    496    502   1048     1  0.0000000  0.0000000  3
    497    496    502    503     1  0.0000000  0.6508444  3
    497    496    502    504     1  0.0000000  0.6508444  3
    498    496    502   1048     1  0.0000000  1.0460000  1
    498    496    502   1048     1  0.0000000  0.0000000  3
    498    496    502    503     1  0.0000000  0.6508444  3
    498    496    502    504     1  0.0000000  0.6508444  3
    502   1048   1039   1040     1  0.0000000  1.6038667  3
    502   1048   1039   1041     1  0.0000000  1.6038667  3
    503    502   1048   1039     1  0.0000000  1.6038667  3
    504    502   1048   1039     1  0.0000000  1.6038667  3
    505   1078   1069   1070     1  0.0000000  1.6038667  3
    505   1078   1069   1071     1  0.0000000  1.6038667  3
    506    505   1078   1069     1  0.0000000  1.6038667  3
    507    505   1078   1069     1  0.0000000  1.6038667  3
    510    511    523    524     1  0.0000000  0.6508444  3
    510    511    523    525     1  0.0000000  0.6508444  3
    510    514    526    527     1  0.0000000  0.6508444  3
    510    514    526    528     1  0.0000000  0.6508444  3
    510    517    520    521     1  0.0000000  0.6508444  3
    510    517    520    522     1  0.0000000  0.6508444  3
    511    510    514    515     1  0.0000000  0.6508444  3
    511    510    514    516     1  0.0000000  0.6508444  3
    511    510    517    518     1  0.0000000  0.6508444  3
    511    510    517    519     1  0.0000000  0.6508444  3
    511    523    535    536     1  0.0000000  0.6508444  3
    511    523    535    537     1  0.0000000  0.6508444  3
    512    511    510    514     1  0.0000000  0.6508444  3
    512    511    510    517     1  0.0000000  0.6508444  3
    512    511    510    539     1  0.0000000  0.6508444  3
    512    511    523    535     1  0.0000000  0.6508444  3
    512    511    523    524     1  0.0000000  0.6508444  3
    512    511    523    525     1  0.0000000  0.6508444  3
    513    511    510    514     1  0.0000000  0.6508444  3
    513    511    510    517     1  0.0000000  0.6508444  3
    513    511    510    539     1  0.0000000  0.6508444  3
    513    511    523    535     1  0.0000000  0.6508444  3
    513    511    523    524     1  0.0000000  0.6508444  3
    513    511    523    525     1  0.0000000  0.6508444  3
    514    510    517    518     1  0.0000000  0.6508444  3
    514    510    517    519     1  0.0000000  0.6508444  3
    514    526    532    533     1  0.0000000  0.6508444  3
    514    526    532    534     1  0.0000000  0.6508444  3
    515    514    510    517     1  0.0000000  0.6508444  3
    515    514    510    539     1  0.0000000  0.6508444  3
    515    514    526    532     1  0.0000000  0.6508444  3
    515    514    526    527     1  0.0000000  0.6508444  3
    515    514    526    528     1  0.0000000  0.6508444  3
    516    514    510    517     1  0.0000000  0.6508444  3
    516    514    510    539     1  0.0000000  0.6508444  3
    516    514    526    532     1  0.0000000  0.6508444  3
    516    514    526    527     1  0.0000000  0.6508444  3
    516    514    526    528     1  0.0000000  0.6508444  3
    517    520    529    530     1  0.0000000  0.6508444  3
    517    520    529    531     1  0.0000000  0.6508444  3
    518    517    510    539     1  0.0000000  0.6508444  3
    518    517    520    529     1  0.0000000  0.6508444  3
    518    517    520    521     1  0.0000000  0.6508444  3
    518    517    520    522     1  0.0000000  0.6508444  3
    519    517    510    539     1  0.0000000  0.6508444  3
    519    517    520    529     1  0.0000000  0.6508444  3
    519    517    520    521     1  0.0000000  0.6508444  3
    519    517    520    522     1  0.0000000  0.6508444  3
    520    517    510    539     1  0.0000000  0.6508444  3
    521    520    529    538     1  0.0000000  1.0460000  1
    521    520    529    538     1  0.0000000  0.0000000  3
    521    520    529    530     1  0.0000000  0.6508444  3
    521    520    529    531     1  0.0000000  0.6508444  3
    522    520    529    538     1  0.0000000  1.0460000  1
    522    520    529    538     1  0.0000000  0.0000000  3
    522    520    529    530     1  0.0000000  0.6508444  3
    522    520    529    531     1  0.0000000  0.6508444  3
    523    511    510    539     1  0.0000000  0.6508444  3
    524    523    535   1138     1  0.0000000  1.0460000  1
    524    523    535   1138     1  0.0000000  0.0000000  3
    524    523    535    536     1  0.0000000  0.6508444  3
    524    523    535    537     1  0.0000000  0.6508444  3
    525    523    535   1138     1  0.0000000  1.0460000  1
    525    523    535   1138     1  0.0000000  0.0000000  3
    525    523    535    536     1  0.0000000  0.6508444  3
    525    523    535    537     1  0.0000000  0.6508444  3
    526    514    510    539     1  0.0000000  0.6508444  3
    527    526    532   1108     1  0.0000000  1.0460000  1
    527    526    532   1108     1  0.0000000  0.0000000  3
    527    526    532    533     1  0.0000000  0.6508444  3
    527    526    532    534     1  0.0000000  0.6508444  3
    528    526    532   1108     1  0.0000000  1.0460000  1
    528    526    532   1108     1  0.0000000  0.0000000  3
    528    526    532    533     1  0.0000000  0.6508444  3
    528    526    532    534     1  0.0000000  0.6508444  3
    532   1108   1099   1100     1  0.0000000  1.6038667  3
    532   1108   1099   1101     1  0.0000000  1.6038667  3
    533    532   1108   1099     1  0.0000000  1.6038667  3
    534    532   1108   1099     1  0.0000000  1.6038667  3
    535   1138   1129   1130     1  0.0000000  1.6038667  3
    535   1138   1129   1131     1  0.0000000  1.6038667  3
    536    535   1138   1129     1  0.0000000  1.6038667  3
    537    535   1138   1129     1  0.0000000  1.6038667  3
    540    541    553    554     1  0.0000000  0.6508444  3
    540    541    553    555     1  0.0000000  0.6508444  3
    540    544    556    557     1  0.0000000  0.6508444  3
    540    544    556    558     1  0.0000000  0.6508444  3
    540    547    550    551     1  0.0000000  0.6508444  3
    540    547    550    552     1  0.0000000  0.6508444  3
    541    540    544    545     1  0.0000000  0.6508444  3
    541    540    544    546     1  0.0000000  0.6508444  3
    541    540    547    548     1  0.0000000  0.6508444  3
    541    540    547    549     1  0.0000000  0.6508444  3
    541    553    565    566     1  0.0000000  0.6508444  3
    541    553    565    567     1  0.0000000  0.6508444  3
    542    541    540    544     1  0.0000000  0.6508444  3
    542    541    540    547     1  0.0000000  0.6508444  3
    542    541    540    569     1  0.0000000  0.6508444  3
    542    541    553    565     1  0.0000000  0.6508444  3
    542    541    553    554     1  0.0000000  0.6508444  3
    542    541    553    555     1  0.0000000  0.6508444  3
    543    541    540    544     1  0.0000000  0.6508444  3
    543    541    540    547     1  0.0000000  0.6508444  3
    543    541    540    569     1  0.0000000  0.6508444  3
    543    541    553    565     1  0.0000000  0.6508444  3
    543    541    553    554     1  0.0000000  0.6508444  3
    543    541    553    555     1  0.0000000  0.6508444  3
    544    540    547    548     1  0.0000000  0.6508444  3
    544    540    547    549     1  0.0000000  0.6508444  3
    544    556    562    563     1  0.0000000  0.6508444  3
    544    556    562    564     1  0.0000000  0.6508444  3
    545    544    540    547     1  0.0000000  0.6508444  3
    545    544    540    569     1  0.0000000  0.6508444  3
    545    544    556    562     1  0.0000000  0.6508444  3
    545    544    556    557     1  0.0000000  0.6508444  3
    545    544    556    558     1  0.0000000  0.6508444  3
    546    544    540    547     1  0.0000000  0.6508444  3
    546    544    540    569     1  0.0000000  0.6508444  3
    546    544    556    562     1  0.0000000  0.6508444  3
    546    544    556    557     1  0.0000000  0.6508444  3
    546    544    556    558     1  0.0000000  0.6508444  3
    547    550    559    560     1  0.0000000  0.6508444  3
    547    550    559    561     1  0.0000000  0.6508444  3
    548    547    540    569     1  0.0000000  0.6508444  3
    548    547    550    559     1  0.0000000  0.6508444  3
    548    547    550    551     1  0.0000000  0.6508444  3
    548    547    550    552     1  0.0000000  0.6508444  3
    549    547    540    569     1  0.0000000  0.6508444  3
    549    547    550    559     1  0.0000000  0.6508444  3
    549    547    550    551     1  0.0000000  0.6508444  3
    549    547    550    552     1  0.0000000  0.6508444  3
    550    547    540    569     1  0.0000000  0.6508444  3
    551    550    559    568     1  0.0000000  1.0460000  1
    551    550    559    568     1  0.0000000  0.0000000  3
    551    550    559    560     1  0.0000000  0.6508444  3
    551    550    559    561     1  0.0000000  0.6508444  3
    552    550    559    568     1  0.0000000  1.0460000  1
    552    550    559    568     1  0.0000000  0.0000000  3
    552    550    559    560     1  0.0000000  0.6508444  3
    552    550    559    561     1  0.0000000  0.6508444  3
    553    541    540    569     1  0.0000000  0.6508444  3
    554    553    565   1198     1  0.0000000  1.0460000  1
    554    553    565   1198     1  0.0000000  0.0000000  3
    554    553    565    566     1  0.0000000  0.6508444  3
    554    553    565    567     1  0.0000000  0.6508444  3
    555    553    565   1198     1  0.0000000  1.0460000  1
    555    553    565   1198     1  0.0000000  0.0000000  3
    555    553    565    566     1  0.0000000  0.6508444  3
    555    553    565    567     1  0.0000000  0.6508444  3
    556    544    540    569     1  0.0000000  0.6508444  3
    557    556    562   1168     1  0.0000000  1.0460000  1
    557    556    562   1168     1  0.0000000  0.0000000  3
    557    556    562    563     1  0.0000000  0.6508444  3
    557    556    562    564     1  0.0000000  0.6508444  3
    558    556    562   1168     1  0.0000000  1.0460000  1
    558    556    562   1168     1  0.0000000  0.0000000  3
    558    556    562    563     1  0.0000000  0.6508444  3
    558    556    562    564     1  0.0000000  0.6508444  3
    562   1168   1159   1160     1  0.0000000  1.6038667  3
    562   1168   1159   1161     1  0.0000000  1.6038667  3
    563    562   1168   1159     1  0.0000000  1.6038667  3
    564    562   1168   1159     1  0.0000000  1.6038667  3
    565   1198   1189   1190     1  0.0000000  1.6038667  3
    565   1198   1189   1191     1  0.0000000  1.6038667  3
    566    565   1198   1189     1  0.0000000  1.6038667  3
    567    565   1198   1189     1  0.0000000  1.6038667  3
    570    571    583    584     1  0.0000000  0.6508444  3
    570    571    583    585     1  0.0000000  0.6508444  3
    570    574    586    587     1  0.0000000  0.6508444  3
    570    574    586    588     1  0.0000000  0.6508444  3
    570    577    580    581     1  0.0000000  0.6508444  3
    570    577    580    582     1  0.0000000  0.6508444  3
    571    570    574    575     1  0.0000000  0.6508444  3
    571    570    574    576     1  0.0000000  0.6508444  3
    571    570    577    578     1  0.0000000  0.6508444  3
    571    570    577    579     1  0.0000000  0.6508444  3
    571    583    595    596     1  0.0000000  0.6508444  3
    571    583    595    597     1  0.0000000  0.6508444  3
    572    571    570    574     1  0.0000000  0.6508444  3
    572    571    570    577     1  0.0000000  0.6508444  3
    572    571    570    599     1  0.0000000  0.6508444  3
    572    571    583    595     1  0.0000000  0.6508444  3
    572    571    583    584     1  0.0000000  0.6508444  3
    572    571    583    585     1  0.0000000  0.6508444  3
    573    571    570    574     1  0.0000000  0.6508444  3
    573    571    570    577     1  0.0000000  0.6508444  3
    573    571    570    599     1  0.0000000  0.6508444  3
    573    571    583    595     1  0.0000000  0.6508444  3
    573    571    583    584     1  0.0000000  0.6508444  3
    573    571    583    585     1  0.0000000  0.6508444  3
    574    570    577    578     1  0.0000000  0.6508444  3
    574    570    577    579     1  0.0000000  0.6508444  3
    574    586    592    593     1  0.0000000  0.6508444  3
    574    586    592    594     1  0.0000000  0.6508444  3
    575    574    570    577     1  0.0000000  0.6508444  3
    575    574    570    599     1  0.0000000  0.6508444  3
    575    574    586    592     1  0.0000000  0.6508444  3
    575    574    586    587     1  0.0000000  0.6508444  3
    575    574    586    588     1  0.0000000  0.6508444  3
    576    574    570    577     1  0.0000000  0.6508444  3
    576    574    570    599     1  0.0000000  0.6508444  3
    576    574    586    592     1  0.0000000  0.6508444  3
    576    574    586    587     1  0.0000000  0.6508444  3
    576    574    586    588     1  0.0000000  0.6508444  3
    577    580    589    590     1  0.0000000  0.6508444  3
    577    580    589    591     1  0.0000000  0.6508444  3
    578    577    570    599     1  0.0000000  0.6508444  3
    578    577    580    589     1  0.0000000  0.6508444  3
    578    577    580    581     1  0.0000000  0.6508444  3
    578    577    580    582     1  0.0000000  0.6508444  3
    579    577    570    599     1  0.0000000  0.6508444  3
    579    577    580    589     1  0.0000000  0.6508444  3
    579    577    580    581     1  0.0000000  0.6508444  3
    579    577    580    582     1  0.0000000  0.6508444  3
    580    577    570    599     1  0.0000000  0.6508444  3
    581    580    589    598     1  0.0000000  1.0460000  1
    581    580    589    598     1  0.0000000  0.0000000  3
    581    580    589    590     1  0.0000000  0.6508444  3
    581    580    589    591     1  0.0000000  0.6508444  3
    582    580    589    598     1  0.0000000  1.0460000  1
    582    580    589    598     1  0.0000000  0.0000000  3
    582    580    589    590     1  0.0000000  0.6508444  3
    582    580    589    591     1  0.0000000  0.6508444  3
    583    571    570    599     1  0.0000000  0.6508444  3
    584    583    595   1258     1  0.0000000  1.0460000  1
    584    583    595   1258     1  0.0000000  0.0000000  3
    584    583    595    596     1  0.0000000  0.6508444  3
    584    583    595    597     1  0.0000000  0.6508444  3
    585    583    595   1258     1  0.0000000  1.0460000  1
    585    583    595   1258     1  0.0000000  0.0000000  3
    585    583    595    596     1  0.0000000  0.6508444  3
    585    583    595    597     1  0.0000000  0.6508444  3
    586    574    570    599     1  0.0000000  0.6508444  3
    587    586    592   1228     1  0.0000000  1.0460000  1
    587    586    592   1228     1  0.0000000  0.0000000  3
    587    586    592    593     1  0.0000000  0.6508444  3
    587    586    592    594     1  0.0000000  0.6508444  3
    588    586    592   1228     1  0.0000000  1.0460000  1
    588    586    592   1228     1  0.0000000  0.0000000  3
    588    586    592    593     1  0.0000000  0.6508444  3
    588    586    592    594     1  0.0000000  0.6508444  3
    592   1228   1219   1220     1  0.0000000  1.6038667  3
    592   1228   1219   1221     1  0.0000000  1.6038667  3
    593    592   1228   1219     1  0.0000000  1.6038667  3
    594    592   1228   1219     1  0.0000000  1.6038667  3
    595   1258   1249   1250     1  0.0000000  1.6038667  3
    595   1258   1249   1251     1  0.0000000  1.6038667  3
    596    595   1258   1249     1  0.0000000  1.6038667  3
    597    595   1258   1249     1  0.0000000  1.6038667  3
    600    601    613    614     1  0.0000000  0.6508444  3
    600    601    613    615     1  0.0000000  0.6508444  3
    600    604    616    617     1  0.0000000  0.6508444  3
    600    604    616    618     1  0.0000000  0.6508444  3
    600    607    610    611     1  0.0000000  0.6508444  3
    600    607    610    612     1  0.0000000  0.6508444  3
    601    600    604    605     1  0.0000000  0.6508444  3
    601    600    604    606     1  0.0000000  0.6508444  3
    601    600    607    608     1  0.0000000  0.6508444  3
    601    600    607    609     1  0.0000000  0.6508444  3
    601    613    625    626     1  0.0000000  0.6508444  3
    601    613    625    627     1  0.0000000  0.6508444  3
    602    601    600    604     1  0.0000000  0.6508444  3
    602    601    600    607     1  0.0000000  0.6508444  3
    602    601    600    629     1  0.0000000  0.6508444  3
    602    601    613    625     1  0.0000000  0.6508444  3
    602    601    613    614     1  0.0000000  0.6508444  3
    602    601    613    615     1  0.0000000  0.6508444  3
    603    601    600    604     1  0.0000000  0.6508444  3
    603    601    600    607     1  0.0000000  0.6508444  3
    603    601    600    629     1  0.0000000  0.6508444  3
    603    601    613    625     1  0.0000000  0.6508444  3
    603    601    613    614     1  0.0000000  0.6508444  3
    603    601    613    615     1  0.0000000  0.6508444  3
    604    600    607    608     1  0.0000000  0.6508444  3
    604    600    607    609     1  0.0000000  0.6508444  3
    604    616    622    623     1  0.0000000  0.6508444  3
    604    616    622    624     1  0.0000000  0.6508444  3
    605    604    600    607     1  0.0000000  0.6508444  3
    605    604    600    629     1  0.0000000  0.6508444  3
    605    604    616    622     1  0.0000000  0.6508444  3
    605    604    616    617     1  0.0000000  0.6508444  3
    605    604    616    618     1  0.0000000  0.6508444  3
    606    604    600    607     1  0.0000000  0.6508444  3
    606    604    600    629     1  0.0000000  0.6508444  3
    606    604    616    622     1  0.0000000  0.6508444  3
    606    604    616    617     1  0.0000000  0.6508444  3
    606    604    616    618     1  0.0000000  0.6508444  3
    607    610    619    620     1  0.0000000  0.6508444  3
    607    610    619    621     1  0.0000000  0.6508444  3
    608    607    600    629     1  0.0000000  0.6508444  3
    608    607    610    619     1  0.0000000  0.6508444  3
    608    607    610    611     1  0.0000000  0.6508444  3
    608    607    610    612     1  0.0000000  0.6508444  3
    609    607    600    629     1  0.0000000  0.6508444  3
    609    607    610    619     1  0.0000000  0.6508444  3
    609    607    610    611     1  0.0000000  0.6508444  3
    609    607    610    612     1  0.0000000  0.6508444  3
    610    607    600    629     1  0.0000000  0.6508444  3
    611    610    619    628     1  0.0000000  1.0460000  1
    611    610    619    628     1  0.0000000  0.0000000  3
    611    610    619    620     1  0.0000000  0.6508444  3
    611    610    619    621     1  0.0000000  0.6508444  3
    612    610    619    628     1  0.0000000  1.0460000  1
    612    610    619    628     1  0.0000000  0.0000000  3
    612    610    619    620     1  0.0000000  0.6508444  3
    612    610    619    621     1  0.0000000  0.6508444  3
    613    601    600    629     1  0.0000000  0.6508444  3
    614    613    625   1318     1  0.0000000  1.0460000  1
    614    613    625   1318     1  0.0000000  0.0000000  3
    614    613    625    626     1  0.0000000  0.6508444  3
    614    613    625    627     1  0.0000000  0.6508444  3
    615    613    625   1318     1  0.0000000  1.0460000  1
    615    613    625   1318     1  0.0000000  0.0000000  3
    615    613    625    626     1  0.0000000  0.6508444  3
    615    613    625    627     1  0.0000000  0.6508444  3
    616    604    600    629     1  0.0000000  0.6508444  3
    617    616    622   1288     1  0.0000000  1.0460000  1
    617    616    622   1288     1  0.0000000  0.0000000  3
    617    616    622    623     1  0.0000000  0.6508444  3
    617    616    622    624     1  0.0000000  0.6508444  3
    618    616    622   1288     1  0.0000000  1.0460000  1
    618    616    622   1288     1  0.0000000  0.0000000  3
    618    616    622    623     1  0.0000000  0.6508444  3
    618    616    622    624     1  0.0000000  0.6508444  3
    622   1288   1279   1280     1  0.0000000  1.6038667  3
    622   1288   1279   1281     1  0.0000000  1.6038667  3
    623    622   1288   1279     1  0.0000000  1.6038667  3
    624    622   1288   1279     1  0.0000000  1.6038667  3
    625   1318   1309   1310     1  0.0000000  1.6038667  3
    625   1318   1309   1311     1  0.0000000  1.6038667  3
    626    625   1318   1309     1  0.0000000  1.6038667  3
    627    625   1318   1309     1  0.0000000  1.6038667  3
    630    631    643    644     1  0.0000000  0.6508444  3
    630    631    643    645     1  0.0000000  0.6508444  3
    630    634    646    647     1  0.0000000  0.6508444  3
    630    634    646    648     1  0.0000000  0.6508444  3
    630    637    640    641     1  0.0000000  0.6508444  3
    630    637    640    642     1  0.0000000  0.6508444  3
    631    630    634    635     1  0.0000000  0.6508444  3
    631    630    634    636     1  0.0000000  0.6508444  3
    631    630    637    638     1  0.0000000  0.6508444  3
    631    630    637    639     1  0.0000000  0.6508444  3
    631    643    655    656     1  0.0000000  0.6508444  3
    631    643    655    657     1  0.0000000  0.6508444  3
    632    631    630    634     1  0.0000000  0.6508444  3
    632    631    630    637     1  0.0000000  0.6508444  3
    632    631    630    659     1  0.0000000  0.6508444  3
    632    631    643    655     1  0.0000000  0.6508444  3
    632    631    643    644     1  0.0000000  0.6508444  3
    632    631    643    645     1  0.0000000  0.6508444  3
    633    631    630    634     1  0.0000000  0.6508444  3
    633    631    630    637     1  0.0000000  0.6508444  3
    633    631    630    659     1  0.0000000  0.6508444  3
    633    631    643    655     1  0.0000000  0.6508444  3
    633    631    643    644     1  0.0000000  0.6508444  3
    633    631    643    645     1  0.0000000  0.6508444  3
    634    630    637    638     1  0.0000000  0.6508444  3
    634    630    637    639     1  0.0000000  0.6508444  3
    634    646    652    653     1  0.0000000  0.6508444  3
    634    646    652    654     1  0.0000000  0.6508444  3
    635    634    630    637     1  0.0000000  0.6508444  3
    635    634    630    659     1  0.0000000  0.6508444  3
    635    634    646    652     1  0.0000000  0.6508444  3
    635    634    646    647     1  0.0000000  0.6508444  3
    635    634    646    648     1  0.0000000  0.6508444  3
    636    634    630    637     1  0.0000000  0.6508444  3
    636    634    630    659     1  0.0000000  0.6508444  3
    636    634    646    652     1  0.0000000  0.6508444  3
    636    634    646    647     1  0.0000000  0.6508444  3
    636    634    646    648     1  0.0000000  0.6508444  3
    637    640    649    650     1  0.0000000  0.6508444  3
    637    640    649    651     1  0.0000000  0.6508444  3
    638    637    630    659     1  0.0000000  0.6508444  3
    638    637    640    649     1  0.0000000  0.6508444  3
    638    637    640    641     1  0.0000000  0.6508444  3
    638    637    640    642     1  0.0000000  0.6508444  3
    639    637    630    659     1  0.0000000  0.6508444  3
    639    637    640    649     1  0.0000000  0.6508444  3
    639    637    640    641     1  0.0000000  0.6508444  3
    639    637    640    642     1  0.0000000  0.6508444  3
    640    637    630    659     1  0.0000000  0.6508444  3
    641    640    649    658     1  0.0000000  1.0460000  1
    641    640    649    658     1  0.0000000  0.0000000  3
    641    640    649    650     1  0.0000000  0.6508444  3
    641    640    649    651     1  0.0000000  0.6508444  3
    642    640    649    658     1  0.0000000  1.0460000  1
    642    640    649    658     1  0.0000000  0.0000000  3
    642    640    649    650     1  0.0000000  0.6508444  3
    642    640    649    651     1  0.0000000  0.6508444  3
    643    631    630    659     1  0.0000000  0.6508444  3
    644    643    655   1378     1  0.0000000  1.0460000  1
    644    643    655   1378     1  0.0000000  0.0000000  3
    644    643    655    656     1  0.0000000  0.6508444  3
    644    643    655    657     1  0.0000000  0.6508444  3
    645    643    655   1378     1  0.0000000  1.0460000  1
    645    643    655   1378     1  0.0000000  0.0000000  3
    645    643    655    656     1  0.0000000  0.6508444  3
    645    643    655    657     1  0.0000000  0.6508444  3
    646    634    630    659     1  0.0000000  0.6508444  3
    647    646    652   1348     1  0.0000000  1.0460000  1
    647    646    652   1348     1  0.0000000  0.0000000  3
    647    646    652    653     1  0.0000000  0.6508444  3
    647    646    652    654     1  0.0000000  0.6508444  3
    648    646    652   1348     1  0.0000000  1.0460000  1
    648    646    652   1348     1  0.0000000  0.0000000  3
    648    646    652    653     1  0.0000000  0.6508444  3
    648    646    652    654     1  0.0000000  0.6508444  3
    652   1348   1339   1340     1  0.0000000  1.6038667  3
    652   1348   1339   1341     1  0.0000000  1.6038667  3
    653    652   1348   1339     1  0.0000000  1.6038667  3
    654    652   1348   1339     1  0.0000000  1.6038667  3
    655   1378   1369   1370     1  0.0000000  1.6038667  3
    655   1378   1369   1371     1  0.0000000  1.6038667  3
    656    655   1378   1369     1  0.0000000  1.6038667  3
    657    655   1378   1369     1  0.0000000  1.6038667  3
    660    661    673    674     1  0.0000000  0.6508444  3
    660    661    673    675     1  0.0000000  0.6508444  3
    660    664    676    677     1  0.0000000  0.6508444  3
    660    664    676    678     1  0.0000000  0.6508444  3
    660    667    670    671     1  0.0000000  0.6508444  3
    660    667    670    672     1  0.0000000  0.6508444  3
    661    660    664    665     1  0.0000000  0.6508444  3
    661    660    664    666     1  0.0000000  0.6508444  3
    661    660    667    668     1  0.0000000  0.6508444  3
    661    660    667    669     1  0.0000000  0.6508444  3
    661    673    685    686     1  0.0000000  0.6508444  3
    661    673    685    687     1  0.0000000  0.6508444  3
    662    661    660    664     1  0.0000000  0.6508444  3
    662    661    660    667     1  0.0000000  0.6508444  3
    662    661    660    689     1  0.0000000  0.6508444  3
    662    661    673    685     1  0.0000000  0.6508444  3
    662    661    673    674     1  0.0000000  0.6508444  3
    662    661    673    675     1  0.0000000  0.6508444  3
    663    661    660    664     1  0.0000000  0.6508444  3
    663    661    660    667     1  0.0000000  0.6508444  3
    663    661    660    689     1  0.0000000  0.6508444  3
    663    661    673    685     1  0.0000000  0.6508444  3
    663    661    673    674     1  0.0000000  0.6508444  3
    663    661    673    675     1  0.0000000  0.6508444  3
    664    660    667    668     1  0.0000000  0.6508444  3
    664    660    667    669     1  0.0000000  0.6508444  3
    664    676    682    683     1  0.0000000  0.6508444  3
    664    676    682    684     1  0.0000000  0.6508444  3
    665    664    660    667     1  0.0000000  0.6508444  3
    665    664    660    689     1  0.0000000  0.6508444  3
    665    664    676    682     1  0.0000000  0.6508444  3
    665    664    676    677     1  0.0000000  0.6508444  3
    665    664    676    678     1  0.0000000  0.6508444  3
    666    664    660    667     1  0.0000000  0.6508444  3
    666    664    660    689     1  0.0000000  0.6508444  3
    666    664    676    682     1  0.0000000  0.6508444  3
    666    664    676    677     1  0.0000000  0.6508444  3
    666    664    676    678     1  0.0000000  0.6508444  3
    667    670    679    680     1  0.0000000  0.6508444  3
    667    670    679    681     1  0.0000000  0.6508444  3
    668    667    660    689     1  0.0000000  0.6508444  3
    668    667    670    679     1  0.0000000  0.6508444  3
    668    667    670    671     1  0.0000000  0.6508444  3
    668    667    670    672     1  0.0000000  0.6508444  3
    669    667    660    689     1  0.0000000  0.6508444  3
    669    667    670    679     1  0.0000000  0.6508444  3
    669    667    670    671     1  0.0000000  0.6508444  3
    669    667    670    672     1  0.0000000  0.6508444  3
    670    667    660    689     1  0.0000000  0.6508444  3
    671    670    679    688     1  0.0000000  1.0460000  1
    671    670    679    688     1  0.0000000  0.0000000  3
    671    670    679    680     1  0.0000000  0.6508444  3
    671    670    679    681     1  0.0000000  0.6508444  3
    672    670    679    688     1  0.0000000  1.0460000  1
    672    670    679    688     1  0.0000000  0.0000000  3
    672    670    679    680     1  0.0000000  0.6508444  3
    672    670    679    681     1  0.0000000  0.6508444  3
    673    661    660    689     1  0.0000000  0.6508444  3
    674    673    685   1438     1  0.0000000  1.0460000  1
    674    673    685   1438     1  0.0000000  0.0000000  3
    674    673    685    686     1  0.0000000  0.6508444  3
    674    673    685    687     1  0.0000000  0.6508444  3
    675    673    685   1438     1  0.0000000  1.0460000  1
    675    673    685   1438     1  0.0000000  0.0000000  3
    675    673    685    686     1  0.0000000  0.6508444  3
    675    673    685    687     1  0.0000000  0.6508444  3
    676    664    660    689     1  0.0000000  0.6508444  3
    677    676    682   1408     1  0.0000000  1.0460000  1
    677    676    682   1408     1  0.0000000  0.0000000  3
    677    676    682    683     1  0.0000000  0.6508444  3
    677    676    682    684     1  0.0000000  0.6508444  3
    678    676    682   1408     1  0.0000000  1.0460000  1
    678    676    682   1408     1  0.0000000  0.0000000  3
    678    676    682    683     1  0.0000000  0.6508444  3
    678    676    682    684     1  0.0000000  0.6508444  3
    682   1408   1399   1400     1  0.0000000  1.6038667  3
    682   1408   1399   1401     1  0.0000000  1.6038667  3
    683    682   1408   1399     1  0.0000000  1.6038667  3
    684    682   1408   1399     1  0.0000000  1.6038667  3
    685   1438   1429   1430     1  0.0000000  1.6038667  3
    685   1438   1429   1431     1  0.0000000  1.6038667  3
    686    685   1438   1429     1  0.0000000  1.6038667  3
    687    685   1438   1429     1  0.0000000  1.6038667  3
    690    691    703    704     1  0.0000000  0.6508444  3
    690    691    703    705     1  0.0000000  0.6508444  3
    690    694    706    707     1  0.0000000  0.6508444  3
    690    694    706    708     1  0.0000000  0.6508444  3
    690    697    700    701     1  0.0000000  0.6508444  3
    690    697    700    702     1  0.0000000  0.6508444  3
    691    690    694    695     1  0.0000000  0.6508444  3
    691    690    694    696     1  0.0000000  0.6508444  3
    691    690    697    698     1  0.0000000  0.6508444  3
    691    690    697    699     1  0.0000000  0.6508444  3
    691    703    715    716     1  0.0000000  0.6508444  3
    691    703    715    717     1  0.0000000  0.6508444  3
    692    691    690    694     1  0.0000000  0.6508444  3
    692    691    690    697     1  0.0000000  0.6508444  3
    692    691    690    719     1  0.0000000  0.6508444  3
    692    691    703    715     1  0.0000000  0.6508444  3
    692    691    703    704     1  0.0000000  0.6508444  3
    692    691    703    705     1  0.0000000  0.6508444  3
    693    691    690    694     1  0.0000000  0.6508444  3
    693    691    690    697     1  0.0000000  0.6508444  3
    693    691    690    719     1  0.0000000  0.6508444  3
    693    691    703    715     1  0.0000000  0.6508444  3
    693    691    703    704     1  0.0000000  0.6508444  3
    693    691    703    705     1  0.0000000  0.6508444  3
    694    690    697    698     1  0.0000000  0.6508444  3
    694    690    697    699     1  0.0000000  0.6508444  3
    694    706    712    713     1  0.0000000  0.6508444  3
    694    706    712    714     1  0.0000000  0.6508444  3
    695    694    690    697     1  0.0000000  0.6508444  3
    695    694    690    719     1  0.0000000  0.6508444  3
    695    694    706    712     1  0.0000000  0.6508444  3
    695    694    706    707     1  0.0000000  0.6508444  3
    695    694    706    708     1  0.0000000  0.6508444  3
    696    694    690    697     1  0.0000000  0.6508444  3
    696    694    690    719     1  0.0000000  0.6508444  3
    696    694    706    712     1  0.0000000  0.6508444  3
    696    694    706    707     1  0.0000000  0.6508444  3
    696    694    706    708     1  0.0000000  0.6508444  3
    697    700    709    710     1  0.0000000  0.6508444  3
    697    700    709    711     1  0.0000000  0.6508444  3
    698    697    690    719     1  0.0000000  0.6508444  3
    698    697    700    709     1  0.0000000  0.6508444  3
    698    697    700    701     1  0.0000000  0.6508444  3
    698    697    700    702     1  0.0000000  0.6508444  3
    699    697    690    719     1  0.0000000  0.6508444  3
    699    697    700    709     1  0.0000000  0.6508444  3
    699    697    700    701     1  0.0000000  0.6508444  3
    699    697    700    702     1  0.0000000  0.6508444  3
    700    697    690    719     1  0.0000000  0.6508444  3
    701    700    709    718     1  0.0000000  1.0460000  1
    701    700    709    718     1  0.0000000  0.0000000  3
    701    700    709    710     1  0.0000000  0.6508444  3
    701    700    709    711     1  0.0000000  0.6508444  3
    702    700    709    718     1  0.0000000  1.0460000  1
    702    700    709    718     1  0.0000000  0.0000000  3
    702    700    709    710     1  0.0000000  0.6508444  3
    702    700    709    711     1  0.0000000  0.6508444  3
    703    691    690    719     1  0.0000000  0.6508444  3
    704    703    715   1498     1  0.0000000  1.0460000  1
    704    703    715   1498     1  0.0000000  0.0000000  3
    704    703    715    716     1  0.0000000  0.6508444  3
    704    703    715    717     1  0.0000000  0.6508444  3
    705    703    715   1498     1  0.0000000  1.0460000  1
    705    703    715   1498     1  0.0000000  0.0000000  3
    705    703    715    716     1  0.0000000  0.6508444  3
    705    703    715    717     1  0.0000000  0.6508444  3
    706    694    690    719     1  0.0000000  0.6508444  3
    707    706    712   1468     1  0.0000000  1.0460000  1
    707    706    712   1468     1  0.0000000  0.0000000  3
    707    706    712    713     1  0.0000000  0.6508444  3
    707    706    712    714     1  0.0000000  0.6508444  3
    708    706    712   1468     1  0.0000000  1.0460000  1
    708    706    712   1468     1  0.0000000  0.0000000  3
    708    706    712    713     1  0.0000000  0.6508444  3
    708    706    712    714     1  0.0000000  0.6508444  3
    712   1468   1459   1460     1  0.0000000  1.6038667  3
    712   1468   1459   1461     1  0.0000000  1.6038667  3
    713    712   1468   1459     1  0.0000000  1.6038667  3
    714    712   1468   1459     1  0.0000000  1.6038667  3
    715   1498   1489   1490     1  0.0000000  1.6038667  3
    715   1498   1489   1491     1  0.0000000  1.6038667  3
    716    715   1498   1489     1  0.0000000  1.6038667  3
    717    715   1498   1489     1  0.0000000  1.6038667  3
    720    721    733    734     1  0.0000000  0.6508444  3
    720    721    733    735     1  0.0000000  0.6508444  3
    720    724    736    737     1  0.0000000  0.6508444  3
    720    724    736    738     1  0.0000000  0.6508444  3
    720    727    730    731     1  0.0000000  0.6508444  3
    720    727    730    732     1  0.0000000  0.6508444  3
    721    720    724    725     1  0.0000000  0.6508444  3
    721    720    724    726     1  0.0000000  0.6508444  3
    721    720    727    728     1  0.0000000  0.6508444  3
    721    720    727    729     1  0.0000000  0.6508444  3
    721    733    745    746     1  0.0000000  0.6508444  3
    721    733    745    747     1  0.0000000  0.6508444  3
    722    721    720    724     1  0.0000000  0.6508444  3
    722    721    720    727     1  0.0000000  0.6508444  3
    722    721    720    749     1  0.0000000  0.6508444  3
    722    721    733    745     1  0.0000000  0.6508444  3
    722    721    733    734     1  0.0000000  0.6508444  3
    722    721    733    735     1  0.0000000  0.6508444  3
    723    721    720    724     1  0.0000000  0.6508444  3
    723    721    720    727     1  0.0000000  0.6508444  3
    723    721    720    749     1  0.0000000  0.6508444  3
    723    721    733    745     1  0.0000000  0.6508444  3
    723    721    733    734     1  0.0000000  0.6508444  3
    723    721    733    735     1  0.0000000  0.6508444  3
    724    720    727    728     1  0.0000000  0.6508444  3
    724    720    727    729     1  0.0000000  0.6508444  3
    724    736    742    743     1  0.0000000  0.6508444  3
    724    736    742    744     1  0.0000000  0.6508444  3
    725    724    720    727     1  0.0000000  0.6508444  3
    725    724    720    749     1  0.0000000  0.6508444  3
    725    724    736    742     1  0.0000000  0.6508444  3
    725    724    736    737     1  0.0000000  0.6508444  3
    725    724    736    738     1  0.0000000  0.6508444  3
    726    724    720    727     1  0.0000000  0.6508444  3
    726    724    720    749     1  0.0000000  0.6508444  3
    726    724    736    742     1  0.0000000  0.6508444  3
    726    724    736    737     1  0.0000000  0.6508444  3
    726    724    736    738     1  0.0000000  0.6508444  3
    727    730    739    740     1  0.0000000  0.6508444  3
    727    730    739    741     1  0.0000000  0.6508444  3
    728    727    720    749     1  0.0000000  0.6508444  3
    728    727    730    739     1  0.0000000  0.6508444  3
    728    727    730    731     1  0.0000000  0.6508444  3
    728    727    730    732     1  0.0000000  0.6508444  3
    729    727    720    749     1  0.0000000  0.6508444  3
    729    727    730    739     1  0.0000000  0.6508444  3
    729    727    730    731     1  0.0000000  0.6508444  3
    729    727    730    732     1  0.0000000  0.6508444  3
    730    727    720    749     1  0.0000000  0.6508444  3
    731    730    739    748     1  0.0000000  1.0460000  1
    731    730    739    748     1  0.0000000  0.0000000  3
    731    730    739    740     1  0.0000000  0.6508444  3
    731    730    739    741     1  0.0000000  0.6508444  3
    732    730    739    748     1  0.0000000  1.0460000  1
    732    730    739    748     1  0.0000000  0.0000000  3
    732    730    739    740     1  0.0000000  0.6508444  3
    732    730    739    741     1  0.0000000  0.6508444  3
    733    721    720    749     1  0.0000000  0.6508444  3
    734    733    745   1558     1  0.0000000  1.0460000  1
    734    733    745   1558     1  0.0000000  0.0000000  3
    734    733    745    746     1  0.0000000  0.6508444  3
    734    733    745    747     1  0.0000000  0.6508444  3
    735    733    745   1558     1  0.0000000  1.0460000  1
    735    733    745   1558     1  0.0000000  0.0000000  3
    735    733    745    746     1  0.0000000  0.6508444  3
    735    733    745    747     1  0.0000000  0.6508444  3
    736    724    720    749     1  0.0000000  0.6508444  3
    737    736    742   1528     1  0.0000000  1.0460000  1
    737    736    742   1528     1  0.0000000  0.0000000  3
    737    736    742    743     1  0.0000000  0.6508444  3
    737    736    742    744     1  0.0000000  0.6508444  3
    738    736    742   1528     1  0.0000000  1.0460000  1
    738    736    742   1528     1  0.0000000  0.0000000  3
    738    736    742    743     1  0.0000000  0.6508444  3
    738    736    742    744     1  0.0000000  0.6508444  3
    742   1528   1519   1520     1  0.0000000  1.6038667  3
    742   1528   1519   1521     1  0.0000000  1.6038667  3
    743    742   1528   1519     1  0.0000000  1.6038667  3
    744    742   1528   1519     1  0.0000000  1.6038667  3
    745   1558   1549   1550     1  0.0000000  1.6038667  3
    745   1558   1549   1551     1  0.0000000  1.6038667  3
    746    745   1558   1549     1  0.0000000  1.6038667  3
    747    745   1558   1549     1  0.0000000  1.6038667  3
    750    751    763    764     1  0.0000000  0.6508444  3
    750    751    763    765     1  0.0000000  0.6508444  3
    750    754    766    767     1  0.0000000  0.6508444  3
    750    754    766    768     1  0.0000000  0.6508444  3
    750    757    760    761     1  0.0000000  0.6508444  3
    750    757    760    762     1  0.0000000  0.6508444  3
    751    750    754    755     1  0.0000000  0.6508444  3
    751    750    754    756     1  0.0000000  0.6508444  3
    751    750    757    758     1  0.0000000  0.6508444  3
    751    750    757    759     1  0.0000000  0.6508444  3
    751    763    775    776     1  0.0000000  0.6508444  3
    751    763    775    777     1  0.0000000  0.6508444  3
    752    751    750    754     1  0.0000000  0.6508444  3
    752    751    750    757     1  0.0000000  0.6508444  3
    752    751    750    779     1  0.0000000  0.6508444  3
    752    751    763    775     1  0.0000000  0.6508444  3
    752    751    763    764     1  0.0000000  0.6508444  3
    752    751    763    765     1  0.0000000  0.6508444  3
    753    751    750    754     1  0.0000000  0.6508444  3
    753    751    750    757     1  0.0000000  0.6508444  3
    753    751    750    779     1  0.0000000  0.6508444  3
    753    751    763    775     1  0.0000000  0.6508444  3
    753    751    763    764     1  0.0000000  0.6508444  3
    753    751    763    765     1  0.0000000  0.6508444  3
    754    750    757    758     1  0.0000000  0.6508444  3
    754    750    757    759     1  0.0000000  0.6508444  3
    754    766    772    773     1  0.0000000  0.6508444  3
    754    766    772    774     1  0.0000000  0.6508444  3
    755    754    750    757     1  0.0000000  0.6508444  3
    755    754    750    779     1  0.0000000  0.6508444  3
    755    754    766    772     1  0.0000000  0.6508444  3
    755    754    766    767     1  0.0000000  0.6508444  3
    755    754    766    768     1  0.0000000  0.6508444  3
    756    754    750    757     1  0.0000000  0.6508444  3
    756    754    750    779     1  0.0000000  0.6508444  3
    756    754    766    772     1  0.0000000  0.6508444  3
    756    754    766    767     1  0.0000000  0.6508444  3
    756    754    766    768     1  0.0000000  0.6508444  3
    757    760    769    770     1  0.0000000  0.6508444  3
    757    760    769    771     1  0.0000000  0.6508444  3
    758    757    750    779     1  0.0000000  0.6508444  3
    758    757    760    769     1  0.0000000  0.6508444  3
    758    757    760    761     1  0.0000000  0.6508444  3
    758    757    760    762     1  0.0000000  0.6508444  3
    759    757    750    779     1  0.0000000  0.6508444  3
    759    757    760    769     1  0.0000000  0.6508444  3
    759    757    760    761     1  0.0000000  0.6508444  3
    759    757    760    762     1  0.0000000  0.6508444  3
    760    757    750    779     1  0.0000000  0.6508444  3
    761    760    769    778     1  0.0000000  1.0460000  1
    761    760    769    778     1  0.0000000  0.0000000  3
    761    760    769    770     1  0.0000000  0.6508444  3
    761    760    769    771     1  0.0000000  0.6508444  3
    762    760    769    778     1  0.0000000  1.0460000  1
    762    760    769    778     1  0.0000000  0.0000000  3
    762    760    769    770     1  0.0000000  0.6508444  3
    762    760    769    771     1  0.0000000  0.6508444  3
    763    751    750    779     1  0.0000000  0.6508444  3
    764    763    775   1618     1  0.0000000  1.0460000  1
    764    763    775   1618     1  0.0000000  0.0000000  3
    764    763    775    776     1  0.0000000  0.6508444  3
    764    763    775    777     1  0.0000000  0.6508444  3
    765    763    775   1618     1  0.0000000  1.0460000  1
    765    763    775   1618     1  0.0000000  0.0000000  3
    765    763    775    776     1  0.0000000  0.6508444  3
    765    763    775    777     1  0.0000000  0.6508444  3
    766    754    750    779     1  0.0000000  0.6508444  3
    767    766    772   1588     1  0.0000000  1.0460000  1
    767    766    772   1588     1  0.0000000  0.0000000  3
    767    766    772    773     1  0.0000000  0.6508444  3
    767    766    772    774     1  0.0000000  0.6508444  3
    768    766    772   1588     1  0.0000000  1.0460000  1
    768    766    772   1588     1  0.0000000  0.0000000  3
    768    766    772    773     1  0.0000000  0.6508444  3
    768    766    772    774     1  0.0000000  0.6508444  3
    772   1588   1579   1580     1  0.0000000  1.6038667  3
    772   1588   1579   1581     1  0.0000000  1.6038667  3
    773    772   1588   1579     1  0.0000000  1.6038667  3
    774    772   1588   1579     1  0.0000000  1.6038667  3
    775   1618   1609   1610     1  0.0000000  1.6038667  3
    775   1618   1609   1611     1  0.0000000  1.6038667  3
    776    775   1618   1609     1  0.0000000  1.6038667  3
    777    775   1618   1609     1  0.0000000  1.6038667  3
    780    781    793    794     1  0.0000000  0.6508444  3
    780    781    793    795     1  0.0000000  0.6508444  3
    780    784    796    797     1  0.0000000  0.6508444  3
    780    784    796    798     1  0.0000000  0.6508444  3
    780    787    790    791     1  0.0000000  0.6508444  3
    780    787    790    792     1  0.0000000  0.6508444  3
    781    780    784    785     1  0.0000000  0.6508444  3
    781    780    784    786     1  0.0000000  0.6508444  3
    781    780    787    788     1  0.0000000  0.6508444  3
    781    780    787    789     1  0.0000000  0.6508444  3
    781    793    805    806     1  0.0000000  0.6508444  3
    781    793    805    807     1  0.0000000  0.6508444  3
    782    781    780    784     1  0.0000000  0.6508444  3
    782    781    780    787     1  0.0000000  0.6508444  3
    782    781    780    809     1  0.0000000  0.6508444  3
    782    781    793    805     1  0.0000000  0.6508444  3
    782    781    793    794     1  0.0000000  0.6508444  3
    782    781    793    795     1  0.0000000  0.6508444  3
    783    781    780    784     1  0.0000000  0.6508444  3
    783    781    780    787     1  0.0000000  0.6508444  3
    783    781    780    809     1  0.0000000  0.6508444  3
    783    781    793    805     1  0.0000000  0.6508444  3
    783    781    793    794     1  0.0000000  0.6508444  3
    783    781    793    795     1  0.0000000  0.6508444  3
    784    780    787    788     1  0.0000000  0.6508444  3
    784    780    787    789     1  0.0000000  0.6508444  3
    784    796    802    803     1  0.0000000  0.6508444  3
    784    796    802    804     1  0.0000000  0.6508444  3
    785    784    780    787     1  0.0000000  0.6508444  3
    785    784    780    809     1  0.0000000  0.6508444  3
    785    784    796    802     1  0.0000000  0.6508444  3
    785    784    796    797     1  0.0000000  0.6508444  3
    785    784    796    798     1  0.0000000  0.6508444  3
    786    784    780    787     1  0.0000000  0.6508444  3
    786    784    780    809     1  0.0000000  0.6508444  3
    786    784    796    802     1  0.0000000  0.6508444  3
    786    784    796    797     1  0.0000000  0.6508444  3
    786    784    796    798     1  0.0000000  0.6508444  3
    787    790    799    800     1  0.0000000  0.6508444  3
    787    790    799    801     1  0.0000000  0.6508444  3
    788    787    780    809     1  0.0000000  0.6508444  3
    788    787    790    799     1  0.0000000  0.6508444  3
    788    787    790    791     1  0.0000000  0.6508444  3
    788    787    790    792     1  0.0000000  0.6508444  3
    789    787    780    809     1  0.0000000  0.6508444  3
    789    787    790    799     1  0.0000000  0.6508444  3
    789    787    790    791     1  0.0000000  0.6508444  3
    789    787    790    792     1  0.0000000  0.6508444  3
    790    787    780    809     1  0.0000000  0.6508444  3
    791    790    799    808     1  0.0000000  1.0460000  1
    791    790    799    808     1  0.0000000  0.0000000  3
    791    790    799    800     1  0.0000000  0.6508444  3
    791    790    799    801     1  0.0000000  0.6508444  3
    792    790    799    808     1  0.0000000  1.0460000  1
    792    790    799    808     1  0.0000000  0.0000000  3
    792    790    799    800     1  0.0000000  0.6508444  3
    792    790    799    801     1  0.0000000  0.6508444  3
    793    781    780    809     1  0.0000000  0.6508444  3
    794    793    805   1678     1  0.0000000  1.0460000  1
    794    793    805   1678     1  0.0000000  0.0000000  3
    794    793    805    806     1  0.0000000  0.6508444  3
    794    793    805    807     1  0.0000000  0.6508444  3
    795    793    805   1678     1  0.0000000  1.0460000  1
    795    793    805   1678     1  0.0000000  0.0000000  3
    795    793    805    806     1  0.0000000  0.6508444  3
    795    793    805    807     1  0.0000000  0.6508444  3
    796    784    780    809     1  0.0000000  0.6508444  3
    797    796    802   1648     1  0.0000000  1.0460000  1
    797    796    802   1648     1  0.0000000  0.0000000  3
    797    796    802    803     1  0.0000000  0.6508444  3
    797    796    802    804     1  0.0000000  0.6508444  3
    798    796    802   1648     1  0.0000000  1.0460000  1
    798    796    802   1648     1  0.0000000  0.0000000  3
    798    796    802    803     1  0.0000000  0.6508444  3
    798    796    802    804     1  0.0000000  0.6508444  3
    802   1648   1639   1640     1  0.0000000  1.6038667  3
    802   1648   1639   1641     1  0.0000000  1.6038667  3
    803    802   1648   1639     1  0.0000000  1.6038667  3
    804    802   1648   1639     1  0.0000000  1.6038667  3
    805   1678   1669   1670     1  0.0000000  1.6038667  3
    805   1678   1669   1671     1  0.0000000  1.6038667  3
    806    805   1678   1669     1  0.0000000  1.6038667  3
    807    805   1678   1669     1  0.0000000  1.6038667  3
    810    811    823    824     1  0.0000000  0.6508444  3
    810    811    823    825     1  0.0000000  0.6508444  3
    810    814    826    827     1  0.0000000  0.6508444  3
    810    814    826    828     1  0.0000000  0.6508444  3
    810    817    820    821     1  0.0000000  0.6508444  3
    810    817    820    822     1  0.0000000  0.6508444  3
    811    810    814    815     1  0.0000000  0.6508444  3
    811    810    814    816     1  0.0000000  0.6508444  3
    811    810    817    818     1  0.0000000  0.6508444  3
    811    810    817    819     1  0.0000000  0.6508444  3
    811    823    835    836     1  0.0000000  0.6508444  3
    811    823    835    837     1  0.0000000  0.6508444  3
    812    811    810    814     1  0.0000000  0.6508444  3
    812    811    810    817     1  0.0000000  0.6508444  3
    812    811    810    839     1  0.0000000  0.6508444  3
    812    811    823    835     1  0.0000000  0.6508444  3
    812    811    823    824     1  0.0000000  0.6508444  3
    812    811    823    825     1  0.0000000  0.6508444  3
    813    811    810    814     1  0.0000000  0.6508444  3
    813    811    810    817     1  0.0000000  0.6508444  3
    813    811    810    839     1  0.0000000  0.6508444  3
    813    811    823    835     1  0.0000000  0.6508444  3
    813    811    823    824     1  0.0000000  0.6508444  3
    813    811    823    825     1  0.0000000  0.6508444  3
    814    810    817    818     1  0.0000000  0.6508444  3
    814    810    817    819     1  0.0000000  0.6508444  3
    814    826    832    833     1  0.0000000  0.6508444  3
    814    826    832    834     1  0.0000000  0.6508444  3
    815    814    810    817     1  0.0000000  0.6508444  3
    815    814    810    839     1  0.0000000  0.6508444  3
    815    814    826    832     1  0.0000000  0.6508444  3
    815    814    826    827     1  0.0000000  0.6508444  3
    815    814    826    828     1  0.0000000  0.6508444  3
    816    814    810    817     1  0.0000000  0.6508444  3
    816    814    810    839     1  0.0000000  0.6508444  3
    816    814    826    832     1  0.0000000  0.6508444  3
    816    814    826    827     1  0.0000000  0.6508444  3
    816    814    826    828     1  0.0000000  0.6508444  3
    817    820    829    830     1  0.0000000  0.6508444  3
    817    820    829    831     1  0.0000000  0.6508444  3
    818    817    810    839     1  0.0000000  0.6508444  3
    818    817    820    829     1  0.0000000  0.6508444  3
    818    817    820    821     1  0.0000000  0.6508444  3
    818    817    820    822     1  0.0000000  0.6508444  3
    819    817    810    839     1  0.0000000  0.6508444  3
    819    817    820    829     1  0.0000000  0.6508444  3
    819    817    820    821     1  0.0000000  0.6508444  3
    819    817    820    822     1  0.0000000  0.6508444  3
    820    817    810    839     1  0.0000000  0.6508444  3
    821    820    829    838     1  0.0000000  1.0460000  1
    821    820    829    838     1  0.0000000  0.0000000  3
    821    820    829    830     1  0.0000000  0.6508444  3
    821    820    829    831     1  0.0000000  0.6508444  3
    822    820    829    838     1  0.0000000  1.0460000  1
    822    820    829    838     1  0.0000000  0.0000000  3
    822    820    829    830     1  0.0000000  0.6508444  3
    822    820    829    831     1  0.0000000  0.6508444  3
    823    811    810    839     1  0.0000000  0.6508444  3
    824    823    835   1738     1  0.0000000  1.0460000  1
    824    823    835   1738     1  0.0000000  0.0000000  3
    824    823    835    836     1  0.0000000  0.6508444  3
    824    823    835    837     1  0.0000000  0.6508444  3
    825    823    835   1738     1  0.0000000  1.0460000  1
    825    823    835   1738     1  0.0000000  0.0000000  3
    825    823    835    836     1  0.0000000  0.6508444  3
    825    823    835    837     1  0.0000000  0.6508444  3
    826    814    810    839     1  0.0000000  0.6508444  3
    827    826    832   1708     1  0.0000000  1.0460000  1
    827    826    832   1708     1  0.0000000  0.0000000  3
    827    826    832    833     1  0.0000000  0.6508444  3
    827    826    832    834     1  0.0000000  0.6508444  3
    828    826    832   1708     1  0.0000000  1.0460000  1
    828    826    832   1708     1  0.0000000  0.0000000  3
    828    826    832    833     1  0.0000000  0.6508444  3
    828    826    832    834     1  0.0000000  0.6508444  3
    832   1708   1699   1700     1  0.0000000  1.6038667  3
    832   1708   1699   1701     1  0.0000000  1.6038667  3
    833    832   1708   1699     1  0.0000000  1.6038667  3
    834    832   1708   1699     1  0.0000000  1.6038667  3
    835   1738   1729   1730     1  0.0000000  1.6038667  3
    835   1738   1729   1731     1  0.0000000  1.6038667  3
    836    835   1738   1729     1  0.0000000  1.6038667  3
    837    835   1738   1729     1  0.0000000  1.6038667  3
    840    841    853    854     1  0.0000000  0.6508444  3
    840    841    853    855     1  0.0000000  0.6508444  3
    840    844    856    857     1  0.0000000  0.6508444  3
    840    844    856    858     1  0.0000000  0.6508444  3
    840    847    850    851     1  0.0000000  0.6508444  3
    840    847    850    852     1  0.0000000  0.6508444  3
    841    840    844    845     1  0.0000000  0.6508444  3
    841    840    844    846     1  0.0000000  0.6508444  3
    841    840    847    848     1  0.0000000  0.6508444  3
    841    840    847    849     1  0.0000000  0.6508444  3
    841    853    865    866     1  0.0000000  0.6508444  3
    841    853    865    867     1  0.0000000  0.6508444  3
    842    841    840    844     1  0.0000000  0.6508444  3
    842    841    840    847     1  0.0000000  0.6508444  3
    842    841    840    869     1  0.0000000  0.6508444  3
    842    841    853    865     1  0.0000000  0.6508444  3
    842    841    853    854     1  0.0000000  0.6508444  3
    842    841    853    855     1  0.0000000  0.6508444  3
    843    841    840    844     1  0.0000000  0.6508444  3
    843    841    840    847     1  0.0000000  0.6508444  3
    843    841    840    869     1  0.0000000  0.6508444  3
    843    841    853    865     1  0.0000000  0.6508444  3
    843    841    853    854     1  0.0000000  0.6508444  3
    843    841    853    855     1  0.0000000  0.6508444  3
    844    840    847    848     1  0.0000000  0.6508444  3
    844    840    847    849     1  0.0000000  0.6508444  3
    844    856    862    863     1  0.0000000  0.6508444  3
    844    856    862    864     1  0.0000000  0.6508444  3
    845    844    840    847     1  0.0000000  0.6508444  3
    845    844    840    869     1  0.0000000  0.6508444  3
    845    844    856    862     1  0.0000000  0.6508444  3
    845    844    856    857     1  0.0000000  0.6508444  3
    845    844    856    858     1  0.0000000  0.6508444  3
    846    844    840    847     1  0.0000000  0.6508444  3
    846    844    840    869     1  0.0000000  0.6508444  3
    846    844    856    862     1  0.0000000  0.6508444  3
    846    844    856    857     1  0.0000000  0.6508444  3
    846    844    856    858     1  0.0000000  0.6508444  3
    847    850    859    860     1  0.0000000  0.6508444  3
    847    850    859    861     1  0.0000000  0.6508444  3
    848    847    840    869     1  0.0000000  0.6508444  3
    848    847    850    859     1  0.0000000  0.6508444  3
    848    847    850    851     1  0.0000000  0.6508444  3
    848    847    850    852     1  0.0000000  0.6508444  3
    849    847    840    869     1  0.0000000  0.6508444  3
    849    847    850    859     1  0.0000000  0.6508444  3
    849    847    850    851     1  0.0000000  0.6508444  3
    849    847    850    852     1  0.0000000  0.6508444  3
    850    847    840    869     1  0.0000000  0.6508444  3
    851    850    859    868     1  0.0000000  1.0460000  1
    851    850    859    868     1  0.0000000  0.0000000  3
    851    850    859    860     1  0.0000000  0.6508444  3
    851    850    859    861     1  0.0000000  0.6508444  3
    852    850    859    868     1  0.0000000  1.0460000  1
    852    850    859    868     1  0.0000000  0.0000000  3
    852    850    859    860     1  0.0000000  0.6508444  3
    852    850    859    861     1  0.0000000  0.6508444  3
    853    841    840    869     1  0.0000000  0.6508444  3
    854    853    865   1798     1  0.0000000  1.0460000  1
    854    853    865   1798     1  0.0000000  0.0000000  3
    854    853    865    866     1  0.0000000  0.6508444  3
    854    853    865    867     1  0.0000000  0.6508444  3
    855    853    865   1798     1  0.0000000  1.0460000  1
    855    853    865   1798     1  0.0000000  0.0000000  3
    855    853    865    866     1  0.0000000  0.6508444  3
    855    853    865    867     1  0.0000000  0.6508444  3
    856    844    840    869     1  0.0000000  0.6508444  3
    857    856    862   1768     1  0.0000000  1.0460000  1
    857    856    862   1768     1  0.0000000  0.0000000  3
    857    856    862    863     1  0.0000000  0.6508444  3
    857    856    862    864     1  0.0000000  0.6508444  3
    858    856    862   1768     1  0.0000000  1.0460000  1
    858    856    862   1768     1  0.0000000  0.0000000  3
    858    856    862    863     1  0.0000000  0.6508444  3
    858    856    862    864     1  0.0000000  0.6508444  3
    862   1768   1759   1760     1  0.0000000  1.6038667  3
    862   1768   1759   1761     1  0.0000000  1.6038667  3
    863    862   1768   1759     1  0.0000000  1.6038667  3
    864    862   1768   1759     1  0.0000000  1.6038667  3
    865   1798   1789   1790     1  0.0000000  1.6038667  3
    865   1798   1789   1791     1  0.0000000  1.6038667  3
    866    865   1798   1789     1  0.0000000  1.6038667  3
    867    865   1798   1789     1  0.0000000  1.6038667  3
    870    871    883    884     1  0.0000000  0.6508444  3
    870    871    883    885     1  0.0000000  0.6508444  3
    870    874    886    887     1  0.0000000  0.6508444  3
    870    874    886    888     1  0.0000000  0.6508444  3
    870    877    880    881     1  0.0000000  0.6508444  3
    870    877    880    882     1  0.0000000  0.6508444  3
    871    870    874    875     1  0.0000000  0.6508444  3
    871    870    874    876     1  0.0000000  0.6508444  3
    871    870    877    878     1  0.0000000  0.6508444  3
    871    870    877    879     1  0.0000000  0.6508444  3
    871    883    895    896     1  0.0000000  0.6508444  3
    871    883    895    897     1  0.0000000  0.6508444  3
    872    871    870    874     1  0.0000000  0.6508444  3
    872    871    870    877     1  0.0000000  0.6508444  3
    872    871    870    899     1  0.0000000  0.6508444  3
    872    871    883    895     1  0.0000000  0.6508444  3
    872    871    883    884     1  0.0000000  0.6508444  3
    872    871    883    885     1  0.0000000  0.6508444  3
    873    871    870    874     1  0.0000000  0.6508444  3
    873    871    870    877     1  0.0000000  0.6508444  3
    873    871    870    899     1  0.0000000  0.6508444  3
    873    871    883    895     1  0.0000000  0.6508444  3
    873    871    883    884     1  0.0000000  0.6508444  3
    873    871    883    885     1  0.0000000  0.6508444  3
    874    870    877    878     1  0.0000000  0.6508444  3
    874    870    877    879     1  0.0000000  0.6508444  3
    874    886    892    893     1  0.0000000  0.6508444  3
    874    886    892    894     1  0.0000000  0.6508444  3
    875    874    870    877     1  0.0000000  0.6508444  3
    875    874    870    899     1  0.0000000  0.6508444  3
    875    874    886    892     1  0.0000000  0.6508444  3
    875    874    886    887     1  0.0000000  0.6508444  3
    875    874    886    888     1  0.0000000  0.6508444  3
    876    874    870    877     1  0.0000000  0.6508444  3
    876    874    870    899     1  0.0000000  0.6508444  3
    876    874    886    892     1  0.0000000  0.6508444  3
    876    874    886    887     1  0.0000000  0.6508444  3
    876    874    886    888     1  0.0000000  0.6508444  3
    877    880    889    890     1  0.0000000  0.6508444  3
    877    880    889    891     1  0.0000000  0.6508444  3
    878    877    870    899     1  0.0000000  0.6508444  3
    878    877    880    889     1  0.0000000  0.6508444  3
    878    877    880    881     1  0.0000000  0.6508444  3
    878    877    880    882     1  0.0000000  0.6508444  3
    879    877    870    899     1  0.0000000  0.6508444  3
    879    877    880    889     1  0.0000000  0.6508444  3
    879    877    880    881     1  0.0000000  0.6508444  3
    879    877    880    882     1  0.0000000  0.6508444  3
    880    877    870    899     1  0.0000000  0.6508444  3
    881    880    889    898     1  0.0000000  1.0460000  1
    881    880    889    898     1  0.0000000  0.0000000  3
    881    880    889    890     1  0.0000000  0.6508444  3
    881    880    889    891     1  0.0000000  0.6508444  3
    882    880    889    898     1  0.0000000  1.0460000  1
    882    880    889    898     1  0.0000000  0.0000000  3
    882    880    889    890     1  0.0000000  0.6508444  3
    882    880    889    891     1  0.0000000  0.6508444  3
    883    871    870    899     1  0.0000000  0.6508444  3
    884    883    895   1858     1  0.0000000  1.0460000  1
    884    883    895   1858     1  0.0000000  0.0000000  3
    884    883    895    896     1  0.0000000  0.6508444  3
    884    883    895    897     1  0.0000000  0.6508444  3
    885    883    895   1858     1  0.0000000  1.0460000  1
    885    883    895   1858     1  0.0000000  0.0000000  3
    885    883    895    896     1  0.0000000  0.6508444  3
    885    883    895    897     1  0.0000000  0.6508444  3
    886    874    870    899     1  0.0000000  0.6508444  3
    887    886    892   1828     1  0.0000000  1.0460000  1
    887    886    892   1828     1  0.0000000  0.0000000  3
    887    886    892    893     1  0.0000000  0.6508444  3
    887    886    892    894     1  0.0000000  0.6508444  3
    888    886    892   1828     1  0.0000000  1.0460000  1
    888    886    892   1828     1  0.0000000  0.0000000  3
    888    886    892    893     1  0.0000000  0.6508444  3
    888    886    892    894     1  0.0000000  0.6508444  3
    892   1828   1819   1820     1  0.0000000  1.6038667  3
    892   1828   1819   1821     1  0.0000000  1.6038667  3
    893    892   1828   1819     1  0.0000000  1.6038667  3
    894    892   1828   1819     1  0.0000000  1.6038667  3
    895   1858   1849   1850     1  0.0000000  1.6038667  3
    895   1858   1849   1851     1  0.0000000  1.6038667  3
    896    895   1858   1849     1  0.0000000  1.6038667  3
    897    895   1858   1849     1  0.0000000  1.6038667  3
    900    901    913    914     1  0.0000000  0.6508444  3
    900    901    913    915     1  0.0000000  0.6508444  3
    900    904    916    917     1  0.0000000  0.6508444  3
    900    904    916    918     1  0.0000000  0.6508444  3
    900    907    910    911     1  0.0000000  0.6508444  3
    900    907    910    912     1  0.0000000  0.6508444  3
    901    900    904    905     1  0.0000000  0.6508444  3
    901    900    904    906     1  0.0000000  0.6508444  3
    901    900    907    908     1  0.0000000  0.6508444  3
    901    900    907    909     1  0.0000000  0.6508444  3
    901    913    925    926     1  0.0000000  0.6508444  3
    901    913    925    927     1  0.0000000  0.6508444  3
    902    901    900    904     1  0.0000000  0.6508444  3
    902    901    900    907     1  0.0000000  0.6508444  3
    902    901    900    929     1  0.0000000  0.6508444  3
    902    901    913    925     1  0.0000000  0.6508444  3
    902    901    913    914     1  0.0000000  0.6508444  3
    902    901    913    915     1  0.0000000  0.6508444  3
    903    901    900    904     1  0.0000000  0.6508444  3
    903    901    900    907     1  0.0000000  0.6508444  3
    903    901    900    929     1  0.0000000  0.6508444  3
    903    901    913    925     1  0.0000000  0.6508444  3
    903    901    913    914     1  0.0000000  0.6508444  3
    903    901    913    915     1  0.0000000  0.6508444  3
    904    900    907    908     1  0.0000000  0.6508444  3
    904    900    907    909     1  0.0000000  0.6508444  3
    904    916    922    923     1  0.0000000  0.6508444  3
    904    916    922    924     1  0.0000000  0.6508444  3
    905    904    900    907     1  0.0000000  0.6508444  3
    905    904    900    929     1  0.0000000  0.6508444  3
    905    904    916    922     1  0.0000000  0.6508444  3
    905    904    916    917     1  0.0000000  0.6508444  3
    905    904    916    918     1  0.0000000  0.6508444  3
    906    904    900    907     1  0.0000000  0.6508444  3
    906    904    900    929     1  0.0000000  0.6508444  3
    906    904    916    922     1  0.0000000  0.6508444  3
    906    904    916    917     1  0.0000000  0.6508444  3
    906    904    916    918     1  0.0000000  0.6508444  3
    907    910    919    920     1  0.0000000  0.6508444  3
    907    910    919    921     1  0.0000000  0.6508444  3
    908    907    900    929     1  0.0000000  0.6508444  3
    908    907    910    919     1  0.0000000  0.6508444  3
    908    907    910    911     1  0.0000000  0.6508444  3
    908    907    910    912     1  0.0000000  0.6508444  3
    909    907    900    929     1  0.0000000  0.6508444  3
    909    907    910    919     1  0.0000000  0.6508444  3
    909    907    910    911     1  0.0000000  0.6508444  3
    909    907    910    912     1  0.0000000  0.6508444  3
    910    907    900    929     1  0.0000000  0.6508444  3
    911    910    919    928     1  0.0000000  1.0460000  1
    911    910    919    928     1  0.0000000  0.0000000  3
    911    910    919    920     1  0.0000000  0.6508444  3
    911    910    919    921     1  0.0000000  0.6508444  3
    912    910    919    928     1  0.0000000  1.0460000  1
    912    910    919    928     1  0.0000000  0.0000000  3
    912    910    919    920     1  0.0000000  0.6508444  3
    912    910    919    921     1  0.0000000  0.6508444  3
    913    901    900    929     1  0.0000000  0.6508444  3
    914    913    925   1918     1  0.0000000  1.0460000  1
    914    913    925   1918     1  0.0000000  0.0000000  3
    914    913    925    926     1  0.0000000  0.6508444  3
    914    913    925    927     1  0.0000000  0.6508444  3
    915    913    925   1918     1  0.0000000  1.0460000  1
    915    913    925   1918     1  0.0000000  0.0000000  3
    915    913    925    926     1  0.0000000  0.6508444  3
    915    913    925    927     1  0.0000000  0.6508444  3
    916    904    900    929     1  0.0000000  0.6508444  3
    917    916    922   1888     1  0.0000000  1.0460000  1
    917    916    922   1888     1  0.0000000  0.0000000  3
    917    916    922    923     1  0.0000000  0.6508444  3
    917    916    922    924     1  0.0000000  0.6508444  3
    918    916    922   1888     1  0.0000000  1.0460000  1
    918    916    922   1888     1  0.0000000  0.0000000  3
    918    916    922    923     1  0.0000000  0.6508444  3
    918    916    922    924     1  0.0000000  0.6508444  3
    922   1888   1879   1880     1  0.0000000  1.6038667  3
    922   1888   1879   1881     1  0.0000000  1.6038667  3
    923    922   1888   1879     1  0.0000000  1.6038667  3
    924    922   1888   1879     1  0.0000000  1.6038667  3
    925   1918   1909   1910     1  0.0000000  1.6038667  3
    925   1918   1909   1911     1  0.0000000  1.6038667  3
    926    925   1918   1909     1  0.0000000  1.6038667  3
    927    925   1918   1909     1  0.0000000  1.6038667  3
    930    931    943    944     1  0.0000000  0.6508444  3
    930    931    943    945     1  0.0000000  0.6508444  3
    930    934    946    947     1  0.0000000  0.6508444  3
    930    934    946    948     1  0.0000000  0.6508444  3
    930    937    940    941     1  0.0000000  0.6508444  3
    930    937    940    942     1  0.0000000  0.6508444  3
    931    930    934    935     1  0.0000000  0.6508444  3
    931    930    934    936     1  0.0000000  0.6508444  3
    931    930    937    938     1  0.0000000  0.6508444  3
    931    930    937    939     1  0.0000000  0.6508444  3
    931    943    955    956     1  0.0000000  0.6508444  3
    931    943    955    957     1  0.0000000  0.6508444  3
    932    931    930    934     1  0.0000000  0.6508444  3
    932    931    930    937     1  0.0000000  0.6508444  3
    932    931    930    959     1  0.0000000  0.6508444  3
    932    931    943    955     1  0.0000000  0.6508444  3
    932    931    943    944     1  0.0000000  0.6508444  3
    932    931    943    945     1  0.0000000  0.6508444  3
    933    931    930    934     1  0.0000000  0.6508444  3
    933    931    930    937     1  0.0000000  0.6508444  3
    933    931    930    959     1  0.0000000  0.6508444  3
    933    931    943    955     1  0.0000000  0.6508444  3
    933    931    943    944     1  0.0000000  0.6508444  3
    933    931    943    945     1  0.0000000  0.6508444  3
    934    930    937    938     1  0.0000000  0.6508444  3
    934    930    937    939     1  0.0000000  0.6508444  3
    934    946    952    953     1  0.0000000  0.6508444  3
    934    946    952    954     1  0.0000000  0.6508444  3
    935    934    930    937     1  0.0000000  0.6508444  3
    935    934    930    959     1  0.0000000  0.6508444  3
    935    934    946    952     1  0.0000000  0.6508444  3
    935    934    946    947     1  0.0000000  0.6508444  3
    935    934    946    948     1  0.0000000  0.6508444  3
    936    934    930    937     1  0.0000000  0.6508444  3
    936    934    930    959     1  0.0000000  0.6508444  3
    936    934    946    952     1  0.0000000  0.6508444  3
    936    934    946    947     1  0.0000000  0.6508444  3
    936    934    946    948     1  0.0000000  0.6508444  3
    937    940    949    950     1  0.0000000  0.6508444  3
    937    940    949    951     1  0.0000000  0.6508444  3
    938    937    930    959     1  0.0000000  0.6508444  3
    938    937    940    949     1  0.0000000  0.6508444  3
    938    937    940    941     1  0.0000000  0.6508444  3
    938    937    940    942     1  0.0000000  0.6508444  3
    939    937    930    959     1  0.0000000  0.6508444  3
    939    937    940    949     1  0.0000000  0.6508444  3
    939    937    940    941     1  0.0000000  0.6508444  3
    939    937    940    942     1  0.0000000  0.6508444  3
    940    937    930    959     1  0.0000000  0.6508444  3
    941    940    949    958     1  0.0000000  1.0460000  1
    941    940    949    958     1  0.0000000  0.0000000  3
    941    940    949    950     1  0.0000000  0.6508444  3
    941    940    949    951     1  0.0000000  0.6508444  3
    942    940    949    958     1  0.0000000  1.0460000  1
    942    940    949    958     1  0.0000000  0.0000000  3
    942    940    949    950     1  0.0000000  0.6508444  3
    942    940    949    951     1  0.0000000  0.6508444  3
    943    931    930    959     1  0.0000000  0.6508444  3
    944    943    955   1978     1  0.0000000  1.0460000  1
    944    943    955   1978     1  0.0000000  0.0000000  3
    944    943    955    956     1  0.0000000  0.6508444  3
    944    943    955    957     1  0.0000000  0.6508444  3
    945    943    955   1978     1  0.0000000  1.0460000  1
    945    943    955   1978     1  0.0000000  0.0000000  3
    945    943    955    956     1  0.0000000  0.6508444  3
    945    943    955    957     1  0.0000000  0.6508444  3
    946    934    930    959     1  0.0000000  0.6508444  3
    947    946    952   1948     1  0.0000000  1.0460000  1
    947    946    952   1948     1  0.0000000  0.0000000  3
    947    946    952    953     1  0.0000000  0.6508444  3
    947    946    952    954     1  0.0000000  0.6508444  3
    948    946    952   1948     1  0.0000000  1.0460000  1
    948    946    952   1948     1  0.0000000  0.0000000  3
    948    946    952    953     1  0.0000000  0.6508444  3
    948    946    952    954     1  0.0000000  0.6508444  3
    952   1948   1939   1940     1  0.0000000  1.6038667  3
    952   1948   1939   1941     1  0.0000000  1.6038667  3
    953    952   1948   1939     1  0.0000000  1.6038667  3
    954    952   1948   1939     1  0.0000000  1.6038667  3
    955   1978   1969   1970     1  0.0000000  1.6038667  3
    955   1978   1969   1971     1  0.0000000  1.6038667  3
    956    955   1978   1969     1  0.0000000  1.6038667  3
    957    955   1978   1969     1  0.0000000  1.6038667  3
    960    961    973    974     1  0.0000000  0.6508444  3
    960    961    973    975     1  0.0000000  0.6508444  3
    960    964    976    977     1  0.0000000  0.6508444  3
    960    964    976    978     1  0.0000000  0.6508444  3
    960    967    970    971     1  0.0000000  0.6508444  3
    960    967    970    972     1  0.0000000  0.6508444  3
    961    960    964    965     1  0.0000000  0.6508444  3
    961    960    964    966     1  0.0000000  0.6508444  3
    961    960    967    968     1  0.0000000  0.6508444  3
    961    960    967    969     1  0.0000000  0.6508444  3
    961    973    985    986     1  0.0000000  0.6508444  3
    961    973    985    987     1  0.0000000  0.6508444  3
    962    961    960    964     1  0.0000000  0.6508444  3
    962    961    960    967     1  0.0000000  0.6508444  3
    962    961    960    989     1  0.0000000  0.6508444  3
    962    961    973    985     1  0.0000000  0.6508444  3
    962    961    973    974     1  0.0000000  0.6508444  3
    962    961    973    975     1  0.0000000  0.6508444  3
    963    961    960    964     1  0.0000000  0.6508444  3
    963    961    960    967     1  0.0000000  0.6508444  3
    963    961    960    989     1  0.0000000  0.6508444  3
    963    961    973    985     1  0.0000000  0.6508444  3
    963    961    973    974     1  0.0000000  0.6508444  3
    963    961    973    975     1  0.0000000  0.6508444  3
    964    960    967    968     1  0.0000000  0.6508444  3
    964    960    967    969     1  0.0000000  0.6508444  3
    964    976    982    983     1  0.0000000  0.6508444  3
    964    976    982    984     1  0.0000000  0.6508444  3
    965    964    960    967     1  0.0000000  0.6508444  3
    965    964    960    989     1  0.0000000  0.6508444  3
    965    964    976    982     1  0.0000000  0.6508444  3
    965    964    976    977     1  0.0000000  0.6508444  3
    965    964    976    978     1  0.0000000  0.6508444  3
    966    964    960    967     1  0.0000000  0.6508444  3
    966    964    960    989     1  0.0000000  0.6508444  3
    966    964    976    982     1  0.0000000  0.6508444  3
    966    964    976    977     1  0.0000000  0.6508444  3
    966    964    976    978     1  0.0000000  0.6508444  3
    967    970    979    980     1  0.0000000  0.6508444  3
    967    970    979    981     1  0.0000000  0.6508444  3
    968    967    960    989     1  0.0000000  0.6508444  3
    968    967    970    979     1  0.0000000  0.6508444  3
    968    967    970    971     1  0.0000000  0.6508444  3
    968    967    970    972     1  0.0000000  0.6508444  3
    969    967    960    989     1  0.0000000  0.6508444  3
    969    967    970    979     1  0.0000000  0.6508444  3
    969    967    970    971     1  0.0000000  0.6508444  3
    969    967    970    972     1  0.0000000  0.6508444  3
    970    967    960    989     1  0.0000000  0.6508444  3
    971    970    979    988     1  0.0000000  1.0460000  1
    971    970    979    988     1  0.0000000  0.0000000  3
    971    970    979    980     1  0.0000000  0.6508444  3
    971    970    979    981     1  0.0000000  0.6508444  3
    972    970    979    988     1  0.0000000  1.0460000  1
    972    970    979    988     1  0.0000000  0.0000000  3
    972    970    979    980     1  0.0000000  0.6508444  3
    972    970    979    981     1  0.0000000  0.6508444  3
    973    961    960    989     1  0.0000000  0.6508444  3
    974    973    985   2038     1  0.0000000  1.0460000  1
    974    973    985   2038     1  0.0000000  0.0000000  3
    974    973    985    986     1  0.0000000  0.6508444  3
    974    973    985    987     1  0.0000000  0.6508444  3
    975    973    985   2038     1  0.0000000  1.0460000  1
    975    973    985   2038     1  0.0000000  0.0000000  3
    975    973    985    986     1  0.0000000  0.6508444  3
    975    973    985    987     1  0.0000000  0.6508444  3
    976    964    960    989     1  0.0000000  0.6508444  3
    977    976    982   2008     1  0.0000000  1.0460000  1
    977    976    982   2008     1  0.0000000  0.0000000  3
    977    976    982    983     1  0.0000000  0.6508444  3
    977    976    982    984     1  0.0000000  0.6508444  3
    978    976    982   2008     1  0.0000000  1.0460000  1
    978    976    982   2008     1  0.0000000  0.0000000  3
    978    976    982    983     1  0.0000000  0.6508444  3
    978    976    982    984     1  0.0000000  0.6508444  3
    982   2008   1999   2000     1  0.0000000  1.6038667  3
    982   2008   1999   2001     1  0.0000000  1.6038667  3
    983    982   2008   1999     1  0.0000000  1.6038667  3
    984    982   2008   1999     1  0.0000000  1.6038667  3
    985   2038   2029   2030     1  0.0000000  1.6038667  3
    985   2038   2029   2031     1  0.0000000  1.6038667  3
    986    985   2038   2029     1  0.0000000  1.6038667  3
    987    985   2038   2029     1  0.0000000  1.6038667  3
    990    991   1003   1004     1  0.0000000  0.6508444  3
    990    991   1003   1005     1  0.0000000  0.6508444  3
    990    994   1006   1007     1  0.0000000  0.6508444  3
    990    994   1006   1008     1  0.0000000  0.6508444  3
    990    997   1000   1001     1  0.0000000  0.6508444  3
    990    997   1000   1002     1  0.0000000  0.6508444  3
    991    990    994    995     1  0.0000000  0.6508444  3
    991    990    994    996     1  0.0000000  0.6508444  3
    991    990    997    998     1  0.0000000  0.6508444  3
    991    990    997    999     1  0.0000000  0.6508444  3
    991   1003   1015   1016     1  0.0000000  0.6508444  3
    991   1003   1015   1017     1  0.0000000  0.6508444  3
    992    991    990    994     1  0.0000000  0.6508444  3
    992    991    990    997     1  0.0000000  0.6508444  3
    992    991    990   1019     1  0.0000000  0.6508444  3
    992    991   1003   1015     1  0.0000000  0.6508444  3
    992    991   1003   1004     1  0.0000000  0.6508444  3
    992    991   1003   1005     1  0.0000000  0.6508444  3
    993    991    990    994     1  0.0000000  0.6508444  3
    993    991    990    997     1  0.0000000  0.6508444  3
    993    991    990   1019     1  0.0000000  0.6508444  3
    993    991   1003   1015     1  0.0000000  0.6508444  3
    993    991   1003   1004     1  0.0000000  0.6508444  3
    993    991   1003   1005     1  0.0000000  0.6508444  3
    994    990    997    998     1  0.0000000  0.6508444  3
    994    990    997    999     1  0.0000000  0.6508444  3
    994   1006   1012   1013     1  0.0000000  0.6508444  3
    994   1006   1012   1014     1  0.0000000  0.6508444  3
    995    994    990    997     1  0.0000000  0.6508444  3
    995    994    990   1019     1  0.0000000  0.6508444  3
    995    994   1006   1012     1  0.0000000  0.6508444  3
    995    994   1006   1007     1  0.0000000  0.6508444  3
    995    994   1006   1008     1  0.0000000  0.6508444  3
    996    994    990    997     1  0.0000000  0.6508444  3
    996    994    990   1019     1  0.0000000  0.6508444  3
    996    994   1006   1012     1  0.0000000  0.6508444  3
    996    994   1006   1007     1  0.0000000  0.6508444  3
    996    994   1006   1008     1  0.0000000  0.6508444  3
    997   1000   1009   1010     1  0.0000000  0.6508444  3
    997   1000   1009   1011     1  0.0000000  0.6508444  3
    998    997    990   1019     1  0.0000000  0.6508444  3
    998    997   1000   1009     1  0.0000000  0.6508444  3
    998    997   1000   1001     1  0.0000000  0.6508444  3
    998    997   1000   1002     1  0.0000000  0.6508444  3
    999    997    990   1019     1  0.0000000  0.6508444  3
    999    997   1000   1009     1  0.0000000  0.6508444  3
    999    997   1000   1001     1  0.0000000  0.6508444  3
    999    997   1000   1002     1  0.0000000  0.6508444  3
   1000    997    990   1019     1  0.0000000  0.6508444  3
   1001   1000   1009   1018     1  0.0000000  1.0460000  1
   1001   1000   1009   1018     1  0.0000000  0.0000000  3
   1001   1000   1009   1010     1  0.0000000  0.6508444  3
   1001   1000   1009   1011     1  0.0000000  0.6508444  3
   1002   1000   1009   1018     1  0.0000000  1.0460000  1
   1002   1000   1009   1018     1  0.0000000  0.0000000  3
   1002   1000   1009   1010     1  0.0000000  0.6508444  3
   1002   1000   1009   1011     1  0.0000000  0.6508444  3
   1003    991    990   1019     1  0.0000000  0.6508444  3
   1004   1003   1015   2098     1  0.0000000  1.0460000  1
   1004   1003   1015   2098     1  0.0000000  0.0000000  3
   1004   1003   1015   1016     1  0.0000000  0.6508444  3
   1004   1003   1015   1017     1  0.0000000  0.6508444  3
   1005   1003   1015   2098     1  0.0000000  1.0460000  1
   1005   1003   1015   2098     1  0.0000000  0.0000000  3
   1005   1003   1015   1016     1  0.0000000  0.6508444  3
   1005   1003   1015   1017     1  0.0000000  0.6508444  3
   1006    994    990   1019     1  0.0000000  0.6508444  3
   1007   1006   1012   2068     1  0.0000000  1.0460000  1
   1007   1006   1012   2068     1  0.0000000  0.0000000  3
   1007   1006   1012   1013     1  0.0000000  0.6508444  3
   1007   1006   1012   1014     1  0.0000000  0.6508444  3
   1008   1006   1012   2068     1  0.0000000  1.0460000  1
   1008   1006   1012   2068     1  0.0000000  0.0000000  3
   1008   1006   1012   1013     1  0.0000000  0.6508444  3
   1008   1006   1012   1014     1  0.0000000  0.6508444  3
   1012   2068   2059   2060     1  0.0000000  1.6038667  3
   1012   2068   2059   2061     1  0.0000000  1.6038667  3
   1013   1012   2068   2059     1  0.0000000  1.6038667  3
   1014   1012   2068   2059     1  0.0000000  1.6038667  3
   1015   2098   2089   2090     1  0.0000000  1.6038667  3
   1015   2098   2089   2091     1  0.0000000  1.6038667  3
   1016   1015   2098   2089     1  0.0000000  1.6038667  3
   1017   1015   2098   2089     1  0.0000000  1.6038667  3
   1020   1021   1033   1034     1  0.0000000  0.6508444  3
   1020   1021   1033   1035     1  0.0000000  0.6508444  3
   1020   1024   1036   1037     1  0.0000000  0.6508444  3
   1020   1024   1036   1038     1  0.0000000  0.6508444  3
   1020   1027   1030   1031     1  0.0000000  0.6508444  3
   1020   1027   1030   1032     1  0.0000000  0.6508444  3
   1021   1020   1024   1025     1  0.0000000  0.6508444  3
   1021   1020   1024   1026     1  0.0000000  0.6508444  3
   1021   1020   1027   1028     1  0.0000000  0.6508444  3
   1021   1020   1027   1029     1  0.0000000  0.6508444  3
   1021   1033   1045   1046     1  0.0000000  0.6508444  3
   1021   1033   1045   1047     1  0.0000000  0.6508444  3
   1022   1021   1020   1024     1  0.0000000  0.6508444  3
   1022   1021   1020   1027     1  0.0000000  0.6508444  3
   1022   1021   1020   1049     1  0.0000000  0.6508444  3
   1022   1021   1033   1045     1  0.0000000  0.6508444  3
   1022   1021   1033   1034     1  0.0000000  0.6508444  3
   1022   1021   1033   1035     1  0.0000000  0.6508444  3
   1023   1021   1020   1024     1  0.0000000  0.6508444  3
   1023   1021   1020   1027     1  0.0000000  0.6508444  3
   1023   1021   1020   1049     1  0.0000000  0.6508444  3
   1023   1021   1033   1045     1  0.0000000  0.6508444  3
   1023   1021   1033   1034     1  0.0000000  0.6508444  3
   1023   1021   1033   1035     1  0.0000000  0.6508444  3
   1024   1020   1027   1028     1  0.0000000  0.6508444  3
   1024   1020   1027   1029     1  0.0000000  0.6508444  3
   1024   1036   1042   1043     1  0.0000000  0.6508444  3
   1024   1036   1042   1044     1  0.0000000  0.6508444  3
   1025   1024   1020   1027     1  0.0000000  0.6508444  3
   1025   1024   1020   1049     1  0.0000000  0.6508444  3
   1025   1024   1036   1042     1  0.0000000  0.6508444  3
   1025   1024   1036   1037     1  0.0000000  0.6508444  3
   1025   1024   1036   1038     1  0.0000000  0.6508444  3
   1026   1024   1020   1027     1  0.0000000  0.6508444  3
   1026   1024   1020   1049     1  0.0000000  0.6508444  3
   1026   1024   1036   1042     1  0.0000000  0.6508444  3
   1026   1024   1036   1037     1  0.0000000  0.6508444  3
   1026   1024   1036   1038     1  0.0000000  0.6508444  3
   1027   1030   1039   1040     1  0.0000000  0.6508444  3
   1027   1030   1039   1041     1  0.0000000  0.6508444  3
   1028   1027   1020   1049     1  0.0000000  0.6508444  3
   1028   1027   1030   1039     1  0.0000000  0.6508444  3
   1028   1027   1030   1031     1  0.0000000  0.6508444  3
   1028   1027   1030   1032     1  0.0000000  0.6508444  3
   1029   1027   1020   1049     1  0.0000000  0.6508444  3
   1029   1027   1030   1039     1  0.0000000  0.6508444  3
   1029   1027   1030   1031     1  0.0000000  0.6508444  3
   1029   1027   1030   1032     1  0.0000000  0.6508444  3
   1030   1027   1020   1049     1  0.0000000  0.6508444  3
   1031   1030   1039   1048     1  0.0000000  1.0460000  1
   1031   1030   1039   1048     1  0.0000000  0.0000000  3
   1031   1030   1039   1040     1  0.0000000  0.6508444  3
   1031   1030   1039   1041     1  0.0000000  0.6508444  3
   1032   1030   1039   1048     1  0.0000000  1.0460000  1
   1032   1030   1039   1048     1  0.0000000  0.0000000  3
   1032   1030   1039   1040     1  0.0000000  0.6508444  3
   1032   1030   1039   1041     1  0.0000000  0.6508444  3
   1033   1021   1020   1049     1  0.0000000  0.6508444  3
   1034   1033   1045   2158     1  0.0000000  1.0460000  1
   1034   1033   1045   2158     1  0.0000000  0.0000000  3
   1034   1033   1045   1046     1  0.0000000  0.6508444  3
   1034   1033   1045   1047     1  0.0000000  0.6508444  3
   1035   1033   1045   2158     1  0.0000000  1.0460000  1
   1035   1033   1045   2158     1  0.0000000  0.0000000  3
   1035   1033   1045   1046     1  0.0000000  0.6508444  3
   1035   1033   1045   1047     1  0.0000000  0.6508444  3
   1036   1024   1020   1049     1  0.0000000  0.6508444  3
   1037   1036   1042   2128     1  0.0000000  1.0460000  1
   1037   1036   1042   2128     1  0.0000000  0.0000000  3
   1037   1036   1042   1043     1  0.0000000  0.6508444  3
   1037   1036   1042   1044     1  0.0000000  0.6508444  3
   1038   1036   1042   2128     1  0.0000000  1.0460000  1
   1038   1036   1042   2128     1  0.0000000  0.0000000  3
   1038   1036   1042   1043     1  0.0000000  0.6508444  3
   1038   1036   1042   1044     1  0.0000000  0.6508444  3
   1042   2128   2119   2120     1  0.0000000  1.6038667  3
   1042   2128   2119   2121     1  0.0000000  1.6038667  3
   1043   1042   2128   2119     1  0.0000000  1.6038667  3
   1044   1042   2128   2119     1  0.0000000  1.6038667  3
   1045   2158   2149   2150     1  0.0000000  1.6038667  3
   1045   2158   2149   2151     1  0.0000000  1.6038667  3
   1046   1045   2158   2149     1  0.0000000  1.6038667  3
   1047   1045   2158   2149     1  0.0000000  1.6038667  3
   1050   1051   1063   1064     1  0.0000000  0.6508444  3
   1050   1051   1063   1065     1  0.0000000  0.6508444  3
   1050   1054   1066   1067     1  0.0000000  0.6508444  3
   1050   1054   1066   1068     1  0.0000000  0.6508444  3
   1050   1057   1060   1061     1  0.0000000  0.6508444  3
   1050   1057   1060   1062     1  0.0000000  0.6508444  3
   1051   1050   1054   1055     1  0.0000000  0.6508444  3
   1051   1050   1054   1056     1  0.0000000  0.6508444  3
   1051   1050   1057   1058     1  0.0000000  0.6508444  3
   1051   1050   1057   1059     1  0.0000000  0.6508444  3
   1051   1063   1075   1076     1  0.0000000  0.6508444  3
   1051   1063   1075   1077     1  0.0000000  0.6508444  3
   1052   1051   1050   1054     1  0.0000000  0.6508444  3
   1052   1051   1050   1057     1  0.0000000  0.6508444  3
   1052   1051   1050   1079     1  0.0000000  0.6508444  3
   1052   1051   1063   1075     1  0.0000000  0.6508444  3
   1052   1051   1063   1064     1  0.0000000  0.6508444  3
   1052   1051   1063   1065     1  0.0000000  0.6508444  3
   1053   1051   1050   1054     1  0.0000000  0.6508444  3
   1053   1051   1050   1057     1  0.0000000  0.6508444  3
   1053   1051   1050   1079     1  0.0000000  0.6508444  3
   1053   1051   1063   1075     1  0.0000000  0.6508444  3
   1053   1051   1063   1064     1  0.0000000  0.6508444  3
   1053   1051   1063   1065     1  0.0000000  0.6508444  3
   1054   1050   1057   1058     1  0.0000000  0.6508444  3
   1054   1050   1057   1059     1  0.0000000  0.6508444  3
   1054   1066   1072   1073     1  0.0000000  0.6508444  3
   1054   1066   1072   1074     1  0.0000000  0.6508444  3
   1055   1054   1050   1057     1  0.0000000  0.6508444  3
   1055   1054   1050   1079     1  0.0000000  0.6508444  3
   1055   1054   1066   1072     1  0.0000000  0.6508444  3
   1055   1054   1066   1067     1  0.0000000  0.6508444  3
   1055   1054   1066   1068     1  0.0000000  0.6508444  3
   1056   1054   1050   1057     1  0.0000000  0.6508444  3
   1056   1054   1050   1079     1  0.0000000  0.6508444  3
   1056   1054   1066   1072     1  0.0000000  0.6508444  3
   1056   1054   1066   1067     1  0.0000000  0.6508444  3
   1056   1054   1066   1068     1  0.0000000  0.6508444  3
   1057   1060   1069   1070     1  0.0000000  0.6508444  3
   1057   1060   1069   1071     1  0.0000000  0.6508444  3
   1058   1057   1050   1079     1  0.0000000  0.6508444  3
   1058   1057   1060   1069     1  0.0000000  0.6508444  3
   1058   1057   1060   1061     1  0.0000000  0.6508444  3
   1058   1057   1060   1062     1  0.0000000  0.6508444  3
   1059   1057   1050   1079     1  0.0000000  0.6508444  3
   1059   1057   1060   1069     1  0.0000000  0.6508444  3
   1059   1057   1060   1061     1  0.0000000  0.6508444  3
   1059   1057   1060   1062     1  0.0000000  0.6508444  3
   1060   1057   1050   1079     1  0.0000000  0.6508444  3
   1061   1060   1069   1078     1  0.0000000  1.0460000  1
   1061   1060   1069   1078     1  0.0000000  0.0000000  3
   1061   1060   1069   1070     1  0.0000000  0.6508444  3
   1061   1060   1069   1071     1  0.0000000  0.6508444  3
   1062   1060   1069   1078     1  0.0000000  1.0460000  1
   1062   1060   1069   1078     1  0.0000000  0.0000000  3
   1062   1060   1069   1070     1  0.0000000  0.6508444  3
   1062   1060   1069   1071     1  0.0000000  0.6508444  3
   1063   1051   1050   1079     1  0.0000000  0.6508444  3
   1064   1063   1075   2218     1  0.0000000  1.0460000  1
   1064   1063   1075   2218     1  0.0000000  0.0000000  3
   1064   1063   1075   1076     1  0.0000000  0.6508444  3
   1064   1063   1075   1077     1  0.0000000  0.6508444  3
   1065   1063   1075   2218     1  0.0000000  1.0460000  1
   1065   1063   1075   2218     1  0.0000000  0.0000000  3
   1065   1063   1075   1076     1  0.0000000  0.6508444  3
   1065   1063   1075   1077     1  0.0000000  0.6508444  3
   1066   1054   1050   1079     1  0.0000000  0.6508444  3
   1067   1066   1072   2188     1  0.0000000  1.0460000  1
   1067   1066   1072   2188     1  0.0000000  0.0000000  3
   1067   1066   1072   1073     1  0.0000000  0.6508444  3
   1067   1066   1072   1074     1  0.0000000  0.6508444  3
   1068   1066   1072   2188     1  0.0000000  1.0460000  1
   1068   1066   1072   2188     1  0.0000000  0.0000000  3
   1068   1066   1072   1073     1  0.0000000  0.6508444  3
   1068   1066   1072   1074     1  0.0000000  0.6508444  3
   1072   2188   2179   2180     1  0.0000000  1.6038667  3
   1072   2188   2179   2181     1  0.0000000  1.6038667  3
   1073   1072   2188   2179     1  0.0000000  1.6038667  3
   1074   1072   2188   2179     1  0.0000000  1.6038667  3
   1075   2218   2209   2210     1  0.0000000  1.6038667  3
   1075   2218   2209   2211     1  0.0000000  1.6038667  3
   1076   1075   2218   2209     1  0.0000000  1.6038667  3
   1077   1075   2218   2209     1  0.0000000  1.6038667  3
   1080   1081   1093   1094     1  0.0000000  0.6508444  3
   1080   1081   1093   1095     1  0.0000000  0.6508444  3
   1080   1084   1096   1097     1  0.0000000  0.6508444  3
   1080   1084   1096   1098     1  0.0000000  0.6508444  3
   1080   1087   1090   1091     1  0.0000000  0.6508444  3
   1080   1087   1090   1092     1  0.0000000  0.6508444  3
   1081   1080   1084   1085     1  0.0000000  0.6508444  3
   1081   1080   1084   1086     1  0.0000000  0.6508444  3
   1081   1080   1087   1088     1  0.0000000  0.6508444  3
   1081   1080   1087   1089     1  0.0000000  0.6508444  3
   1081   1093   1105   1106     1  0.0000000  0.6508444  3
   1081   1093   1105   1107     1  0.0000000  0.6508444  3
   1082   1081   1080   1084     1  0.0000000  0.6508444  3
   1082   1081   1080   1087     1  0.0000000  0.6508444  3
   1082   1081   1080   1109     1  0.0000000  0.6508444  3
   1082   1081   1093   1105     1  0.0000000  0.6508444  3
   1082   1081   1093   1094     1  0.0000000  0.6508444  3
   1082   1081   1093   1095     1  0.0000000  0.6508444  3
   1083   1081   1080   1084     1  0.0000000  0.6508444  3
   1083   1081   1080   1087     1  0.0000000  0.6508444  3
   1083   1081   1080   1109     1  0.0000000  0.6508444  3
   1083   1081   1093   1105     1  0.0000000  0.6508444  3
   1083   1081   1093   1094     1  0.0000000  0.6508444  3
   1083   1081   1093   1095     1  0.0000000  0.6508444  3
   1084   1080   1087   1088     1  0.0000000  0.6508444  3
   1084   1080   1087   1089     1  0.0000000  0.6508444  3
   1084   1096   1102   1103     1  0.0000000  0.6508444  3
   1084   1096   1102   1104     1  0.0000000  0.6508444  3
   1085   1084   1080   1087     1  0.0000000  0.6508444  3
   1085   1084   1080   1109     1  0.0000000  0.6508444  3
   1085   1084   1096   1102     1  0.0000000  0.6508444  3
   1085   1084   1096   1097     1  0.0000000  0.6508444  3
   1085   1084   1096   1098     1  0.0000000  0.6508444  3
   1086   1084   1080   1087     1  0.0000000  0.6508444  3
   1086   1084   1080   1109     1  0.0000000  0.6508444  3
   1086   1084   1096   1102     1  0.0000000  0.6508444  3
   1086   1084   1096   1097     1  0.0000000  0.6508444  3
   1086   1084   1096   1098     1  0.0000000  0.6508444  3
   1087   1090   1099   1100     1  0.0000000  0.6508444  3
   1087   1090   1099   1101     1  0.0000000  0.6508444  3
   1088   1087   1080   1109     1  0.0000000  0.6508444  3
   1088   1087   1090   1099     1  0.0000000  0.6508444  3
   1088   1087   1090   1091     1  0.0000000  0.6508444  3
   1088   1087   1090   1092     1  0.0000000  0.6508444  3
   1089   1087   1080   1109     1  0.0000000  0.6508444  3
   1089   1087   1090   1099     1  0.0000000  0.6508444  3
   1089   1087   1090   1091     1  0.0000000  0.6508444  3
   1089   1087   1090   1092     1  0.0000000  0.6508444  3
   1090   1087   1080   1109     1  0.0000000  0.6508444  3
   1091   1090   1099   1108     1  0.0000000  1.0460000  1
   1091   1090   1099   1108     1  0.0000000  0.0000000  3
   1091   1090   1099   1100     1  0.0000000  0.6508444  3
   1091   1090   1099   1101     1  0.0000000  0.6508444  3
   1092   1090   1099   1108     1  0.0000000  1.0460000  1
   1092   1090   1099   1108     1  0.0000000  0.0000000  3
   1092   1090   1099   1100     1  0.0000000  0.6508444  3
   1092   1090   1099   1101     1  0.0000000  0.6508444  3
   1093   1081   1080   1109     1  0.0000000  0.6508444  3
   1094   1093   1105   2278     1  0.0000000  1.0460000  1
   1094   1093   1105   2278     1  0.0000000  0.0000000  3
   1094   1093   1105   1106     1  0.0000000  0.6508444  3
   1094   1093   1105   1107     1  0.0000000  0.6508444  3
   1095   1093   1105   2278     1  0.0000000  1.0460000  1
   1095   1093   1105   2278     1  0.0000000  0.0000000  3
   1095   1093   1105   1106     1  0.0000000  0.6508444  3
   1095   1093   1105   1107     1  0.0000000  0.6508444  3
   1096   1084   1080   1109     1  0.0000000  0.6508444  3
   1097   1096   1102   2248     1  0.0000000  1.0460000  1
   1097   1096   1102   2248     1  0.0000000  0.0000000  3
   1097   1096   1102   1103     1  0.0000000  0.6508444  3
   1097   1096   1102   1104     1  0.0000000  0.6508444  3
   1098   1096   1102   2248     1  0.0000000  1.0460000  1
   1098   1096   1102   2248     1  0.0000000  0.0000000  3
   1098   1096   1102   1103     1  0.0000000  0.6508444  3
   1098   1096   1102   1104     1  0.0000000  0.6508444  3
   1102   2248   2239   2240     1  0.0000000  1.6038667  3
   1102   2248   2239   2241     1  0.0000000  1.6038667  3
   1103   1102   2248   2239     1  0.0000000  1.6038667  3
   1104   1102   2248   2239     1  0.0000000  1.6038667  3
   1105   2278   2269   2270     1  0.0000000  1.6038667  3
   1105   2278   2269   2271     1  0.0000000  1.6038667  3
   1106   1105   2278   2269     1  0.0000000  1.6038667  3
   1107   1105   2278   2269     1  0.0000000  1.6038667  3
   1110   1111   1123   1124     1  0.0000000  0.6508444  3
   1110   1111   1123   1125     1  0.0000000  0.6508444  3
   1110   1114   1126   1127     1  0.0000000  0.6508444  3
   1110   1114   1126   1128     1  0.0000000  0.6508444  3
   1110   1117   1120   1121     1  0.0000000  0.6508444  3
   1110   1117   1120   1122     1  0.0000000  0.6508444  3
   1111   1110   1114   1115     1  0.0000000  0.6508444  3
   1111   1110   1114   1116     1  0.0000000  0.6508444  3
   1111   1110   1117   1118     1  0.0000000  0.6508444  3
   1111   1110   1117   1119     1  0.0000000  0.6508444  3
   1111   1123   1135   1136     1  0.0000000  0.6508444  3
   1111   1123   1135   1137     1  0.0000000  0.6508444  3
   1112   1111   1110   1114     1  0.0000000  0.6508444  3
   1112   1111   1110   1117     1  0.0000000  0.6508444  3
   1112   1111   1110   1139     1  0.0000000  0.6508444  3
   1112   1111   1123   1135     1  0.0000000  0.6508444  3
   1112   1111   1123   1124     1  0.0000000  0.6508444  3
   1112   1111   1123   1125     1  0.0000000  0.6508444  3
   1113   1111   1110   1114     1  0.0000000  0.6508444  3
   1113   1111   1110   1117     1  0.0000000  0.6508444  3
   1113   1111   1110   1139     1  0.0000000  0.6508444  3
   1113   1111   1123   1135     1  0.0000000  0.6508444  3
   1113   1111   1123   1124     1  0.0000000  0.6508444  3
   1113   1111   1123   1125     1  0.0000000  0.6508444  3
   1114   1110   1117   1118     1  0.0000000  0.6508444  3
   1114   1110   1117   1119     1  0.0000000  0.6508444  3
   1114   1126   1132   1133     1  0.0000000  0.6508444  3
   1114   1126   1132   1134     1  0.0000000  0.6508444  3
   1115   1114   1110   1117     1  0.0000000  0.6508444  3
   1115   1114   1110   1139     1  0.0000000  0.6508444  3
   1115   1114   1126   1132     1  0.0000000  0.6508444  3
   1115   1114   1126   1127     1  0.0000000  0.6508444  3
   1115   1114   1126   1128     1  0.0000000  0.6508444  3
   1116   1114   1110   1117     1  0.0000000  0.6508444  3
   1116   1114   1110   1139     1  0.0000000  0.6508444  3
   1116   1114   1126   1132     1  0.0000000  0.6508444  3
   1116   1114   1126   1127     1  0.0000000  0.6508444  3
   1116   1114   1126   1128     1  0.0000000  0.6508444  3
   1117   1120   1129   1130     1  0.0000000  0.6508444  3
   1117   1120   1129   1131     1  0.0000000  0.6508444  3
   1118   1117   1110   1139     1  0.0000000  0.6508444  3
   1118   1117   1120   1129     1  0.0000000  0.6508444  3
   1118   1117   1120   1121     1  0.0000000  0.6508444  3
   1118   1117   1120   1122     1  0.0000000  0.6508444  3
   1119   1117   1110   1139     1  0.0000000  0.6508444  3
   1119   1117   1120   1129     1  0.0000000  0.6508444  3
   1119   1117   1120   1121     1  0.0000000  0.6508444  3
   1119   1117   1120   1122     1  0.0000000  0.6508444  3
   1120   1117   1110   1139     1  0.0000000  0.6508444  3
   1121   1120   1129   1138     1  0.0000000  1.0460000  1
   1121   1120   1129   1138     1  0.0000000  0.0000000  3
   1121   1120   1129   1130     1  0.0000000  0.6508444  3
   1121   1120   1129   1131     1  0.0000000  0.6508444  3
   1122   1120   1129   1138     1  0.0000000  1.0460000  1
   1122   1120   1129   1138     1  0.0000000  0.0000000  3
   1122   1120   1129   1130     1  0.0000000  0.6508444  3
   1122   1120   1129   1131     1  0.0000000  0.6508444  3
   1123   1111   1110   1139     1  0.0000000  0.6508444  3
   1124   1123   1135   2338     1  0.0000000  1.0460000  1
   1124   1123   1135   2338     1  0.0000000  0.0000000  3
   1124   1123   1135   1136     1  0.0000000  0.6508444  3
   1124   1123   1135   1137     1  0.0000000  0.6508444  3
   1125   1123   1135   2338     1  0.0000000  1.0460000  1
   1125   1123   1135   2338     1  0.0000000  0.0000000  3
   1125   1123   1135   1136     1  0.0000000  0.6508444  3
   1125   1123   1135   1137     1  0.0000000  0.6508444  3
   1126   1114   1110   1139     1  0.0000000  0.6508444  3
   1127   1126   1132   2308     1  0.0000000  1.0460000  1
   1127   1126   1132   2308     1  0.0000000  0.0000000  3
   1127   1126   1132   1133     1  0.0000000  0.6508444  3
   1127   1126   1132   1134     1  0.0000000  0.6508444  3
   1128   1126   1132   2308     1  0.0000000  1.0460000  1
   1128   1126   1132   2308     1  0.0000000  0.0000000  3
   1128   1126   1132   1133     1  0.0000000  0.6508444  3
   1128   1126   1132   1134     1  0.0000000  0.6508444  3
   1132   2308   2299   2300     1  0.0000000  1.6038667  3
   1132   2308   2299   2301     1  0.0000000  1.6038667  3
   1133   1132   2308   2299     1  0.0000000  1.6038667  3
   1134   1132   2308   2299     1  0.0000000  1.6038667  3
   1135   2338   2329   2330     1  0.0000000  1.6038667  3
   1135   2338   2329   2331     1  0.0000000  1.6038667  3
   1136   1135   2338   2329     1  0.0000000  1.6038667  3
   1137   1135   2338   2329     1  0.0000000  1.6038667  3
   1140   1141   1153   1154     1  0.0000000  0.6508444  3
   1140   1141   1153   1155     1  0.0000000  0.6508444  3
   1140   1144   1156   1157     1  0.0000000  0.6508444  3
   1140   1144   1156   1158     1  0.0000000  0.6508444  3
   1140   1147   1150   1151     1  0.0000000  0.6508444  3
   1140   1147   1150   1152     1  0.0000000  0.6508444  3
   1141   1140   1144   1145     1  0.0000000  0.6508444  3
   1141   1140   1144   1146     1  0.0000000  0.6508444  3
   1141   1140   1147   1148     1  0.0000000  0.6508444  3
   1141   1140   1147   1149     1  0.0000000  0.6508444  3
   1141   1153   1165   1166     1  0.0000000  0.6508444  3
   1141   1153   1165   1167     1  0.0000000  0.6508444  3
   1142   1141   1140   1144     1  0.0000000  0.6508444  3
   1142   1141   1140   1147     1  0.0000000  0.6508444  3
   1142   1141   1140   1169     1  0.0000000  0.6508444  3
   1142   1141   1153   1165     1  0.0000000  0.6508444  3
   1142   1141   1153   1154     1  0.0000000  0.6508444  3
   1142   1141   1153   1155     1  0.0000000  0.6508444  3
   1143   1141   1140   1144     1  0.0000000  0.6508444  3
   1143   1141   1140   1147     1  0.0000000  0.6508444  3
   1143   1141   1140   1169     1  0.0000000  0.6508444  3
   1143   1141   1153   1165     1  0.0000000  0.6508444  3
   1143   1141   1153   1154     1  0.0000000  0.6508444  3
   1143   1141   1153   1155     1  0.0000000  0.6508444  3
   1144   1140   1147   1148     1  0.0000000  0.6508444  3
   1144   1140   1147   1149     1  0.0000000  0.6508444  3
   1144   1156   1162   1163     1  0.0000000  0.6508444  3
   1144   1156   1162   1164     1  0.0000000  0.6508444  3
   1145   1144   1140   1147     1  0.0000000  0.6508444  3
   1145   1144   1140   1169     1  0.0000000  0.6508444  3
   1145   1144   1156   1162     1  0.0000000  0.6508444  3
   1145   1144   1156   1157     1  0.0000000  0.6508444  3
   1145   1144   1156   1158     1  0.0000000  0.6508444  3
   1146   1144   1140   1147     1  0.0000000  0.6508444  3
   1146   1144   1140   1169     1  0.0000000  0.6508444  3
   1146   1144   1156   1162     1  0.0000000  0.6508444  3
   1146   1144   1156   1157     1  0.0000000  0.6508444  3
   1146   1144   1156   1158     1  0.0000000  0.6508444  3
   1147   1150   1159   1160     1  0.0000000  0.6508444  3
   1147   1150   1159   1161     1  0.0000000  0.6508444  3
   1148   1147   1140   1169     1  0.0000000  0.6508444  3
   1148   1147   1150   1159     1  0.0000000  0.6508444  3
   1148   1147   1150   1151     1  0.0000000  0.6508444  3
   1148   1147   1150   1152     1  0.0000000  0.6508444  3
   1149   1147   1140   1169     1  0.0000000  0.6508444  3
   1149   1147   1150   1159     1  0.0000000  0.6508444  3
   1149   1147   1150   1151     1  0.0000000  0.6508444  3
   1149   1147   1150   1152     1  0.0000000  0.6508444  3
   1150   1147   1140   1169     1  0.0000000  0.6508444  3
   1151   1150   1159   1168     1  0.0000000  1.0460000  1
   1151   1150   1159   1168     1  0.0000000  0.0000000  3
   1151   1150   1159   1160     1  0.0000000  0.6508444  3
   1151   1150   1159   1161     1  0.0000000  0.6508444  3
   1152   1150   1159   1168     1  0.0000000  1.0460000  1
   1152   1150   1159   1168     1  0.0000000  0.0000000  3
   1152   1150   1159   1160     1  0.0000000  0.6508444  3
   1152   1150   1159   1161     1  0.0000000  0.6508444  3
   1153   1141   1140   1169     1  0.0000000  0.6508444  3
   1154   1153   1165   2398     1  0.0000000  1.0460000  1
   1154   1153   1165   2398     1  0.0000000  0.0000000  3
   1154   1153   1165   1166     1  0.0000000  0.6508444  3
   1154   1153   1165   1167     1  0.0000000  0.6508444  3
   1155   1153   1165   2398     1  0.0000000  1.0460000  1
   1155   1153   1165   2398     1  0.0000000  0.0000000  3
   1155   1153   1165   1166     1  0.0000000  0.6508444  3
   1155   1153   1165   1167     1  0.0000000  0.6508444  3
   1156   1144   1140   1169     1  0.0000000  0.6508444  3
   1157   1156   1162   2368     1  0.0000000  1.0460000  1
   1157   1156   1162   2368     1  0.0000000  0.0000000  3
   1157   1156   1162   1163     1  0.0000000  0.6508444  3
   1157   1156   1162   1164     1  0.0000000  0.6508444  3
   1158   1156   1162   2368     1  0.0000000  1.0460000  1
   1158   1156   1162   2368     1  0.0000000  0.0000000  3
   1158   1156   1162   1163     1  0.0000000  0.6508444  3
   1158   1156   1162   1164     1  0.0000000  0.6508444  3
   1162   2368   2359   2360     1  0.0000000  1.6038667  3
   1162   2368   2359   2361     1  0.0000000  1.6038667  3
   1163   1162   2368   2359     1  0.0000000  1.6038667  3
   1164   1162   2368   2359     1  0.0000000  1.6038667  3
   1165   2398   2389   2390     1  0.0000000  1.6038667  3
   1165   2398   2389   2391     1  0.0000000  1.6038667  3
   1166   1165   2398   2389     1  0.0000000  1.6038667  3
   1167   1165   2398   2389     1  0.0000000  1.6038667  3
   1170   1171   1183   1184     1  0.0000000  0.6508444  3
   1170   1171   1183   1185     1  0.0000000  0.6508444  3
   1170   1174   1186   1187     1  0.0000000  0.6508444  3
   1170   1174   1186   1188     1  0.0000000  0.6508444  3
   1170   1177   1180   1181     1  0.0000000  0.6508444  3
   1170   1177   1180   1182     1  0.0000000  0.6508444  3
   1171   1170   1174   1175     1  0.0000000  0.6508444  3
   1171   1170   1174   1176     1  0.0000000  0.6508444  3
   1171   1170   1177   1178     1  0.0000000  0.6508444  3
   1171   1170   1177   1179     1  0.0000000  0.6508444  3
   1171   1183   1195   1196     1  0.0000000  0.6508444  3
   1171   1183   1195   1197     1  0.0000000  0.6508444  3
   1172   1171   1170   1174     1  0.0000000  0.6508444  3
   1172   1171   1170   1177     1  0.0000000  0.6508444  3
   1172   1171   1170   1199     1  0.0000000  0.6508444  3
   1172   1171   1183   1195     1  0.0000000  0.6508444  3
   1172   1171   1183   1184     1  0.0000000  0.6508444  3
   1172   1171   1183   1185     1  0.0000000  0.6508444  3
   1173   1171   1170   1174     1  0.0000000  0.6508444  3
   1173   1171   1170   1177     1  0.0000000  0.6508444  3
   1173   1171   1170   1199     1  0.0000000  0.6508444  3
   1173   1171   1183   1195     1  0.0000000  0.6508444  3
   1173   1171   1183   1184     1  0.0000000  0.6508444  3
   1173   1171   1183   1185     1  0.0000000  0.6508444  3
   1174   1170   1177   1178     1  0.0000000  0.6508444  3
   1174   1170   1177   1179     1  0.0000000  0.6508444  3
   1174   1186   1192   1193     1  0.0000000  0.6508444  3
   1174   1186   1192   1194     1  0.0000000  0.6508444  3
   1175   1174   1170   1177     1  0.0000000  0.6508444  3
   1175   1174   1170   1199     1  0.0000000  0.6508444  3
   1175   1174   1186   1192     1  0.0000000  0.6508444  3
   1175   1174   1186   1187     1  0.0000000  0.6508444  3
   1175   1174   1186   1188     1  0.0000000  0.6508444  3
   1176   1174   1170   1177     1  0.0000000  0.6508444  3
   1176   1174   1170   1199     1  0.0000000  0.6508444  3
   1176   1174   1186   1192     1  0.0000000  0.6508444  3
   1176   1174   1186   1187     1  0.0000000  0.6508444  3
   1176   1174   1186   1188     1  0.0000000  0.6508444  3
   1177   1180   1189   1190     1  0.0000000  0.6508444  3
   1177   1180   1189   1191     1  0.0000000  0.6508444  3
   1178   1177   1170   1199     1  0.0000000  0.6508444  3
   1178   1177   1180   1189     1  0.0000000  0.6508444  3
   1178   1177   1180   1181     1  0.0000000  0.6508444  3
   1178   1177   1180   1182     1  0.0000000  0.6508444  3
   1179   1177   1170   1199     1  0.0000000  0.6508444  3
   1179   1177   1180   1189     1  0.0000000  0.6508444  3
   1179   1177   1180   1181     1  0.0000000  0.6508444  3
   1179   1177   1180   1182     1  0.0000000  0.6508444  3
   1180   1177   1170   1199     1  0.0000000  0.6508444  3
   1181   1180   1189   1198     1  0.0000000  1.0460000  1
   1181   1180   1189   1198     1  0.0000000  0.0000000  3
   1181   1180   1189   1190     1  0.0000000  0.6508444  3
   1181   1180   1189   1191     1  0.0000000  0.6508444  3
   1182   1180   1189   1198     1  0.0000000  1.0460000  1
   1182   1180   1189   1198     1  0.0000000  0.0000000  3
   1182   1180   1189   1190     1  0.0000000  0.6508444  3
   1182   1180   1189   1191     1  0.0000000  0.6508444  3
   1183   1171   1170   1199     1  0.0000000  0.6508444  3
   1184   1183   1195   2458     1  0.0000000  1.0460000  1
   1184   1183   1195   2458     1  0.0000000  0.0000000  3
   1184   1183   1195   1196     1  0.0000000  0.6508444  3
   1184   1183   1195   1197     1  0.0000000  0.6508444  3
   1185   1183   1195   2458     1  0.0000000  1.0460000  1
   1185   1183   1195   2458     1  0.0000000  0.0000000  3
   1185   1183   1195   1196     1  0.0000000  0.6508444  3
   1185   1183   1195   1197     1  0.0000000  0.6508444  3
   1186   1174   1170   1199     1  0.0000000  0.6508444  3
   1187   1186   1192   2428     1  0.0000000  1.0460000  1
   1187   1186   1192   2428     1  0.0000000  0.0000000  3
   1187   1186   1192   1193     1  0.0000000  0.6508444  3
   1187   1186   1192   1194     1  0.0000000  0.6508444  3
   1188   1186   1192   2428     1  0.0000000  1.0460000  1
   1188   1186   1192   2428     1  0.0000000  0.0000000  3
   1188   1186   1192   1193     1  0.0000000  0.6508444  3
   1188   1186   1192   1194     1  0.0000000  0.6508444  3
   1192   2428   2419   2420     1  0.0000000  1.6038667  3
   1192   2428   2419   2421     1  0.0000000  1.6038667  3
   1193   1192   2428   2419     1  0.0000000  1.6038667  3
   1194   1192   2428   2419     1  0.0000000  1.6038667  3
   1195   2458   2449   2450     1  0.0000000  1.6038667  3
   1195   2458   2449   2451     1  0.0000000  1.6038667  3
   1196   1195   2458   2449     1  0.0000000  1.6038667  3
   1197   1195   2458   2449     1  0.0000000  1.6038667  3
   1200   1201   1213   1214     1  0.0000000  0.6508444  3
   1200   1201   1213   1215     1  0.0000000  0.6508444  3
   1200   1204   1216   1217     1  0.0000000  0.6508444  3
   1200   1204   1216   1218     1  0.0000000  0.6508444  3
   1200   1207   1210   1211     1  0.0000000  0.6508444  3
   1200   1207   1210   1212     1  0.0000000  0.6508444  3
   1201   1200   1204   1205     1  0.0000000  0.6508444  3
   1201   1200   1204   1206     1  0.0000000  0.6508444  3
   1201   1200   1207   1208     1  0.0000000  0.6508444  3
   1201   1200   1207   1209     1  0.0000000  0.6508444  3
   1201   1213   1225   1226     1  0.0000000  0.6508444  3
   1201   1213   1225   1227     1  0.0000000  0.6508444  3
   1202   1201   1200   1204     1  0.0000000  0.6508444  3
   1202   1201   1200   1207     1  0.0000000  0.6508444  3
   1202   1201   1200   1229     1  0.0000000  0.6508444  3
   1202   1201   1213   1225     1  0.0000000  0.6508444  3
   1202   1201   1213   1214     1  0.0000000  0.6508444  3
   1202   1201   1213   1215     1  0.0000000  0.6508444  3
   1203   1201   1200   1204     1  0.0000000  0.6508444  3
   1203   1201   1200   1207     1  0.0000000  0.6508444  3
   1203   1201   1200   1229     1  0.0000000  0.6508444  3
   1203   1201   1213   1225     1  0.0000000  0.6508444  3
   1203   1201   1213   1214     1  0.0000000  0.6508444  3
   1203   1201   1213   1215     1  0.0000000  0.6508444  3
   1204   1200   1207   1208     1  0.0000000  0.6508444  3
   1204   1200   1207   1209     1  0.0000000  0.6508444  3
   1204   1216   1222   1223     1  0.0000000  0.6508444  3
   1204   1216   1222   1224     1  0.0000000  0.6508444  3
   1205   1204   1200   1207     1  0.0000000  0.6508444  3
   1205   1204   1200   1229     1  0.0000000  0.6508444  3
   1205   1204   1216   1222     1  0.0000000  0.6508444  3
   1205   1204   1216   1217     1  0.0000000  0.6508444  3
   1205   1204   1216   1218     1  0.0000000  0.6508444  3
   1206   1204   1200   1207     1  0.0000000  0.6508444  3
   1206   1204   1200   1229     1  0.0000000  0.6508444  3
   1206   1204   1216   1222     1  0.0000000  0.6508444  3
   1206   1204   1216   1217     1  0.0000000  0.6508444  3
   1206   1204   1216   1218     1  0.0000000  0.6508444  3
   1207   1210   1219   1220     1  0.0000000  0.6508444  3
   1207   1210   1219   1221     1  0.0000000  0.6508444  3
   1208   1207   1200   1229     1  0.0000000  0.6508444  3
   1208   1207   1210   1219     1  0.0000000  0.6508444  3
   1208   1207   1210   1211     1  0.0000000  0.6508444  3
   1208   1207   1210   1212     1  0.0000000  0.6508444  3
   1209   1207   1200   1229     1  0.0000000  0.6508444  3
   1209   1207   1210   1219     1  0.0000000  0.6508444  3
   1209   1207   1210   1211     1  0.0000000  0.6508444  3
   1209   1207   1210   1212     1  0.0000000  0.6508444  3
   1210   1207   1200   1229     1  0.0000000  0.6508444  3
   1211   1210   1219   1228     1  0.0000000  1.0460000  1
   1211   1210   1219   1228     1  0.0000000  0.0000000  3
   1211   1210   1219   1220     1  0.0000000  0.6508444  3
   1211   1210   1219   1221     1  0.0000000  0.6508444  3
   1212   1210   1219   1228     1  0.0000000  1.0460000  1
   1212   1210   1219   1228     1  0.0000000  0.0000000  3
   1212   1210   1219   1220     1  0.0000000  0.6508444  3
   1212   1210   1219   1221     1  0.0000000  0.6508444  3
   1213   1201   1200   1229     1  0.0000000  0.6508444  3
   1214   1213   1225   2518     1  0.0000000  1.0460000  1
   1214   1213   1225   2518     1  0.0000000  0.0000000  3
   1214   1213   1225   1226     1  0.0000000  0.6508444  3
   1214   1213   1225   1227     1  0.0000000  0.6508444  3
   1215   1213   1225   2518     1  0.0000000  1.0460000  1
   1215   1213   1225   2518     1  0.0000000  0.0000000  3
   1215   1213   1225   1226     1  0.0000000  0.6508444  3
   1215   1213   1225   1227     1  0.0000000  0.6508444  3
   1216   1204   1200   1229     1  0.0000000  0.6508444  3
   1217   1216   1222   2488     1  0.0000000  1.0460000  1
   1217   1216   1222   2488     1  0.0000000  0.0000000  3
   1217   1216   1222   1223     1  0.0000000  0.6508444  3
   1217   1216   1222   1224     1  0.0000000  0.6508444  3
   1218   1216   1222   2488     1  0.0000000  1.0460000  1
   1218   1216   1222   2488     1  0.0000000  0.0000000  3
   1218   1216   1222   1223     1  0.0000000  0.6508444  3
   1218   1216   1222   1224     1  0.0000000  0.6508444  3
   1222   2488   2479   2480     1  0.0000000  1.6038667  3
   1222   2488   2479   2481     1  0.0000000  1.6038667  3
   1223   1222   2488   2479     1  0.0000000  1.6038667  3
   1224   1222   2488   2479     1  0.0000000  1.6038667  3
   1225   2518   2509   2510     1  0.0000000  1.6038667  3
   1225   2518   2509   2511     1  0.0000000  1.6038667  3
   1226   1225   2518   2509     1  0.0000000  1.6038667  3
   1227   1225   2518   2509     1  0.0000000  1.6038667  3
   1230   1231   1243   1244     1  0.0000000  0.6508444  3
   1230   1231   1243   1245     1  0.0000000  0.6508444  3
   1230   1234   1246   1247     1  0.0000000  0.6508444  3
   1230   1234   1246   1248     1  0.0000000  0.6508444  3
   1230   1237   1240   1241     1  0.0000000  0.6508444  3
   1230   1237   1240   1242     1  0.0000000  0.6508444  3
   1231   1230   1234   1235     1  0.0000000  0.6508444  3
   1231   1230   1234   1236     1  0.0000000  0.6508444  3
   1231   1230   1237   1238     1  0.0000000  0.6508444  3
   1231   1230   1237   1239     1  0.0000000  0.6508444  3
   1231   1243   1255   1256     1  0.0000000  0.6508444  3
   1231   1243   1255   1257     1  0.0000000  0.6508444  3
   1232   1231   1230   1234     1  0.0000000  0.6508444  3
   1232   1231   1230   1237     1  0.0000000  0.6508444  3
   1232   1231   1230   1259     1  0.0000000  0.6508444  3
   1232   1231   1243   1255     1  0.0000000  0.6508444  3
   1232   1231   1243   1244     1  0.0000000  0.6508444  3
   1232   1231   1243   1245     1  0.0000000  0.6508444  3
   1233   1231   1230   1234     1  0.0000000  0.6508444  3
   1233   1231   1230   1237     1  0.0000000  0.6508444  3
   1233   1231   1230   1259     1  0.0000000  0.6508444  3
   1233   1231   1243   1255     1  0.0000000  0.6508444  3
   1233   1231   1243   1244     1  0.0000000  0.6508444  3
   1233   1231   1243   1245     1  0.0000000  0.6508444  3
   1234   1230   1237   1238     1  0.0000000  0.6508444  3
   1234   1230   1237   1239     1  0.0000000  0.6508444  3
   1234   1246   1252   1253     1  0.0000000  0.6508444  3
   1234   1246   1252   1254     1  0.0000000  0.6508444  3
   1235   1234   1230   1237     1  0.0000000  0.6508444  3
   1235   1234   1230   1259     1  0.0000000  0.6508444  3
   1235   1234   1246   1252     1  0.0000000  0.6508444  3
   1235   1234   1246   1247     1  0.0000000  0.6508444  3
   1235   1234   1246   1248     1  0.0000000  0.6508444  3
   1236   1234   1230   1237     1  0.0000000  0.6508444  3
   1236   1234   1230   1259     1  0.0000000  0.6508444  3
   1236   1234   1246   1252     1  0.0000000  0.6508444  3
   1236   1234   1246   1247     1  0.0000000  0.6508444  3
   1236   1234   1246   1248     1  0.0000000  0.6508444  3
   1237   1240   1249   1250     1  0.0000000  0.6508444  3
   1237   1240   1249   1251     1  0.0000000  0.6508444  3
   1238   1237   1230   1259     1  0.0000000  0.6508444  3
   1238   1237   1240   1249     1  0.0000000  0.6508444  3
   1238   1237   1240   1241     1  0.0000000  0.6508444  3
   1238   1237   1240   1242     1  0.0000000  0.6508444  3
   1239   1237   1230   1259     1  0.0000000  0.6508444  3
   1239   1237   1240   1249     1  0.0000000  0.6508444  3
   1239   1237   1240   1241     1  0.0000000  0.6508444  3
   1239   1237   1240   1242     1  0.0000000  0.6508444  3
   1240   1237   1230   1259     1  0.0000000  0.6508444  3
   1241   1240   1249   1258     1  0.0000000  1.0460000  1
   1241   1240   1249   1258     1  0.0000000  0.0000000  3
   1241   1240   1249   1250     1  0.0000000  0.6508444  3
   1241   1240   1249   1251     1  0.0000000  0.6508444  3
   1242   1240   1249   1258     1  0.0000000  1.0460000  1
   1242   1240   1249   1258     1  0.0000000  0.0000000  3
   1242   1240   1249   1250     1  0.0000000  0.6508444  3
   1242   1240   1249   1251     1  0.0000000  0.6508444  3
   1243   1231   1230   1259     1  0.0000000  0.6508444  3
   1244   1243   1255   2578     1  0.0000000  1.0460000  1
   1244   1243   1255   2578     1  0.0000000  0.0000000  3
   1244   1243   1255   1256     1  0.0000000  0.6508444  3
   1244   1243   1255   1257     1  0.0000000  0.6508444  3
   1245   1243   1255   2578     1  0.0000000  1.0460000  1
   1245   1243   1255   2578     1  0.0000000  0.0000000  3
   1245   1243   1255   1256     1  0.0000000  0.6508444  3
   1245   1243   1255   1257     1  0.0000000  0.6508444  3
   1246   1234   1230   1259     1  0.0000000  0.6508444  3
   1247   1246   1252   2548     1  0.0000000  1.0460000  1
   1247   1246   1252   2548     1  0.0000000  0.0000000  3
   1247   1246   1252   1253     1  0.0000000  0.6508444  3
   1247   1246   1252   1254     1  0.0000000  0.6508444  3
   1248   1246   1252   2548     1  0.0000000  1.0460000  1
   1248   1246   1252   2548     1  0.0000000  0.0000000  3
   1248   1246   1252   1253     1  0.0000000  0.6508444  3
   1248   1246   1252   1254     1  0.0000000  0.6508444  3
   1252   2548   2539   2540     1  0.0000000  1.6038667  3
   1252   2548   2539   2541     1  0.0000000  1.6038667  3
   1253   1252   2548   2539     1  0.0000000  1.6038667  3
   1254   1252   2548   2539     1  0.0000000  1.6038667  3
   1255   2578   2569   2570     1  0.0000000  1.6038667  3
   1255   2578   2569   2571     1  0.0000000  1.6038667  3
   1256   1255   2578   2569     1  0.0000000  1.6038667  3
   1257   1255   2578   2569     1  0.0000000  1.6038667  3
   1260   1261   1273   1274     1  0.0000000  0.6508444  3
   1260   1261   1273   1275     1  0.0000000  0.6508444  3
   1260   1264   1276   1277     1  0.0000000  0.6508444  3
   1260   1264   1276   1278     1  0.0000000  0.6508444  3
   1260   1267   1270   1271     1  0.0000000  0.6508444  3
   1260   1267   1270   1272     1  0.0000000  0.6508444  3
   1261   1260   1264   1265     1  0.0000000  0.6508444  3
   1261   1260   1264   1266     1  0.0000000  0.6508444  3
   1261   1260   1267   1268     1  0.0000000  0.6508444  3
   1261   1260   1267   1269     1  0.0000000  0.6508444  3
   1261   1273   1285   1286     1  0.0000000  0.6508444  3
   1261   1273   1285   1287     1  0.0000000  0.6508444  3
   1262   1261   1260   1264     1  0.0000000  0.6508444  3
   1262   1261   1260   1267     1  0.0000000  0.6508444  3
   1262   1261   1260   1289     1  0.0000000  0.6508444  3
   1262   1261   1273   1285     1  0.0000000  0.6508444  3
   1262   1261   1273   1274     1  0.0000000  0.6508444  3
   1262   1261   1273   1275     1  0.0000000  0.6508444  3
   1263   1261   1260   1264     1  0.0000000  0.6508444  3
   1263   1261   1260   1267     1  0.0000000  0.6508444  3
   1263   1261   1260   1289     1  0.0000000  0.6508444  3
   1263   1261   1273   1285     1  0.0000000  0.6508444  3
   1263   1261   1273   1274     1  0.0000000  0.6508444  3
   1263   1261   1273   1275     1  0.0000000  0.6508444  3
   1264   1260   1267   1268     1  0.0000000  0.6508444  3
   1264   1260   1267   1269     1  0.0000000  0.6508444  3
   1264   1276   1282   1283     1  0.0000000  0.6508444  3
   1264   1276   1282   1284     1  0.0000000  0.6508444  3
   1265   1264   1260   1267     1  0.0000000  0.6508444  3
   1265   1264   1260   1289     1  0.0000000  0.6508444  3
   1265   1264   1276   1282     1  0.0000000  0.6508444  3
   1265   1264   1276   1277     1  0.0000000  0.6508444  3
   1265   1264   1276   1278     1  0.0000000  0.6508444  3
   1266   1264   1260   1267     1  0.0000000  0.6508444  3
   1266   1264   1260   1289     1  0.0000000  0.6508444  3
   1266   1264   1276   1282     1  0.0000000  0.6508444  3
   1266   1264   1276   1277     1  0.0000000  0.6508444  3
   1266   1264   1276   1278     1  0.0000000  0.6508444  3
   1267   1270   1279   1280     1  0.0000000  0.6508444  3
   1267   1270   1279   1281     1  0.0000000  0.6508444  3
   1268   1267   1260   1289     1  0.0000000  0.6508444  3
   1268   1267   1270   1279     1  0.0000000  0.6508444  3
   1268   1267   1270   1271     1  0.0000000  0.6508444  3
   1268   1267   1270   1272     1  0.0000000  0.6508444  3
   1269   1267   1260   1289     1  0.0000000  0.6508444  3
   1269   1267   1270   1279     1  0.0000000  0.6508444  3
   1269   1267   1270   1271     1  0.0000000  0.6508444  3
   1269   1267   1270   1272     1  0.0000000  0.6508444  3
   1270   1267   1260   1289     1  0.0000000  0.6508444  3
   1271   1270   1279   1288     1  0.0000000  1.0460000  1
   1271   1270   1279   1288     1  0.0000000  0.0000000  3
   1271   1270   1279   1280     1  0.0000000  0.6508444  3
   1271   1270   1279   1281     1  0.0000000  0.6508444  3
   1272   1270   1279   1288     1  0.0000000  1.0460000  1
   1272   1270   1279   1288     1  0.0000000  0.0000000  3
   1272   1270   1279   1280     1  0.0000000  0.6508444  3
   1272   1270   1279   1281     1  0.0000000  0.6508444  3
   1273   1261   1260   1289     1  0.0000000  0.6508444  3
   1274   1273   1285   2638     1  0.0000000  1.0460000  1
   1274   1273   1285   2638     1  0.0000000  0.0000000  3
   1274   1273   1285   1286     1  0.0000000  0.6508444  3
   1274   1273   1285   1287     1  0.0000000  0.6508444  3
   1275   1273   1285   2638     1  0.0000000  1.0460000  1
   1275   1273   1285   2638     1  0.0000000  0.0000000  3
   1275   1273   1285   1286     1  0.0000000  0.6508444  3
   1275   1273   1285   1287     1  0.0000000  0.6508444  3
   1276   1264   1260   1289     1  0.0000000  0.6508444  3
   1277   1276   1282   2608     1  0.0000000  1.0460000  1
   1277   1276   1282   2608     1  0.0000000  0.0000000  3
   1277   1276   1282   1283     1  0.0000000  0.6508444  3
   1277   1276   1282   1284     1  0.0000000  0.6508444  3
   1278   1276   1282   2608     1  0.0000000  1.0460000  1
   1278   1276   1282   2608     1  0.0000000  0.0000000  3
   1278   1276   1282   1283     1  0.0000000  0.6508444  3
   1278   1276   1282   1284     1  0.0000000  0.6508444  3
   1282   2608   2599   2600     1  0.0000000  1.6038667  3
   1282   2608   2599   2601     1  0.0000000  1.6038667  3
   1283   1282   2608   2599     1  0.0000000  1.6038667  3
   1284   1282   2608   2599     1  0.0000000  1.6038667  3
   1285   2638   2629   2630     1  0.0000000  1.6038667  3
   1285   2638   2629   2631     1  0.0000000  1.6038667  3
   1286   1285   2638   2629     1  0.0000000  1.6038667  3
   1287   1285   2638   2629     1  0.0000000  1.6038667  3
   1290   1291   1303   1304     1  0.0000000  0.6508444  3
   1290   1291   1303   1305     1  0.0000000  0.6508444  3
   1290   1294   1306   1307     1  0.0000000  0.6508444  3
   1290   1294   1306   1308     1  0.0000000  0.6508444  3
   1290   1297   1300   1301     1  0.0000000  0.6508444  3
   1290   1297   1300   1302     1  0.0000000  0.6508444  3
   1291   1290   1294   1295     1  0.0000000  0.6508444  3
   1291   1290   1294   1296     1  0.0000000  0.6508444  3
   1291   1290   1297   1298     1  0.0000000  0.6508444  3
   1291   1290   1297   1299     1  0.0000000  0.6508444  3
   1291   1303   1315   1316     1  0.0000000  0.6508444  3
   1291   1303   1315   1317     1  0.0000000  0.6508444  3
   1292   1291   1290   1294     1  0.0000000  0.6508444  3
   1292   1291   1290   1297     1  0.0000000  0.6508444  3
   1292   1291   1290   1319     1  0.0000000  0.6508444  3
   1292   1291   1303   1315     1  0.0000000  0.6508444  3
   1292   1291   1303   1304     1  0.0000000  0.6508444  3
   1292   1291   1303   1305     1  0.0000000  0.6508444  3
   1293   1291   1290   1294     1  0.0000000  0.6508444  3
   1293   1291   1290   1297     1  0.0000000  0.6508444  3
   1293   1291   1290   1319     1  0.0000000  0.6508444  3
   1293   1291   1303   1315     1  0.0000000  0.6508444  3
   1293   1291   1303   1304     1  0.0000000  0.6508444  3
   1293   1291   1303   1305     1  0.0000000  0.6508444  3
   1294   1290   1297   1298     1  0.0000000  0.6508444  3
   1294   1290   1297   1299     1  0.0000000  0.6508444  3
   1294   1306   1312   1313     1  0.0000000  0.6508444  3
   1294   1306   1312   1314     1  0.0000000  0.6508444  3
   1295   1294   1290   1297     1  0.0000000  0.6508444  3
   1295   1294   1290   1319     1  0.0000000  0.6508444  3
   1295   1294   1306   1312     1  0.0000000  0.6508444  3
   1295   1294   1306   1307     1  0.0000000  0.6508444  3
   1295   1294   1306   1308     1  0.0000000  0.6508444  3
   1296   1294   1290   1297     1  0.0000000  0.6508444  3
   1296   1294   1290   1319     1  0.0000000  0.6508444  3
   1296   1294   1306   1312     1  0.0000000  0.6508444  3
   1296   1294   1306   1307     1  0.0000000  0.6508444  3
   1296   1294   1306   1308     1  0.0000000  0.6508444  3
   1297   1300   1309   1310     1  0.0000000  0.6508444  3
   1297   1300   1309   1311     1  0.0000000  0.6508444  3
   1298   1297   1290   1319     1  0.0000000  0.6508444  3
   1298   1297   1300   1309     1  0.0000000  0.6508444  3
   1298   1297   1300   1301     1  0.0000000  0.6508444  3
   1298   1297   1300   1302     1  0.0000000  0.6508444  3
   1299   1297   1290   1319     1  0.0000000  0.6508444  3
   1299   1297   1300   1309     1  0.0000000  0.6508444  3
   1299   1297   1300   1301     1  0.0000000  0.6508444  3
   1299   1297   1300   1302     1  0.0000000  0.6508444  3
   1300   1297   1290   1319     1  0.0000000  0.6508444  3
   1301   1300   1309   1318     1  0.0000000  1.0460000  1
   1301   1300   1309   1318     1  0.0000000  0.0000000  3
   1301   1300   1309   1310     1  0.0000000  0.6508444  3
   1301   1300   1309   1311     1  0.0000000  0.6508444  3
   1302   1300   1309   1318     1  0.0000000  1.0460000  1
   1302   1300   1309   1318     1  0.0000000  0.0000000  3
   1302   1300   1309   1310     1  0.0000000  0.6508444  3
   1302   1300   1309   1311     1  0.0000000  0.6508444  3
   1303   1291   1290   1319     1  0.0000000  0.6508444  3
   1304   1303   1315   2698     1  0.0000000  1.0460000  1
   1304   1303   1315   2698     1  0.0000000  0.0000000  3
   1304   1303   1315   1316     1  0.0000000  0.6508444  3
   1304   1303   1315   1317     1  0.0000000  0.6508444  3
   1305   1303   1315   2698     1  0.0000000  1.0460000  1
   1305   1303   1315   2698     1  0.0000000  0.0000000  3
   1305   1303   1315   1316     1  0.0000000  0.6508444  3
   1305   1303   1315   1317     1  0.0000000  0.6508444  3
   1306   1294   1290   1319     1  0.0000000  0.6508444  3
   1307   1306   1312   2668     1  0.0000000  1.0460000  1
   1307   1306   1312   2668     1  0.0000000  0.0000000  3
   1307   1306   1312   1313     1  0.0000000  0.6508444  3
   1307   1306   1312   1314     1  0.0000000  0.6508444  3
   1308   1306   1312   2668     1  0.0000000  1.0460000  1
   1308   1306   1312   2668     1  0.0000000  0.0000000  3
   1308   1306   1312   1313     1  0.0000000  0.6508444  3
   1308   1306   1312   1314     1  0.0000000  0.6508444  3
   1312   2668   2659   2660     1  0.0000000  1.6038667  3
   1312   2668   2659   2661     1  0.0000000  1.6038667  3
   1313   1312   2668   2659     1  0.0000000  1.6038667  3
   1314   1312   2668   2659     1  0.0000000  1.6038667  3
   1315   2698   2689   2690     1  0.0000000  1.6038667  3
   1315   2698   2689   2691     1  0.0000000  1.6038667  3
   1316   1315   2698   2689     1  0.0000000  1.6038667  3
   1317   1315   2698   2689     1  0.0000000  1.6038667  3
   1320   1321   1333   1334     1  0.0000000  0.6508444  3
   1320   1321   1333   1335     1  0.0000000  0.6508444  3
   1320   1324   1336   1337     1  0.0000000  0.6508444  3
   1320   1324   1336   1338     1  0.0000000  0.6508444  3
   1320   1327   1330   1331     1  0.0000000  0.6508444  3
   1320   1327   1330   1332     1  0.0000000  0.6508444  3
   1321   1320   1324   1325     1  0.0000000  0.6508444  3
   1321   1320   1324   1326     1  0.0000000  0.6508444  3
   1321   1320   1327   1328     1  0.0000000  0.6508444  3
   1321   1320   1327   1329     1  0.0000000  0.6508444  3
   1321   1333   1345   1346     1  0.0000000  0.6508444  3
   1321   1333   1345   1347     1  0.0000000  0.6508444  3
   1322   1321   1320   1324     1  0.0000000  0.6508444  3
   1322   1321   1320   1327     1  0.0000000  0.6508444  3
   1322   1321   1320   1349     1  0.0000000  0.6508444  3
   1322   1321   1333   1345     1  0.0000000  0.6508444  3
   1322   1321   1333   1334     1  0.0000000  0.6508444  3
   1322   1321   1333   1335     1  0.0000000  0.6508444  3
   1323   1321   1320   1324     1  0.0000000  0.6508444  3
   1323   1321   1320   1327     1  0.0000000  0.6508444  3
   1323   1321   1320   1349     1  0.0000000  0.6508444  3
   1323   1321   1333   1345     1  0.0000000  0.6508444  3
   1323   1321   1333   1334     1  0.0000000  0.6508444  3
   1323   1321   1333   1335     1  0.0000000  0.6508444  3
   1324   1320   1327   1328     1  0.0000000  0.6508444  3
   1324   1320   1327   1329     1  0.0000000  0.6508444  3
   1324   1336   1342   1343     1  0.0000000  0.6508444  3
   1324   1336   1342   1344     1  0.0000000  0.6508444  3
   1325   1324   1320   1327     1  0.0000000  0.6508444  3
   1325   1324   1320   1349     1  0.0000000  0.6508444  3
   1325   1324   1336   1342     1  0.0000000  0.6508444  3
   1325   1324   1336   1337     1  0.0000000  0.6508444  3
   1325   1324   1336   1338     1  0.0000000  0.6508444  3
   1326   1324   1320   1327     1  0.0000000  0.6508444  3
   1326   1324   1320   1349     1  0.0000000  0.6508444  3
   1326   1324   1336   1342     1  0.0000000  0.6508444  3
   1326   1324   1336   1337     1  0.0000000  0.6508444  3
   1326   1324   1336   1338     1  0.0000000  0.6508444  3
   1327   1330   1339   1340     1  0.0000000  0.6508444  3
   1327   1330   1339   1341     1  0.0000000  0.6508444  3
   1328   1327   1320   1349     1  0.0000000  0.6508444  3
   1328   1327   1330   1339     1  0.0000000  0.6508444  3
   1328   1327   1330   1331     1  0.0000000  0.6508444  3
   1328   1327   1330   1332     1  0.0000000  0.6508444  3
   1329   1327   1320   1349     1  0.0000000  0.6508444  3
   1329   1327   1330   1339     1  0.0000000  0.6508444  3
   1329   1327   1330   1331     1  0.0000000  0.6508444  3
   1329   1327   1330   1332     1  0.0000000  0.6508444  3
   1330   1327   1320   1349     1  0.0000000  0.6508444  3
   1331   1330   1339   1348     1  0.0000000  1.0460000  1
   1331   1330   1339   1348     1  0.0000000  0.0000000  3
   1331   1330   1339   1340     1  0.0000000  0.6508444  3
   1331   1330   1339   1341     1  0.0000000  0.6508444  3
   1332   1330   1339   1348     1  0.0000000  1.0460000  1
   1332   1330   1339   1348     1  0.0000000  0.0000000  3
   1332   1330   1339   1340     1  0.0000000  0.6508444  3
   1332   1330   1339   1341     1  0.0000000  0.6508444  3
   1333   1321   1320   1349     1  0.0000000  0.6508444  3
   1334   1333   1345   2758     1  0.0000000  1.0460000  1
   1334   1333   1345   2758     1  0.0000000  0.0000000  3
   1334   1333   1345   1346     1  0.0000000  0.6508444  3
   1334   1333   1345   1347     1  0.0000000  0.6508444  3
   1335   1333   1345   2758     1  0.0000000  1.0460000  1
   1335   1333   1345   2758     1  0.0000000  0.0000000  3
   1335   1333   1345   1346     1  0.0000000  0.6508444  3
   1335   1333   1345   1347     1  0.0000000  0.6508444  3
   1336   1324   1320   1349     1  0.0000000  0.6508444  3
   1337   1336   1342   2728     1  0.0000000  1.0460000  1
   1337   1336   1342   2728     1  0.0000000  0.0000000  3
   1337   1336   1342   1343     1  0.0000000  0.6508444  3
   1337   1336   1342   1344     1  0.0000000  0.6508444  3
   1338   1336   1342   2728     1  0.0000000  1.0460000  1
   1338   1336   1342   2728     1  0.0000000  0.0000000  3
   1338   1336   1342   1343     1  0.0000000  0.6508444  3
   1338   1336   1342   1344     1  0.0000000  0.6508444  3
   1342   2728   2719   2720     1  0.0000000  1.6038667  3
   1342   2728   2719   2721     1  0.0000000  1.6038667  3
   1343   1342   2728   2719     1  0.0000000  1.6038667  3
   1344   1342   2728   2719     1  0.0000000  1.6038667  3
   1345   2758   2749   2750     1  0.0000000  1.6038667  3
   1345   2758   2749   2751     1  0.0000000  1.6038667  3
   1346   1345   2758   2749     1  0.0000000  1.6038667  3
   1347   1345   2758   2749     1  0.0000000  1.6038667  3
   1350   1351   1363   1364     1  0.0000000  0.6508444  3
   1350   1351   1363   1365     1  0.0000000  0.6508444  3
   1350   1354   1366   1367     1  0.0000000  0.6508444  3
   1350   1354   1366   1368     1  0.0000000  0.6508444  3
   1350   1357   1360   1361     1  0.0000000  0.6508444  3
   1350   1357   1360   1362     1  0.0000000  0.6508444  3
   1351   1350   1354   1355     1  0.0000000  0.6508444  3
   1351   1350   1354   1356     1  0.0000000  0.6508444  3
   1351   1350   1357   1358     1  0.0000000  0.6508444  3
   1351   1350   1357   1359     1  0.0000000  0.6508444  3
   1351   1363   1375   1376     1  0.0000000  0.6508444  3
   1351   1363   1375   1377     1  0.0000000  0.6508444  3
   1352   1351   1350   1354     1  0.0000000  0.6508444  3
   1352   1351   1350   1357     1  0.0000000  0.6508444  3
   1352   1351   1350   1379     1  0.0000000  0.6508444  3
   1352   1351   1363   1375     1  0.0000000  0.6508444  3
   1352   1351   1363   1364     1  0.0000000  0.6508444  3
   1352   1351   1363   1365     1  0.0000000  0.6508444  3
   1353   1351   1350   1354     1  0.0000000  0.6508444  3
   1353   1351   1350   1357     1  0.0000000  0.6508444  3
   1353   1351   1350   1379     1  0.0000000  0.6508444  3
   1353   1351   1363   1375     1  0.0000000  0.6508444  3
   1353   1351   1363   1364     1  0.0000000  0.6508444  3
   1353   1351   1363   1365     1  0.0000000  0.6508444  3
   1354   1350   1357   1358     1  0.0000000  0.6508444  3
   1354   1350   1357   1359     1  0.0000000  0.6508444  3
   1354   1366   1372   1373     1  0.0000000  0.6508444  3
   1354   1366   1372   1374     1  0.0000000  0.6508444  3
   1355   1354   1350   1357     1  0.0000000  0.6508444  3
   1355   1354   1350   1379     1  0.0000000  0.6508444  3
   1355   1354   1366   1372     1  0.0000000  0.6508444  3
   1355   1354   1366   1367     1  0.0000000  0.6508444  3
   1355   1354   1366   1368     1  0.0000000  0.6508444  3
   1356   1354   1350   1357     1  0.0000000  0.6508444  3
   1356   1354   1350   1379     1  0.0000000  0.6508444  3
   1356   1354   1366   1372     1  0.0000000  0.6508444  3
   1356   1354   1366   1367     1  0.0000000  0.6508444  3
   1356   1354   1366   1368     1  0.0000000  0.6508444  3
   1357   1360   1369   1370     1  0.0000000  0.6508444  3
   1357   1360   1369   1371     1  0.0000000  0.6508444  3
   1358   1357   1350   1379     1  0.0000000  0.6508444  3
   1358   1357   1360   1369     1  0.0000000  0.6508444  3
   1358   1357   1360   1361     1  0.0000000  0.6508444  3
   1358   1357   1360   1362     1  0.0000000  0.6508444  3
   1359   1357   1350   1379     1  0.0000000  0.6508444  3
   1359   1357   1360   1369     1  0.0000000  0.6508444  3
   1359   1357   1360   1361     1  0.0000000  0.6508444  3
   1359   1357   1360   1362     1  0.0000000  0.6508444  3
   1360   1357   1350   1379     1  0.0000000  0.6508444  3
   1361   1360   1369   1378     1  0.0000000  1.0460000  1
   1361   1360   1369   1378     1  0.0000000  0.0000000  3
   1361   1360   1369   1370     1  0.0000000  0.6508444  3
   1361   1360   1369   1371     1  0.0000000  0.6508444  3
   1362   1360   1369   1378     1  0.0000000  1.0460000  1
   1362   1360   1369   1378     1  0.0000000  0.0000000  3
   1362   1360   1369   1370     1  0.0000000  0.6508444  3
   1362   1360   1369   1371     1  0.0000000  0.6508444  3
   1363   1351   1350   1379     1  0.0000000  0.6508444  3
   1364   1363   1375   2818     1  0.0000000  1.0460000  1
   1364   1363   1375   2818     1  0.0000000  0.0000000  3
   1364   1363   1375   1376     1  0.0000000  0.6508444  3
   1364   1363   1375   1377     1  0.0000000  0.6508444  3
   1365   1363   1375   2818     1  0.0000000  1.0460000  1
   1365   1363   1375   2818     1  0.0000000  0.0000000  3
   1365   1363   1375   1376     1  0.0000000  0.6508444  3
   1365   1363   1375   1377     1  0.0000000  0.6508444  3
   1366   1354   1350   1379     1  0.0000000  0.6508444  3
   1367   1366   1372   2788     1  0.0000000  1.0460000  1
   1367   1366   1372   2788     1  0.0000000  0.0000000  3
   1367   1366   1372   1373     1  0.0000000  0.6508444  3
   1367   1366   1372   1374     1  0.0000000  0.6508444  3
   1368   1366   1372   2788     1  0.0000000  1.0460000  1
   1368   1366   1372   2788     1  0.0000000  0.0000000  3
   1368   1366   1372   1373     1  0.0000000  0.6508444  3
   1368   1366   1372   1374     1  0.0000000  0.6508444  3
   1372   2788   2779   2780     1  0.0000000  1.6038667  3
   1372   2788   2779   2781     1  0.0000000  1.6038667  3
   1373   1372   2788   2779     1  0.0000000  1.6038667  3
   1374   1372   2788   2779     1  0.0000000  1.6038667  3
   1375   2818   2809   2810     1  0.0000000  1.6038667  3
   1375   2818   2809   2811     1  0.0000000  1.6038667  3
   1376   1375   2818   2809     1  0.0000000  1.6038667  3
   1377   1375   2818   2809     1  0.0000000  1.6038667  3
   1380   1381   1393   1394     1  0.0000000  0.6508444  3
   1380   1381   1393   1395     1  0.0000000  0.6508444  3
   1380   1384   1396   1397     1  0.0000000  0.6508444  3
   1380   1384   1396   1398     1  0.0000000  0.6508444  3
   1380   1387   1390   1391     1  0.0000000  0.6508444  3
   1380   1387   1390   1392     1  0.0000000  0.6508444  3
   1381   1380   1384   1385     1  0.0000000  0.6508444  3
   1381   1380   1384   1386     1  0.0000000  0.6508444  3
   1381   1380   1387   1388     1  0.0000000  0.6508444  3
   1381   1380   1387   1389     1  0.0000000  0.6508444  3
   1381   1393   1405   1406     1  0.0000000  0.6508444  3
   1381   1393   1405   1407     1  0.0000000  0.6508444  3
   1382   1381   1380   1384     1  0.0000000  0.6508444  3
   1382   1381   1380   1387     1  0.0000000  0.6508444  3
   1382   1381   1380   1409     1  0.0000000  0.6508444  3
   1382   1381   1393   1405     1  0.0000000  0.6508444  3
   1382   1381   1393   1394     1  0.0000000  0.6508444  3
   1382   1381   1393   1395     1  0.0000000  0.6508444  3
   1383   1381   1380   1384     1  0.0000000  0.6508444  3
   1383   1381   1380   1387     1  0.0000000  0.6508444  3
   1383   1381   1380   1409     1  0.0000000  0.6508444  3
   1383   1381   1393   1405     1  0.0000000  0.6508444  3
   1383   1381   1393   1394     1  0.0000000  0.6508444  3
   1383   1381   1393   1395     1  0.0000000  0.6508444  3
   1384   1380   1387   1388     1  0.0000000  0.6508444  3
   1384   1380   1387   1389     1  0.0000000  0.6508444  3
   1384   1396   1402   1403     1  0.0000000  0.6508444  3
   1384   1396   1402   1404     1  0.0000000  0.6508444  3
   1385   1384   1380   1387     1  0.0000000  0.6508444  3
   1385   1384   1380   1409     1  0.0000000  0.6508444  3
   1385   1384   1396   1402     1  0.0000000  0.6508444  3
   1385   1384   1396   1397     1  0.0000000  0.6508444  3
   1385   1384   1396   1398     1  0.0000000  0.6508444  3
   1386   1384   1380   1387     1  0.0000000  0.6508444  3
   1386   1384   1380   1409     1  0.0000000  0.6508444  3
   1386   1384   1396   1402     1  0.0000000  0.6508444  3
   1386   1384   1396   1397     1  0.0000000  0.6508444  3
   1386   1384   1396   1398     1  0.0000000  0.6508444  3
   1387   1390   1399   1400     1  0.0000000  0.6508444  3
   1387   1390   1399   1401     1  0.0000000  0.6508444  3
   1388   1387   1380   1409     1  0.0000000  0.6508444  3
   1388   1387   1390   1399     1  0.0000000  0.6508444  3
   1388   1387   1390   1391     1  0.0000000  0.6508444  3
   1388   1387   1390   1392     1  0.0000000  0.6508444  3
   1389   1387   1380   1409     1  0.0000000  0.6508444  3
   1389   1387   1390   1399     1  0.0000000  0.6508444  3
   1389   1387   1390   1391     1  0.0000000  0.6508444  3
   1389   1387   1390   1392     1  0.0000000  0.6508444  3
   1390   1387   1380   1409     1  0.0000000  0.6508444  3
   1391   1390   1399   1408     1  0.0000000  1.0460000  1
   1391   1390   1399   1408     1  0.0000000  0.0000000  3
   1391   1390   1399   1400     1  0.0000000  0.6508444  3
   1391   1390   1399   1401     1  0.0000000  0.6508444  3
   1392   1390   1399   1408     1  0.0000000  1.0460000  1
   1392   1390   1399   1408     1  0.0000000  0.0000000  3
   1392   1390   1399   1400     1  0.0000000  0.6508444  3
   1392   1390   1399   1401     1  0.0000000  0.6508444  3
   1393   1381   1380   1409     1  0.0000000  0.6508444  3
   1394   1393   1405   2878     1  0.0000000  1.0460000  1
   1394   1393   1405   2878     1  0.0000000  0.0000000  3
   1394   1393   1405   1406     1  0.0000000  0.6508444  3
   1394   1393   1405   1407     1  0.0000000  0.6508444  3
   1395   1393   1405   2878     1  0.0000000  1.0460000  1
   1395   1393   1405   2878     1  0.0000000  0.0000000  3
   1395   1393   1405   1406     1  0.0000000  0.6508444  3
   1395   1393   1405   1407     1  0.0000000  0.6508444  3
   1396   1384   1380   1409     1  0.0000000  0.6508444  3
   1397   1396   1402   2848     1  0.0000000  1.0460000  1
   1397   1396   1402   2848     1  0.0000000  0.0000000  3
   1397   1396   1402   1403     1  0.0000000  0.6508444  3
   1397   1396   1402   1404     1  0.0000000  0.6508444  3
   1398   1396   1402   2848     1  0.0000000  1.0460000  1
   1398   1396   1402   2848     1  0.0000000  0.0000000  3
   1398   1396   1402   1403     1  0.0000000  0.6508444  3
   1398   1396   1402   1404     1  0.0000000  0.6508444  3
   1402   2848   2839   2840     1  0.0000000  1.6038667  3
   1402   2848   2839   2841     1  0.0000000  1.6038667  3
   1403   1402   2848   2839     1  0.0000000  1.6038667  3
   1404   1402   2848   2839     1  0.0000000  1.6038667  3
   1405   2878   2869   2870     1  0.0000000  1.6038667  3
   1405   2878   2869   2871     1  0.0000000  1.6038667  3
   1406   1405   2878   2869     1  0.0000000  1.6038667  3
   1407   1405   2878   2869     1  0.0000000  1.6038667  3
   1410   1411   1423   1424     1  0.0000000  0.6508444  3
   1410   1411   1423   1425     1  0.0000000  0.6508444  3
   1410   1414   1426   1427     1  0.0000000  0.6508444  3
   1410   1414   1426   1428     1  0.0000000  0.6508444  3
   1410   1417   1420   1421     1  0.0000000  0.6508444  3
   1410   1417   1420   1422     1  0.0000000  0.6508444  3
   1411   1410   1414   1415     1  0.0000000  0.6508444  3
   1411   1410   1414   1416     1  0.0000000  0.6508444  3
   1411   1410   1417   1418     1  0.0000000  0.6508444  3
   1411   1410   1417   1419     1  0.0000000  0.6508444  3
   1411   1423   1435   1436     1  0.0000000  0.6508444  3
   1411   1423   1435   1437     1  0.0000000  0.6508444  3
   1412   1411   1410   1414     1  0.0000000  0.6508444  3
   1412   1411   1410   1417     1  0.0000000  0.6508444  3
   1412   1411   1410   1439     1  0.0000000  0.6508444  3
   1412   1411   1423   1435     1  0.0000000  0.6508444  3
   1412   1411   1423   1424     1  0.0000000  0.6508444  3
   1412   1411   1423   1425     1  0.0000000  0.6508444  3
   1413   1411   1410   1414     1  0.0000000  0.6508444  3
   1413   1411   1410   1417     1  0.0000000  0.6508444  3
   1413   1411   1410   1439     1  0.0000000  0.6508444  3
   1413   1411   1423   1435     1  0.0000000  0.6508444  3
   1413   1411   1423   1424     1  0.0000000  0.6508444  3
   1413   1411   1423   1425     1  0.0000000  0.6508444  3
   1414   1410   1417   1418     1  0.0000000  0.6508444  3
   1414   1410   1417   1419     1  0.0000000  0.6508444  3
   1414   1426   1432   1433     1  0.0000000  0.6508444  3
   1414   1426   1432   1434     1  0.0000000  0.6508444  3
   1415   1414   1410   1417     1  0.0000000  0.6508444  3
   1415   1414   1410   1439     1  0.0000000  0.6508444  3
   1415   1414   1426   1432     1  0.0000000  0.6508444  3
   1415   1414   1426   1427     1  0.0000000  0.6508444  3
   1415   1414   1426   1428     1  0.0000000  0.6508444  3
   1416   1414   1410   1417     1  0.0000000  0.6508444  3
   1416   1414   1410   1439     1  0.0000000  0.6508444  3
   1416   1414   1426   1432     1  0.0000000  0.6508444  3
   1416   1414   1426   1427     1  0.0000000  0.6508444  3
   1416   1414   1426   1428     1  0.0000000  0.6508444  3
   1417   1420   1429   1430     1  0.0000000  0.6508444  3
   1417   1420   1429   1431     1  0.0000000  0.6508444  3
   1418   1417   1410   1439     1  0.0000000  0.6508444  3
   1418   1417   1420   1429     1  0.0000000  0.6508444  3
   1418   1417   1420   1421     1  0.0000000  0.6508444  3
   1418   1417   1420   1422     1  0.0000000  0.6508444  3
   1419   1417   1410   1439     1  0.0000000  0.6508444  3
   1419   1417   1420   1429     1  0.0000000  0.6508444  3
   1419   1417   1420   1421     1  0.0000000  0.6508444  3
   1419   1417   1420   1422     1  0.0000000  0.6508444  3
   1420   1417   1410   1439     1  0.0000000  0.6508444  3
   1421   1420   1429   1438     1  0.0000000  1.0460000  1
   1421   1420   1429   1438     1  0.0000000  0.0000000  3
   1421   1420   1429   1430     1  0.0000000  0.6508444  3
   1421   1420   1429   1431     1  0.0000000  0.6508444  3
   1422   1420   1429   1438     1  0.0000000  1.0460000  1
   1422   1420   1429   1438     1  0.0000000  0.0000000  3
   1422   1420   1429   1430     1  0.0000000  0.6508444  3
   1422   1420   1429   1431     1  0.0000000  0.6508444  3
   1423   1411   1410   1439     1  0.0000000  0.6508444  3
   1424   1423   1435   2938     1  0.0000000  1.0460000  1
   1424   1423   1435   2938     1  0.0000000  0.0000000  3
   1424   1423   1435   1436     1  0.0000000  0.6508444  3
   1424   1423   1435   1437     1  0.0000000  0.6508444  3
   1425   1423   1435   2938     1  0.0000000  1.0460000  1
   1425   1423   1435   2938     1  0.0000000  0.0000000  3
   1425   1423   1435   1436     1  0.0000000  0.6508444  3
   1425   1423   1435   1437     1  0.0000000  0.6508444  3
   1426   1414   1410   1439     1  0.0000000  0.6508444  3
   1427   1426   1432   2908     1  0.0000000  1.0460000  1
   1427   1426   1432   2908     1  0.0000000  0.0000000  3
   1427   1426   1432   1433     1  0.0000000  0.6508444  3
   1427   1426   1432   1434     1  0.0000000  0.6508444  3
   1428   1426   1432   2908     1  0.0000000  1.0460000  1
   1428   1426   1432   2908     1  0.0000000  0.0000000  3
   1428   1426   1432   1433     1  0.0000000  0.6508444  3
   1428   1426   1432   1434     1  0.0000000  0.6508444  3
   1432   2908   2899   2900     1  0.0000000  1.6038667  3
   1432   2908   2899   2901     1  0.0000000  1.6038667  3
   1433   1432   2908   2899     1  0.0000000  1.6038667  3
   1434   1432   2908   2899     1  0.0000000  1.6038667  3
   1435   2938   2929   2930     1  0.0000000  1.6038667  3
   1435   2938   2929   2931     1  0.0000000  1.6038667  3
   1436   1435   2938   2929     1  0.0000000  1.6038667  3
   1437   1435   2938   2929     1  0.0000000  1.6038667  3
   1440   1441   1453   1454     1  0.0000000  0.6508444  3
   1440   1441   1453   1455     1  0.0000000  0.6508444  3
   1440   1444   1456   1457     1  0.0000000  0.6508444  3
   1440   1444   1456   1458     1  0.0000000  0.6508444  3
   1440   1447   1450   1451     1  0.0000000  0.6508444  3
   1440   1447   1450   1452     1  0.0000000  0.6508444  3
   1441   1440   1444   1445     1  0.0000000  0.6508444  3
   1441   1440   1444   1446     1  0.0000000  0.6508444  3
   1441   1440   1447   1448     1  0.0000000  0.6508444  3
   1441   1440   1447   1449     1  0.0000000  0.6508444  3
   1441   1453   1465   1466     1  0.0000000  0.6508444  3
   1441   1453   1465   1467     1  0.0000000  0.6508444  3
   1442   1441   1440   1444     1  0.0000000  0.6508444  3
   1442   1441   1440   1447     1  0.0000000  0.6508444  3
   1442   1441   1440   1469     1  0.0000000  0.6508444  3
   1442   1441   1453   1465     1  0.0000000  0.6508444  3
   1442   1441   1453   1454     1  0.0000000  0.6508444  3
   1442   1441   1453   1455     1  0.0000000  0.6508444  3
   1443   1441   1440   1444     1  0.0000000  0.6508444  3
   1443   1441   1440   1447     1  0.0000000  0.6508444  3
   1443   1441   1440   1469     1  0.0000000  0.6508444  3
   1443   1441   1453   1465     1  0.0000000  0.6508444  3
   1443   1441   1453   1454     1  0.0000000  0.6508444  3
   1443   1441   1453   1455     1  0.0000000  0.6508444  3
   1444   1440   1447   1448     1  0.0000000  0.6508444  3
   1444   1440   1447   1449     1  0.0000000  0.6508444  3
   1444   1456   1462   1463     1  0.0000000  0.6508444  3
   1444   1456   1462   1464     1  0.0000000  0.6508444  3
   1445   1444   1440   1447     1  0.0000000  0.6508444  3
   1445   1444   1440   1469     1  0.0000000  0.6508444  3
   1445   1444   1456   1462     1  0.0000000  0.6508444  3
   1445   1444   1456   1457     1  0.0000000  0.6508444  3
   1445   1444   1456   1458     1  0.0000000  0.6508444  3
   1446   1444   1440   1447     1  0.0000000  0.6508444  3
   1446   1444   1440   1469     1  0.0000000  0.6508444  3
   1446   1444   1456   1462     1  0.0000000  0.6508444  3
   1446   1444   1456   1457     1  0.0000000  0.6508444  3
   1446   1444   1456   1458     1  0.0000000  0.6508444  3
   1447   1450   1459   1460     1  0.0000000  0.6508444  3
   1447   1450   1459   1461     1  0.0000000  0.6508444  3
   1448   1447   1440   1469     1  0.0000000  0.6508444  3
   1448   1447   1450   1459     1  0.0000000  0.6508444  3
   1448   1447   1450   1451     1  0.0000000  0.6508444  3
   1448   1447   1450   1452     1  0.0000000  0.6508444  3
   1449   1447   1440   1469     1  0.0000000  0.6508444  3
   1449   1447   1450   1459     1  0.0000000  0.6508444  3
   1449   1447   1450   1451     1  0.0000000  0.6508444  3
   1449   1447   1450   1452     1  0.0000000  0.6508444  3
   1450   1447   1440   1469     1  0.0000000  0.6508444  3
   1451   1450   1459   1468     1  0.0000000  1.0460000  1
   1451   1450   1459   1468     1  0.0000000  0.0000000  3
   1451   1450   1459   1460     1  0.0000000  0.6508444  3
   1451   1450   1459   1461     1  0.0000000  0.6508444  3
   1452   1450   1459   1468     1  0.0000000  1.0460000  1
   1452   1450   1459   1468     1  0.0000000  0.0000000  3
   1452   1450   1459   1460     1  0.0000000  0.6508444  3
   1452   1450   1459   1461     1  0.0000000  0.6508444  3
   1453   1441   1440   1469     1  0.0000000  0.6508444  3
   1454   1453   1465   2998     1  0.0000000  1.0460000  1
   1454   1453   1465   2998     1  0.0000000  0.0000000  3
   1454   1453   1465   1466     1  0.0000000  0.6508444  3
   1454   1453   1465   1467     1  0.0000000  0.6508444  3
   1455   1453   1465   2998     1  0.0000000  1.0460000  1
   1455   1453   1465   2998     1  0.0000000  0.0000000  3
   1455   1453   1465   1466     1  0.0000000  0.6508444  3
   1455   1453   1465   1467     1  0.0000000  0.6508444  3
   1456   1444   1440   1469     1  0.0000000  0.6508444  3
   1457   1456   1462   2968     1  0.0000000  1.0460000  1
   1457   1456   1462   2968     1  0.0000000  0.0000000  3
   1457   1456   1462   1463     1  0.0000000  0.6508444  3
   1457   1456   1462   1464     1  0.0000000  0.6508444  3
   1458   1456   1462   2968     1  0.0000000  1.0460000  1
   1458   1456   1462   2968     1  0.0000000  0.0000000  3
   1458   1456   1462   1463     1  0.0000000  0.6508444  3
   1458   1456   1462   1464     1  0.0000000  0.6508444  3
   1462   2968   2959   2960     1  0.0000000  1.6038667  3
   1462   2968   2959   2961     1  0.0000000  1.6038667  3
   1463   1462   2968   2959     1  0.0000000  1.6038667  3
   1464   1462   2968   2959     1  0.0000000  1.6038667  3
   1465   2998   2989   2990     1  0.0000000  1.6038667  3
   1465   2998   2989   2991     1  0.0000000  1.6038667  3
   1466   1465   2998   2989     1  0.0000000  1.6038667  3
   1467   1465   2998   2989     1  0.0000000  1.6038667  3
   1470   1471   1483   1484     1  0.0000000  0.6508444  3
   1470   1471   1483   1485     1  0.0000000  0.6508444  3
   1470   1474   1486   1487     1  0.0000000  0.6508444  3
   1470   1474   1486   1488     1  0.0000000  0.6508444  3
   1470   1477   1480   1481     1  0.0000000  0.6508444  3
   1470   1477   1480   1482     1  0.0000000  0.6508444  3
   1471   1470   1474   1475     1  0.0000000  0.6508444  3
   1471   1470   1474   1476     1  0.0000000  0.6508444  3
   1471   1470   1477   1478     1  0.0000000  0.6508444  3
   1471   1470   1477   1479     1  0.0000000  0.6508444  3
   1471   1483   1495   1496     1  0.0000000  0.6508444  3
   1471   1483   1495   1497     1  0.0000000  0.6508444  3
   1472   1471   1470   1474     1  0.0000000  0.6508444  3
   1472   1471   1470   1477     1  0.0000000  0.6508444  3
   1472   1471   1470   1499     1  0.0000000  0.6508444  3
   1472   1471   1483   1495     1  0.0000000  0.6508444  3
   1472   1471   1483   1484     1  0.0000000  0.6508444  3
   1472   1471   1483   1485     1  0.0000000  0.6508444  3
   1473   1471   1470   1474     1  0.0000000  0.6508444  3
   1473   1471   1470   1477     1  0.0000000  0.6508444  3
   1473   1471   1470   1499     1  0.0000000  0.6508444  3
   1473   1471   1483   1495     1  0.0000000  0.6508444  3
   1473   1471   1483   1484     1  0.0000000  0.6508444  3
   1473   1471   1483   1485     1  0.0000000  0.6508444  3
   1474   1470   1477   1478     1  0.0000000  0.6508444  3
   1474   1470   1477   1479     1  0.0000000  0.6508444  3
   1474   1486   1492   1493     1  0.0000000  0.6508444  3
   1474   1486   1492   1494     1  0.0000000  0.6508444  3
   1475   1474   1470   1477     1  0.0000000  0.6508444  3
   1475   1474   1470   1499     1  0.0000000  0.6508444  3
   1475   1474   1486   1492     1  0.0000000  0.6508444  3
   1475   1474   1486   1487     1  0.0000000  0.6508444  3
   1475   1474   1486   1488     1  0.0000000  0.6508444  3
   1476   1474   1470   1477     1  0.0000000  0.6508444  3
   1476   1474   1470   1499     1  0.0000000  0.6508444  3
   1476   1474   1486   1492     1  0.0000000  0.6508444  3
   1476   1474   1486   1487     1  0.0000000  0.6508444  3
   1476   1474   1486   1488     1  0.0000000  0.6508444  3
   1477   1480   1489   1490     1  0.0000000  0.6508444  3
   1477   1480   1489   1491     1  0.0000000  0.6508444  3
   1478   1477   1470   1499     1  0.0000000  0.6508444  3
   1478   1477   1480   1489     1  0.0000000  0.6508444  3
   1478   1477   1480   1481     1  0.0000000  0.6508444  3
   1478   1477   1480   1482     1  0.0000000  0.6508444  3
   1479   1477   1470   1499     1  0.0000000  0.6508444  3
   1479   1477   1480   1489     1  0.0000000  0.6508444  3
   1479   1477   1480   1481     1  0.0000000  0.6508444  3
   1479   1477   1480   1482     1  0.0000000  0.6508444  3
   1480   1477   1470   1499     1  0.0000000  0.6508444  3
   1481   1480   1489   1498     1  0.0000000  1.0460000  1
   1481   1480   1489   1498     1  0.0000000  0.0000000  3
   1481   1480   1489   1490     1  0.0000000  0.6508444  3
   1481   1480   1489   1491     1  0.0000000  0.6508444  3
   1482   1480   1489   1498     1  0.0000000  1.0460000  1
   1482   1480   1489   1498     1  0.0000000  0.0000000  3
   1482   1480   1489   1490     1  0.0000000  0.6508444  3
   1482   1480   1489   1491     1  0.0000000  0.6508444  3
   1483   1471   1470   1499     1  0.0000000  0.6508444  3
   1484   1483   1495   3058     1  0.0000000  1.0460000  1
   1484   1483   1495   3058     1  0.0000000  0.0000000  3
   1484   1483   1495   1496     1  0.0000000  0.6508444  3
   1484   1483   1495   1497     1  0.0000000  0.6508444  3
   1485   1483   1495   3058     1  0.0000000  1.0460000  1
   1485   1483   1495   3058     1  0.0000000  0.0000000  3
   1485   1483   1495   1496     1  0.0000000  0.6508444  3
   1485   1483   1495   1497     1  0.0000000  0.6508444  3
   1486   1474   1470   1499     1  0.0000000  0.6508444  3
   1487   1486   1492   3028     1  0.0000000  1.0460000  1
   1487   1486   1492   3028     1  0.0000000  0.0000000  3
   1487   1486   1492   1493     1  0.0000000  0.6508444  3
   1487   1486   1492   1494     1  0.0000000  0.6508444  3
   1488   1486   1492   3028     1  0.0000000  1.0460000  1
   1488   1486   1492   3028     1  0.0000000  0.0000000  3
   1488   1486   1492   1493     1  0.0000000  0.6508444  3
   1488   1486   1492   1494     1  0.0000000  0.6508444  3
   1492   3028   3019   3020     1  0.0000000  1.6038667  3
   1492   3028   3019   3021     1  0.0000000  1.6038667  3
   1493   1492   3028   3019     1  0.0000000  1.6038667  3
   1494   1492   3028   3019     1  0.0000000  1.6038667  3
   1495   3058   3049   3050     1  0.0000000  1.6038667  3
   1495   3058   3049   3051     1  0.0000000  1.6038667  3
   1496   1495   3058   3049     1  0.0000000  1.6038667  3
   1497   1495   3058   3049     1  0.0000000  1.6038667  3
   1500   1501   1513   1514     1  0.0000000  0.6508444  3
   1500   1501   1513   1515     1  0.0000000  0.6508444  3
   1500   1504   1516   1517     1  0.0000000  0.6508444  3
   1500   1504   1516   1518     1  0.0000000  0.6508444  3
   1500   1507   1510   1511     1  0.0000000  0.6508444  3
   1500   1507   1510   1512     1  0.0000000  0.6508444  3
   1501   1500   1504   1505     1  0.0000000  0.6508444  3
   1501   1500   1504   1506     1  0.0000000  0.6508444  3
   1501   1500   1507   1508     1  0.0000000  0.6508444  3
   1501   1500   1507   1509     1  0.0000000  0.6508444  3
   1501   1513   1525   1526     1  0.0000000  0.6508444  3
   1501   1513   1525   1527     1  0.0000000  0.6508444  3
   1502   1501   1500   1504     1  0.0000000  0.6508444  3
   1502   1501   1500   1507     1  0.0000000  0.6508444  3
   1502   1501   1500   1529     1  0.0000000  0.6508444  3
   1502   1501   1513   1525     1  0.0000000  0.6508444  3
   1502   1501   1513   1514     1  0.0000000  0.6508444  3
   1502   1501   1513   1515     1  0.0000000  0.6508444  3
   1503   1501   1500   1504     1  0.0000000  0.6508444  3
   1503   1501   1500   1507     1  0.0000000  0.6508444  3
   1503   1501   1500   1529     1  0.0000000  0.6508444  3
   1503   1501   1513   1525     1  0.0000000  0.6508444  3
   1503   1501   1513   1514     1  0.0000000  0.6508444  3
   1503   1501   1513   1515     1  0.0000000  0.6508444  3
   1504   1500   1507   1508     1  0.0000000  0.6508444  3
   1504   1500   1507   1509     1  0.0000000  0.6508444  3
   1504   1516   1522   1523     1  0.0000000  0.6508444  3
   1504   1516   1522   1524     1  0.0000000  0.6508444  3
   1505   1504   1500   1507     1  0.0000000  0.6508444  3
   1505   1504   1500   1529     1  0.0000000  0.6508444  3
   1505   1504   1516   1522     1  0.0000000  0.6508444  3
   1505   1504   1516   1517     1  0.0000000  0.6508444  3
   1505   1504   1516   1518     1  0.0000000  0.6508444  3
   1506   1504   1500   1507     1  0.0000000  0.6508444  3
   1506   1504   1500   1529     1  0.0000000  0.6508444  3
   1506   1504   1516   1522     1  0.0000000  0.6508444  3
   1506   1504   1516   1517     1  0.0000000  0.6508444  3
   1506   1504   1516   1518     1  0.0000000  0.6508444  3
   1507   1510   1519   1520     1  0.0000000  0.6508444  3
   1507   1510   1519   1521     1  0.0000000  0.6508444  3
   1508   1507   1500   1529     1  0.0000000  0.6508444  3
   1508   1507   1510   1519     1  0.0000000  0.6508444  3
   1508   1507   1510   1511     1  0.0000000  0.6508444  3
   1508   1507   1510   1512     1  0.0000000  0.6508444  3
   1509   1507   1500   1529     1  0.0000000  0.6508444  3
   1509   1507   1510   1519     1  0.0000000  0.6508444  3
   1509   1507   1510   1511     1  0.0000000  0.6508444  3
   1509   1507   1510   1512     1  0.0000000  0.6508444  3
   1510   1507   1500   1529     1  0.0000000  0.6508444  3
   1511   1510   1519   1528     1  0.0000000  1.0460000  1
   1511   1510   1519   1528     1  0.0000000  0.0000000  3
   1511   1510   1519   1520     1  0.0000000  0.6508444  3
   1511   1510   1519   1521     1  0.0000000  0.6508444  3
   1512   1510   1519   1528     1  0.0000000  1.0460000  1
   1512   1510   1519   1528     1  0.0000000  0.0000000  3
   1512   1510   1519   1520     1  0.0000000  0.6508444  3
   1512   1510   1519   1521     1  0.0000000  0.6508444  3
   1513   1501   1500   1529     1  0.0000000  0.6508444  3
   1514   1513   1525   3118     1  0.0000000  1.0460000  1
   1514   1513   1525   3118     1  0.0000000  0.0000000  3
   1514   1513   1525   1526     1  0.0000000  0.6508444  3
   1514   1513   1525   1527     1  0.0000000  0.6508444  3
   1515   1513   1525   3118     1  0.0000000  1.0460000  1
   1515   1513   1525   3118     1  0.0000000  0.0000000  3
   1515   1513   1525   1526     1  0.0000000  0.6508444  3
   1515   1513   1525   1527     1  0.0000000  0.6508444  3
   1516   1504   1500   1529     1  0.0000000  0.6508444  3
   1517   1516   1522   3088     1  0.0000000  1.0460000  1
   1517   1516   1522   3088     1  0.0000000  0.0000000  3
   1517   1516   1522   1523     1  0.0000000  0.6508444  3
   1517   1516   1522   1524     1  0.0000000  0.6508444  3
   1518   1516   1522   3088     1  0.0000000  1.0460000  1
   1518   1516   1522   3088     1  0.0000000  0.0000000  3
   1518   1516   1522   1523     1  0.0000000  0.6508444  3
   1518   1516   1522   1524     1  0.0000000  0.6508444  3
   1522   3088   3079   3080     1  0.0000000  1.6038667  3
   1522   3088   3079   3081     1  0.0000000  1.6038667  3
   1523   1522   3088   3079     1  0.0000000  1.6038667  3
   1524   1522   3088   3079     1  0.0000000  1.6038667  3
   1525   3118   3109   3110     1  0.0000000  1.6038667  3
   1525   3118   3109   3111     1  0.0000000  1.6038667  3
   1526   1525   3118   3109     1  0.0000000  1.6038667  3
   1527   1525   3118   3109     1  0.0000000  1.6038667  3
   1530   1531   1543   1544     1  0.0000000  0.6508444  3
   1530   1531   1543   1545     1  0.0000000  0.6508444  3
   1530   1534   1546   1547     1  0.0000000  0.6508444  3
   1530   1534   1546   1548     1  0.0000000  0.6508444  3
   1530   1537   1540   1541     1  0.0000000  0.6508444  3
   1530   1537   1540   1542     1  0.0000000  0.6508444  3
   1531   1530   1534   1535     1  0.0000000  0.6508444  3
   1531   1530   1534   1536     1  0.0000000  0.6508444  3
   1531   1530   1537   1538     1  0.0000000  0.6508444  3
   1531   1530   1537   1539     1  0.0000000  0.6508444  3
   1531   1543   1555   1556     1  0.0000000  0.6508444  3
   1531   1543   1555   1557     1  0.0000000  0.6508444  3
   1532   1531   1530   1534     1  0.0000000  0.6508444  3
   1532   1531   1530   1537     1  0.0000000  0.6508444  3
   1532   1531   1530   1559     1  0.0000000  0.6508444  3
   1532   1531   1543   1555     1  0.0000000  0.6508444  3
   1532   1531   1543   1544     1  0.0000000  0.6508444  3
   1532   1531   1543   1545     1  0.0000000  0.6508444  3
   1533   1531   1530   1534     1  0.0000000  0.6508444  3
   1533   1531   1530   1537     1  0.0000000  0.6508444  3
   1533   1531   1530   1559     1  0.0000000  0.6508444  3
   1533   1531   1543   1555     1  0.0000000  0.6508444  3
   1533   1531   1543   1544     1  0.0000000  0.6508444  3
   1533   1531   1543   1545     1  0.0000000  0.6508444  3
   1534   1530   1537   1538     1  0.0000000  0.6508444  3
   1534   1530   1537   1539     1  0.0000000  0.6508444  3
   1534   1546   1552   1553     1  0.0000000  0.6508444  3
   1534   1546   1552   1554     1  0.0000000  0.6508444  3
   1535   1534   1530   1537     1  0.0000000  0.6508444  3
   1535   1534   1530   1559     1  0.0000000  0.6508444  3
   1535   1534   1546   1552     1  0.0000000  0.6508444  3
   1535   1534   1546   1547     1  0.0000000  0.6508444  3
   1535   1534   1546   1548     1  0.0000000  0.6508444  3
   1536   1534   1530   1537     1  0.0000000  0.6508444  3
   1536   1534   1530   1559     1  0.0000000  0.6508444  3
   1536   1534   1546   1552     1  0.0000000  0.6508444  3
   1536   1534   1546   1547     1  0.0000000  0.6508444  3
   1536   1534   1546   1548     1  0.0000000  0.6508444  3
   1537   1540   1549   1550     1  0.0000000  0.6508444  3
   1537   1540   1549   1551     1  0.0000000  0.6508444  3
   1538   1537   1530   1559     1  0.0000000  0.6508444  3
   1538   1537   1540   1549     1  0.0000000  0.6508444  3
   1538   1537   1540   1541     1  0.0000000  0.6508444  3
   1538   1537   1540   1542     1  0.0000000  0.6508444  3
   1539   1537   1530   1559     1  0.0000000  0.6508444  3
   1539   1537   1540   1549     1  0.0000000  0.6508444  3
   1539   1537   1540   1541     1  0.0000000  0.6508444  3
   1539   1537   1540   1542     1  0.0000000  0.6508444  3
   1540   1537   1530   1559     1  0.0000000  0.6508444  3
   1541   1540   1549   1558     1  0.0000000  1.0460000  1
   1541   1540   1549   1558     1  0.0000000  0.0000000  3
   1541   1540   1549   1550     1  0.0000000  0.6508444  3
   1541   1540   1549   1551     1  0.0000000  0.6508444  3
   1542   1540   1549   1558     1  0.0000000  1.0460000  1
   1542   1540   1549   1558     1  0.0000000  0.0000000  3
   1542   1540   1549   1550     1  0.0000000  0.6508444  3
   1542   1540   1549   1551     1  0.0000000  0.6508444  3
   1543   1531   1530   1559     1  0.0000000  0.6508444  3
   1544   1543   1555   3178     1  0.0000000  1.0460000  1
   1544   1543   1555   3178     1  0.0000000  0.0000000  3
   1544   1543   1555   1556     1  0.0000000  0.6508444  3
   1544   1543   1555   1557     1  0.0000000  0.6508444  3
   1545   1543   1555   3178     1  0.0000000  1.0460000  1
   1545   1543   1555   3178     1  0.0000000  0.0000000  3
   1545   1543   1555   1556     1  0.0000000  0.6508444  3
   1545   1543   1555   1557     1  0.0000000  0.6508444  3
   1546   1534   1530   1559     1  0.0000000  0.6508444  3
   1547   1546   1552   3148     1  0.0000000  1.0460000  1
   1547   1546   1552   3148     1  0.0000000  0.0000000  3
   1547   1546   1552   1553     1  0.0000000  0.6508444  3
   1547   1546   1552   1554     1  0.0000000  0.6508444  3
   1548   1546   1552   3148     1  0.0000000  1.0460000  1
   1548   1546   1552   3148     1  0.0000000  0.0000000  3
   1548   1546   1552   1553     1  0.0000000  0.6508444  3
   1548   1546   1552   1554     1  0.0000000  0.6508444  3
   1552   3148   3139   3140     1  0.0000000  1.6038667  3
   1552   3148   3139   3141     1  0.0000000  1.6038667  3
   1553   1552   3148   3139     1  0.0000000  1.6038667  3
   1554   1552   3148   3139     1  0.0000000  1.6038667  3
   1555   3178   3169   3170     1  0.0000000  1.6038667  3
   1555   3178   3169   3171     1  0.0000000  1.6038667  3
   1556   1555   3178   3169     1  0.0000000  1.6038667  3
   1557   1555   3178   3169     1  0.0000000  1.6038667  3
   1560   1561   1573   1574     1  0.0000000  0.6508444  3
   1560   1561   1573   1575     1  0.0000000  0.6508444  3
   1560   1564   1576   1577     1  0.0000000  0.6508444  3
   1560   1564   1576   1578     1  0.0000000  0.6508444  3
   1560   1567   1570   1571     1  0.0000000  0.6508444  3
   1560   1567   1570   1572     1  0.0000000  0.6508444  3
   1561   1560   1564   1565     1  0.0000000  0.6508444  3
   1561   1560   1564   1566     1  0.0000000  0.6508444  3
   1561   1560   1567   1568     1  0.0000000  0.6508444  3
   1561   1560   1567   1569     1  0.0000000  0.6508444  3
   1561   1573   1585   1586     1  0.0000000  0.6508444  3
   1561   1573   1585   1587     1  0.0000000  0.6508444  3
   1562   1561   1560   1564     1  0.0000000  0.6508444  3
   1562   1561   1560   1567     1  0.0000000  0.6508444  3
   1562   1561   1560   1589     1  0.0000000  0.6508444  3
   1562   1561   1573   1585     1  0.0000000  0.6508444  3
   1562   1561   1573   1574     1  0.0000000  0.6508444  3
   1562   1561   1573   1575     1  0.0000000  0.6508444  3
   1563   1561   1560   1564     1  0.0000000  0.6508444  3
   1563   1561   1560   1567     1  0.0000000  0.6508444  3
   1563   1561   1560   1589     1  0.0000000  0.6508444  3
   1563   1561   1573   1585     1  0.0000000  0.6508444  3
   1563   1561   1573   1574     1  0.0000000  0.6508444  3
   1563   1561   1573   1575     1  0.0000000  0.6508444  3
   1564   1560   1567   1568     1  0.0000000  0.6508444  3
   1564   1560   1567   1569     1  0.0000000  0.6508444  3
   1564   1576   1582   1583     1  0.0000000  0.6508444  3
   1564   1576   1582   1584     1  0.0000000  0.6508444  3
   1565   1564   1560   1567     1  0.0000000  0.6508444  3
   1565   1564   1560   1589     1  0.0000000  0.6508444  3
   1565   1564   1576   1582     1  0.0000000  0.6508444  3
   1565   1564   1576   1577     1  0.0000000  0.6508444  3
   1565   1564   1576   1578     1  0.0000000  0.6508444  3
   1566   1564   1560   1567     1  0.0000000  0.6508444  3
   1566   1564   1560   1589     1  0.0000000  0.6508444  3
   1566   1564   1576   1582     1  0.0000000  0.6508444  3
   1566   1564   1576   1577     1  0.0000000  0.6508444  3
   1566   1564   1576   1578     1  0.0000000  0.6508444  3
   1567   1570   1579   1580     1  0.0000000  0.6508444  3
   1567   1570   1579   1581     1  0.0000000  0.6508444  3
   1568   1567   1560   1589     1  0.0000000  0.6508444  3
   1568   1567   1570   1579     1  0.0000000  0.6508444  3
   1568   1567   1570   1571     1  0.0000000  0.6508444  3
   1568   1567   1570   1572     1  0.0000000  0.6508444  3
   1569   1567   1560   1589     1  0.0000000  0.6508444  3
   1569   1567   1570   1579     1  0.0000000  0.6508444  3
   1569   1567   1570   1571     1  0.0000000  0.6508444  3
   1569   1567   1570   1572     1  0.0000000  0.6508444  3
   1570   1567   1560   1589     1  0.0000000  0.6508444  3
   1571   1570   1579   1588     1  0.0000000  1.0460000  1
   1571   1570   1579   1588     1  0.0000000  0.0000000  3
   1571   1570   1579   1580     1  0.0000000  0.6508444  3
   1571   1570   1579   1581     1  0.0000000  0.6508444  3
   1572   1570   1579   1588     1  0.0000000  1.0460000  1
   1572   1570   1579   1588     1  0.0000000  0.0000000  3
   1572   1570   1579   1580     1  0.0000000  0.6508444  3
   1572   1570   1579   1581     1  0.0000000  0.6508444  3
   1573   1561   1560   1589     1  0.0000000  0.6508444  3
   1574   1573   1585   3238     1  0.0000000  1.0460000  1
   1574   1573   1585   3238     1  0.0000000  0.0000000  3
   1574   1573   1585   1586     1  0.0000000  0.6508444  3
   1574   1573   1585   1587     1  0.0000000  0.6508444  3
   1575   1573   1585   3238     1  0.0000000  1.0460000  1
   1575   1573   1585   3238     1  0.0000000  0.0000000  3
   1575   1573   1585   1586     1  0.0000000  0.6508444  3
   1575   1573   1585   1587     1  0.0000000  0.6508444  3
   1576   1564   1560   1589     1  0.0000000  0.6508444  3
   1577   1576   1582   3208     1  0.0000000  1.0460000  1
   1577   1576   1582   3208     1  0.0000000  0.0000000  3
   1577   1576   1582   1583     1  0.0000000  0.6508444  3
   1577   1576   1582   1584     1  0.0000000  0.6508444  3
   1578   1576   1582   3208     1  0.0000000  1.0460000  1
   1578   1576   1582   3208     1  0.0000000  0.0000000  3
   1578   1576   1582   1583     1  0.0000000  0.6508444  3
   1578   1576   1582   1584     1  0.0000000  0.6508444  3
   1582   3208   3199   3200     1  0.0000000  1.6038667  3
   1582   3208   3199   3201     1  0.0000000  1.6038667  3
   1583   1582   3208   3199     1  0.0000000  1.6038667  3
   1584   1582   3208   3199     1  0.0000000  1.6038667  3
   1585   3238   3229   3230     1  0.0000000  1.6038667  3
   1585   3238   3229   3231     1  0.0000000  1.6038667  3
   1586   1585   3238   3229     1  0.0000000  1.6038667  3
   1587   1585   3238   3229     1  0.0000000  1.6038667  3
   1590   1591   1603   1604     1  0.0000000  0.6508444  3
   1590   1591   1603   1605     1  0.0000000  0.6508444  3
   1590   1594   1606   1607     1  0.0000000  0.6508444  3
   1590   1594   1606   1608     1  0.0000000  0.6508444  3
   1590   1597   1600   1601     1  0.0000000  0.6508444  3
   1590   1597   1600   1602     1  0.0000000  0.6508444  3
   1591   1590   1594   1595     1  0.0000000  0.6508444  3
   1591   1590   1594   1596     1  0.0000000  0.6508444  3
   1591   1590   1597   1598     1  0.0000000  0.6508444  3
   1591   1590   1597   1599     1  0.0000000  0.6508444  3
   1591   1603   1615   1616     1  0.0000000  0.6508444  3
   1591   1603   1615   1617     1  0.0000000  0.6508444  3
   1592   1591   1590   1594     1  0.0000000  0.6508444  3
   1592   1591   1590   1597     1  0.0000000  0.6508444  3
   1592   1591   1590   1619     1  0.0000000  0.6508444  3
   1592   1591   1603   1615     1  0.0000000  0.6508444  3
   1592   1591   1603   1604     1  0.0000000  0.6508444  3
   1592   1591   1603   1605     1  0.0000000  0.6508444  3
   1593   1591   1590   1594     1  0.0000000  0.6508444  3
   1593   1591   1590   1597     1  0.0000000  0.6508444  3
   1593   1591   1590   1619     1  0.0000000  0.6508444  3
   1593   1591   1603   1615     1  0.0000000  0.6508444  3
   1593   1591   1603   1604     1  0.0000000  0.6508444  3
   1593   1591   1603   1605     1  0.0000000  0.6508444  3
   1594   1590   1597   1598     1  0.0000000  0.6508444  3
   1594   1590   1597   1599     1  0.0000000  0.6508444  3
   1594   1606   1612   1613     1  0.0000000  0.6508444  3
   1594   1606   1612   1614     1  0.0000000  0.6508444  3
   1595   1594   1590   1597     1  0.0000000  0.6508444  3
   1595   1594   1590   1619     1  0.0000000  0.6508444  3
   1595   1594   1606   1612     1  0.0000000  0.6508444  3
   1595   1594   1606   1607     1  0.0000000  0.6508444  3
   1595   1594   1606   1608     1  0.0000000  0.6508444  3
   1596   1594   1590   1597     1  0.0000000  0.6508444  3
   1596   1594   1590   1619     1  0.0000000  0.6508444  3
   1596   1594   1606   1612     1  0.0000000  0.6508444  3
   1596   1594   1606   1607     1  0.0000000  0.6508444  3
   1596   1594   1606   1608     1  0.0000000  0.6508444  3
   1597   1600   1609   1610     1  0.0000000  0.6508444  3
   1597   1600   1609   1611     1  0.0000000  0.6508444  3
   1598   1597   1590   1619     1  0.0000000  0.6508444  3
   1598   1597   1600   1609     1  0.0000000  0.6508444  3
   1598   1597   1600   1601     1  0.0000000  0.6508444  3
   1598   1597   1600   1602     1  0.0000000  0.6508444  3
   1599   1597   1590   1619     1  0.0000000  0.6508444  3
   1599   1597   1600   1609     1  0.0000000  0.6508444  3
   1599   1597   1600   1601     1  0.0000000  0.6508444  3
   1599   1597   1600   1602     1  0.0000000  0.6508444  3
   1600   1597   1590   1619     1  0.0000000  0.6508444  3
   1601   1600   1609   1618     1  0.0000000  1.0460000  1
   1601   1600   1609   1618     1  0.0000000  0.0000000  3
   1601   1600   1609   1610     1  0.0000000  0.6508444  3
   1601   1600   1609   1611     1  0.0000000  0.6508444  3
   1602   1600   1609   1618     1  0.0000000  1.0460000  1
   1602   1600   1609   1618     1  0.0000000  0.0000000  3
   1602   1600   1609   1610     1  0.0000000  0.6508444  3
   1602   1600   1609   1611     1  0.0000000  0.6508444  3
   1603   1591   1590   1619     1  0.0000000  0.6508444  3
   1604   1603   1615   3298     1  0.0000000  1.0460000  1
   1604   1603   1615   3298     1  0.0000000  0.0000000  3
   1604   1603   1615   1616     1  0.0000000  0.6508444  3
   1604   1603   1615   1617     1  0.0000000  0.6508444  3
   1605   1603   1615   3298     1  0.0000000  1.0460000  1
   1605   1603   1615   3298     1  0.0000000  0.0000000  3
   1605   1603   1615   1616     1  0.0000000  0.6508444  3
   1605   1603   1615   1617     1  0.0000000  0.6508444  3
   1606   1594   1590   1619     1  0.0000000  0.6508444  3
   1607   1606   1612   3268     1  0.0000000  1.0460000  1
   1607   1606   1612   3268     1  0.0000000  0.0000000  3
   1607   1606   1612   1613     1  0.0000000  0.6508444  3
   1607   1606   1612   1614     1  0.0000000  0.6508444  3
   1608   1606   1612   3268     1  0.0000000  1.0460000  1
   1608   1606   1612   3268     1  0.0000000  0.0000000  3
   1608   1606   1612   1613     1  0.0000000  0.6508444  3
   1608   1606   1612   1614     1  0.0000000  0.6508444  3
   1612   3268   3259   3260     1  0.0000000  1.6038667  3
   1612   3268   3259   3261     1  0.0000000  1.6038667  3
   1613   1612   3268   3259     1  0.0000000  1.6038667  3
   1614   1612   3268   3259     1  0.0000000  1.6038667  3
   1615   3298   3289   3290     1  0.0000000  1.6038667  3
   1615   3298   3289   3291     1  0.0000000  1.6038667  3
   1616   1615   3298   3289     1  0.0000000  1.6038667  3
   1617   1615   3298   3289     1  0.0000000  1.6038667  3
   1620   1621   1633   1634     1  0.0000000  0.6508444  3
   1620   1621   1633   1635     1  0.0000000  0.6508444  3
   1620   1624   1636   1637     1  0.0000000  0.6508444  3
   1620   1624   1636   1638     1  0.0000000  0.6508444  3
   1620   1627   1630   1631     1  0.0000000  0.6508444  3
   1620   1627   1630   1632     1  0.0000000  0.6508444  3
   1621   1620   1624   1625     1  0.0000000  0.6508444  3
   1621   1620   1624   1626     1  0.0000000  0.6508444  3
   1621   1620   1627   1628     1  0.0000000  0.6508444  3
   1621   1620   1627   1629     1  0.0000000  0.6508444  3
   1621   1633   1645   1646     1  0.0000000  0.6508444  3
   1621   1633   1645   1647     1  0.0000000  0.6508444  3
   1622   1621   1620   1624     1  0.0000000  0.6508444  3
   1622   1621   1620   1627     1  0.0000000  0.6508444  3
   1622   1621   1620   1649     1  0.0000000  0.6508444  3
   1622   1621   1633   1645     1  0.0000000  0.6508444  3
   1622   1621   1633   1634     1  0.0000000  0.6508444  3
   1622   1621   1633   1635     1  0.0000000  0.6508444  3
   1623   1621   1620   1624     1  0.0000000  0.6508444  3
   1623   1621   1620   1627     1  0.0000000  0.6508444  3
   1623   1621   1620   1649     1  0.0000000  0.6508444  3
   1623   1621   1633   1645     1  0.0000000  0.6508444  3
   1623   1621   1633   1634     1  0.0000000  0.6508444  3
   1623   1621   1633   1635     1  0.0000000  0.6508444  3
   1624   1620   1627   1628     1  0.0000000  0.6508444  3
   1624   1620   1627   1629     1  0.0000000  0.6508444  3
   1624   1636   1642   1643     1  0.0000000  0.6508444  3
   1624   1636   1642   1644     1  0.0000000  0.6508444  3
   1625   1624   1620   1627     1  0.0000000  0.6508444  3
   1625   1624   1620   1649     1  0.0000000  0.6508444  3
   1625   1624   1636   1642     1  0.0000000  0.6508444  3
   1625   1624   1636   1637     1  0.0000000  0.6508444  3
   1625   1624   1636   1638     1  0.0000000  0.6508444  3
   1626   1624   1620   1627     1  0.0000000  0.6508444  3
   1626   1624   1620   1649     1  0.0000000  0.6508444  3
   1626   1624   1636   1642     1  0.0000000  0.6508444  3
   1626   1624   1636   1637     1  0.0000000  0.6508444  3
   1626   1624   1636   1638     1  0.0000000  0.6508444  3
   1627   1630   1639   1640     1  0.0000000  0.6508444  3
   1627   1630   1639   1641     1  0.0000000  0.6508444  3
   1628   1627   1620   1649     1  0.0000000  0.6508444  3
   1628   1627   1630   1639     1  0.0000000  0.6508444  3
   1628   1627   1630   1631     1  0.0000000  0.6508444  3
   1628   1627   1630   1632     1  0.0000000  0.6508444  3
   1629   1627   1620   1649     1  0.0000000  0.6508444  3
   1629   1627   1630   1639     1  0.0000000  0.6508444  3
   1629   1627   1630   1631     1  0.0000000  0.6508444  3
   1629   1627   1630   1632     1  0.0000000  0.6508444  3
   1630   1627   1620   1649     1  0.0000000  0.6508444  3
   1631   1630   1639   1648     1  0.0000000  1.0460000  1
   1631   1630   1639   1648     1  0.0000000  0.0000000  3
   1631   1630   1639   1640     1  0.0000000  0.6508444  3
   1631   1630   1639   1641     1  0.0000000  0.6508444  3
   1632   1630   1639   1648     1  0.0000000  1.0460000  1
   1632   1630   1639   1648     1  0.0000000  0.0000000  3
   1632   1630   1639   1640     1  0.0000000  0.6508444  3
   1632   1630   1639   1641     1  0.0000000  0.6508444  3
   1633   1621   1620   1649     1  0.0000000  0.6508444  3
   1634   1633   1645   3358     1  0.0000000  1.0460000  1
   1634   1633   1645   3358     1  0.0000000  0.0000000  3
   1634   1633   1645   1646     1  0.0000000  0.6508444  3
   1634   1633   1645   1647     1  0.0000000  0.6508444  3
   1635   1633   1645   3358     1  0.0000000  1.0460000  1
   1635   1633   1645   3358     1  0.0000000  0.0000000  3
   1635   1633   1645   1646     1  0.0000000  0.6508444  3
   1635   1633   1645   1647     1  0.0000000  0.6508444  3
   1636   1624   1620   1649     1  0.0000000  0.6508444  3
   1637   1636   1642   3328     1  0.0000000  1.0460000  1
   1637   1636   1642   3328     1  0.0000000  0.0000000  3
   1637   1636   1642   1643     1  0.0000000  0.6508444  3
   1637   1636   1642   1644     1  0.0000000  0.6508444  3
   1638   1636   1642   3328     1  0.0000000  1.0460000  1
   1638   1636   1642   3328     1  0.0000000  0.0000000  3
   1638   1636   1642   1643     1  0.0000000  0.6508444  3
   1638   1636   1642   1644     1  0.0000000  0.6508444  3
   1642   3328   3319   3320     1  0.0000000  1.6038667  3
   1642   3328   3319   3321     1  0.0000000  1.6038667  3
   1643   1642   3328   3319     1  0.0000000  1.6038667  3
   1644   1642   3328   3319     1  0.0000000  1.6038667  3
   1645   3358   3349   3350     1  0.0000000  1.6038667  3
   1645   3358   3349   3351     1  0.0000000  1.6038667  3
   1646   1645   3358   3349     1  0.0000000  1.6038667  3
   1647   1645   3358   3349     1  0.0000000  1.6038667  3
   1650   1651   1663   1664     1  0.0000000  0.6508444  3
   1650   1651   1663   1665     1  0.0000000  0.6508444  3
   1650   1654   1666   1667     1  0.0000000  0.6508444  3
   1650   1654   1666   1668     1  0.0000000  0.6508444  3
   1650   1657   1660   1661     1  0.0000000  0.6508444  3
   1650   1657   1660   1662     1  0.0000000  0.6508444  3
   1651   1650   1654   1655     1  0.0000000  0.6508444  3
   1651   1650   1654   1656     1  0.0000000  0.6508444  3
   1651   1650   1657   1658     1  0.0000000  0.6508444  3
   1651   1650   1657   1659     1  0.0000000  0.6508444  3
   1651   1663   1675   1676     1  0.0000000  0.6508444  3
   1651   1663   1675   1677     1  0.0000000  0.6508444  3
   1652   1651   1650   1654     1  0.0000000  0.6508444  3
   1652   1651   1650   1657     1  0.0000000  0.6508444  3
   1652   1651   1650   1679     1  0.0000000  0.6508444  3
   1652   1651   1663   1675     1  0.0000000  0.6508444  3
   1652   1651   1663   1664     1  0.0000000  0.6508444  3
   1652   1651   1663   1665     1  0.0000000  0.6508444  3
   1653   1651   1650   1654     1  0.0000000  0.6508444  3
   1653   1651   1650   1657     1  0.0000000  0.6508444  3
   1653   1651   1650   1679     1  0.0000000  0.6508444  3
   1653   1651   1663   1675     1  0.0000000  0.6508444  3
   1653   1651   1663   1664     1  0.0000000  0.6508444  3
   1653   1651   1663   1665     1  0.0000000  0.6508444  3
   1654   1650   1657   1658     1  0.0000000  0.6508444  3
   1654   1650   1657   1659     1  0.0000000  0.6508444  3
   1654   1666   1672   1673     1  0.0000000  0.6508444  3
   1654   1666   1672   1674     1  0.0000000  0.6508444  3
   1655   1654   1650   1657     1  0.0000000  0.6508444  3
   1655   1654   1650   1679     1  0.0000000  0.6508444  3
   1655   1654   1666   1672     1  0.0000000  0.6508444  3
   1655   1654   1666   1667     1  0.0000000  0.6508444  3
   1655   1654   1666   1668     1  0.0000000  0.6508444  3
   1656   1654   1650   1657     1  0.0000000  0.6508444  3
   1656   1654   1650   1679     1  0.0000000  0.6508444  3
   1656   1654   1666   1672     1  0.0000000  0.6508444  3
   1656   1654   1666   1667     1  0.0000000  0.6508444  3
   1656   1654   1666   1668     1  0.0000000  0.6508444  3
   1657   1660   1669   1670     1  0.0000000  0.6508444  3
   1657   1660   1669   1671     1  0.0000000  0.6508444  3
   1658   1657   1650   1679     1  0.0000000  0.6508444  3
   1658   1657   1660   1669     1  0.0000000  0.6508444  3
   1658   1657   1660   1661     1  0.0000000  0.6508444  3
   1658   1657   1660   1662     1  0.0000000  0.6508444  3
   1659   1657   1650   1679     1  0.0000000  0.6508444  3
   1659   1657   1660   1669     1  0.0000000  0.6508444  3
   1659   1657   1660   1661     1  0.0000000  0.6508444  3
   1659   1657   1660   1662     1  0.0000000  0.6508444  3
   1660   1657   1650   1679     1  0.0000000  0.6508444  3
   1661   1660   1669   1678     1  0.0000000  1.0460000  1
   1661   1660   1669   1678     1  0.0000000  0.0000000  3
   1661   1660   1669   1670     1  0.0000000  0.6508444  3
   1661   1660   1669   1671     1  0.0000000  0.6508444  3
   1662   1660   1669   1678     1  0.0000000  1.0460000  1
   1662   1660   1669   1678     1  0.0000000  0.0000000  3
   1662   1660   1669   1670     1  0.0000000  0.6508444  3
   1662   1660   1669   1671     1  0.0000000  0.6508444  3
   1663   1651   1650   1679     1  0.0000000  0.6508444  3
   1664   1663   1675   3418     1  0.0000000  1.0460000  1
   1664   1663   1675   3418     1  0.0000000  0.0000000  3
   1664   1663   1675   1676     1  0.0000000  0.6508444  3
   1664   1663   1675   1677     1  0.0000000  0.6508444  3
   1665   1663   1675   3418     1  0.0000000  1.0460000  1
   1665   1663   1675   3418     1  0.0000000  0.0000000  3
   1665   1663   1675   1676     1  0.0000000  0.6508444  3
   1665   1663   1675   1677     1  0.0000000  0.6508444  3
   1666   1654   1650   1679     1  0.0000000  0.6508444  3
   1667   1666   1672   3388     1  0.0000000  1.0460000  1
   1667   1666   1672   3388     1  0.0000000  0.0000000  3
   1667   1666   1672   1673     1  0.0000000  0.6508444  3
   1667   1666   1672   1674     1  0.0000000  0.6508444  3
   1668   1666   1672   3388     1  0.0000000  1.0460000  1
   1668   1666   1672   3388     1  0.0000000  0.0000000  3
   1668   1666   1672   1673     1  0.0000000  0.6508444  3
   1668   1666   1672   1674     1  0.0000000  0.6508444  3
   1672   3388   3379   3380     1  0.0000000  1.6038667  3
   1672   3388   3379   3381     1  0.0000000  1.6038667  3
   1673   1672   3388   3379     1  0.0000000  1.6038667  3
   1674   1672   3388   3379     1  0.0000000  1.6038667  3
   1675   3418   3409   3410     1  0.0000000  1.6038667  3
   1675   3418   3409   3411     1  0.0000000  1.6038667  3
   1676   1675   3418   3409     1  0.0000000  1.6038667  3
   1677   1675   3418   3409     1  0.0000000  1.6038667  3
   1680   1681   1693   1694     1  0.0000000  0.6508444  3
   1680   1681   1693   1695     1  0.0000000  0.6508444  3
   1680   1684   1696   1697     1  0.0000000  0.6508444  3
   1680   1684   1696   1698     1  0.0000000  0.6508444  3
   1680   1687   1690   1691     1  0.0000000  0.6508444  3
   1680   1687   1690   1692     1  0.0000000  0.6508444  3
   1681   1680   1684   1685     1  0.0000000  0.6508444  3
   1681   1680   1684   1686     1  0.0000000  0.6508444  3
   1681   1680   1687   1688     1  0.0000000  0.6508444  3
   1681   1680   1687   1689     1  0.0000000  0.6508444  3
   1681   1693   1705   1706     1  0.0000000  0.6508444  3
   1681   1693   1705   1707     1  0.0000000  0.6508444  3
   1682   1681   1680   1684     1  0.0000000  0.6508444  3
   1682   1681   1680   1687     1  0.0000000  0.6508444  3
   1682   1681   1680   1709     1  0.0000000  0.6508444  3
   1682   1681   1693   1705     1  0.0000000  0.6508444  3
   1682   1681   1693   1694     1  0.0000000  0.6508444  3
   1682   1681   1693   1695     1  0.0000000  0.6508444  3
   1683   1681   1680   1684     1  0.0000000  0.6508444  3
   1683   1681   1680   1687     1  0.0000000  0.6508444  3
   1683   1681   1680   1709     1  0.0000000  0.6508444  3
   1683   1681   1693   1705     1  0.0000000  0.6508444  3
   1683   1681   1693   1694     1  0.0000000  0.6508444  3
   1683   1681   1693   1695     1  0.0000000  0.6508444  3
   1684   1680   1687   1688     1  0.0000000  0.6508444  3
   1684   1680   1687   1689     1  0.0000000  0.6508444  3
   1684   1696   1702   1703     1  0.0000000  0.6508444  3
   1684   1696   1702   1704     1  0.0000000  0.6508444  3
   1685   1684   1680   1687     1  0.0000000  0.6508444  3
   1685   1684   1680   1709     1  0.0000000  0.6508444  3
   1685   1684   1696   1702     1  0.0000000  0.6508444  3
   1685   1684   1696   1697     1  0.0000000  0.6508444  3
   1685   1684   1696   1698     1  0.0000000  0.6508444  3
   1686   1684   1680   1687     1  0.0000000  0.6508444  3
   1686   1684   1680   1709     1  0.0000000  0.6508444  3
   1686   1684   1696   1702     1  0.0000000  0.6508444  3
   1686   1684   1696   1697     1  0.0000000  0.6508444  3
   1686   1684   1696   1698     1  0.0000000  0.6508444  3
   1687   1690   1699   1700     1  0.0000000  0.6508444  3
   1687   1690   1699   1701     1  0.0000000  0.6508444  3
   1688   1687   1680   1709     1  0.0000000  0.6508444  3
   1688   1687   1690   1699     1  0.0000000  0.6508444  3
   1688   1687   1690   1691     1  0.0000000  0.6508444  3
   1688   1687   1690   1692     1  0.0000000  0.6508444  3
   1689   1687   1680   1709     1  0.0000000  0.6508444  3
   1689   1687   1690   1699     1  0.0000000  0.6508444  3
   1689   1687   1690   1691     1  0.0000000  0.6508444  3
   1689   1687   1690   1692     1  0.0000000  0.6508444  3
   1690   1687   1680   1709     1  0.0000000  0.6508444  3
   1691   1690   1699   1708     1  0.0000000  1.0460000  1
   1691   1690   1699   1708     1  0.0000000  0.0000000  3
   1691   1690   1699   1700     1  0.0000000  0.6508444  3
   1691   1690   1699   1701     1  0.0000000  0.6508444  3
   1692   1690   1699   1708     1  0.0000000  1.0460000  1
   1692   1690   1699   1708     1  0.0000000  0.0000000  3
   1692   1690   1699   1700     1  0.0000000  0.6508444  3
   1692   1690   1699   1701     1  0.0000000  0.6508444  3
   1693   1681   1680   1709     1  0.0000000  0.6508444  3
   1694   1693   1705   3478     1  0.0000000  1.0460000  1
   1694   1693   1705   3478     1  0.0000000  0.0000000  3
   1694   1693   1705   1706     1  0.0000000  0.6508444  3
   1694   1693   1705   1707     1  0.0000000  0.6508444  3
   1695   1693   1705   3478     1  0.0000000  1.0460000  1
   1695   1693   1705   3478     1  0.0000000  0.0000000  3
   1695   1693   1705   1706     1  0.0000000  0.6508444  3
   1695   1693   1705   1707     1  0.0000000  0.6508444  3
   1696   1684   1680   1709     1  0.0000000  0.6508444  3
   1697   1696   1702   3448     1  0.0000000  1.0460000  1
   1697   1696   1702   3448     1  0.0000000  0.0000000  3
   1697   1696   1702   1703     1  0.0000000  0.6508444  3
   1697   1696   1702   1704     1  0.0000000  0.6508444  3
   1698   1696   1702   3448     1  0.0000000  1.0460000  1
   1698   1696   1702   3448     1  0.0000000  0.0000000  3
   1698   1696   1702   1703     1  0.0000000  0.6508444  3
   1698   1696   1702   1704     1  0.0000000  0.6508444  3
   1702   3448   3439   3440     1  0.0000000  1.6038667  3
   1702   3448   3439   3441     1  0.0000000  1.6038667  3
   1703   1702   3448   3439     1  0.0000000  1.6038667  3
   1704   1702   3448   3439     1  0.0000000  1.6038667  3
   1705   3478   3469   3470     1  0.0000000  1.6038667  3
   1705   3478   3469   3471     1  0.0000000  1.6038667  3
   1706   1705   3478   3469     1  0.0000000  1.6038667  3
   1707   1705   3478   3469     1  0.0000000  1.6038667  3
   1710   1711   1723   1724     1  0.0000000  0.6508444  3
   1710   1711   1723   1725     1  0.0000000  0.6508444  3
   1710   1714   1726   1727     1  0.0000000  0.6508444  3
   1710   1714   1726   1728     1  0.0000000  0.6508444  3
   1710   1717   1720   1721     1  0.0000000  0.6508444  3
   1710   1717   1720   1722     1  0.0000000  0.6508444  3
   1711   1710   1714   1715     1  0.0000000  0.6508444  3
   1711   1710   1714   1716     1  0.0000000  0.6508444  3
   1711   1710   1717   1718     1  0.0000000  0.6508444  3
   1711   1710   1717   1719     1  0.0000000  0.6508444  3
   1711   1723   1735   1736     1  0.0000000  0.6508444  3
   1711   1723   1735   1737     1  0.0000000  0.6508444  3
   1712   1711   1710   1714     1  0.0000000  0.6508444  3
   1712   1711   1710   1717     1  0.0000000  0.6508444  3
   1712   1711   1710   1739     1  0.0000000  0.6508444  3
   1712   1711   1723   1735     1  0.0000000  0.6508444  3
   1712   1711   1723   1724     1  0.0000000  0.6508444  3
   1712   1711   1723   1725     1  0.0000000  0.6508444  3
   1713   1711   1710   1714     1  0.0000000  0.6508444  3
   1713   1711   1710   1717     1  0.0000000  0.6508444  3
   1713   1711   1710   1739     1  0.0000000  0.6508444  3
   1713   1711   1723   1735     1  0.0000000  0.6508444  3
   1713   1711   1723   1724     1  0.0000000  0.6508444  3
   1713   1711   1723   1725     1  0.0000000  0.6508444  3
   1714   1710   1717   1718     1  0.0000000  0.6508444  3
   1714   1710   1717   1719     1  0.0000000  0.6508444  3
   1714   1726   1732   1733     1  0.0000000  0.6508444  3
   1714   1726   1732   1734     1  0.0000000  0.6508444  3
   1715   1714   1710   1717     1  0.0000000  0.6508444  3
   1715   1714   1710   1739     1  0.0000000  0.6508444  3
   1715   1714   1726   1732     1  0.0000000  0.6508444  3
   1715   1714   1726   1727     1  0.0000000  0.6508444  3
   1715   1714   1726   1728     1  0.0000000  0.6508444  3
   1716   1714   1710   1717     1  0.0000000  0.6508444  3
   1716   1714   1710   1739     1  0.0000000  0.6508444  3
   1716   1714   1726   1732     1  0.0000000  0.6508444  3
   1716   1714   1726   1727     1  0.0000000  0.6508444  3
   1716   1714   1726   1728     1  0.0000000  0.6508444  3
   1717   1720   1729   1730     1  0.0000000  0.6508444  3
   1717   1720   1729   1731     1  0.0000000  0.6508444  3
   1718   1717   1710   1739     1  0.0000000  0.6508444  3
   1718   1717   1720   1729     1  0.0000000  0.6508444  3
   1718   1717   1720   1721     1  0.0000000  0.6508444  3
   1718   1717   1720   1722     1  0.0000000  0.6508444  3
   1719   1717   1710   1739     1  0.0000000  0.6508444  3
   1719   1717   1720   1729     1  0.0000000  0.6508444  3
   1719   1717   1720   1721     1  0.0000000  0.6508444  3
   1719   1717   1720   1722     1  0.0000000  0.6508444  3
   1720   1717   1710   1739     1  0.0000000  0.6508444  3
   1721   1720   1729   1738     1  0.0000000  1.0460000  1
   1721   1720   1729   1738     1  0.0000000  0.0000000  3
   1721   1720   1729   1730     1  0.0000000  0.6508444  3
   1721   1720   1729   1731     1  0.0000000  0.6508444  3
   1722   1720   1729   1738     1  0.0000000  1.0460000  1
   1722   1720   1729   1738     1  0.0000000  0.0000000  3
   1722   1720   1729   1730     1  0.0000000  0.6508444  3
   1722   1720   1729   1731     1  0.0000000  0.6508444  3
   1723   1711   1710   1739     1  0.0000000  0.6508444  3
   1724   1723   1735   3538     1  0.0000000  1.0460000  1
   1724   1723   1735   3538     1  0.0000000  0.0000000  3
   1724   1723   1735   1736     1  0.0000000  0.6508444  3
   1724   1723   1735   1737     1  0.0000000  0.6508444  3
   1725   1723   1735   3538     1  0.0000000  1.0460000  1
   1725   1723   1735   3538     1  0.0000000  0.0000000  3
   1725   1723   1735   1736     1  0.0000000  0.6508444  3
   1725   1723   1735   1737     1  0.0000000  0.6508444  3
   1726   1714   1710   1739     1  0.0000000  0.6508444  3
   1727   1726   1732   3508     1  0.0000000  1.0460000  1
   1727   1726   1732   3508     1  0.0000000  0.0000000  3
   1727   1726   1732   1733     1  0.0000000  0.6508444  3
   1727   1726   1732   1734     1  0.0000000  0.6508444  3
   1728   1726   1732   3508     1  0.0000000  1.0460000  1
   1728   1726   1732   3508     1  0.0000000  0.0000000  3
   1728   1726   1732   1733     1  0.0000000  0.6508444  3
   1728   1726   1732   1734     1  0.0000000  0.6508444  3
   1732   3508   3499   3500     1  0.0000000  1.6038667  3
   1732   3508   3499   3501     1  0.0000000  1.6038667  3
   1733   1732   3508   3499     1  0.0000000  1.6038667  3
   1734   1732   3508   3499     1  0.0000000  1.6038667  3
   1735   3538   3529   3530     1  0.0000000  1.6038667  3
   1735   3538   3529   3531     1  0.0000000  1.6038667  3
   1736   1735   3538   3529     1  0.0000000  1.6038667  3
   1737   1735   3538   3529     1  0.0000000  1.6038667  3
   1740   1741   1753   1754     1  0.0000000  0.6508444  3
   1740   1741   1753   1755     1  0.0000000  0.6508444  3
   1740   1744   1756   1757     1  0.0000000  0.6508444  3
   1740   1744   1756   1758     1  0.0000000  0.6508444  3
   1740   1747   1750   1751     1  0.0000000  0.6508444  3
   1740   1747   1750   1752     1  0.0000000  0.6508444  3
   1741   1740   1744   1745     1  0.0000000  0.6508444  3
   1741   1740   1744   1746     1  0.0000000  0.6508444  3
   1741   1740   1747   1748     1  0.0000000  0.6508444  3
   1741   1740   1747   1749     1  0.0000000  0.6508444  3
   1741   1753   1765   1766     1  0.0000000  0.6508444  3
   1741   1753   1765   1767     1  0.0000000  0.6508444  3
   1742   1741   1740   1744     1  0.0000000  0.6508444  3
   1742   1741   1740   1747     1  0.0000000  0.6508444  3
   1742   1741   1740   1769     1  0.0000000  0.6508444  3
   1742   1741   1753   1765     1  0.0000000  0.6508444  3
   1742   1741   1753   1754     1  0.0000000  0.6508444  3
   1742   1741   1753   1755     1  0.0000000  0.6508444  3
   1743   1741   1740   1744     1  0.0000000  0.6508444  3
   1743   1741   1740   1747     1  0.0000000  0.6508444  3
   1743   1741   1740   1769     1  0.0000000  0.6508444  3
   1743   1741   1753   1765     1  0.0000000  0.6508444  3
   1743   1741   1753   1754     1  0.0000000  0.6508444  3
   1743   1741   1753   1755     1  0.0000000  0.6508444  3
   1744   1740   1747   1748     1  0.0000000  0.6508444  3
   1744   1740   1747   1749     1  0.0000000  0.6508444  3
   1744   1756   1762   1763     1  0.0000000  0.6508444  3
   1744   1756   1762   1764     1  0.0000000  0.6508444  3
   1745   1744   1740   1747     1  0.0000000  0.6508444  3
   1745   1744   1740   1769     1  0.0000000  0.6508444  3
   1745   1744   1756   1762     1  0.0000000  0.6508444  3
   1745   1744   1756   1757     1  0.0000000  0.6508444  3
   1745   1744   1756   1758     1  0.0000000  0.6508444  3
   1746   1744   1740   1747     1  0.0000000  0.6508444  3
   1746   1744   1740   1769     1  0.0000000  0.6508444  3
   1746   1744   1756   1762     1  0.0000000  0.6508444  3
   1746   1744   1756   1757     1  0.0000000  0.6508444  3
   1746   1744   1756   1758     1  0.0000000  0.6508444  3
   1747   1750   1759   1760     1  0.0000000  0.6508444  3
   1747   1750   1759   1761     1  0.0000000  0.6508444  3
   1748   1747   1740   1769     1  0.0000000  0.6508444  3
   1748   1747   1750   1759     1  0.0000000  0.6508444  3
   1748   1747   1750   1751     1  0.0000000  0.6508444  3
   1748   1747   1750   1752     1  0.0000000  0.6508444  3
   1749   1747   1740   1769     1  0.0000000  0.6508444  3
   1749   1747   1750   1759     1  0.0000000  0.6508444  3
   1749   1747   1750   1751     1  0.0000000  0.6508444  3
   1749   1747   1750   1752     1  0.0000000  0.6508444  3
   1750   1747   1740   1769     1  0.0000000  0.6508444  3
   1751   1750   1759   1768     1  0.0000000  1.0460000  1
   1751   1750   1759   1768     1  0.0000000  0.0000000  3
   1751   1750   1759   1760     1  0.0000000  0.6508444  3
   1751   1750   1759   1761     1  0.0000000  0.6508444  3
   1752   1750   1759   1768     1  0.0000000  1.0460000  1
   1752   1750   1759   1768     1  0.0000000  0.0000000  3
   1752   1750   1759   1760     1  0.0000000  0.6508444  3
   1752   1750   1759   1761     1  0.0000000  0.6508444  3
   1753   1741   1740   1769     1  0.0000000  0.6508444  3
   1754   1753   1765   3598     1  0.0000000  1.0460000  1
   1754   1753   1765   3598     1  0.0000000  0.0000000  3
   1754   1753   1765   1766     1  0.0000000  0.6508444  3
   1754   1753   1765   1767     1  0.0000000  0.6508444  3
   1755   1753   1765   3598     1  0.0000000  1.0460000  1
   1755   1753   1765   3598     1  0.0000000  0.0000000  3
   1755   1753   1765   1766     1  0.0000000  0.6508444  3
   1755   1753   1765   1767     1  0.0000000  0.6508444  3
   1756   1744   1740   1769     1  0.0000000  0.6508444  3
   1757   1756   1762   3568     1  0.0000000  1.0460000  1
   1757   1756   1762   3568     1  0.0000000  0.0000000  3
   1757   1756   1762   1763     1  0.0000000  0.6508444  3
   1757   1756   1762   1764     1  0.0000000  0.6508444  3
   1758   1756   1762   3568     1  0.0000000  1.0460000  1
   1758   1756   1762   3568     1  0.0000000  0.0000000  3
   1758   1756   1762   1763     1  0.0000000  0.6508444  3
   1758   1756   1762   1764     1  0.0000000  0.6508444  3
   1762   3568   3559   3560     1  0.0000000  1.6038667  3
   1762   3568   3559   3561     1  0.0000000  1.6038667  3
   1763   1762   3568   3559     1  0.0000000  1.6038667  3
   1764   1762   3568   3559     1  0.0000000  1.6038667  3
   1765   3598   3589   3590     1  0.0000000  1.6038667  3
   1765   3598   3589   3591     1  0.0000000  1.6038667  3
   1766   1765   3598   3589     1  0.0000000  1.6038667  3
   1767   1765   3598   3589     1  0.0000000  1.6038667  3
   1770   1771   1783   1784     1  0.0000000  0.6508444  3
   1770   1771   1783   1785     1  0.0000000  0.6508444  3
   1770   1774   1786   1787     1  0.0000000  0.6508444  3
   1770   1774   1786   1788     1  0.0000000  0.6508444  3
   1770   1777   1780   1781     1  0.0000000  0.6508444  3
   1770   1777   1780   1782     1  0.0000000  0.6508444  3
   1771   1770   1774   1775     1  0.0000000  0.6508444  3
   1771   1770   1774   1776     1  0.0000000  0.6508444  3
   1771   1770   1777   1778     1  0.0000000  0.6508444  3
   1771   1770   1777   1779     1  0.0000000  0.6508444  3
   1771   1783   1795   1796     1  0.0000000  0.6508444  3
   1771   1783   1795   1797     1  0.0000000  0.6508444  3
   1772   1771   1770   1774     1  0.0000000  0.6508444  3
   1772   1771   1770   1777     1  0.0000000  0.6508444  3
   1772   1771   1770   1799     1  0.0000000  0.6508444  3
   1772   1771   1783   1795     1  0.0000000  0.6508444  3
   1772   1771   1783   1784     1  0.0000000  0.6508444  3
   1772   1771   1783   1785     1  0.0000000  0.6508444  3
   1773   1771   1770   1774     1  0.0000000  0.6508444  3
   1773   1771   1770   1777     1  0.0000000  0.6508444  3
   1773   1771   1770   1799     1  0.0000000  0.6508444  3
   1773   1771   1783   1795     1  0.0000000  0.6508444  3
   1773   1771   1783   1784     1  0.0000000  0.6508444  3
   1773   1771   1783   1785     1  0.0000000  0.6508444  3
   1774   1770   1777   1778     1  0.0000000  0.6508444  3
   1774   1770   1777   1779     1  0.0000000  0.6508444  3
   1774   1786   1792   1793     1  0.0000000  0.6508444  3
   1774   1786   1792   1794     1  0.0000000  0.6508444  3
   1775   1774   1770   1777     1  0.0000000  0.6508444  3
   1775   1774   1770   1799     1  0.0000000  0.6508444  3
   1775   1774   1786   1792     1  0.0000000  0.6508444  3
   1775   1774   1786   1787     1  0.0000000  0.6508444  3
   1775   1774   1786   1788     1  0.0000000  0.6508444  3
   1776   1774   1770   1777     1  0.0000000  0.6508444  3
   1776   1774   1770   1799     1  0.0000000  0.6508444  3
   1776   1774   1786   1792     1  0.0000000  0.6508444  3
   1776   1774   1786   1787     1  0.0000000  0.6508444  3
   1776   1774   1786   1788     1  0.0000000  0.6508444  3
   1777   1780   1789   1790     1  0.0000000  0.6508444  3
   1777   1780   1789   1791     1  0.0000000  0.6508444  3
   1778   1777   1770   1799     1  0.0000000  0.6508444  3
   1778   1777   1780   1789     1  0.0000000  0.6508444  3
   1778   1777   1780   1781     1  0.0000000  0.6508444  3
   1778   1777   1780   1782     1  0.0000000  0.6508444  3
   1779   1777   1770   1799     1  0.0000000  0.6508444  3
   1779   1777   1780   1789     1  0.0000000  0.6508444  3
   1779   1777   1780   1781     1  0.0000000  0.6508444  3
   1779   1777   1780   1782     1  0.0000000  0.6508444  3
   1780   1777   1770   1799     1  0.0000000  0.6508444  3
   1781   1780   1789   1798     1  0.0000000  1.0460000  1
   1781   1780   1789   1798     1  0.0000000  0.0000000  3
   1781   1780   1789   1790     1  0.0000000  0.6508444  3
   1781   1780   1789   1791     1  0.0000000  0.6508444  3
   1782   1780   1789   1798     1  0.0000000  1.0460000  1
   1782   1780   1789   1798     1  0.0000000  0.0000000  3
   1782   1780   1789   1790     1  0.0000000  0.6508444  3
   1782   1780   1789   1791     1  0.0000000  0.6508444  3
   1783   1771   1770   1799     1  0.0000000  0.6508444  3
   1784   1783   1795   3658     1  0.0000000  1.0460000  1
   1784   1783   1795   3658     1  0.0000000  0.0000000  3
   1784   1783   1795   1796     1  0.0000000  0.6508444  3
   1784   1783   1795   1797     1  0.0000000  0.6508444  3
   1785   1783   1795   3658     1  0.0000000  1.0460000  1
   1785   1783   1795   3658     1  0.0000000  0.0000000  3
   1785   1783   1795   1796     1  0.0000000  0.6508444  3
   1785   1783   1795   1797     1  0.0000000  0.6508444  3
   1786   1774   1770   1799     1  0.0000000  0.6508444  3
   1787   1786   1792   3628     1  0.0000000  1.0460000  1
   1787   1786   1792   3628     1  0.0000000  0.0000000  3
   1787   1786   1792   1793     1  0.0000000  0.6508444  3
   1787   1786   1792   1794     1  0.0000000  0.6508444  3
   1788   1786   1792   3628     1  0.0000000  1.0460000  1
   1788   1786   1792   3628     1  0.0000000  0.0000000  3
   1788   1786   1792   1793     1  0.0000000  0.6508444  3
   1788   1786   1792   1794     1  0.0000000  0.6508444  3
   1792   3628   3619   3620     1  0.0000000  1.6038667  3
   1792   3628   3619   3621     1  0.0000000  1.6038667  3
   1793   1792   3628   3619     1  0.0000000  1.6038667  3
   1794   1792   3628   3619     1  0.0000000  1.6038667  3
   1795   3658   3649   3650     1  0.0000000  1.6038667  3
   1795   3658   3649   3651     1  0.0000000  1.6038667  3
   1796   1795   3658   3649     1  0.0000000  1.6038667  3
   1797   1795   3658   3649     1  0.0000000  1.6038667  3
   1800   1801   1813   1814     1  0.0000000  0.6508444  3
   1800   1801   1813   1815     1  0.0000000  0.6508444  3
   1800   1804   1816   1817     1  0.0000000  0.6508444  3
   1800   1804   1816   1818     1  0.0000000  0.6508444  3
   1800   1807   1810   1811     1  0.0000000  0.6508444  3
   1800   1807   1810   1812     1  0.0000000  0.6508444  3
   1801   1800   1804   1805     1  0.0000000  0.6508444  3
   1801   1800   1804   1806     1  0.0000000  0.6508444  3
   1801   1800   1807   1808     1  0.0000000  0.6508444  3
   1801   1800   1807   1809     1  0.0000000  0.6508444  3
   1801   1813   1825   1826     1  0.0000000  0.6508444  3
   1801   1813   1825   1827     1  0.0000000  0.6508444  3
   1802   1801   1800   1804     1  0.0000000  0.6508444  3
   1802   1801   1800   1807     1  0.0000000  0.6508444  3
   1802   1801   1800   1829     1  0.0000000  0.6508444  3
   1802   1801   1813   1825     1  0.0000000  0.6508444  3
   1802   1801   1813   1814     1  0.0000000  0.6508444  3
   1802   1801   1813   1815     1  0.0000000  0.6508444  3
   1803   1801   1800   1804     1  0.0000000  0.6508444  3
   1803   1801   1800   1807     1  0.0000000  0.6508444  3
   1803   1801   1800   1829     1  0.0000000  0.6508444  3
   1803   1801   1813   1825     1  0.0000000  0.6508444  3
   1803   1801   1813   1814     1  0.0000000  0.6508444  3
   1803   1801   1813   1815     1  0.0000000  0.6508444  3
   1804   1800   1807   1808     1  0.0000000  0.6508444  3
   1804   1800   1807   1809     1  0.0000000  0.6508444  3
   1804   1816   1822   1823     1  0.0000000  0.6508444  3
   1804   1816   1822   1824     1  0.0000000  0.6508444  3
   1805   1804   1800   1807     1  0.0000000  0.6508444  3
   1805   1804   1800   1829     1  0.0000000  0.6508444  3
   1805   1804   1816   1822     1  0.0000000  0.6508444  3
   1805   1804   1816   1817     1  0.0000000  0.6508444  3
   1805   1804   1816   1818     1  0.0000000  0.6508444  3
   1806   1804   1800   1807     1  0.0000000  0.6508444  3
   1806   1804   1800   1829     1  0.0000000  0.6508444  3
   1806   1804   1816   1822     1  0.0000000  0.6508444  3
   1806   1804   1816   1817     1  0.0000000  0.6508444  3
   1806   1804   1816   1818     1  0.0000000  0.6508444  3
   1807   1810   1819   1820     1  0.0000000  0.6508444  3
   1807   1810   1819   1821     1  0.0000000  0.6508444  3
   1808   1807   1800   1829     1  0.0000000  0.6508444  3
   1808   1807   1810   1819     1  0.0000000  0.6508444  3
   1808   1807   1810   1811     1  0.0000000  0.6508444  3
   1808   1807   1810   1812     1  0.0000000  0.6508444  3
   1809   1807   1800   1829     1  0.0000000  0.6508444  3
   1809   1807   1810   1819     1  0.0000000  0.6508444  3
   1809   1807   1810   1811     1  0.0000000  0.6508444  3
   1809   1807   1810   1812     1  0.0000000  0.6508444  3
   1810   1807   1800   1829     1  0.0000000  0.6508444  3
   1811   1810   1819   1828     1  0.0000000  1.0460000  1
   1811   1810   1819   1828     1  0.0000000  0.0000000  3
   1811   1810   1819   1820     1  0.0000000  0.6508444  3
   1811   1810   1819   1821     1  0.0000000  0.6508444  3
   1812   1810   1819   1828     1  0.0000000  1.0460000  1
   1812   1810   1819   1828     1  0.0000000  0.0000000  3
   1812   1810   1819   1820     1  0.0000000  0.6508444  3
   1812   1810   1819   1821     1  0.0000000  0.6508444  3
   1813   1801   1800   1829     1  0.0000000  0.6508444  3
   1814   1813   1825   3718     1  0.0000000  1.0460000  1
   1814   1813   1825   3718     1  0.0000000  0.0000000  3
   1814   1813   1825   1826     1  0.0000000  0.6508444  3
   1814   1813   1825   1827     1  0.0000000  0.6508444  3
   1815   1813   1825   3718     1  0.0000000  1.0460000  1
   1815   1813   1825   3718     1  0.0000000  0.0000000  3
   1815   1813   1825   1826     1  0.0000000  0.6508444  3
   1815   1813   1825   1827     1  0.0000000  0.6508444  3
   1816   1804   1800   1829     1  0.0000000  0.6508444  3
   1817   1816   1822   3688     1  0.0000000  1.0460000  1
   1817   1816   1822   3688     1  0.0000000  0.0000000  3
   1817   1816   1822   1823     1  0.0000000  0.6508444  3
   1817   1816   1822   1824     1  0.0000000  0.6508444  3
   1818   1816   1822   3688     1  0.0000000  1.0460000  1
   1818   1816   1822   3688     1  0.0000000  0.0000000  3
   1818   1816   1822   1823     1  0.0000000  0.6508444  3
   1818   1816   1822   1824     1  0.0000000  0.6508444  3
   1822   3688   3679   3680     1  0.0000000  1.6038667  3
   1822   3688   3679   3681     1  0.0000000  1.6038667  3
   1823   1822   3688   3679     1  0.0000000  1.6038667  3
   1824   1822   3688   3679     1  0.0000000  1.6038667  3
   1825   3718   3709   3710     1  0.0000000  1.6038667  3
   1825   3718   3709   3711     1  0.0000000  1.6038667  3
   1826   1825   3718   3709     1  0.0000000  1.6038667  3
   1827   1825   3718   3709     1  0.0000000  1.6038667  3
   1830   1831   1843   1844     1  0.0000000  0.6508444  3
   1830   1831   1843   1845     1  0.0000000  0.6508444  3
   1830   1834   1846   1847     1  0.0000000  0.6508444  3
   1830   1834   1846   1848     1  0.0000000  0.6508444  3
   1830   1837   1840   1841     1  0.0000000  0.6508444  3
   1830   1837   1840   1842     1  0.0000000  0.6508444  3
   1831   1830   1834   1835     1  0.0000000  0.6508444  3
   1831   1830   1834   1836     1  0.0000000  0.6508444  3
   1831   1830   1837   1838     1  0.0000000  0.6508444  3
   1831   1830   1837   1839     1  0.0000000  0.6508444  3
   1831   1843   1855   1856     1  0.0000000  0.6508444  3
   1831   1843   1855   1857     1  0.0000000  0.6508444  3
   1832   1831   1830   1834     1  0.0000000  0.6508444  3
   1832   1831   1830   1837     1  0.0000000  0.6508444  3
   1832   1831   1830   1859     1  0.0000000  0.6508444  3
   1832   1831   1843   1855     1  0.0000000  0.6508444  3
   1832   1831   1843   1844     1  0.0000000  0.6508444  3
   1832   1831   1843   1845     1  0.0000000  0.6508444  3
   1833   1831   1830   1834     1  0.0000000  0.6508444  3
   1833   1831   1830   1837     1  0.0000000  0.6508444  3
   1833   1831   1830   1859     1  0.0000000  0.6508444  3
   1833   1831   1843   1855     1  0.0000000  0.6508444  3
   1833   1831   1843   1844     1  0.0000000  0.6508444  3
   1833   1831   1843   1845     1  0.0000000  0.6508444  3
   1834   1830   1837   1838     1  0.0000000  0.6508444  3
   1834   1830   1837   1839     1  0.0000000  0.6508444  3
   1834   1846   1852   1853     1  0.0000000  0.6508444  3
   1834   1846   1852   1854     1  0.0000000  0.6508444  3
   1835   1834   1830   1837     1  0.0000000  0.6508444  3
   1835   1834   1830   1859     1  0.0000000  0.6508444  3
   1835   1834   1846   1852     1  0.0000000  0.6508444  3
   1835   1834   1846   1847     1  0.0000000  0.6508444  3
   1835   1834   1846   1848     1  0.0000000  0.6508444  3
   1836   1834   1830   1837     1  0.0000000  0.6508444  3
   1836   1834   1830   1859     1  0.0000000  0.6508444  3
   1836   1834   1846   1852     1  0.0000000  0.6508444  3
   1836   1834   1846   1847     1  0.0000000  0.6508444  3
   1836   1834   1846   1848     1  0.0000000  0.6508444  3
   1837   1840   1849   1850     1  0.0000000  0.6508444  3
   1837   1840   1849   1851     1  0.0000000  0.6508444  3
   1838   1837   1830   1859     1  0.0000000  0.6508444  3
   1838   1837   1840   1849     1  0.0000000  0.6508444  3
   1838   1837   1840   1841     1  0.0000000  0.6508444  3
   1838   1837   1840   1842     1  0.0000000  0.6508444  3
   1839   1837   1830   1859     1  0.0000000  0.6508444  3
   1839   1837   1840   1849     1  0.0000000  0.6508444  3
   1839   1837   1840   1841     1  0.0000000  0.6508444  3
   1839   1837   1840   1842     1  0.0000000  0.6508444  3
   1840   1837   1830   1859     1  0.0000000  0.6508444  3
   1841   1840   1849   1858     1  0.0000000  1.0460000  1
   1841   1840   1849   1858     1  0.0000000  0.0000000  3
   1841   1840   1849   1850     1  0.0000000  0.6508444  3
   1841   1840   1849   1851     1  0.0000000  0.6508444  3
   1842   1840   1849   1858     1  0.0000000  1.0460000  1
   1842   1840   1849   1858     1  0.0000000  0.0000000  3
   1842   1840   1849   1850     1  0.0000000  0.6508444  3
   1842   1840   1849   1851     1  0.0000000  0.6508444  3
   1843   1831   1830   1859     1  0.0000000  0.6508444  3
   1844   1843   1855   3778     1  0.0000000  1.0460000  1
   1844   1843   1855   3778     1  0.0000000  0.0000000  3
   1844   1843   1855   1856     1  0.0000000  0.6508444  3
   1844   1843   1855   1857     1  0.0000000  0.6508444  3
   1845   1843   1855   3778     1  0.0000000  1.0460000  1
   1845   1843   1855   3778     1  0.0000000  0.0000000  3
   1845   1843   1855   1856     1  0.0000000  0.6508444  3
   1845   1843   1855   1857     1  0.0000000  0.6508444  3
   1846   1834   1830   1859     1  0.0000000  0.6508444  3
   1847   1846   1852   3748     1  0.0000000  1.0460000  1
   1847   1846   1852   3748     1  0.0000000  0.0000000  3
   1847   1846   1852   1853     1  0.0000000  0.6508444  3
   1847   1846   1852   1854     1  0.0000000  0.6508444  3
   1848   1846   1852   3748     1  0.0000000  1.0460000  1
   1848   1846   1852   3748     1  0.0000000  0.0000000  3
   1848   1846   1852   1853     1  0.0000000  0.6508444  3
   1848   1846   1852   1854     1  0.0000000  0.6508444  3
   1852   3748   3739   3740     1  0.0000000  1.6038667  3
   1852   3748   3739   3741     1  0.0000000  1.6038667  3
   1853   1852   3748   3739     1  0.0000000  1.6038667  3
   1854   1852   3748   3739     1  0.0000000  1.6038667  3
   1855   3778   3769   3770     1  0.0000000  1.6038667  3
   1855   3778   3769   3771     1  0.0000000  1.6038667  3
   1856   1855   3778   3769     1  0.0000000  1.6038667  3
   1857   1855   3778   3769     1  0.0000000  1.6038667  3
   1860   1861   1873   1874     1  0.0000000  0.6508444  3
   1860   1861   1873   1875     1  0.0000000  0.6508444  3
   1860   1864   1876   1877     1  0.0000000  0.6508444  3
   1860   1864   1876   1878     1  0.0000000  0.6508444  3
   1860   1867   1870   1871     1  0.0000000  0.6508444  3
   1860   1867   1870   1872     1  0.0000000  0.6508444  3
   1861   1860   1864   1865     1  0.0000000  0.6508444  3
   1861   1860   1864   1866     1  0.0000000  0.6508444  3
   1861   1860   1867   1868     1  0.0000000  0.6508444  3
   1861   1860   1867   1869     1  0.0000000  0.6508444  3
   1861   1873   1885   1886     1  0.0000000  0.6508444  3
   1861   1873   1885   1887     1  0.0000000  0.6508444  3
   1862   1861   1860   1864     1  0.0000000  0.6508444  3
   1862   1861   1860   1867     1  0.0000000  0.6508444  3
   1862   1861   1860   1889     1  0.0000000  0.6508444  3
   1862   1861   1873   1885     1  0.0000000  0.6508444  3
   1862   1861   1873   1874     1  0.0000000  0.6508444  3
   1862   1861   1873   1875     1  0.0000000  0.6508444  3
   1863   1861   1860   1864     1  0.0000000  0.6508444  3
   1863   1861   1860   1867     1  0.0000000  0.6508444  3
   1863   1861   1860   1889     1  0.0000000  0.6508444  3
   1863   1861   1873   1885     1  0.0000000  0.6508444  3
   1863   1861   1873   1874     1  0.0000000  0.6508444  3
   1863   1861   1873   1875     1  0.0000000  0.6508444  3
   1864   1860   1867   1868     1  0.0000000  0.6508444  3
   1864   1860   1867   1869     1  0.0000000  0.6508444  3
   1864   1876   1882   1883     1  0.0000000  0.6508444  3
   1864   1876   1882   1884     1  0.0000000  0.6508444  3
   1865   1864   1860   1867     1  0.0000000  0.6508444  3
   1865   1864   1860   1889     1  0.0000000  0.6508444  3
   1865   1864   1876   1882     1  0.0000000  0.6508444  3
   1865   1864   1876   1877     1  0.0000000  0.6508444  3
   1865   1864   1876   1878     1  0.0000000  0.6508444  3
   1866   1864   1860   1867     1  0.0000000  0.6508444  3
   1866   1864   1860   1889     1  0.0000000  0.6508444  3
   1866   1864   1876   1882     1  0.0000000  0.6508444  3
   1866   1864   1876   1877     1  0.0000000  0.6508444  3
   1866   1864   1876   1878     1  0.0000000  0.6508444  3
   1867   1870   1879   1880     1  0.0000000  0.6508444  3
   1867   1870   1879   1881     1  0.0000000  0.6508444  3
   1868   1867   1860   1889     1  0.0000000  0.6508444  3
   1868   1867   1870   1879     1  0.0000000  0.6508444  3
   1868   1867   1870   1871     1  0.0000000  0.6508444  3
   1868   1867   1870   1872     1  0.0000000  0.6508444  3
   1869   1867   1860   1889     1  0.0000000  0.6508444  3
   1869   1867   1870   1879     1  0.0000000  0.6508444  3
   1869   1867   1870   1871     1  0.0000000  0.6508444  3
   1869   1867   1870   1872     1  0.0000000  0.6508444  3
   1870   1867   1860   1889     1  0.0000000  0.6508444  3
   1871   1870   1879   1888     1  0.0000000  1.0460000  1
   1871   1870   1879   1888     1  0.0000000  0.0000000  3
   1871   1870   1879   1880     1  0.0000000  0.6508444  3
   1871   1870   1879   1881     1  0.0000000  0.6508444  3
   1872   1870   1879   1888     1  0.0000000  1.0460000  1
   1872   1870   1879   1888     1  0.0000000  0.0000000  3
   1872   1870   1879   1880     1  0.0000000  0.6508444  3
   1872   1870   1879   1881     1  0.0000000  0.6508444  3
   1873   1861   1860   1889     1  0.0000000  0.6508444  3
   1874   1873   1885   3838     1  0.0000000  1.0460000  1
   1874   1873   1885   3838     1  0.0000000  0.0000000  3
   1874   1873   1885   1886     1  0.0000000  0.6508444  3
   1874   1873   1885   1887     1  0.0000000  0.6508444  3
   1875   1873   1885   3838     1  0.0000000  1.0460000  1
   1875   1873   1885   3838     1  0.0000000  0.0000000  3
   1875   1873   1885   1886     1  0.0000000  0.6508444  3
   1875   1873   1885   1887     1  0.0000000  0.6508444  3
   1876   1864   1860   1889     1  0.0000000  0.6508444  3
   1877   1876   1882   3808     1  0.0000000  1.0460000  1
   1877   1876   1882   3808     1  0.0000000  0.0000000  3
   1877   1876   1882   1883     1  0.0000000  0.6508444  3
   1877   1876   1882   1884     1  0.0000000  0.6508444  3
   1878   1876   1882   3808     1  0.0000000  1.0460000  1
   1878   1876   1882   3808     1  0.0000000  0.0000000  3
   1878   1876   1882   1883     1  0.0000000  0.6508444  3
   1878   1876   1882   1884     1  0.0000000  0.6508444  3
   1882   3808   3799   3800     1  0.0000000  1.6038667  3
   1882   3808   3799   3801     1  0.0000000  1.6038667  3
   1883   1882   3808   3799     1  0.0000000  1.6038667  3
   1884   1882   3808   3799     1  0.0000000  1.6038667  3
   1885   3838   3829   3830     1  0.0000000  1.6038667  3
   1885   3838   3829   3831     1  0.0000000  1.6038667  3
   1886   1885   3838   3829     1  0.0000000  1.6038667  3
   1887   1885   3838   3829     1  0.0000000  1.6038667  3
   1890   1891   1903   1904     1  0.0000000  0.6508444  3
   1890   1891   1903   1905     1  0.0000000  0.6508444  3
   1890   1894   1906   1907     1  0.0000000  0.6508444  3
   1890   1894   1906   1908     1  0.0000000  0.6508444  3
   1890   1897   1900   1901     1  0.0000000  0.6508444  3
   1890   1897   1900   1902     1  0.0000000  0.6508444  3
   1891   1890   1894   1895     1  0.0000000  0.6508444  3
   1891   1890   1894   1896     1  0.0000000  0.6508444  3
   1891   1890   1897   1898     1  0.0000000  0.6508444  3
   1891   1890   1897   1899     1  0.0000000  0.6508444  3
   1891   1903   1915   1916     1  0.0000000  0.6508444  3
   1891   1903   1915   1917     1  0.0000000  0.6508444  3
   1892   1891   1890   1894     1  0.0000000  0.6508444  3
   1892   1891   1890   1897     1  0.0000000  0.6508444  3
   1892   1891   1890   1919     1  0.0000000  0.6508444  3
   1892   1891   1903   1915     1  0.0000000  0.6508444  3
   1892   1891   1903   1904     1  0.0000000  0.6508444  3
   1892   1891   1903   1905     1  0.0000000  0.6508444  3
   1893   1891   1890   1894     1  0.0000000  0.6508444  3
   1893   1891   1890   1897     1  0.0000000  0.6508444  3
   1893   1891   1890   1919     1  0.0000000  0.6508444  3
   1893   1891   1903   1915     1  0.0000000  0.6508444  3
   1893   1891   1903   1904     1  0.0000000  0.6508444  3
   1893   1891   1903   1905     1  0.0000000  0.6508444  3
   1894   1890   1897   1898     1  0.0000000  0.6508444  3
   1894   1890   1897   1899     1  0.0000000  0.6508444  3
   1894   1906   1912   1913     1  0.0000000  0.6508444  3
   1894   1906   1912   1914     1  0.0000000  0.6508444  3
   1895   1894   1890   1897     1  0.0000000  0.6508444  3
   1895   1894   1890   1919     1  0.0000000  0.6508444  3
   1895   1894   1906   1912     1  0.0000000  0.6508444  3
   1895   1894   1906   1907     1  0.0000000  0.6508444  3
   1895   1894   1906   1908     1  0.0000000  0.6508444  3
   1896   1894   1890   1897     1  0.0000000  0.6508444  3
   1896   1894   1890   1919     1  0.0000000  0.6508444  3
   1896   1894   1906   1912     1  0.0000000  0.6508444  3
   1896   1894   1906   1907     1  0.0000000  0.6508444  3
   1896   1894   1906   1908     1  0.0000000  0.6508444  3
   1897   1900   1909   1910     1  0.0000000  0.6508444  3
   1897   1900   1909   1911     1  0.0000000  0.6508444  3
   1898   1897   1890   1919     1  0.0000000  0.6508444  3
   1898   1897   1900   1909     1  0.0000000  0.6508444  3
   1898   1897   1900   1901     1  0.0000000  0.6508444  3
   1898   1897   1900   1902     1  0.0000000  0.6508444  3
   1899   1897   1890   1919     1  0.0000000  0.6508444  3
   1899   1897   1900   1909     1  0.0000000  0.6508444  3
   1899   1897   1900   1901     1  0.0000000  0.6508444  3
   1899   1897   1900   1902     1  0.0000000  0.6508444  3
   1900   1897   1890   1919     1  0.0000000  0.6508444  3
   1901   1900   1909   1918     1  0.0000000  1.0460000  1
   1901   1900   1909   1918     1  0.0000000  0.0000000  3
   1901   1900   1909   1910     1  0.0000000  0.6508444  3
   1901   1900   1909   1911     1  0.0000000  0.6508444  3
   1902   1900   1909   1918     1  0.0000000  1.0460000  1
   1902   1900   1909   1918     1  0.0000000  0.0000000  3
   1902   1900   1909   1910     1  0.0000000  0.6508444  3
   1902   1900   1909   1911     1  0.0000000  0.6508444  3
   1903   1891   1890   1919     1  0.0000000  0.6508444  3
   1904   1903   1915   3898     1  0.0000000  1.0460000  1
   1904   1903   1915   3898     1  0.0000000  0.0000000  3
   1904   1903   1915   1916     1  0.0000000  0.6508444  3
   1904   1903   1915   1917     1  0.0000000  0.6508444  3
   1905   1903   1915   3898     1  0.0000000  1.0460000  1
   1905   1903   1915   3898     1  0.0000000  0.0000000  3
   1905   1903   1915   1916     1  0.0000000  0.6508444  3
   1905   1903   1915   1917     1  0.0000000  0.6508444  3
   1906   1894   1890   1919     1  0.0000000  0.6508444  3
   1907   1906   1912   3868     1  0.0000000  1.0460000  1
   1907   1906   1912   3868     1  0.0000000  0.0000000  3
   1907   1906   1912   1913     1  0.0000000  0.6508444  3
   1907   1906   1912   1914     1  0.0000000  0.6508444  3
   1908   1906   1912   3868     1  0.0000000  1.0460000  1
   1908   1906   1912   3868     1  0.0000000  0.0000000  3
   1908   1906   1912   1913     1  0.0000000  0.6508444  3
   1908   1906   1912   1914     1  0.0000000  0.6508444  3
   1912   3868   3859   3860     1  0.0000000  1.6038667  3
   1912   3868   3859   3861     1  0.0000000  1.6038667  3
   1913   1912   3868   3859     1  0.0000000  1.6038667  3
   1914   1912   3868   3859     1  0.0000000  1.6038667  3
   1915   3898   3889   3890     1  0.0000000  1.6038667  3
   1915   3898   3889   3891     1  0.0000000  1.6038667  3
   1916   1915   3898   3889     1  0.0000000  1.6038667  3
   1917   1915   3898   3889     1  0.0000000  1.6038667  3
   1920   1921   1933   1934     1  0.0000000  0.6508444  3
   1920   1921   1933   1935     1  0.0000000  0.6508444  3
   1920   1924   1936   1937     1  0.0000000  0.6508444  3
   1920   1924   1936   1938     1  0.0000000  0.6508444  3
   1920   1927   1930   1931     1  0.0000000  0.6508444  3
   1920   1927   1930   1932     1  0.0000000  0.6508444  3
   1921   1920   1924   1925     1  0.0000000  0.6508444  3
   1921   1920   1924   1926     1  0.0000000  0.6508444  3
   1921   1920   1927   1928     1  0.0000000  0.6508444  3
   1921   1920   1927   1929     1  0.0000000  0.6508444  3
   1921   1933   1945   1946     1  0.0000000  0.6508444  3
   1921   1933   1945   1947     1  0.0000000  0.6508444  3
   1922   1921   1920   1924     1  0.0000000  0.6508444  3
   1922   1921   1920   1927     1  0.0000000  0.6508444  3
   1922   1921   1920   1949     1  0.0000000  0.6508444  3
   1922   1921   1933   1945     1  0.0000000  0.6508444  3
   1922   1921   1933   1934     1  0.0000000  0.6508444  3
   1922   1921   1933   1935     1  0.0000000  0.6508444  3
   1923   1921   1920   1924     1  0.0000000  0.6508444  3
   1923   1921   1920   1927     1  0.0000000  0.6508444  3
   1923   1921   1920   1949     1  0.0000000  0.6508444  3
   1923   1921   1933   1945     1  0.0000000  0.6508444  3
   1923   1921   1933   1934     1  0.0000000  0.6508444  3
   1923   1921   1933   1935     1  0.0000000  0.6508444  3
   1924   1920   1927   1928     1  0.0000000  0.6508444  3
   1924   1920   1927   1929     1  0.0000000  0.6508444  3
   1924   1936   1942   1943     1  0.0000000  0.6508444  3
   1924   1936   1942   1944     1  0.0000000  0.6508444  3
   1925   1924   1920   1927     1  0.0000000  0.6508444  3
   1925   1924   1920   1949     1  0.0000000  0.6508444  3
   1925   1924   1936   1942     1  0.0000000  0.6508444  3
   1925   1924   1936   1937     1  0.0000000  0.6508444  3
   1925   1924   1936   1938     1  0.0000000  0.6508444  3
   1926   1924   1920   1927     1  0.0000000  0.6508444  3
   1926   1924   1920   1949     1  0.0000000  0.6508444  3
   1926   1924   1936   1942     1  0.0000000  0.6508444  3
   1926   1924   1936   1937     1  0.0000000  0.6508444  3
   1926   1924   1936   1938     1  0.0000000  0.6508444  3
   1927   1930   1939   1940     1  0.0000000  0.6508444  3
   1927   1930   1939   1941     1  0.0000000  0.6508444  3
   1928   1927   1920   1949     1  0.0000000  0.6508444  3
   1928   1927   1930   1939     1  0.0000000  0.6508444  3
   1928   1927   1930   1931     1  0.0000000  0.6508444  3
   1928   1927   1930   1932     1  0.0000000  0.6508444  3
   1929   1927   1920   1949     1  0.0000000  0.6508444  3
   1929   1927   1930   1939     1  0.0000000  0.6508444  3
   1929   1927   1930   1931     1  0.0000000  0.6508444  3
   1929   1927   1930   1932     1  0.0000000  0.6508444  3
   1930   1927   1920   1949     1  0.0000000  0.6508444  3
   1931   1930   1939   1948     1  0.0000000  1.0460000  1
   1931   1930   1939   1948     1  0.0000000  0.0000000  3
   1931   1930   1939   1940     1  0.0000000  0.6508444  3
   1931   1930   1939   1941     1  0.0000000  0.6508444  3
   1932   1930   1939   1948     1  0.0000000  1.0460000  1
   1932   1930   1939   1948     1  0.0000000  0.0000000  3
   1932   1930   1939   1940     1  0.0000000  0.6508444  3
   1932   1930   1939   1941     1  0.0000000  0.6508444  3
   1933   1921   1920   1949     1  0.0000000  0.6508444  3
   1934   1933   1945   3958     1  0.0000000  1.0460000  1
   1934   1933   1945   3958     1  0.0000000  0.0000000  3
   1934   1933   1945   1946     1  0.0000000  0.6508444  3
   1934   1933   1945   1947     1  0.0000000  0.6508444  3
   1935   1933   1945   3958     1  0.0000000  1.0460000  1
   1935   1933   1945   3958     1  0.0000000  0.0000000  3
   1935   1933   1945   1946     1  0.0000000  0.6508444  3
   1935   1933   1945   1947     1  0.0000000  0.6508444  3
   1936   1924   1920   1949     1  0.0000000  0.6508444  3
   1937   1936   1942   3928     1  0.0000000  1.0460000  1
   1937   1936   1942   3928     1  0.0000000  0.0000000  3
   1937   1936   1942   1943     1  0.0000000  0.6508444  3
   1937   1936   1942   1944     1  0.0000000  0.6508444  3
   1938   1936   1942   3928     1  0.0000000  1.0460000  1
   1938   1936   1942   3928     1  0.0000000  0.0000000  3
   1938   1936   1942   1943     1  0.0000000  0.6508444  3
   1938   1936   1942   1944     1  0.0000000  0.6508444  3
   1942   3928   3919   3920     1  0.0000000  1.6038667  3
   1942   3928   3919   3921     1  0.0000000  1.6038667  3
   1943   1942   3928   3919     1  0.0000000  1.6038667  3
   1944   1942   3928   3919     1  0.0000000  1.6038667  3
   1945   3958   3949   3950     1  0.0000000  1.6038667  3
   1945   3958   3949   3951     1  0.0000000  1.6038667  3
   1946   1945   3958   3949     1  0.0000000  1.6038667  3
   1947   1945   3958   3949     1  0.0000000  1.6038667  3
   1950   1951   1963   1964     1  0.0000000  0.6508444  3
   1950   1951   1963   1965     1  0.0000000  0.6508444  3
   1950   1954   1966   1967     1  0.0000000  0.6508444  3
   1950   1954   1966   1968     1  0.0000000  0.6508444  3
   1950   1957   1960   1961     1  0.0000000  0.6508444  3
   1950   1957   1960   1962     1  0.0000000  0.6508444  3
   1951   1950   1954   1955     1  0.0000000  0.6508444  3
   1951   1950   1954   1956     1  0.0000000  0.6508444  3
   1951   1950   1957   1958     1  0.0000000  0.6508444  3
   1951   1950   1957   1959     1  0.0000000  0.6508444  3
   1951   1963   1975   1976     1  0.0000000  0.6508444  3
   1951   1963   1975   1977     1  0.0000000  0.6508444  3
   1952   1951   1950   1954     1  0.0000000  0.6508444  3
   1952   1951   1950   1957     1  0.0000000  0.6508444  3
   1952   1951   1950   1979     1  0.0000000  0.6508444  3
   1952   1951   1963   1975     1  0.0000000  0.6508444  3
   1952   1951   1963   1964     1  0.0000000  0.6508444  3
   1952   1951   1963   1965     1  0.0000000  0.6508444  3
   1953   1951   1950   1954     1  0.0000000  0.6508444  3
   1953   1951   1950   1957     1  0.0000000  0.6508444  3
   1953   1951   1950   1979     1  0.0000000  0.6508444  3
   1953   1951   1963   1975     1  0.0000000  0.6508444  3
   1953   1951   1963   1964     1  0.0000000  0.6508444  3
   1953   1951   1963   1965     1  0.0000000  0.6508444  3
   1954   1950   1957   1958     1  0.0000000  0.6508444  3
   1954   1950   1957   1959     1  0.0000000  0.6508444  3
   1954   1966   1972   1973     1  0.0000000  0.6508444  3
   1954   1966   1972   1974     1  0.0000000  0.6508444  3
   1955   1954   1950   1957     1  0.0000000  0.6508444  3
   1955   1954   1950   1979     1  0.0000000  0.6508444  3
   1955   1954   1966   1972     1  0.0000000  0.6508444  3
   1955   1954   1966   1967     1  0.0000000  0.6508444  3
   1955   1954   1966   1968     1  0.0000000  0.6508444  3
   1956   1954   1950   1957     1  0.0000000  0.6508444  3
   1956   1954   1950   1979     1  0.0000000  0.6508444  3
   1956   1954   1966   1972     1  0.0000000  0.6508444  3
   1956   1954   1966   1967     1  0.0000000  0.6508444  3
   1956   1954   1966   1968     1  0.0000000  0.6508444  3
   1957   1960   1969   1970     1  0.0000000  0.6508444  3
   1957   1960   1969   1971     1  0.0000000  0.6508444  3
   1958   1957   1950   1979     1  0.0000000  0.6508444  3
   1958   1957   1960   1969     1  0.0000000  0.6508444  3
   1958   1957   1960   1961     1  0.0000000  0.6508444  3
   1958   1957   1960   1962     1  0.0000000  0.6508444  3
   1959   1957   1950   1979     1  0.0000000  0.6508444  3
   1959   1957   1960   1969     1  0.0000000  0.6508444  3
   1959   1957   1960   1961     1  0.0000000  0.6508444  3
   1959   1957   1960   1962     1  0.0000000  0.6508444  3
   1960   1957   1950   1979     1  0.0000000  0.6508444  3
   1961   1960   1969   1978     1  0.0000000  1.0460000  1
   1961   1960   1969   1978     1  0.0000000  0.0000000  3
   1961   1960   1969   1970     1  0.0000000  0.6508444  3
   1961   1960   1969   1971     1  0.0000000  0.6508444  3
   1962   1960   1969   1978     1  0.0000000  1.0460000  1
   1962   1960   1969   1978     1  0.0000000  0.0000000  3
   1962   1960   1969   1970     1  0.0000000  0.6508444  3
   1962   1960   1969   1971     1  0.0000000  0.6508444  3
   1963   1951   1950   1979     1  0.0000000  0.6508444  3
   1964   1963   1975   4018     1  0.0000000  1.0460000  1
   1964   1963   1975   4018     1  0.0000000  0.0000000  3
   1964   1963   1975   1976     1  0.0000000  0.6508444  3
   1964   1963   1975   1977     1  0.0000000  0.6508444  3
   1965   1963   1975   4018     1  0.0000000  1.0460000  1
   1965   1963   1975   4018     1  0.0000000  0.0000000  3
   1965   1963   1975   1976     1  0.0000000  0.6508444  3
   1965   1963   1975   1977     1  0.0000000  0.6508444  3
   1966   1954   1950   1979     1  0.0000000  0.6508444  3
   1967   1966   1972   3988     1  0.0000000  1.0460000  1
   1967   1966   1972   3988     1  0.0000000  0.0000000  3
   1967   1966   1972   1973     1  0.0000000  0.6508444  3
   1967   1966   1972   1974     1  0.0000000  0.6508444  3
   1968   1966   1972   3988     1  0.0000000  1.0460000  1
   1968   1966   1972   3988     1  0.0000000  0.0000000  3
   1968   1966   1972   1973     1  0.0000000  0.6508444  3
   1968   1966   1972   1974     1  0.0000000  0.6508444  3
   1972   3988   3979   3980     1  0.0000000  1.6038667  3
   1972   3988   3979   3981     1  0.0000000  1.6038667  3
   1973   1972   3988   3979     1  0.0000000  1.6038667  3
   1974   1972   3988   3979     1  0.0000000  1.6038667  3
   1975   4018   4009   4010     1  0.0000000  1.6038667  3
   1975   4018   4009   4011     1  0.0000000  1.6038667  3
   1976   1975   4018   4009     1  0.0000000  1.6038667  3
   1977   1975   4018   4009     1  0.0000000  1.6038667  3
   1980   1981   1993   1994     1  0.0000000  0.6508444  3
   1980   1981   1993   1995     1  0.0000000  0.6508444  3
   1980   1984   1996   1997     1  0.0000000  0.6508444  3
   1980   1984   1996   1998     1  0.0000000  0.6508444  3
   1980   1987   1990   1991     1  0.0000000  0.6508444  3
   1980   1987   1990   1992     1  0.0000000  0.6508444  3
   1981   1980   1984   1985     1  0.0000000  0.6508444  3
   1981   1980   1984   1986     1  0.0000000  0.6508444  3
   1981   1980   1987   1988     1  0.0000000  0.6508444  3
   1981   1980   1987   1989     1  0.0000000  0.6508444  3
   1981   1993   2005   2006     1  0.0000000  0.6508444  3
   1981   1993   2005   2007     1  0.0000000  0.6508444  3
   1982   1981   1980   1984     1  0.0000000  0.6508444  3
   1982   1981   1980   1987     1  0.0000000  0.6508444  3
   1982   1981   1980   2009     1  0.0000000  0.6508444  3
   1982   1981   1993   2005     1  0.0000000  0.6508444  3
   1982   1981   1993   1994     1  0.0000000  0.6508444  3
   1982   1981   1993   1995     1  0.0000000  0.6508444  3
   1983   1981   1980   1984     1  0.0000000  0.6508444  3
   1983   1981   1980   1987     1  0.0000000  0.6508444  3
   1983   1981   1980   2009     1  0.0000000  0.6508444  3
   1983   1981   1993   2005     1  0.0000000  0.6508444  3
   1983   1981   1993   1994     1  0.0000000  0.6508444  3
   1983   1981   1993   1995     1  0.0000000  0.6508444  3
   1984   1980   1987   1988     1  0.0000000  0.6508444  3
   1984   1980   1987   1989     1  0.0000000  0.6508444  3
   1984   1996   2002   2003     1  0.0000000  0.6508444  3
   1984   1996   2002   2004     1  0.0000000  0.6508444  3
   1985   1984   1980   1987     1  0.0000000  0.6508444  3
   1985   1984   1980   2009     1  0.0000000  0.6508444  3
   1985   1984   1996   2002     1  0.0000000  0.6508444  3
   1985   1984   1996   1997     1  0.0000000  0.6508444  3
   1985   1984   1996   1998     1  0.0000000  0.6508444  3
   1986   1984   1980   1987     1  0.0000000  0.6508444  3
   1986   1984   1980   2009     1  0.0000000  0.6508444  3
   1986   1984   1996   2002     1  0.0000000  0.6508444  3
   1986   1984   1996   1997     1  0.0000000  0.6508444  3
   1986   1984   1996   1998     1  0.0000000  0.6508444  3
   1987   1990   1999   2000     1  0.0000000  0.6508444  3
   1987   1990   1999   2001     1  0.0000000  0.6508444  3
   1988   1987   1980   2009     1  0.0000000  0.6508444  3
   1988   1987   1990   1999     1  0.0000000  0.6508444  3
   1988   1987   1990   1991     1  0.0000000  0.6508444  3
   1988   1987   1990   1992     1  0.0000000  0.6508444  3
   1989   1987   1980   2009     1  0.0000000  0.6508444  3
   1989   1987   1990   1999     1  0.0000000  0.6508444  3
   1989   1987   1990   1991     1  0.0000000  0.6508444  3
   1989   1987   1990   1992     1  0.0000000  0.6508444  3
   1990   1987   1980   2009     1  0.0000000  0.6508444  3
   1991   1990   1999   2008     1  0.0000000  1.0460000  1
   1991   1990   1999   2008     1  0.0000000  0.0000000  3
   1991   1990   1999   2000     1  0.0000000  0.6508444  3
   1991   1990   1999   2001     1  0.0000000  0.6508444  3
   1992   1990   1999   2008     1  0.0000000  1.0460000  1
   1992   1990   1999   2008     1  0.0000000  0.0000000  3
   1992   1990   1999   2000     1  0.0000000  0.6508444  3
   1992   1990   1999   2001     1  0.0000000  0.6508444  3
   1993   1981   1980   2009     1  0.0000000  0.6508444  3
   1994   1993   2005   4078     1  0.0000000  1.0460000  1
   1994   1993   2005   4078     1  0.0000000  0.0000000  3
   1994   1993   2005   2006     1  0.0000000  0.6508444  3
   1994   1993   2005   2007     1  0.0000000  0.6508444  3
   1995   1993   2005   4078     1  0.0000000  1.0460000  1
   1995   1993   2005   4078     1  0.0000000  0.0000000  3
   1995   1993   2005   2006     1  0.0000000  0.6508444  3
   1995   1993   2005   2007     1  0.0000000  0.6508444  3
   1996   1984   1980   2009     1  0.0000000  0.6508444  3
   1997   1996   2002   4048     1  0.0000000  1.0460000  1
   1997   1996   2002   4048     1  0.0000000  0.0000000  3
   1997   1996   2002   2003     1  0.0000000  0.6508444  3
   1997   1996   2002   2004     1  0.0000000  0.6508444  3
   1998   1996   2002   4048     1  0.0000000  1.0460000  1
   1998   1996   2002   4048     1  0.0000000  0.0000000  3
   1998   1996   2002   2003     1  0.0000000  0.6508444  3
   1998   1996   2002   2004     1  0.0000000  0.6508444  3
   2002   4048   4039   4040     1  0.0000000  1.6038667  3
   2002   4048   4039   4041     1  0.0000000  1.6038667  3
   2003   2002   4048   4039     1  0.0000000  1.6038667  3
   2004   2002   4048   4039     1  0.0000000  1.6038667  3
   2005   4078   4069   4070     1  0.0000000  1.6038667  3
   2005   4078   4069   4071     1  0.0000000  1.6038667  3
   2006   2005   4078   4069     1  0.0000000  1.6038667  3
   2007   2005   4078   4069     1  0.0000000  1.6038667  3
   2010   2011   2023   2024     1  0.0000000  0.6508444  3
   2010   2011   2023   2025     1  0.0000000  0.6508444  3
   2010   2014   2026   2027     1  0.0000000  0.6508444  3
   2010   2014   2026   2028     1  0.0000000  0.6508444  3
   2010   2017   2020   2021     1  0.0000000  0.6508444  3
   2010   2017   2020   2022     1  0.0000000  0.6508444  3
   2011   2010   2014   2015     1  0.0000000  0.6508444  3
   2011   2010   2014   2016     1  0.0000000  0.6508444  3
   2011   2010   2017   2018     1  0.0000000  0.6508444  3
   2011   2010   2017   2019     1  0.0000000  0.6508444  3
   2011   2023   2035   2036     1  0.0000000  0.6508444  3
   2011   2023   2035   2037     1  0.0000000  0.6508444  3
   2012   2011   2010   2014     1  0.0000000  0.6508444  3
   2012   2011   2010   2017     1  0.0000000  0.6508444  3
   2012   2011   2010   2039     1  0.0000000  0.6508444  3
   2012   2011   2023   2035     1  0.0000000  0.6508444  3
   2012   2011   2023   2024     1  0.0000000  0.6508444  3
   2012   2011   2023   2025     1  0.0000000  0.6508444  3
   2013   2011   2010   2014     1  0.0000000  0.6508444  3
   2013   2011   2010   2017     1  0.0000000  0.6508444  3
   2013   2011   2010   2039     1  0.0000000  0.6508444  3
   2013   2011   2023   2035     1  0.0000000  0.6508444  3
   2013   2011   2023   2024     1  0.0000000  0.6508444  3
   2013   2011   2023   2025     1  0.0000000  0.6508444  3
   2014   2010   2017   2018     1  0.0000000  0.6508444  3
   2014   2010   2017   2019     1  0.0000000  0.6508444  3
   2014   2026   2032   2033     1  0.0000000  0.6508444  3
   2014   2026   2032   2034     1  0.0000000  0.6508444  3
   2015   2014   2010   2017     1  0.0000000  0.6508444  3
   2015   2014   2010   2039     1  0.0000000  0.6508444  3
   2015   2014   2026   2032     1  0.0000000  0.6508444  3
   2015   2014   2026   2027     1  0.0000000  0.6508444  3
   2015   2014   2026   2028     1  0.0000000  0.6508444  3
   2016   2014   2010   2017     1  0.0000000  0.6508444  3
   2016   2014   2010   2039     1  0.0000000  0.6508444  3
   2016   2014   2026   2032     1  0.0000000  0.6508444  3
   2016   2014   2026   2027     1  0.0000000  0.6508444  3
   2016   2014   2026   2028     1  0.0000000  0.6508444  3
   2017   2020   2029   2030     1  0.0000000  0.6508444  3
   2017   2020   2029   2031     1  0.0000000  0.6508444  3
   2018   2017   2010   2039     1  0.0000000  0.6508444  3
   2018   2017   2020   2029     1  0.0000000  0.6508444  3
   2018   2017   2020   2021     1  0.0000000  0.6508444  3
   2018   2017   2020   2022     1  0.0000000  0.6508444  3
   2019   2017   2010   2039     1  0.0000000  0.6508444  3
   2019   2017   2020   2029     1  0.0000000  0.6508444  3
   2019   2017   2020   2021     1  0.0000000  0.6508444  3
   2019   2017   2020   2022     1  0.0000000  0.6508444  3
   2020   2017   2010   2039     1  0.0000000  0.6508444  3
   2021   2020   2029   2038     1  0.0000000  1.0460000  1
   2021   2020   2029   2038     1  0.0000000  0.0000000  3
   2021   2020   2029   2030     1  0.0000000  0.6508444  3
   2021   2020   2029   2031     1  0.0000000  0.6508444  3
   2022   2020   2029   2038     1  0.0000000  1.0460000  1
   2022   2020   2029   2038     1  0.0000000  0.0000000  3
   2022   2020   2029   2030     1  0.0000000  0.6508444  3
   2022   2020   2029   2031     1  0.0000000  0.6508444  3
   2023   2011   2010   2039     1  0.0000000  0.6508444  3
   2024   2023   2035   4138     1  0.0000000  1.0460000  1
   2024   2023   2035   4138     1  0.0000000  0.0000000  3
   2024   2023   2035   2036     1  0.0000000  0.6508444  3
   2024   2023   2035   2037     1  0.0000000  0.6508444  3
   2025   2023   2035   4138     1  0.0000000  1.0460000  1
   2025   2023   2035   4138     1  0.0000000  0.0000000  3
   2025   2023   2035   2036     1  0.0000000  0.6508444  3
   2025   2023   2035   2037     1  0.0000000  0.6508444  3
   2026   2014   2010   2039     1  0.0000000  0.6508444  3
   2027   2026   2032   4108     1  0.0000000  1.0460000  1
   2027   2026   2032   4108     1  0.0000000  0.0000000  3
   2027   2026   2032   2033     1  0.0000000  0.6508444  3
   2027   2026   2032   2034     1  0.0000000  0.6508444  3
   2028   2026   2032   4108     1  0.0000000  1.0460000  1
   2028   2026   2032   4108     1  0.0000000  0.0000000  3
   2028   2026   2032   2033     1  0.0000000  0.6508444  3
   2028   2026   2032   2034     1  0.0000000  0.6508444  3
   2032   4108   4099   4100     1  0.0000000  1.6038667  3
   2032   4108   4099   4101     1  0.0000000  1.6038667  3
   2033   2032   4108   4099     1  0.0000000  1.6038667  3
   2034   2032   4108   4099     1  0.0000000  1.6038667  3
   2035   4138   4129   4130     1  0.0000000  1.6038667  3
   2035   4138   4129   4131     1  0.0000000  1.6038667  3
   2036   2035   4138   4129     1  0.0000000  1.6038667  3
   2037   2035   4138   4129     1  0.0000000  1.6038667  3
   2040   2041   2053   2054     1  0.0000000  0.6508444  3
   2040   2041   2053   2055     1  0.0000000  0.6508444  3
   2040   2044   2056   2057     1  0.0000000  0.6508444  3
   2040   2044   2056   2058     1  0.0000000  0.6508444  3
   2040   2047   2050   2051     1  0.0000000  0.6508444  3
   2040   2047   2050   2052     1  0.0000000  0.6508444  3
   2041   2040   2044   2045     1  0.0000000  0.6508444  3
   2041   2040   2044   2046     1  0.0000000  0.6508444  3
   2041   2040   2047   2048     1  0.0000000  0.6508444  3
   2041   2040   2047   2049     1  0.0000000  0.6508444  3
   2041   2053   2065   2066     1  0.0000000  0.6508444  3
   2041   2053   2065   2067     1  0.0000000  0.6508444  3
   2042   2041   2040   2044     1  0.0000000  0.6508444  3
   2042   2041   2040   2047     1  0.0000000  0.6508444  3
   2042   2041   2040   2069     1  0.0000000  0.6508444  3
   2042   2041   2053   2065     1  0.0000000  0.6508444  3
   2042   2041   2053   2054     1  0.0000000  0.6508444  3
   2042   2041   2053   2055     1  0.0000000  0.6508444  3
   2043   2041   2040   2044     1  0.0000000  0.6508444  3
   2043   2041   2040   2047     1  0.0000000  0.6508444  3
   2043   2041   2040   2069     1  0.0000000  0.6508444  3
   2043   2041   2053   2065     1  0.0000000  0.6508444  3
   2043   2041   2053   2054     1  0.0000000  0.6508444  3
   2043   2041   2053   2055     1  0.0000000  0.6508444  3
   2044   2040   2047   2048     1  0.0000000  0.6508444  3
   2044   2040   2047   2049     1  0.0000000  0.6508444  3
   2044   2056   2062   2063     1  0.0000000  0.6508444  3
   2044   2056   2062   2064     1  0.0000000  0.6508444  3
   2045   2044   2040   2047     1  0.0000000  0.6508444  3
   2045   2044   2040   2069     1  0.0000000  0.6508444  3
   2045   2044   2056   2062     1  0.0000000  0.6508444  3
   2045   2044   2056   2057     1  0.0000000  0.6508444  3
   2045   2044   2056   2058     1  0.0000000  0.6508444  3
   2046   2044   2040   2047     1  0.0000000  0.6508444  3
   2046   2044   2040   2069     1  0.0000000  0.6508444  3
   2046   2044   2056   2062     1  0.0000000  0.6508444  3
   2046   2044   2056   2057     1  0.0000000  0.6508444  3
   2046   2044   2056   2058     1  0.0000000  0.6508444  3
   2047   2050   2059   2060     1  0.0000000  0.6508444  3
   2047   2050   2059   2061     1  0.0000000  0.6508444  3
   2048   2047   2040   2069     1  0.0000000  0.6508444  3
   2048   2047   2050   2059     1  0.0000000  0.6508444  3
   2048   2047   2050   2051     1  0.0000000  0.6508444  3
   2048   2047   2050   2052     1  0.0000000  0.6508444  3
   2049   2047   2040   2069     1  0.0000000  0.6508444  3
   2049   2047   2050   2059     1  0.0000000  0.6508444  3
   2049   2047   2050   2051     1  0.0000000  0.6508444  3
   2049   2047   2050   2052     1  0.0000000  0.6508444  3
   2050   2047   2040   2069     1  0.0000000  0.6508444  3
   2051   2050   2059   2068     1  0.0000000  1.0460000  1
   2051   2050   2059   2068     1  0.0000000  0.0000000  3
   2051   2050   2059   2060     1  0.0000000  0.6508444  3
   2051   2050   2059   2061     1  0.0000000  0.6508444  3
   2052   2050   2059   2068     1  0.0000000  1.0460000  1
   2052   2050   2059   2068     1  0.0000000  0.0000000  3
   2052   2050   2059   2060     1  0.0000000  0.6508444  3
   2052   2050   2059   2061     1  0.0000000  0.6508444  3
   2053   2041   2040   2069     1  0.0000000  0.6508444  3
   2054   2053   2065   4198     1  0.0000000  1.0460000  1
   2054   2053   2065   4198     1  0.0000000  0.0000000  3
   2054   2053   2065   2066     1  0.0000000  0.6508444  3
   2054   2053   2065   2067     1  0.0000000  0.6508444  3
   2055   2053   2065   4198     1  0.0000000  1.0460000  1
   2055   2053   2065   4198     1  0.0000000  0.0000000  3
   2055   2053   2065   2066     1  0.0000000  0.6508444  3
   2055   2053   2065   2067     1  0.0000000  0.6508444  3
   2056   2044   2040   2069     1  0.0000000  0.6508444  3
   2057   2056   2062   4168     1  0.0000000  1.0460000  1
   2057   2056   2062   4168     1  0.0000000  0.0000000  3
   2057   2056   2062   2063     1  0.0000000  0.6508444  3
   2057   2056   2062   2064     1  0.0000000  0.6508444  3
   2058   2056   2062   4168     1  0.0000000  1.0460000  1
   2058   2056   2062   4168     1  0.0000000  0.0000000  3
   2058   2056   2062   2063     1  0.0000000  0.6508444  3
   2058   2056   2062   2064     1  0.0000000  0.6508444  3
   2062   4168   4159   4160     1  0.0000000  1.6038667  3
   2062   4168   4159   4161     1  0.0000000  1.6038667  3
   2063   2062   4168   4159     1  0.0000000  1.6038667  3
   2064   2062   4168   4159     1  0.0000000  1.6038667  3
   2065   4198   4189   4190     1  0.0000000  1.6038667  3
   2065   4198   4189   4191     1  0.0000000  1.6038667  3
   2066   2065   4198   4189     1  0.0000000  1.6038667  3
   2067   2065   4198   4189     1  0.0000000  1.6038667  3
   2070   2071   2083   2084     1  0.0000000  0.6508444  3
   2070   2071   2083   2085     1  0.0000000  0.6508444  3
   2070   2074   2086   2087     1  0.0000000  0.6508444  3
   2070   2074   2086   2088     1  0.0000000  0.6508444  3
   2070   2077   2080   2081     1  0.0000000  0.6508444  3
   2070   2077   2080   2082     1  0.0000000  0.6508444  3
   2071   2070   2074   2075     1  0.0000000  0.6508444  3
   2071   2070   2074   2076     1  0.0000000  0.6508444  3
   2071   2070   2077   2078     1  0.0000000  0.6508444  3
   2071   2070   2077   2079     1  0.0000000  0.6508444  3
   2071   2083   2095   2096     1  0.0000000  0.6508444  3
   2071   2083   2095   2097     1  0.0000000  0.6508444  3
   2072   2071   2070   2074     1  0.0000000  0.6508444  3
   2072   2071   2070   2077     1  0.0000000  0.6508444  3
   2072   2071   2070   2099     1  0.0000000  0.6508444  3
   2072   2071   2083   2095     1  0.0000000  0.6508444  3
   2072   2071   2083   2084     1  0.0000000  0.6508444  3
   2072   2071   2083   2085     1  0.0000000  0.6508444  3
   2073   2071   2070   2074     1  0.0000000  0.6508444  3
   2073   2071   2070   2077     1  0.0000000  0.6508444  3
   2073   2071   2070   2099     1  0.0000000  0.6508444  3
   2073   2071   2083   2095     1  0.0000000  0.6508444  3
   2073   2071   2083   2084     1  0.0000000  0.6508444  3
   2073   2071   2083   2085     1  0.0000000  0.6508444  3
   2074   2070   2077   2078     1  0.0000000  0.6508444  3
   2074   2070   2077   2079     1  0.0000000  0.6508444  3
   2074   2086   2092   2093     1  0.0000000  0.6508444  3
   2074   2086   2092   2094     1  0.0000000  0.6508444  3
   2075   2074   2070   2077     1  0.0000000  0.6508444  3
   2075   2074   2070   2099     1  0.0000000  0.6508444  3
   2075   2074   2086   2092     1  0.0000000  0.6508444  3
   2075   2074   2086   2087     1  0.0000000  0.6508444  3
   2075   2074   2086   2088     1  0.0000000  0.6508444  3
   2076   2074   2070   2077     1  0.0000000  0.6508444  3
   2076   2074   2070   2099     1  0.0000000  0.6508444  3
   2076   2074   2086   2092     1  0.0000000  0.6508444  3
   2076   2074   2086   2087     1  0.0000000  0.6508444  3
   2076   2074   2086   2088     1  0.0000000  0.6508444  3
   2077   2080   2089   2090     1  0.0000000  0.6508444  3
   2077   2080   2089   2091     1  0.0000000  0.6508444  3
   2078   2077   2070   2099     1  0.0000000  0.6508444  3
   2078   2077   2080   2089     1  0.0000000  0.6508444  3
   2078   2077   2080   2081     1  0.0000000  0.6508444  3
   2078   2077   2080   2082     1  0.0000000  0.6508444  3
   2079   2077   2070   2099     1  0.0000000  0.6508444  3
   2079   2077   2080   2089     1  0.0000000  0.6508444  3
   2079   2077   2080   2081     1  0.0000000  0.6508444  3
   2079   2077   2080   2082     1  0.0000000  0.6508444  3
   2080   2077   2070   2099     1  0.0000000  0.6508444  3
   2081   2080   2089   2098     1  0.0000000  1.0460000  1
   2081   2080   2089   2098     1  0.0000000  0.0000000  3
   2081   2080   2089   2090     1  0.0000000  0.6508444  3
   2081   2080   2089   2091     1  0.0000000  0.6508444  3
   2082   2080   2089   2098     1  0.0000000  1.0460000  1
   2082   2080   2089   2098     1  0.0000000  0.0000000  3
   2082   2080   2089   2090     1  0.0000000  0.6508444  3
   2082   2080   2089   2091     1  0.0000000  0.6508444  3
   2083   2071   2070   2099     1  0.0000000  0.6508444  3
   2084   2083   2095   4258     1  0.0000000  1.0460000  1
   2084   2083   2095   4258     1  0.0000000  0.0000000  3
   2084   2083   2095   2096     1  0.0000000  0.6508444  3
   2084   2083   2095   2097     1  0.0000000  0.6508444  3
   2085   2083   2095   4258     1  0.0000000  1.0460000  1
   2085   2083   2095   4258     1  0.0000000  0.0000000  3
   2085   2083   2095   2096     1  0.0000000  0.6508444  3
   2085   2083   2095   2097     1  0.0000000  0.6508444  3
   2086   2074   2070   2099     1  0.0000000  0.6508444  3
   2087   2086   2092   4228     1  0.0000000  1.0460000  1
   2087   2086   2092   4228     1  0.0000000  0.0000000  3
   2087   2086   2092   2093     1  0.0000000  0.6508444  3
   2087   2086   2092   2094     1  0.0000000  0.6508444  3
   2088   2086   2092   4228     1  0.0000000  1.0460000  1
   2088   2086   2092   4228     1  0.0000000  0.0000000  3
   2088   2086   2092   2093     1  0.0000000  0.6508444  3
   2088   2086   2092   2094     1  0.0000000  0.6508444  3
   2092   4228   4219   4220     1  0.0000000  1.6038667  3
   2092   4228   4219   4221     1  0.0000000  1.6038667  3
   2093   2092   4228   4219     1  0.0000000  1.6038667  3
   2094   2092   4228   4219     1  0.0000000  1.6038667  3
   2095   4258   4249   4250     1  0.0000000  1.6038667  3
   2095   4258   4249   4251     1  0.0000000  1.6038667  3
   2096   2095   4258   4249     1  0.0000000  1.6038667  3
   2097   2095   4258   4249     1  0.0000000  1.6038667  3
   2100   2101   2113   2114     1  0.0000000  0.6508444  3
   2100   2101   2113   2115     1  0.0000000  0.6508444  3
   2100   2104   2116   2117     1  0.0000000  0.6508444  3
   2100   2104   2116   2118     1  0.0000000  0.6508444  3
   2100   2107   2110   2111     1  0.0000000  0.6508444  3
   2100   2107   2110   2112     1  0.0000000  0.6508444  3
   2101   2100   2104   2105     1  0.0000000  0.6508444  3
   2101   2100   2104   2106     1  0.0000000  0.6508444  3
   2101   2100   2107   2108     1  0.0000000  0.6508444  3
   2101   2100   2107   2109     1  0.0000000  0.6508444  3
   2101   2113   2125   2126     1  0.0000000  0.6508444  3
   2101   2113   2125   2127     1  0.0000000  0.6508444  3
   2102   2101   2100   2104     1  0.0000000  0.6508444  3
   2102   2101   2100   2107     1  0.0000000  0.6508444  3
   2102   2101   2100   2129     1  0.0000000  0.6508444  3
   2102   2101   2113   2125     1  0.0000000  0.6508444  3
   2102   2101   2113   2114     1  0.0000000  0.6508444  3
   2102   2101   2113   2115     1  0.0000000  0.6508444  3
   2103   2101   2100   2104     1  0.0000000  0.6508444  3
   2103   2101   2100   2107     1  0.0000000  0.6508444  3
   2103   2101   2100   2129     1  0.0000000  0.6508444  3
   2103   2101   2113   2125     1  0.0000000  0.6508444  3
   2103   2101   2113   2114     1  0.0000000  0.6508444  3
   2103   2101   2113   2115     1  0.0000000  0.6508444  3
   2104   2100   2107   2108     1  0.0000000  0.6508444  3
   2104   2100   2107   2109     1  0.0000000  0.6508444  3
   2104   2116   2122   2123     1  0.0000000  0.6508444  3
   2104   2116   2122   2124     1  0.0000000  0.6508444  3
   2105   2104   2100   2107     1  0.0000000  0.6508444  3
   2105   2104   2100   2129     1  0.0000000  0.6508444  3
   2105   2104   2116   2122     1  0.0000000  0.6508444  3
   2105   2104   2116   2117     1  0.0000000  0.6508444  3
   2105   2104   2116   2118     1  0.0000000  0.6508444  3
   2106   2104   2100   2107     1  0.0000000  0.6508444  3
   2106   2104   2100   2129     1  0.0000000  0.6508444  3
   2106   2104   2116   2122     1  0.0000000  0.6508444  3
   2106   2104   2116   2117     1  0.0000000  0.6508444  3
   2106   2104   2116   2118     1  0.0000000  0.6508444  3
   2107   2110   2119   2120     1  0.0000000  0.6508444  3
   2107   2110   2119   2121     1  0.0000000  0.6508444  3
   2108   2107   2100   2129     1  0.0000000  0.6508444  3
   2108   2107   2110   2119     1  0.0000000  0.6508444  3
   2108   2107   2110   2111     1  0.0000000  0.6508444  3
   2108   2107   2110   2112     1  0.0000000  0.6508444  3
   2109   2107   2100   2129     1  0.0000000  0.6508444  3
   2109   2107   2110   2119     1  0.0000000  0.6508444  3
   2109   2107   2110   2111     1  0.0000000  0.6508444  3
   2109   2107   2110   2112     1  0.0000000  0.6508444  3
   2110   2107   2100   2129     1  0.0000000  0.6508444  3
   2111   2110   2119   2128     1  0.0000000  1.0460000  1
   2111   2110   2119   2128     1  0.0000000  0.0000000  3
   2111   2110   2119   2120     1  0.0000000  0.6508444  3
   2111   2110   2119   2121     1  0.0000000  0.6508444  3
   2112   2110   2119   2128     1  0.0000000  1.0460000  1
   2112   2110   2119   2128     1  0.0000000  0.0000000  3
   2112   2110   2119   2120     1  0.0000000  0.6508444  3
   2112   2110   2119   2121     1  0.0000000  0.6508444  3
   2113   2101   2100   2129     1  0.0000000  0.6508444  3
   2114   2113   2125   4318     1  0.0000000  1.0460000  1
   2114   2113   2125   4318     1  0.0000000  0.0000000  3
   2114   2113   2125   2126     1  0.0000000  0.6508444  3
   2114   2113   2125   2127     1  0.0000000  0.6508444  3
   2115   2113   2125   4318     1  0.0000000  1.0460000  1
   2115   2113   2125   4318     1  0.0000000  0.0000000  3
   2115   2113   2125   2126     1  0.0000000  0.6508444  3
   2115   2113   2125   2127     1  0.0000000  0.6508444  3
   2116   2104   2100   2129     1  0.0000000  0.6508444  3
   2117   2116   2122   4288     1  0.0000000  1.0460000  1
   2117   2116   2122   4288     1  0.0000000  0.0000000  3
   2117   2116   2122   2123     1  0.0000000  0.6508444  3
   2117   2116   2122   2124     1  0.0000000  0.6508444  3
   2118   2116   2122   4288     1  0.0000000  1.0460000  1
   2118   2116   2122   4288     1  0.0000000  0.0000000  3
   2118   2116   2122   2123     1  0.0000000  0.6508444  3
   2118   2116   2122   2124     1  0.0000000  0.6508444  3
   2122   4288   4279   4280     1  0.0000000  1.6038667  3
   2122   4288   4279   4281     1  0.0000000  1.6038667  3
   2123   2122   4288   4279     1  0.0000000  1.6038667  3
   2124   2122   4288   4279     1  0.0000000  1.6038667  3
   2125   4318   4309   4310     1  0.0000000  1.6038667  3
   2125   4318   4309   4311     1  0.0000000  1.6038667  3
   2126   2125   4318   4309     1  0.0000000  1.6038667  3
   2127   2125   4318   4309     1  0.0000000  1.6038667  3
   2130   2131   2143   2144     1  0.0000000  0.6508444  3
   2130   2131   2143   2145     1  0.0000000  0.6508444  3
   2130   2134   2146   2147     1  0.0000000  0.6508444  3
   2130   2134   2146   2148     1  0.0000000  0.6508444  3
   2130   2137   2140   2141     1  0.0000000  0.6508444  3
   2130   2137   2140   2142     1  0.0000000  0.6508444  3
   2131   2130   2134   2135     1  0.0000000  0.6508444  3
   2131   2130   2134   2136     1  0.0000000  0.6508444  3
   2131   2130   2137   2138     1  0.0000000  0.6508444  3
   2131   2130   2137   2139     1  0.0000000  0.6508444  3
   2131   2143   2155   2156     1  0.0000000  0.6508444  3
   2131   2143   2155   2157     1  0.0000000  0.6508444  3
   2132   2131   2130   2134     1  0.0000000  0.6508444  3
   2132   2131   2130   2137     1  0.0000000  0.6508444  3
   2132   2131   2130   2159     1  0.0000000  0.6508444  3
   2132   2131   2143   2155     1  0.0000000  0.6508444  3
   2132   2131   2143   2144     1  0.0000000  0.6508444  3
   2132   2131   2143   2145     1  0.0000000  0.6508444  3
   2133   2131   2130   2134     1  0.0000000  0.6508444  3
   2133   2131   2130   2137     1  0.0000000  0.6508444  3
   2133   2131   2130   2159     1  0.0000000  0.6508444  3
   2133   2131   2143   2155     1  0.0000000  0.6508444  3
   2133   2131   2143   2144     1  0.0000000  0.6508444  3
   2133   2131   2143   2145     1  0.0000000  0.6508444  3
   2134   2130   2137   2138     1  0.0000000  0.6508444  3
   2134   2130   2137   2139     1  0.0000000  0.6508444  3
   2134   2146   2152   2153     1  0.0000000  0.6508444  3
   2134   2146   2152   2154     1  0.0000000  0.6508444  3
   2135   2134   2130   2137     1  0.0000000  0.6508444  3
   2135   2134   2130   2159     1  0.0000000  0.6508444  3
   2135   2134   2146   2152     1  0.0000000  0.6508444  3
   2135   2134   2146   2147     1  0.0000000  0.6508444  3
   2135   2134   2146   2148     1  0.0000000  0.6508444  3
   2136   2134   2130   2137     1  0.0000000  0.6508444  3
   2136   2134   2130   2159     1  0.0000000  0.6508444  3
   2136   2134   2146   2152     1  0.0000000  0.6508444  3
   2136   2134   2146   2147     1  0.0000000  0.6508444  3
   2136   2134   2146   2148     1  0.0000000  0.6508444  3
   2137   2140   2149   2150     1  0.0000000  0.6508444  3
   2137   2140   2149   2151     1  0.0000000  0.6508444  3
   2138   2137   2130   2159     1  0.0000000  0.6508444  3
   2138   2137   2140   2149     1  0.0000000  0.6508444  3
   2138   2137   2140   2141     1  0.0000000  0.6508444  3
   2138   2137   2140   2142     1  0.0000000  0.6508444  3
   2139   2137   2130   2159     1  0.0000000  0.6508444  3
   2139   2137   2140   2149     1  0.0000000  0.6508444  3
   2139   2137   2140   2141     1  0.0000000  0.6508444  3
   2139   2137   2140   2142     1  0.0000000  0.6508444  3
   2140   2137   2130   2159     1  0.0000000  0.6508444  3
   2141   2140   2149   2158     1  0.0000000  1.0460000  1
   2141   2140   2149   2158     1  0.0000000  0.0000000  3
   2141   2140   2149   2150     1  0.0000000  0.6508444  3
   2141   2140   2149   2151     1  0.0000000  0.6508444  3
   2142   2140   2149   2158     1  0.0000000  1.0460000  1
   2142   2140   2149   2158     1  0.0000000  0.0000000  3
   2142   2140   2149   2150     1  0.0000000  0.6508444  3
   2142   2140   2149   2151     1  0.0000000  0.6508444  3
   2143   2131   2130   2159     1  0.0000000  0.6508444  3
   2144   2143   2155   4378     1  0.0000000  1.0460000  1
   2144   2143   2155   4378     1  0.0000000  0.0000000  3
   2144   2143   2155   2156     1  0.0000000  0.6508444  3
   2144   2143   2155   2157     1  0.0000000  0.6508444  3
   2145   2143   2155   4378     1  0.0000000  1.0460000  1
   2145   2143   2155   4378     1  0.0000000  0.0000000  3
   2145   2143   2155   2156     1  0.0000000  0.6508444  3
   2145   2143   2155   2157     1  0.0000000  0.6508444  3
   2146   2134   2130   2159     1  0.0000000  0.6508444  3
   2147   2146   2152   4348     1  0.0000000  1.0460000  1
   2147   2146   2152   4348     1  0.0000000  0.0000000  3
   2147   2146   2152   2153     1  0.0000000  0.6508444  3
   2147   2146   2152   2154     1  0.0000000  0.6508444  3
   2148   2146   2152   4348     1  0.0000000  1.0460000  1
   2148   2146   2152   4348     1  0.0000000  0.0000000  3
   2148   2146   2152   2153     1  0.0000000  0.6508444  3
   2148   2146   2152   2154     1  0.0000000  0.6508444  3
   2152   4348   4339   4340     1  0.0000000  1.6038667  3
   2152   4348   4339   4341     1  0.0000000  1.6038667  3
   2153   2152   4348   4339     1  0.0000000  1.6038667  3
   2154   2152   4348   4339     1  0.0000000  1.6038667  3
   2155   4378   4369   4370     1  0.0000000  1.6038667  3
   2155   4378   4369   4371     1  0.0000000  1.6038667  3
   2156   2155   4378   4369     1  0.0000000  1.6038667  3
   2157   2155   4378   4369     1  0.0000000  1.6038667  3
   2160   2161   2173   2174     1  0.0000000  0.6508444  3
   2160   2161   2173   2175     1  0.0000000  0.6508444  3
   2160   2164   2176   2177     1  0.0000000  0.6508444  3
   2160   2164   2176   2178     1  0.0000000  0.6508444  3
   2160   2167   2170   2171     1  0.0000000  0.6508444  3
   2160   2167   2170   2172     1  0.0000000  0.6508444  3
   2161   2160   2164   2165     1  0.0000000  0.6508444  3
   2161   2160   2164   2166     1  0.0000000  0.6508444  3
   2161   2160   2167   2168     1  0.0000000  0.6508444  3
   2161   2160   2167   2169     1  0.0000000  0.6508444  3
   2161   2173   2185   2186     1  0.0000000  0.6508444  3
   2161   2173   2185   2187     1  0.0000000  0.6508444  3
   2162   2161   2160   2164     1  0.0000000  0.6508444  3
   2162   2161   2160   2167     1  0.0000000  0.6508444  3
   2162   2161   2160   2189     1  0.0000000  0.6508444  3
   2162   2161   2173   2185     1  0.0000000  0.6508444  3
   2162   2161   2173   2174     1  0.0000000  0.6508444  3
   2162   2161   2173   2175     1  0.0000000  0.6508444  3
   2163   2161   2160   2164     1  0.0000000  0.6508444  3
   2163   2161   2160   2167     1  0.0000000  0.6508444  3
   2163   2161   2160   2189     1  0.0000000  0.6508444  3
   2163   2161   2173   2185     1  0.0000000  0.6508444  3
   2163   2161   2173   2174     1  0.0000000  0.6508444  3
   2163   2161   2173   2175     1  0.0000000  0.6508444  3
   2164   2160   2167   2168     1  0.0000000  0.6508444  3
   2164   2160   2167   2169     1  0.0000000  0.6508444  3
   2164   2176   2182   2183     1  0.0000000  0.6508444  3
   2164   2176   2182   2184     1  0.0000000  0.6508444  3
   2165   2164   2160   2167     1  0.0000000  0.6508444  3
   2165   2164   2160   2189     1  0.0000000  0.6508444  3
   2165   2164   2176   2182     1  0.0000000  0.6508444  3
   2165   2164   2176   2177     1  0.0000000  0.6508444  3
   2165   2164   2176   2178     1  0.0000000  0.6508444  3
   2166   2164   2160   2167     1  0.0000000  0.6508444  3
   2166   2164   2160   2189     1  0.0000000  0.6508444  3
   2166   2164   2176   2182     1  0.0000000  0.6508444  3
   2166   2164   2176   2177     1  0.0000000  0.6508444  3
   2166   2164   2176   2178     1  0.0000000  0.6508444  3
   2167   2170   2179   2180     1  0.0000000  0.6508444  3
   2167   2170   2179   2181     1  0.0000000  0.6508444  3
   2168   2167   2160   2189     1  0.0000000  0.6508444  3
   2168   2167   2170   2179     1  0.0000000  0.6508444  3
   2168   2167   2170   2171     1  0.0000000  0.6508444  3
   2168   2167   2170   2172     1  0.0000000  0.6508444  3
   2169   2167   2160   2189     1  0.0000000  0.6508444  3
   2169   2167   2170   2179     1  0.0000000  0.6508444  3
   2169   2167   2170   2171     1  0.0000000  0.6508444  3
   2169   2167   2170   2172     1  0.0000000  0.6508444  3
   2170   2167   2160   2189     1  0.0000000  0.6508444  3
   2171   2170   2179   2188     1  0.0000000  1.0460000  1
   2171   2170   2179   2188     1  0.0000000  0.0000000  3
   2171   2170   2179   2180     1  0.0000000  0.6508444  3
   2171   2170   2179   2181     1  0.0000000  0.6508444  3
   2172   2170   2179   2188     1  0.0000000  1.0460000  1
   2172   2170   2179   2188     1  0.0000000  0.0000000  3
   2172   2170   2179   2180     1  0.0000000  0.6508444  3
   2172   2170   2179   2181     1  0.0000000  0.6508444  3
   2173   2161   2160   2189     1  0.0000000  0.6508444  3
   2174   2173   2185   4438     1  0.0000000  1.0460000  1
   2174   2173   2185   4438     1  0.0000000  0.0000000  3
   2174   2173   2185   2186     1  0.0000000  0.6508444  3
   2174   2173   2185   2187     1  0.0000000  0.6508444  3
   2175   2173   2185   4438     1  0.0000000  1.0460000  1
   2175   2173   2185   4438     1  0.0000000  0.0000000  3
   2175   2173   2185   2186     1  0.0000000  0.6508444  3
   2175   2173   2185   2187     1  0.0000000  0.6508444  3
   2176   2164   2160   2189     1  0.0000000  0.6508444  3
   2177   2176   2182   4408     1  0.0000000  1.0460000  1
   2177   2176   2182   4408     1  0.0000000  0.0000000  3
   2177   2176   2182   2183     1  0.0000000  0.6508444  3
   2177   2176   2182   2184     1  0.0000000  0.6508444  3
   2178   2176   2182   4408     1  0.0000000  1.0460000  1
   2178   2176   2182   4408     1  0.0000000  0.0000000  3
   2178   2176   2182   2183     1  0.0000000  0.6508444  3
   2178   2176   2182   2184     1  0.0000000  0.6508444  3
   2182   4408   4399   4400     1  0.0000000  1.6038667  3
   2182   4408   4399   4401     1  0.0000000  1.6038667  3
   2183   2182   4408   4399     1  0.0000000  1.6038667  3
   2184   2182   4408   4399     1  0.0000000  1.6038667  3
   2185   4438   4429   4430     1  0.0000000  1.6038667  3
   2185   4438   4429   4431     1  0.0000000  1.6038667  3
   2186   2185   4438   4429     1  0.0000000  1.6038667  3
   2187   2185   4438   4429     1  0.0000000  1.6038667  3
   2190   2191   2203   2204     1  0.0000000  0.6508444  3
   2190   2191   2203   2205     1  0.0000000  0.6508444  3
   2190   2194   2206   2207     1  0.0000000  0.6508444  3
   2190   2194   2206   2208     1  0.0000000  0.6508444  3
   2190   2197   2200   2201     1  0.0000000  0.6508444  3
   2190   2197   2200   2202     1  0.0000000  0.6508444  3
   2191   2190   2194   2195     1  0.0000000  0.6508444  3
   2191   2190   2194   2196     1  0.0000000  0.6508444  3
   2191   2190   2197   2198     1  0.0000000  0.6508444  3
   2191   2190   2197   2199     1  0.0000000  0.6508444  3
   2191   2203   2215   2216     1  0.0000000  0.6508444  3
   2191   2203   2215   2217     1  0.0000000  0.6508444  3
   2192   2191   2190   2194     1  0.0000000  0.6508444  3
   2192   2191   2190   2197     1  0.0000000  0.6508444  3
   2192   2191   2190   2219     1  0.0000000  0.6508444  3
   2192   2191   2203   2215     1  0.0000000  0.6508444  3
   2192   2191   2203   2204     1  0.0000000  0.6508444  3
   2192   2191   2203   2205     1  0.0000000  0.6508444  3
   2193   2191   2190   2194     1  0.0000000  0.6508444  3
   2193   2191   2190   2197     1  0.0000000  0.6508444  3
   2193   2191   2190   2219     1  0.0000000  0.6508444  3
   2193   2191   2203   2215     1  0.0000000  0.6508444  3
   2193   2191   2203   2204     1  0.0000000  0.6508444  3
   2193   2191   2203   2205     1  0.0000000  0.6508444  3
   2194   2190   2197   2198     1  0.0000000  0.6508444  3
   2194   2190   2197   2199     1  0.0000000  0.6508444  3
   2194   2206   2212   2213     1  0.0000000  0.6508444  3
   2194   2206   2212   2214     1  0.0000000  0.6508444  3
   2195   2194   2190   2197     1  0.0000000  0.6508444  3
   2195   2194   2190   2219     1  0.0000000  0.6508444  3
   2195   2194   2206   2212     1  0.0000000  0.6508444  3
   2195   2194   2206   2207     1  0.0000000  0.6508444  3
   2195   2194   2206   2208     1  0.0000000  0.6508444  3
   2196   2194   2190   2197     1  0.0000000  0.6508444  3
   2196   2194   2190   2219     1  0.0000000  0.6508444  3
   2196   2194   2206   2212     1  0.0000000  0.6508444  3
   2196   2194   2206   2207     1  0.0000000  0.6508444  3
   2196   2194   2206   2208     1  0.0000000  0.6508444  3
   2197   2200   2209   2210     1  0.0000000  0.6508444  3
   2197   2200   2209   2211     1  0.0000000  0.6508444  3
   2198   2197   2190   2219     1  0.0000000  0.6508444  3
   2198   2197   2200   2209     1  0.0000000  0.6508444  3
   2198   2197   2200   2201     1  0.0000000  0.6508444  3
   2198   2197   2200   2202     1  0.0000000  0.6508444  3
   2199   2197   2190   2219     1  0.0000000  0.6508444  3
   2199   2197   2200   2209     1  0.0000000  0.6508444  3
   2199   2197   2200   2201     1  0.0000000  0.6508444  3
   2199   2197   2200   2202     1  0.0000000  0.6508444  3
   2200   2197   2190   2219     1  0.0000000  0.6508444  3
   2201   2200   2209   2218     1  0.0000000  1.0460000  1
   2201   2200   2209   2218     1  0.0000000  0.0000000  3
   2201   2200   2209   2210     1  0.0000000  0.6508444  3
   2201   2200   2209   2211     1  0.0000000  0.6508444  3
   2202   2200   2209   2218     1  0.0000000  1.0460000  1
   2202   2200   2209   2218     1  0.0000000  0.0000000  3
   2202   2200   2209   2210     1  0.0000000  0.6508444  3
   2202   2200   2209   2211     1  0.0000000  0.6508444  3
   2203   2191   2190   2219     1  0.0000000  0.6508444  3
   2204   2203   2215   4498     1  0.0000000  1.0460000  1
   2204   2203   2215   4498     1  0.0000000  0.0000000  3
   2204   2203   2215   2216     1  0.0000000  0.6508444  3
   2204   2203   2215   2217     1  0.0000000  0.6508444  3
   2205   2203   2215   4498     1  0.0000000  1.0460000  1
   2205   2203   2215   4498     1  0.0000000  0.0000000  3
   2205   2203   2215   2216     1  0.0000000  0.6508444  3
   2205   2203   2215   2217     1  0.0000000  0.6508444  3
   2206   2194   2190   2219     1  0.0000000  0.6508444  3
   2207   2206   2212   4468     1  0.0000000  1.0460000  1
   2207   2206   2212   4468     1  0.0000000  0.0000000  3
   2207   2206   2212   2213     1  0.0000000  0.6508444  3
   2207   2206   2212   2214     1  0.0000000  0.6508444  3
   2208   2206   2212   4468     1  0.0000000  1.0460000  1
   2208   2206   2212   4468     1  0.0000000  0.0000000  3
   2208   2206   2212   2213     1  0.0000000  0.6508444  3
   2208   2206   2212   2214     1  0.0000000  0.6508444  3
   2212   4468   4459   4460     1  0.0000000  1.6038667  3
   2212   4468   4459   4461     1  0.0000000  1.6038667  3
   2213   2212   4468   4459     1  0.0000000  1.6038667  3
   2214   2212   4468   4459     1  0.0000000  1.6038667  3
   2215   4498   4489   4490     1  0.0000000  1.6038667  3
   2215   4498   4489   4491     1  0.0000000  1.6038667  3
   2216   2215   4498   4489     1  0.0000000  1.6038667  3
   2217   2215   4498   4489     1  0.0000000  1.6038667  3
   2220   2221   2233   2234     1  0.0000000  0.6508444  3
   2220   2221   2233   2235     1  0.0000000  0.6508444  3
   2220   2224   2236   2237     1  0.0000000  0.6508444  3
   2220   2224   2236   2238     1  0.0000000  0.6508444  3
   2220   2227   2230   2231     1  0.0000000  0.6508444  3
   2220   2227   2230   2232     1  0.0000000  0.6508444  3
   2221   2220   2224   2225     1  0.0000000  0.6508444  3
   2221   2220   2224   2226     1  0.0000000  0.6508444  3
   2221   2220   2227   2228     1  0.0000000  0.6508444  3
   2221   2220   2227   2229     1  0.0000000  0.6508444  3
   2221   2233   2245   2246     1  0.0000000  0.6508444  3
   2221   2233   2245   2247     1  0.0000000  0.6508444  3
   2222   2221   2220   2224     1  0.0000000  0.6508444  3
   2222   2221   2220   2227     1  0.0000000  0.6508444  3
   2222   2221   2220   2249     1  0.0000000  0.6508444  3
   2222   2221   2233   2245     1  0.0000000  0.6508444  3
   2222   2221   2233   2234     1  0.0000000  0.6508444  3
   2222   2221   2233   2235     1  0.0000000  0.6508444  3
   2223   2221   2220   2224     1  0.0000000  0.6508444  3
   2223   2221   2220   2227     1  0.0000000  0.6508444  3
   2223   2221   2220   2249     1  0.0000000  0.6508444  3
   2223   2221   2233   2245     1  0.0000000  0.6508444  3
   2223   2221   2233   2234     1  0.0000000  0.6508444  3
   2223   2221   2233   2235     1  0.0000000  0.6508444  3
   2224   2220   2227   2228     1  0.0000000  0.6508444  3
   2224   2220   2227   2229     1  0.0000000  0.6508444  3
   2224   2236   2242   2243     1  0.0000000  0.6508444  3
   2224   2236   2242   2244     1  0.0000000  0.6508444  3
   2225   2224   2220   2227     1  0.0000000  0.6508444  3
   2225   2224   2220   2249     1  0.0000000  0.6508444  3
   2225   2224   2236   2242     1  0.0000000  0.6508444  3
   2225   2224   2236   2237     1  0.0000000  0.6508444  3
   2225   2224   2236   2238     1  0.0000000  0.6508444  3
   2226   2224   2220   2227     1  0.0000000  0.6508444  3
   2226   2224   2220   2249     1  0.0000000  0.6508444  3
   2226   2224   2236   2242     1  0.0000000  0.6508444  3
   2226   2224   2236   2237     1  0.0000000  0.6508444  3
   2226   2224   2236   2238     1  0.0000000  0.6508444  3
   2227   2230   2239   2240     1  0.0000000  0.6508444  3
   2227   2230   2239   2241     1  0.0000000  0.6508444  3
   2228   2227   2220   2249     1  0.0000000  0.6508444  3
   2228   2227   2230   2239     1  0.0000000  0.6508444  3
   2228   2227   2230   2231     1  0.0000000  0.6508444  3
   2228   2227   2230   2232     1  0.0000000  0.6508444  3
   2229   2227   2220   2249     1  0.0000000  0.6508444  3
   2229   2227   2230   2239     1  0.0000000  0.6508444  3
   2229   2227   2230   2231     1  0.0000000  0.6508444  3
   2229   2227   2230   2232     1  0.0000000  0.6508444  3
   2230   2227   2220   2249     1  0.0000000  0.6508444  3
   2231   2230   2239   2248     1  0.0000000  1.0460000  1
   2231   2230   2239   2248     1  0.0000000  0.0000000  3
   2231   2230   2239   2240     1  0.0000000  0.6508444  3
   2231   2230   2239   2241     1  0.0000000  0.6508444  3
   2232   2230   2239   2248     1  0.0000000  1.0460000  1
   2232   2230   2239   2248     1  0.0000000  0.0000000  3
   2232   2230   2239   2240     1  0.0000000  0.6508444  3
   2232   2230   2239   2241     1  0.0000000  0.6508444  3
   2233   2221   2220   2249     1  0.0000000  0.6508444  3
   2234   2233   2245   4558     1  0.0000000  1.0460000  1
   2234   2233   2245   4558     1  0.0000000  0.0000000  3
   2234   2233   2245   2246     1  0.0000000  0.6508444  3
   2234   2233   2245   2247     1  0.0000000  0.6508444  3
   2235   2233   2245   4558     1  0.0000000  1.0460000  1
   2235   2233   2245   4558     1  0.0000000  0.0000000  3
   2235   2233   2245   2246     1  0.0000000  0.6508444  3
   2235   2233   2245   2247     1  0.0000000  0.6508444  3
   2236   2224   2220   2249     1  0.0000000  0.6508444  3
   2237   2236   2242   4528     1  0.0000000  1.0460000  1
   2237   2236   2242   4528     1  0.0000000  0.0000000  3
   2237   2236   2242   2243     1  0.0000000  0.6508444  3
   2237   2236   2242   2244     1  0.0000000  0.6508444  3
   2238   2236   2242   4528     1  0.0000000  1.0460000  1
   2238   2236   2242   4528     1  0.0000000  0.0000000  3
   2238   2236   2242   2243     1  0.0000000  0.6508444  3
   2238   2236   2242   2244     1  0.0000000  0.6508444  3
   2242   4528   4519   4520     1  0.0000000  1.6038667  3
   2242   4528   4519   4521     1  0.0000000  1.6038667  3
   2243   2242   4528   4519     1  0.0000000  1.6038667  3
   2244   2242   4528   4519     1  0.0000000  1.6038667  3
   2245   4558   4549   4550     1  0.0000000  1.6038667  3
   2245   4558   4549   4551     1  0.0000000  1.6038667  3
   2246   2245   4558   4549     1  0.0000000  1.6038667  3
   2247   2245   4558   4549     1  0.0000000  1.6038667  3
   2250   2251   2263   2264     1  0.0000000  0.6508444  3
   2250   2251   2263   2265     1  0.0000000  0.6508444  3
   2250   2254   2266   2267     1  0.0000000  0.6508444  3
   2250   2254   2266   2268     1  0.0000000  0.6508444  3
   2250   2257   2260   2261     1  0.0000000  0.6508444  3
   2250   2257   2260   2262     1  0.0000000  0.6508444  3
   2251   2250   2254   2255     1  0.0000000  0.6508444  3
   2251   2250   2254   2256     1  0.0000000  0.6508444  3
   2251   2250   2257   2258     1  0.0000000  0.6508444  3
   2251   2250   2257   2259     1  0.0000000  0.6508444  3
   2251   2263   2275   2276     1  0.0000000  0.6508444  3
   2251   2263   2275   2277     1  0.0000000  0.6508444  3
   2252   2251   2250   2254     1  0.0000000  0.6508444  3
   2252   2251   2250   2257     1  0.0000000  0.6508444  3
   2252   2251   2250   2279     1  0.0000000  0.6508444  3
   2252   2251   2263   2275     1  0.0000000  0.6508444  3
   2252   2251   2263   2264     1  0.0000000  0.6508444  3
   2252   2251   2263   2265     1  0.0000000  0.6508444  3
   2253   2251   2250   2254     1  0.0000000  0.6508444  3
   2253   2251   2250   2257     1  0.0000000  0.6508444  3
   2253   2251   2250   2279     1  0.0000000  0.6508444  3
   2253   2251   2263   2275     1  0.0000000  0.6508444  3
   2253   2251   2263   2264     1  0.0000000  0.6508444  3
   2253   2251   2263   2265     1  0.0000000  0.6508444  3
   2254   2250   2257   2258     1  0.0000000  0.6508444  3
   2254   2250   2257   2259     1  0.0000000  0.6508444  3
   2254   2266   2272   2273     1  0.0000000  0.6508444  3
   2254   2266   2272   2274     1  0.0000000  0.6508444  3
   2255   2254   2250   2257     1  0.0000000  0.6508444  3
   2255   2254   2250   2279     1  0.0000000  0.6508444  3
   2255   2254   2266   2272     1  0.0000000  0.6508444  3
   2255   2254   2266   2267     1  0.0000000  0.6508444  3
   2255   2254   2266   2268     1  0.0000000  0.6508444  3
   2256   2254   2250   2257     1  0.0000000  0.6508444  3
   2256   2254   2250   2279     1  0.0000000  0.6508444  3
   2256   2254   2266   2272     1  0.0000000  0.6508444  3
   2256   2254   2266   2267     1  0.0000000  0.6508444  3
   2256   2254   2266   2268     1  0.0000000  0.6508444  3
   2257   2260   2269   2270     1  0.0000000  0.6508444  3
   2257   2260   2269   2271     1  0.0000000  0.6508444  3
   2258   2257   2250   2279     1  0.0000000  0.6508444  3
   2258   2257   2260   2269     1  0.0000000  0.6508444  3
   2258   2257   2260   2261     1  0.0000000  0.6508444  3
   2258   2257   2260   2262     1  0.0000000  0.6508444  3
   2259   2257   2250   2279     1  0.0000000  0.6508444  3
   2259   2257   2260   2269     1  0.0000000  0.6508444  3
   2259   2257   2260   2261     1  0.0000000  0.6508444  3
   2259   2257   2260   2262     1  0.0000000  0.6508444  3
   2260   2257   2250   2279     1  0.0000000  0.6508444  3
   2261   2260   2269   2278     1  0.0000000  1.0460000  1
   2261   2260   2269   2278     1  0.0000000  0.0000000  3
   2261   2260   2269   2270     1  0.0000000  0.6508444  3
   2261   2260   2269   2271     1  0.0000000  0.6508444  3
   2262   2260   2269   2278     1  0.0000000  1.0460000  1
   2262   2260   2269   2278     1  0.0000000  0.0000000  3
   2262   2260   2269   2270     1  0.0000000  0.6508444  3
   2262   2260   2269   2271     1  0.0000000  0.6508444  3
   2263   2251   2250   2279     1  0.0000000  0.6508444  3
   2264   2263   2275   4618     1  0.0000000  1.0460000  1
   2264   2263   2275   4618     1  0.0000000  0.0000000  3
   2264   2263   2275   2276     1  0.0000000  0.6508444  3
   2264   2263   2275   2277     1  0.0000000  0.6508444  3
   2265   2263   2275   4618     1  0.0000000  1.0460000  1
   2265   2263   2275   4618     1  0.0000000  0.0000000  3
   2265   2263   2275   2276     1  0.0000000  0.6508444  3
   2265   2263   2275   2277     1  0.0000000  0.6508444  3
   2266   2254   2250   2279     1  0.0000000  0.6508444  3
   2267   2266   2272   4588     1  0.0000000  1.0460000  1
   2267   2266   2272   4588     1  0.0000000  0.0000000  3
   2267   2266   2272   2273     1  0.0000000  0.6508444  3
   2267   2266   2272   2274     1  0.0000000  0.6508444  3
   2268   2266   2272   4588     1  0.0000000  1.0460000  1
   2268   2266   2272   4588     1  0.0000000  0.0000000  3
   2268   2266   2272   2273     1  0.0000000  0.6508444  3
   2268   2266   2272   2274     1  0.0000000  0.6508444  3
   2272   4588   4579   4580     1  0.0000000  1.6038667  3
   2272   4588   4579   4581     1  0.0000000  1.6038667  3
   2273   2272   4588   4579     1  0.0000000  1.6038667  3
   2274   2272   4588   4579     1  0.0000000  1.6038667  3
   2275   4618   4609   4610     1  0.0000000  1.6038667  3
   2275   4618   4609   4611     1  0.0000000  1.6038667  3
   2276   2275   4618   4609     1  0.0000000  1.6038667  3
   2277   2275   4618   4609     1  0.0000000  1.6038667  3
   2280   2281   2293   2294     1  0.0000000  0.6508444  3
   2280   2281   2293   2295     1  0.0000000  0.6508444  3
   2280   2284   2296   2297     1  0.0000000  0.6508444  3
   2280   2284   2296   2298     1  0.0000000  0.6508444  3
   2280   2287   2290   2291     1  0.0000000  0.6508444  3
   2280   2287   2290   2292     1  0.0000000  0.6508444  3
   2281   2280   2284   2285     1  0.0000000  0.6508444  3
   2281   2280   2284   2286     1  0.0000000  0.6508444  3
   2281   2280   2287   2288     1  0.0000000  0.6508444  3
   2281   2280   2287   2289     1  0.0000000  0.6508444  3
   2281   2293   2305   2306     1  0.0000000  0.6508444  3
   2281   2293   2305   2307     1  0.0000000  0.6508444  3
   2282   2281   2280   2284     1  0.0000000  0.6508444  3
   2282   2281   2280   2287     1  0.0000000  0.6508444  3
   2282   2281   2280   2309     1  0.0000000  0.6508444  3
   2282   2281   2293   2305     1  0.0000000  0.6508444  3
   2282   2281   2293   2294     1  0.0000000  0.6508444  3
   2282   2281   2293   2295     1  0.0000000  0.6508444  3
   2283   2281   2280   2284     1  0.0000000  0.6508444  3
   2283   2281   2280   2287     1  0.0000000  0.6508444  3
   2283   2281   2280   2309     1  0.0000000  0.6508444  3
   2283   2281   2293   2305     1  0.0000000  0.6508444  3
   2283   2281   2293   2294     1  0.0000000  0.6508444  3
   2283   2281   2293   2295     1  0.0000000  0.6508444  3
   2284   2280   2287   2288     1  0.0000000  0.6508444  3
   2284   2280   2287   2289     1  0.0000000  0.6508444  3
   2284   2296   2302   2303     1  0.0000000  0.6508444  3
   2284   2296   2302   2304     1  0.0000000  0.6508444  3
   2285   2284   2280   2287     1  0.0000000  0.6508444  3
   2285   2284   2280   2309     1  0.0000000  0.6508444  3
   2285   2284   2296   2302     1  0.0000000  0.6508444  3
   2285   2284   2296   2297     1  0.0000000  0.6508444  3
   2285   2284   2296   2298     1  0.0000000  0.6508444  3
   2286   2284   2280   2287     1  0.0000000  0.6508444  3
   2286   2284   2280   2309     1  0.0000000  0.6508444  3
   2286   2284   2296   2302     1  0.0000000  0.6508444  3
   2286   2284   2296   2297     1  0.0000000  0.6508444  3
   2286   2284   2296   2298     1  0.0000000  0.6508444  3
   2287   2290   2299   2300     1  0.0000000  0.6508444  3
   2287   2290   2299   2301     1  0.0000000  0.6508444  3
   2288   2287   2280   2309     1  0.0000000  0.6508444  3
   2288   2287   2290   2299     1  0.0000000  0.6508444  3
   2288   2287   2290   2291     1  0.0000000  0.6508444  3
   2288   2287   2290   2292     1  0.0000000  0.6508444  3
   2289   2287   2280   2309     1  0.0000000  0.6508444  3
   2289   2287   2290   2299     1  0.0000000  0.6508444  3
   2289   2287   2290   2291     1  0.0000000  0.6508444  3
   2289   2287   2290   2292     1  0.0000000  0.6508444  3
   2290   2287   2280   2309     1  0.0000000  0.6508444  3
   2291   2290   2299   2308     1  0.0000000  1.0460000  1
   2291   2290   2299   2308     1  0.0000000  0.0000000  3
   2291   2290   2299   2300     1  0.0000000  0.6508444  3
   2291   2290   2299   2301     1  0.0000000  0.6508444  3
   2292   2290   2299   2308     1  0.0000000  1.0460000  1
   2292   2290   2299   2308     1  0.0000000  0.0000000  3
   2292   2290   2299   2300     1  0.0000000  0.6508444  3
   2292   2290   2299   2301     1  0.0000000  0.6508444  3
   2293   2281   2280   2309     1  0.0000000  0.6508444  3
   2294   2293   2305   4678     1  0.0000000  1.0460000  1
   2294   2293   2305   4678     1  0.0000000  0.0000000  3
   2294   2293   2305   2306     1  0.0000000  0.6508444  3
   2294   2293   2305   2307     1  0.0000000  0.6508444  3
   2295   2293   2305   4678     1  0.0000000  1.0460000  1
   2295   2293   2305   4678     1  0.0000000  0.0000000  3
   2295   2293   2305   2306     1  0.0000000  0.6508444  3
   2295   2293   2305   2307     1  0.0000000  0.6508444  3
   2296   2284   2280   2309     1  0.0000000  0.6508444  3
   2297   2296   2302   4648     1  0.0000000  1.0460000  1
   2297   2296   2302   4648     1  0.0000000  0.0000000  3
   2297   2296   2302   2303     1  0.0000000  0.6508444  3
   2297   2296   2302   2304     1  0.0000000  0.6508444  3
   2298   2296   2302   4648     1  0.0000000  1.0460000  1
   2298   2296   2302   4648     1  0.0000000  0.0000000  3
   2298   2296   2302   2303     1  0.0000000  0.6508444  3
   2298   2296   2302   2304     1  0.0000000  0.6508444  3
   2302   4648   4639   4640     1  0.0000000  1.6038667  3
   2302   4648   4639   4641     1  0.0000000  1.6038667  3
   2303   2302   4648   4639     1  0.0000000  1.6038667  3
   2304   2302   4648   4639     1  0.0000000  1.6038667  3
   2305   4678   4669   4670     1  0.0000000  1.6038667  3
   2305   4678   4669   4671     1  0.0000000  1.6038667  3
   2306   2305   4678   4669     1  0.0000000  1.6038667  3
   2307   2305   4678   4669     1  0.0000000  1.6038667  3
   2310   2311   2323   2324     1  0.0000000  0.6508444  3
   2310   2311   2323   2325     1  0.0000000  0.6508444  3
   2310   2314   2326   2327     1  0.0000000  0.6508444  3
   2310   2314   2326   2328     1  0.0000000  0.6508444  3
   2310   2317   2320   2321     1  0.0000000  0.6508444  3
   2310   2317   2320   2322     1  0.0000000  0.6508444  3
   2311   2310   2314   2315     1  0.0000000  0.6508444  3
   2311   2310   2314   2316     1  0.0000000  0.6508444  3
   2311   2310   2317   2318     1  0.0000000  0.6508444  3
   2311   2310   2317   2319     1  0.0000000  0.6508444  3
   2311   2323   2335   2336     1  0.0000000  0.6508444  3
   2311   2323   2335   2337     1  0.0000000  0.6508444  3
   2312   2311   2310   2314     1  0.0000000  0.6508444  3
   2312   2311   2310   2317     1  0.0000000  0.6508444  3
   2312   2311   2310   2339     1  0.0000000  0.6508444  3
   2312   2311   2323   2335     1  0.0000000  0.6508444  3
   2312   2311   2323   2324     1  0.0000000  0.6508444  3
   2312   2311   2323   2325     1  0.0000000  0.6508444  3
   2313   2311   2310   2314     1  0.0000000  0.6508444  3
   2313   2311   2310   2317     1  0.0000000  0.6508444  3
   2313   2311   2310   2339     1  0.0000000  0.6508444  3
   2313   2311   2323   2335     1  0.0000000  0.6508444  3
   2313   2311   2323   2324     1  0.0000000  0.6508444  3
   2313   2311   2323   2325     1  0.0000000  0.6508444  3
   2314   2310   2317   2318     1  0.0000000  0.6508444  3
   2314   2310   2317   2319     1  0.0000000  0.6508444  3
   2314   2326   2332   2333     1  0.0000000  0.6508444  3
   2314   2326   2332   2334     1  0.0000000  0.6508444  3
   2315   2314   2310   2317     1  0.0000000  0.6508444  3
   2315   2314   2310   2339     1  0.0000000  0.6508444  3
   2315   2314   2326   2332     1  0.0000000  0.6508444  3
   2315   2314   2326   2327     1  0.0000000  0.6508444  3
   2315   2314   2326   2328     1  0.0000000  0.6508444  3
   2316   2314   2310   2317     1  0.0000000  0.6508444  3
   2316   2314   2310   2339     1  0.0000000  0.6508444  3
   2316   2314   2326   2332     1  0.0000000  0.6508444  3
   2316   2314   2326   2327     1  0.0000000  0.6508444  3
   2316   2314   2326   2328     1  0.0000000  0.6508444  3
   2317   2320   2329   2330     1  0.0000000  0.6508444  3
   2317   2320   2329   2331     1  0.0000000  0.6508444  3
   2318   2317   2310   2339     1  0.0000000  0.6508444  3
   2318   2317   2320   2329     1  0.0000000  0.6508444  3
   2318   2317   2320   2321     1  0.0000000  0.6508444  3
   2318   2317   2320   2322     1  0.0000000  0.6508444  3
   2319   2317   2310   2339     1  0.0000000  0.6508444  3
   2319   2317   2320   2329     1  0.0000000  0.6508444  3
   2319   2317   2320   2321     1  0.0000000  0.6508444  3
   2319   2317   2320   2322     1  0.0000000  0.6508444  3
   2320   2317   2310   2339     1  0.0000000  0.6508444  3
   2321   2320   2329   2338     1  0.0000000  1.0460000  1
   2321   2320   2329   2338     1  0.0000000  0.0000000  3
   2321   2320   2329   2330     1  0.0000000  0.6508444  3
   2321   2320   2329   2331     1  0.0000000  0.6508444  3
   2322   2320   2329   2338     1  0.0000000  1.0460000  1
   2322   2320   2329   2338     1  0.0000000  0.0000000  3
   2322   2320   2329   2330     1  0.0000000  0.6508444  3
   2322   2320   2329   2331     1  0.0000000  0.6508444  3
   2323   2311   2310   2339     1  0.0000000  0.6508444  3
   2324   2323   2335   4738     1  0.0000000  1.0460000  1
   2324   2323   2335   4738     1  0.0000000  0.0000000  3
   2324   2323   2335   2336     1  0.0000000  0.6508444  3
   2324   2323   2335   2337     1  0.0000000  0.6508444  3
   2325   2323   2335   4738     1  0.0000000  1.0460000  1
   2325   2323   2335   4738     1  0.0000000  0.0000000  3
   2325   2323   2335   2336     1  0.0000000  0.6508444  3
   2325   2323   2335   2337     1  0.0000000  0.6508444  3
   2326   2314   2310   2339     1  0.0000000  0.6508444  3
   2327   2326   2332   4708     1  0.0000000  1.0460000  1
   2327   2326   2332   4708     1  0.0000000  0.0000000  3
   2327   2326   2332   2333     1  0.0000000  0.6508444  3
   2327   2326   2332   2334     1  0.0000000  0.6508444  3
   2328   2326   2332   4708     1  0.0000000  1.0460000  1
   2328   2326   2332   4708     1  0.0000000  0.0000000  3
   2328   2326   2332   2333     1  0.0000000  0.6508444  3
   2328   2326   2332   2334     1  0.0000000  0.6508444  3
   2332   4708   4699   4700     1  0.0000000  1.6038667  3
   2332   4708   4699   4701     1  0.0000000  1.6038667  3
   2333   2332   4708   4699     1  0.0000000  1.6038667  3
   2334   2332   4708   4699     1  0.0000000  1.6038667  3
   2335   4738   4729   4730     1  0.0000000  1.6038667  3
   2335   4738   4729   4731     1  0.0000000  1.6038667  3
   2336   2335   4738   4729     1  0.0000000  1.6038667  3
   2337   2335   4738   4729     1  0.0000000  1.6038667  3
   2340   2341   2353   2354     1  0.0000000  0.6508444  3
   2340   2341   2353   2355     1  0.0000000  0.6508444  3
   2340   2344   2356   2357     1  0.0000000  0.6508444  3
   2340   2344   2356   2358     1  0.0000000  0.6508444  3
   2340   2347   2350   2351     1  0.0000000  0.6508444  3
   2340   2347   2350   2352     1  0.0000000  0.6508444  3
   2341   2340   2344   2345     1  0.0000000  0.6508444  3
   2341   2340   2344   2346     1  0.0000000  0.6508444  3
   2341   2340   2347   2348     1  0.0000000  0.6508444  3
   2341   2340   2347   2349     1  0.0000000  0.6508444  3
   2341   2353   2365   2366     1  0.0000000  0.6508444  3
   2341   2353   2365   2367     1  0.0000000  0.6508444  3
   2342   2341   2340   2344     1  0.0000000  0.6508444  3
   2342   2341   2340   2347     1  0.0000000  0.6508444  3
   2342   2341   2340   2369     1  0.0000000  0.6508444  3
   2342   2341   2353   2365     1  0.0000000  0.6508444  3
   2342   2341   2353   2354     1  0.0000000  0.6508444  3
   2342   2341   2353   2355     1  0.0000000  0.6508444  3
   2343   2341   2340   2344     1  0.0000000  0.6508444  3
   2343   2341   2340   2347     1  0.0000000  0.6508444  3
   2343   2341   2340   2369     1  0.0000000  0.6508444  3
   2343   2341   2353   2365     1  0.0000000  0.6508444  3
   2343   2341   2353   2354     1  0.0000000  0.6508444  3
   2343   2341   2353   2355     1  0.0000000  0.6508444  3
   2344   2340   2347   2348     1  0.0000000  0.6508444  3
   2344   2340   2347   2349     1  0.0000000  0.6508444  3
   2344   2356   2362   2363     1  0.0000000  0.6508444  3
   2344   2356   2362   2364     1  0.0000000  0.6508444  3
   2345   2344   2340   2347     1  0.0000000  0.6508444  3
   2345   2344   2340   2369     1  0.0000000  0.6508444  3
   2345   2344   2356   2362     1  0.0000000  0.6508444  3
   2345   2344   2356   2357     1  0.0000000  0.6508444  3
   2345   2344   2356   2358     1  0.0000000  0.6508444  3
   2346   2344   2340   2347     1  0.0000000  0.6508444  3
   2346   2344   2340   2369     1  0.0000000  0.6508444  3
   2346   2344   2356   2362     1  0.0000000  0.6508444  3
   2346   2344   2356   2357     1  0.0000000  0.6508444  3
   2346   2344   2356   2358     1  0.0000000  0.6508444  3
   2347   2350   2359   2360     1  0.0000000  0.6508444  3
   2347   2350   2359   2361     1  0.0000000  0.6508444  3
   2348   2347   2340   2369     1  0.0000000  0.6508444  3
   2348   2347   2350   2359     1  0.0000000  0.6508444  3
   2348   2347   2350   2351     1  0.0000000  0.6508444  3
   2348   2347   2350   2352     1  0.0000000  0.6508444  3
   2349   2347   2340   2369     1  0.0000000  0.6508444  3
   2349   2347   2350   2359     1  0.0000000  0.6508444  3
   2349   2347   2350   2351     1  0.0000000  0.6508444  3
   2349   2347   2350   2352     1  0.0000000  0.6508444  3
   2350   2347   2340   2369     1  0.0000000  0.6508444  3
   2351   2350   2359   2368     1  0.0000000  1.0460000  1
   2351   2350   2359   2368     1  0.0000000  0.0000000  3
   2351   2350   2359   2360     1  0.0000000  0.6508444  3
   2351   2350   2359   2361     1  0.0000000  0.6508444  3
   2352   2350   2359   2368     1  0.0000000  1.0460000  1
   2352   2350   2359   2368     1  0.0000000  0.0000000  3
   2352   2350   2359   2360     1  0.0000000  0.6508444  3
   2352   2350   2359   2361     1  0.0000000  0.6508444  3
   2353   2341   2340   2369     1  0.0000000  0.6508444  3
   2354   2353   2365   4798     1  0.0000000  1.0460000  1
   2354   2353   2365   4798     1  0.0000000  0.0000000  3
   2354   2353   2365   2366     1  0.0000000  0.6508444  3
   2354   2353   2365   2367     1  0.0000000  0.6508444  3
   2355   2353   2365   4798     1  0.0000000  1.0460000  1
   2355   2353   2365   4798     1  0.0000000  0.0000000  3
   2355   2353   2365   2366     1  0.0000000  0.6508444  3
   2355   2353   2365   2367     1  0.0000000  0.6508444  3
   2356   2344   2340   2369     1  0.0000000  0.6508444  3
   2357   2356   2362   4768     1  0.0000000  1.0460000  1
   2357   2356   2362   4768     1  0.0000000  0.0000000  3
   2357   2356   2362   2363     1  0.0000000  0.6508444  3
   2357   2356   2362   2364     1  0.0000000  0.6508444  3
   2358   2356   2362   4768     1  0.0000000  1.0460000  1
   2358   2356   2362   4768     1  0.0000000  0.0000000  3
   2358   2356   2362   2363     1  0.0000000  0.6508444  3
   2358   2356   2362   2364     1  0.0000000  0.6508444  3
   2362   4768   4759   4760     1  0.0000000  1.6038667  3
   2362   4768   4759   4761     1  0.0000000  1.6038667  3
   2363   2362   4768   4759     1  0.0000000  1.6038667  3
   2364   2362   4768   4759     1  0.0000000  1.6038667  3
   2365   4798   4789   4790     1  0.0000000  1.6038667  3
   2365   4798   4789   4791     1  0.0000000  1.6038667  3
   2366   2365   4798   4789     1  0.0000000  1.6038667  3
   2367   2365   4798   4789     1  0.0000000  1.6038667  3
   2370   2371   2383   2384     1  0.0000000  0.6508444  3
   2370   2371   2383   2385     1  0.0000000  0.6508444  3
   2370   2374   2386   2387     1  0.0000000  0.6508444  3
   2370   2374   2386   2388     1  0.0000000  0.6508444  3
   2370   2377   2380   2381     1  0.0000000  0.6508444  3
   2370   2377   2380   2382     1  0.0000000  0.6508444  3
   2371   2370   2374   2375     1  0.0000000  0.6508444  3
   2371   2370   2374   2376     1  0.0000000  0.6508444  3
   2371   2370   2377   2378     1  0.0000000  0.6508444  3
   2371   2370   2377   2379     1  0.0000000  0.6508444  3
   2371   2383   2395   2396     1  0.0000000  0.6508444  3
   2371   2383   2395   2397     1  0.0000000  0.6508444  3
   2372   2371   2370   2374     1  0.0000000  0.6508444  3
   2372   2371   2370   2377     1  0.0000000  0.6508444  3
   2372   2371   2370   2399     1  0.0000000  0.6508444  3
   2372   2371   2383   2395     1  0.0000000  0.6508444  3
   2372   2371   2383   2384     1  0.0000000  0.6508444  3
   2372   2371   2383   2385     1  0.0000000  0.6508444  3
   2373   2371   2370   2374     1  0.0000000  0.6508444  3
   2373   2371   2370   2377     1  0.0000000  0.6508444  3
   2373   2371   2370   2399     1  0.0000000  0.6508444  3
   2373   2371   2383   2395     1  0.0000000  0.6508444  3
   2373   2371   2383   2384     1  0.0000000  0.6508444  3
   2373   2371   2383   2385     1  0.0000000  0.6508444  3
   2374   2370   2377   2378     1  0.0000000  0.6508444  3
   2374   2370   2377   2379     1  0.0000000  0.6508444  3
   2374   2386   2392   2393     1  0.0000000  0.6508444  3
   2374   2386   2392   2394     1  0.0000000  0.6508444  3
   2375   2374   2370   2377     1  0.0000000  0.6508444  3
   2375   2374   2370   2399     1  0.0000000  0.6508444  3
   2375   2374   2386   2392     1  0.0000000  0.6508444  3
   2375   2374   2386   2387     1  0.0000000  0.6508444  3
   2375   2374   2386   2388     1  0.0000000  0.6508444  3
   2376   2374   2370   2377     1  0.0000000  0.6508444  3
   2376   2374   2370   2399     1  0.0000000  0.6508444  3
   2376   2374   2386   2392     1  0.0000000  0.6508444  3
   2376   2374   2386   2387     1  0.0000000  0.6508444  3
   2376   2374   2386   2388     1  0.0000000  0.6508444  3
   2377   2380   2389   2390     1  0.0000000  0.6508444  3
   2377   2380   2389   2391     1  0.0000000  0.6508444  3
   2378   2377   2370   2399     1  0.0000000  0.6508444  3
   2378   2377   2380   2389     1  0.0000000  0.6508444  3
   2378   2377   2380   2381     1  0.0000000  0.6508444  3
   2378   2377   2380   2382     1  0.0000000  0.6508444  3
   2379   2377   2370   2399     1  0.0000000  0.6508444  3
   2379   2377   2380   2389     1  0.0000000  0.6508444  3
   2379   2377   2380   2381     1  0.0000000  0.6508444  3
   2379   2377   2380   2382     1  0.0000000  0.6508444  3
   2380   2377   2370   2399     1  0.0000000  0.6508444  3
   2381   2380   2389   2398     1  0.0000000  1.0460000  1
   2381   2380   2389   2398     1  0.0000000  0.0000000  3
   2381   2380   2389   2390     1  0.0000000  0.6508444  3
   2381   2380   2389   2391     1  0.0000000  0.6508444  3
   2382   2380   2389   2398     1  0.0000000  1.0460000  1
   2382   2380   2389   2398     1  0.0000000  0.0000000  3
   2382   2380   2389   2390     1  0.0000000  0.6508444  3
   2382   2380   2389   2391     1  0.0000000  0.6508444  3
   2383   2371   2370   2399     1  0.0000000  0.6508444  3
   2384   2383   2395   4858     1  0.0000000  1.0460000  1
   2384   2383   2395   4858     1  0.0000000  0.0000000  3
   2384   2383   2395   2396     1  0.0000000  0.6508444  3
   2384   2383   2395   2397     1  0.0000000  0.6508444  3
   2385   2383   2395   4858     1  0.0000000  1.0460000  1
   2385   2383   2395   4858     1  0.0000000  0.0000000  3
   2385   2383   2395   2396     1  0.0000000  0.6508444  3
   2385   2383   2395   2397     1  0.0000000  0.6508444  3
   2386   2374   2370   2399     1  0.0000000  0.6508444  3
   2387   2386   2392   4828     1  0.0000000  1.0460000  1
   2387   2386   2392   4828     1  0.0000000  0.0000000  3
   2387   2386   2392   2393     1  0.0000000  0.6508444  3
   2387   2386   2392   2394     1  0.0000000  0.6508444  3
   2388   2386   2392   4828     1  0.0000000  1.0460000  1
   2388   2386   2392   4828     1  0.0000000  0.0000000  3
   2388   2386   2392   2393     1  0.0000000  0.6508444  3
   2388   2386   2392   2394     1  0.0000000  0.6508444  3
   2392   4828   4819   4820     1  0.0000000  1.6038667  3
   2392   4828   4819   4821     1  0.0000000  1.6038667  3
   2393   2392   4828   4819     1  0.0000000  1.6038667  3
   2394   2392   4828   4819     1  0.0000000  1.6038667  3
   2395   4858   4849   4850     1  0.0000000  1.6038667  3
   2395   4858   4849   4851     1  0.0000000  1.6038667  3
   2396   2395   4858   4849     1  0.0000000  1.6038667  3
   2397   2395   4858   4849     1  0.0000000  1.6038667  3
   2400   2401   2413   2414     1  0.0000000  0.6508444  3
   2400   2401   2413   2415     1  0.0000000  0.6508444  3
   2400   2404   2416   2417     1  0.0000000  0.6508444  3
   2400   2404   2416   2418     1  0.0000000  0.6508444  3
   2400   2407   2410   2411     1  0.0000000  0.6508444  3
   2400   2407   2410   2412     1  0.0000000  0.6508444  3
   2401   2400   2404   2405     1  0.0000000  0.6508444  3
   2401   2400   2404   2406     1  0.0000000  0.6508444  3
   2401   2400   2407   2408     1  0.0000000  0.6508444  3
   2401   2400   2407   2409     1  0.0000000  0.6508444  3
   2401   2413   2425   2426     1  0.0000000  0.6508444  3
   2401   2413   2425   2427     1  0.0000000  0.6508444  3
   2402   2401   2400   2404     1  0.0000000  0.6508444  3
   2402   2401   2400   2407     1  0.0000000  0.6508444  3
   2402   2401   2400   2429     1  0.0000000  0.6508444  3
   2402   2401   2413   2425     1  0.0000000  0.6508444  3
   2402   2401   2413   2414     1  0.0000000  0.6508444  3
   2402   2401   2413   2415     1  0.0000000  0.6508444  3
   2403   2401   2400   2404     1  0.0000000  0.6508444  3
   2403   2401   2400   2407     1  0.0000000  0.6508444  3
   2403   2401   2400   2429     1  0.0000000  0.6508444  3
   2403   2401   2413   2425     1  0.0000000  0.6508444  3
   2403   2401   2413   2414     1  0.0000000  0.6508444  3
   2403   2401   2413   2415     1  0.0000000  0.6508444  3
   2404   2400   2407   2408     1  0.0000000  0.6508444  3
   2404   2400   2407   2409     1  0.0000000  0.6508444  3
   2404   2416   2422   2423     1  0.0000000  0.6508444  3
   2404   2416   2422   2424     1  0.0000000  0.6508444  3
   2405   2404   2400   2407     1  0.0000000  0.6508444  3
   2405   2404   2400   2429     1  0.0000000  0.6508444  3
   2405   2404   2416   2422     1  0.0000000  0.6508444  3
   2405   2404   2416   2417     1  0.0000000  0.6508444  3
   2405   2404   2416   2418     1  0.0000000  0.6508444  3
   2406   2404   2400   2407     1  0.0000000  0.6508444  3
   2406   2404   2400   2429     1  0.0000000  0.6508444  3
   2406   2404   2416   2422     1  0.0000000  0.6508444  3
   2406   2404   2416   2417     1  0.0000000  0.6508444  3
   2406   2404   2416   2418     1  0.0000000  0.6508444  3
   2407   2410   2419   2420     1  0.0000000  0.6508444  3
   2407   2410   2419   2421     1  0.0000000  0.6508444  3
   2408   2407   2400   2429     1  0.0000000  0.6508444  3
   2408   2407   2410   2419     1  0.0000000  0.6508444  3
   2408   2407   2410   2411     1  0.0000000  0.6508444  3
   2408   2407   2410   2412     1  0.0000000  0.6508444  3
   2409   2407   2400   2429     1  0.0000000  0.6508444  3
   2409   2407   2410   2419     1  0.0000000  0.6508444  3
   2409   2407   2410   2411     1  0.0000000  0.6508444  3
   2409   2407   2410   2412     1  0.0000000  0.6508444  3
   2410   2407   2400   2429     1  0.0000000  0.6508444  3
   2411   2410   2419   2428     1  0.0000000  1.0460000  1
   2411   2410   2419   2428     1  0.0000000  0.0000000  3
   2411   2410   2419   2420     1  0.0000000  0.6508444  3
   2411   2410   2419   2421     1  0.0000000  0.6508444  3
   2412   2410   2419   2428     1  0.0000000  1.0460000  1
   2412   2410   2419   2428     1  0.0000000  0.0000000  3
   2412   2410   2419   2420     1  0.0000000  0.6508444  3
   2412   2410   2419   2421     1  0.0000000  0.6508444  3
   2413   2401   2400   2429     1  0.0000000  0.6508444  3
   2414   2413   2425   4918     1  0.0000000  1.0460000  1
   2414   2413   2425   4918     1  0.0000000  0.0000000  3
   2414   2413   2425   2426     1  0.0000000  0.6508444  3
   2414   2413   2425   2427     1  0.0000000  0.6508444  3
   2415   2413   2425   4918     1  0.0000000  1.0460000  1
   2415   2413   2425   4918     1  0.0000000  0.0000000  3
   2415   2413   2425   2426     1  0.0000000  0.6508444  3
   2415   2413   2425   2427     1  0.0000000  0.6508444  3
   2416   2404   2400   2429     1  0.0000000  0.6508444  3
   2417   2416   2422   4888     1  0.0000000  1.0460000  1
   2417   2416   2422   4888     1  0.0000000  0.0000000  3
   2417   2416   2422   2423     1  0.0000000  0.6508444  3
   2417   2416   2422   2424     1  0.0000000  0.6508444  3
   2418   2416   2422   4888     1  0.0000000  1.0460000  1
   2418   2416   2422   4888     1  0.0000000  0.0000000  3
   2418   2416   2422   2423     1  0.0000000  0.6508444  3
   2418   2416   2422   2424     1  0.0000000  0.6508444  3
   2422   4888   4879   4880     1  0.0000000  1.6038667  3
   2422   4888   4879   4881     1  0.0000000  1.6038667  3
   2423   2422   4888   4879     1  0.0000000  1.6038667  3
   2424   2422   4888   4879     1  0.0000000  1.6038667  3
   2425   4918   4909   4910     1  0.0000000  1.6038667  3
   2425   4918   4909   4911     1  0.0000000  1.6038667  3
   2426   2425   4918   4909     1  0.0000000  1.6038667  3
   2427   2425   4918   4909     1  0.0000000  1.6038667  3
   2430   2431   2443   2444     1  0.0000000  0.6508444  3
   2430   2431   2443   2445     1  0.0000000  0.6508444  3
   2430   2434   2446   2447     1  0.0000000  0.6508444  3
   2430   2434   2446   2448     1  0.0000000  0.6508444  3
   2430   2437   2440   2441     1  0.0000000  0.6508444  3
   2430   2437   2440   2442     1  0.0000000  0.6508444  3
   2431   2430   2434   2435     1  0.0000000  0.6508444  3
   2431   2430   2434   2436     1  0.0000000  0.6508444  3
   2431   2430   2437   2438     1  0.0000000  0.6508444  3
   2431   2430   2437   2439     1  0.0000000  0.6508444  3
   2431   2443   2455   2456     1  0.0000000  0.6508444  3
   2431   2443   2455   2457     1  0.0000000  0.6508444  3
   2432   2431   2430   2434     1  0.0000000  0.6508444  3
   2432   2431   2430   2437     1  0.0000000  0.6508444  3
   2432   2431   2430   2459     1  0.0000000  0.6508444  3
   2432   2431   2443   2455     1  0.0000000  0.6508444  3
   2432   2431   2443   2444     1  0.0000000  0.6508444  3
   2432   2431   2443   2445     1  0.0000000  0.6508444  3
   2433   2431   2430   2434     1  0.0000000  0.6508444  3
   2433   2431   2430   2437     1  0.0000000  0.6508444  3
   2433   2431   2430   2459     1  0.0000000  0.6508444  3
   2433   2431   2443   2455     1  0.0000000  0.6508444  3
   2433   2431   2443   2444     1  0.0000000  0.6508444  3
   2433   2431   2443   2445     1  0.0000000  0.6508444  3
   2434   2430   2437   2438     1  0.0000000  0.6508444  3
   2434   2430   2437   2439     1  0.0000000  0.6508444  3
   2434   2446   2452   2453     1  0.0000000  0.6508444  3
   2434   2446   2452   2454     1  0.0000000  0.6508444  3
   2435   2434   2430   2437     1  0.0000000  0.6508444  3
   2435   2434   2430   2459     1  0.0000000  0.6508444  3
   2435   2434   2446   2452     1  0.0000000  0.6508444  3
   2435   2434   2446   2447     1  0.0000000  0.6508444  3
   2435   2434   2446   2448     1  0.0000000  0.6508444  3
   2436   2434   2430   2437     1  0.0000000  0.6508444  3
   2436   2434   2430   2459     1  0.0000000  0.6508444  3
   2436   2434   2446   2452     1  0.0000000  0.6508444  3
   2436   2434   2446   2447     1  0.0000000  0.6508444  3
   2436   2434   2446   2448     1  0.0000000  0.6508444  3
   2437   2440   2449   2450     1  0.0000000  0.6508444  3
   2437   2440   2449   2451     1  0.0000000  0.6508444  3
   2438   2437   2430   2459     1  0.0000000  0.6508444  3
   2438   2437   2440   2449     1  0.0000000  0.6508444  3
   2438   2437   2440   2441     1  0.0000000  0.6508444  3
   2438   2437   2440   2442     1  0.0000000  0.6508444  3
   2439   2437   2430   2459     1  0.0000000  0.6508444  3
   2439   2437   2440   2449     1  0.0000000  0.6508444  3
   2439   2437   2440   2441     1  0.0000000  0.6508444  3
   2439   2437   2440   2442     1  0.0000000  0.6508444  3
   2440   2437   2430   2459     1  0.0000000  0.6508444  3
   2441   2440   2449   2458     1  0.0000000  1.0460000  1
   2441   2440   2449   2458     1  0.0000000  0.0000000  3
   2441   2440   2449   2450     1  0.0000000  0.6508444  3
   2441   2440   2449   2451     1  0.0000000  0.6508444  3
   2442   2440   2449   2458     1  0.0000000  1.0460000  1
   2442   2440   2449   2458     1  0.0000000  0.0000000  3
   2442   2440   2449   2450     1  0.0000000  0.6508444  3
   2442   2440   2449   2451     1  0.0000000  0.6508444  3
   2443   2431   2430   2459     1  0.0000000  0.6508444  3
   2444   2443   2455   4978     1  0.0000000  1.0460000  1
   2444   2443   2455   4978     1  0.0000000  0.0000000  3
   2444   2443   2455   2456     1  0.0000000  0.6508444  3
   2444   2443   2455   2457     1  0.0000000  0.6508444  3
   2445   2443   2455   4978     1  0.0000000  1.0460000  1
   2445   2443   2455   4978     1  0.0000000  0.0000000  3
   2445   2443   2455   2456     1  0.0000000  0.6508444  3
   2445   2443   2455   2457     1  0.0000000  0.6508444  3
   2446   2434   2430   2459     1  0.0000000  0.6508444  3
   2447   2446   2452   4948     1  0.0000000  1.0460000  1
   2447   2446   2452   4948     1  0.0000000  0.0000000  3
   2447   2446   2452   2453     1  0.0000000  0.6508444  3
   2447   2446   2452   2454     1  0.0000000  0.6508444  3
   2448   2446   2452   4948     1  0.0000000  1.0460000  1
   2448   2446   2452   4948     1  0.0000000  0.0000000  3
   2448   2446   2452   2453     1  0.0000000  0.6508444  3
   2448   2446   2452   2454     1  0.0000000  0.6508444  3
   2452   4948   4939   4940     1  0.0000000  1.6038667  3
   2452   4948   4939   4941     1  0.0000000  1.6038667  3
   2453   2452   4948   4939     1  0.0000000  1.6038667  3
   2454   2452   4948   4939     1  0.0000000  1.6038667  3
   2455   4978   4969   4970     1  0.0000000  1.6038667  3
   2455   4978   4969   4971     1  0.0000000  1.6038667  3
   2456   2455   4978   4969     1  0.0000000  1.6038667  3
   2457   2455   4978   4969     1  0.0000000  1.6038667  3
   2460   2461   2473   2474     1  0.0000000  0.6508444  3
   2460   2461   2473   2475     1  0.0000000  0.6508444  3
   2460   2464   2476   2477     1  0.0000000  0.6508444  3
   2460   2464   2476   2478     1  0.0000000  0.6508444  3
   2460   2467   2470   2471     1  0.0000000  0.6508444  3
   2460   2467   2470   2472     1  0.0000000  0.6508444  3
   2461   2460   2464   2465     1  0.0000000  0.6508444  3
   2461   2460   2464   2466     1  0.0000000  0.6508444  3
   2461   2460   2467   2468     1  0.0000000  0.6508444  3
   2461   2460   2467   2469     1  0.0000000  0.6508444  3
   2461   2473   2485   2486     1  0.0000000  0.6508444  3
   2461   2473   2485   2487     1  0.0000000  0.6508444  3
   2462   2461   2460   2464     1  0.0000000  0.6508444  3
   2462   2461   2460   2467     1  0.0000000  0.6508444  3
   2462   2461   2460   2489     1  0.0000000  0.6508444  3
   2462   2461   2473   2485     1  0.0000000  0.6508444  3
   2462   2461   2473   2474     1  0.0000000  0.6508444  3
   2462   2461   2473   2475     1  0.0000000  0.6508444  3
   2463   2461   2460   2464     1  0.0000000  0.6508444  3
   2463   2461   2460   2467     1  0.0000000  0.6508444  3
   2463   2461   2460   2489     1  0.0000000  0.6508444  3
   2463   2461   2473   2485     1  0.0000000  0.6508444  3
   2463   2461   2473   2474     1  0.0000000  0.6508444  3
   2463   2461   2473   2475     1  0.0000000  0.6508444  3
   2464   2460   2467   2468     1  0.0000000  0.6508444  3
   2464   2460   2467   2469     1  0.0000000  0.6508444  3
   2464   2476   2482   2483     1  0.0000000  0.6508444  3
   2464   2476   2482   2484     1  0.0000000  0.6508444  3
   2465   2464   2460   2467     1  0.0000000  0.6508444  3
   2465   2464   2460   2489     1  0.0000000  0.6508444  3
   2465   2464   2476   2482     1  0.0000000  0.6508444  3
   2465   2464   2476   2477     1  0.0000000  0.6508444  3
   2465   2464   2476   2478     1  0.0000000  0.6508444  3
   2466   2464   2460   2467     1  0.0000000  0.6508444  3
   2466   2464   2460   2489     1  0.0000000  0.6508444  3
   2466   2464   2476   2482     1  0.0000000  0.6508444  3
   2466   2464   2476   2477     1  0.0000000  0.6508444  3
   2466   2464   2476   2478     1  0.0000000  0.6508444  3
   2467   2470   2479   2480     1  0.0000000  0.6508444  3
   2467   2470   2479   2481     1  0.0000000  0.6508444  3
   2468   2467   2460   2489     1  0.0000000  0.6508444  3
   2468   2467   2470   2479     1  0.0000000  0.6508444  3
   2468   2467   2470   2471     1  0.0000000  0.6508444  3
   2468   2467   2470   2472     1  0.0000000  0.6508444  3
   2469   2467   2460   2489     1  0.0000000  0.6508444  3
   2469   2467   2470   2479     1  0.0000000  0.6508444  3
   2469   2467   2470   2471     1  0.0000000  0.6508444  3
   2469   2467   2470   2472     1  0.0000000  0.6508444  3
   2470   2467   2460   2489     1  0.0000000  0.6508444  3
   2471   2470   2479   2488     1  0.0000000  1.0460000  1
   2471   2470   2479   2488     1  0.0000000  0.0000000  3
   2471   2470   2479   2480     1  0.0000000  0.6508444  3
   2471   2470   2479   2481     1  0.0000000  0.6508444  3
   2472   2470   2479   2488     1  0.0000000  1.0460000  1
   2472   2470   2479   2488     1  0.0000000  0.0000000  3
   2472   2470   2479   2480     1  0.0000000  0.6508444  3
   2472   2470   2479   2481     1  0.0000000  0.6508444  3
   2473   2461   2460   2489     1  0.0000000  0.6508444  3
   2474   2473   2485   5038     1  0.0000000  1.0460000  1
   2474   2473   2485   5038     1  0.0000000  0.0000000  3
   2474   2473   2485   2486     1  0.0000000  0.6508444  3
   2474   2473   2485   2487     1  0.0000000  0.6508444  3
   2475   2473   2485   5038     1  0.0000000  1.0460000  1
   2475   2473   2485   5038     1  0.0000000  0.0000000  3
   2475   2473   2485   2486     1  0.0000000  0.6508444  3
   2475   2473   2485   2487     1  0.0000000  0.6508444  3
   2476   2464   2460   2489     1  0.0000000  0.6508444  3
   2477   2476   2482   5008     1  0.0000000  1.0460000  1
   2477   2476   2482   5008     1  0.0000000  0.0000000  3
   2477   2476   2482   2483     1  0.0000000  0.6508444  3
   2477   2476   2482   2484     1  0.0000000  0.6508444  3
   2478   2476   2482   5008     1  0.0000000  1.0460000  1
   2478   2476   2482   5008     1  0.0000000  0.0000000  3
   2478   2476   2482   2483     1  0.0000000  0.6508444  3
   2478   2476   2482   2484     1  0.0000000  0.6508444  3
   2482   5008   4999   5000     1  0.0000000  1.6038667  3
   2482   5008   4999   5001     1  0.0000000  1.6038667  3
   2483   2482   5008   4999     1  0.0000000  1.6038667  3
   2484   2482   5008   4999     1  0.0000000  1.6038667  3
   2485   5038   5029   5030     1  0.0000000  1.6038667  3
   2485   5038   5029   5031     1  0.0000000  1.6038667  3
   2486   2485   5038   5029     1  0.0000000  1.6038667  3
   2487   2485   5038   5029     1  0.0000000  1.6038667  3
   2490   2491   2503   2504     1  0.0000000  0.6508444  3
   2490   2491   2503   2505     1  0.0000000  0.6508444  3
   2490   2494   2506   2507     1  0.0000000  0.6508444  3
   2490   2494   2506   2508     1  0.0000000  0.6508444  3
   2490   2497   2500   2501     1  0.0000000  0.6508444  3
   2490   2497   2500   2502     1  0.0000000  0.6508444  3
   2491   2490   2494   2495     1  0.0000000  0.6508444  3
   2491   2490   2494   2496     1  0.0000000  0.6508444  3
   2491   2490   2497   2498     1  0.0000000  0.6508444  3
   2491   2490   2497   2499     1  0.0000000  0.6508444  3
   2491   2503   2515   2516     1  0.0000000  0.6508444  3
   2491   2503   2515   2517     1  0.0000000  0.6508444  3
   2492   2491   2490   2494     1  0.0000000  0.6508444  3
   2492   2491   2490   2497     1  0.0000000  0.6508444  3
   2492   2491   2490   2519     1  0.0000000  0.6508444  3
   2492   2491   2503   2515     1  0.0000000  0.6508444  3
   2492   2491   2503   2504     1  0.0000000  0.6508444  3
   2492   2491   2503   2505     1  0.0000000  0.6508444  3
   2493   2491   2490   2494     1  0.0000000  0.6508444  3
   2493   2491   2490   2497     1  0.0000000  0.6508444  3
   2493   2491   2490   2519     1  0.0000000  0.6508444  3
   2493   2491   2503   2515     1  0.0000000  0.6508444  3
   2493   2491   2503   2504     1  0.0000000  0.6508444  3
   2493   2491   2503   2505     1  0.0000000  0.6508444  3
   2494   2490   2497   2498     1  0.0000000  0.6508444  3
   2494   2490   2497   2499     1  0.0000000  0.6508444  3
   2494   2506   2512   2513     1  0.0000000  0.6508444  3
   2494   2506   2512   2514     1  0.0000000  0.6508444  3
   2495   2494   2490   2497     1  0.0000000  0.6508444  3
   2495   2494   2490   2519     1  0.0000000  0.6508444  3
   2495   2494   2506   2512     1  0.0000000  0.6508444  3
   2495   2494   2506   2507     1  0.0000000  0.6508444  3
   2495   2494   2506   2508     1  0.0000000  0.6508444  3
   2496   2494   2490   2497     1  0.0000000  0.6508444  3
   2496   2494   2490   2519     1  0.0000000  0.6508444  3
   2496   2494   2506   2512     1  0.0000000  0.6508444  3
   2496   2494   2506   2507     1  0.0000000  0.6508444  3
   2496   2494   2506   2508     1  0.0000000  0.6508444  3
   2497   2500   2509   2510     1  0.0000000  0.6508444  3
   2497   2500   2509   2511     1  0.0000000  0.6508444  3
   2498   2497   2490   2519     1  0.0000000  0.6508444  3
   2498   2497   2500   2509     1  0.0000000  0.6508444  3
   2498   2497   2500   2501     1  0.0000000  0.6508444  3
   2498   2497   2500   2502     1  0.0000000  0.6508444  3
   2499   2497   2490   2519     1  0.0000000  0.6508444  3
   2499   2497   2500   2509     1  0.0000000  0.6508444  3
   2499   2497   2500   2501     1  0.0000000  0.6508444  3
   2499   2497   2500   2502     1  0.0000000  0.6508444  3
   2500   2497   2490   2519     1  0.0000000  0.6508444  3
   2501   2500   2509   2518     1  0.0000000  1.0460000  1
   2501   2500   2509   2518     1  0.0000000  0.0000000  3
   2501   2500   2509   2510     1  0.0000000  0.6508444  3
   2501   2500   2509   2511     1  0.0000000  0.6508444  3
   2502   2500   2509   2518     1  0.0000000  1.0460000  1
   2502   2500   2509   2518     1  0.0000000  0.0000000  3
   2502   2500   2509   2510     1  0.0000000  0.6508444  3
   2502   2500   2509   2511     1  0.0000000  0.6508444  3
   2503   2491   2490   2519     1  0.0000000  0.6508444  3
   2504   2503   2515   5098     1  0.0000000  1.0460000  1
   2504   2503   2515   5098     1  0.0000000  0.0000000  3
   2504   2503   2515   2516     1  0.0000000  0.6508444  3
   2504   2503   2515   2517     1  0.0000000  0.6508444  3
   2505   2503   2515   5098     1  0.0000000  1.0460000  1
   2505   2503   2515   5098     1  0.0000000  0.0000000  3
   2505   2503   2515   2516     1  0.0000000  0.6508444  3
   2505   2503   2515   2517     1  0.0000000  0.6508444  3
   2506   2494   2490   2519     1  0.0000000  0.6508444  3
   2507   2506   2512   5068     1  0.0000000  1.0460000  1
   2507   2506   2512   5068     1  0.0000000  0.0000000  3
   2507   2506   2512   2513     1  0.0000000  0.6508444  3
   2507   2506   2512   2514     1  0.0000000  0.6508444  3
   2508   2506   2512   5068     1  0.0000000  1.0460000  1
   2508   2506   2512   5068     1  0.0000000  0.0000000  3
   2508   2506   2512   2513     1  0.0000000  0.6508444  3
   2508   2506   2512   2514     1  0.0000000  0.6508444  3
   2512   5068   5059   5060     1  0.0000000  1.6038667  3
   2512   5068   5059   5061     1  0.0000000  1.6038667  3
   2513   2512   5068   5059     1  0.0000000  1.6038667  3
   2514   2512   5068   5059     1  0.0000000  1.6038667  3
   2515   5098   5089   5090     1  0.0000000  1.6038667  3
   2515   5098   5089   5091     1  0.0000000  1.6038667  3
   2516   2515   5098   5089     1  0.0000000  1.6038667  3
   2517   2515   5098   5089     1  0.0000000  1.6038667  3
   2520   2521   2533   2534     1  0.0000000  0.6508444  3
   2520   2521   2533   2535     1  0.0000000  0.6508444  3
   2520   2524   2536   2537     1  0.0000000  0.6508444  3
   2520   2524   2536   2538     1  0.0000000  0.6508444  3
   2520   2527   2530   2531     1  0.0000000  0.6508444  3
   2520   2527   2530   2532     1  0.0000000  0.6508444  3
   2521   2520   2524   2525     1  0.0000000  0.6508444  3
   2521   2520   2524   2526     1  0.0000000  0.6508444  3
   2521   2520   2527   2528     1  0.0000000  0.6508444  3
   2521   2520   2527   2529     1  0.0000000  0.6508444  3
   2521   2533   2545   2546     1  0.0000000  0.6508444  3
   2521   2533   2545   2547     1  0.0000000  0.6508444  3
   2522   2521   2520   2524     1  0.0000000  0.6508444  3
   2522   2521   2520   2527     1  0.0000000  0.6508444  3
   2522   2521   2520   2549     1  0.0000000  0.6508444  3
   2522   2521   2533   2545     1  0.0000000  0.6508444  3
   2522   2521   2533   2534     1  0.0000000  0.6508444  3
   2522   2521   2533   2535     1  0.0000000  0.6508444  3
   2523   2521   2520   2524     1  0.0000000  0.6508444  3
   2523   2521   2520   2527     1  0.0000000  0.6508444  3
   2523   2521   2520   2549     1  0.0000000  0.6508444  3
   2523   2521   2533   2545     1  0.0000000  0.6508444  3
   2523   2521   2533   2534     1  0.0000000  0.6508444  3
   2523   2521   2533   2535     1  0.0000000  0.6508444  3
   2524   2520   2527   2528     1  0.0000000  0.6508444  3
   2524   2520   2527   2529     1  0.0000000  0.6508444  3
   2524   2536   2542   2543     1  0.0000000  0.6508444  3
   2524   2536   2542   2544     1  0.0000000  0.6508444  3
   2525   2524   2520   2527     1  0.0000000  0.6508444  3
   2525   2524   2520   2549     1  0.0000000  0.6508444  3
   2525   2524   2536   2542     1  0.0000000  0.6508444  3
   2525   2524   2536   2537     1  0.0000000  0.6508444  3
   2525   2524   2536   2538     1  0.0000000  0.6508444  3
   2526   2524   2520   2527     1  0.0000000  0.6508444  3
   2526   2524   2520   2549     1  0.0000000  0.6508444  3
   2526   2524   2536   2542     1  0.0000000  0.6508444  3
   2526   2524   2536   2537     1  0.0000000  0.6508444  3
   2526   2524   2536   2538     1  0.0000000  0.6508444  3
   2527   2530   2539   2540     1  0.0000000  0.6508444  3
   2527   2530   2539   2541     1  0.0000000  0.6508444  3
   2528   2527   2520   2549     1  0.0000000  0.6508444  3
   2528   2527   2530   2539     1  0.0000000  0.6508444  3
   2528   2527   2530   2531     1  0.0000000  0.6508444  3
   2528   2527   2530   2532     1  0.0000000  0.6508444  3
   2529   2527   2520   2549     1  0.0000000  0.6508444  3
   2529   2527   2530   2539     1  0.0000000  0.6508444  3
   2529   2527   2530   2531     1  0.0000000  0.6508444  3
   2529   2527   2530   2532     1  0.0000000  0.6508444  3
   2530   2527   2520   2549     1  0.0000000  0.6508444  3
   2531   2530   2539   2548     1  0.0000000  1.0460000  1
   2531   2530   2539   2548     1  0.0000000  0.0000000  3
   2531   2530   2539   2540     1  0.0000000  0.6508444  3
   2531   2530   2539   2541     1  0.0000000  0.6508444  3
   2532   2530   2539   2548     1  0.0000000  1.0460000  1
   2532   2530   2539   2548     1  0.0000000  0.0000000  3
   2532   2530   2539   2540     1  0.0000000  0.6508444  3
   2532   2530   2539   2541     1  0.0000000  0.6508444  3
   2533   2521   2520   2549     1  0.0000000  0.6508444  3
   2534   2533   2545   5158     1  0.0000000  1.0460000  1
   2534   2533   2545   5158     1  0.0000000  0.0000000  3
   2534   2533   2545   2546     1  0.0000000  0.6508444  3
   2534   2533   2545   2547     1  0.0000000  0.6508444  3
   2535   2533   2545   5158     1  0.0000000  1.0460000  1
   2535   2533   2545   5158     1  0.0000000  0.0000000  3
   2535   2533   2545   2546     1  0.0000000  0.6508444  3
   2535   2533   2545   2547     1  0.0000000  0.6508444  3
   2536   2524   2520   2549     1  0.0000000  0.6508444  3
   2537   2536   2542   5128     1  0.0000000  1.0460000  1
   2537   2536   2542   5128     1  0.0000000  0.0000000  3
   2537   2536   2542   2543     1  0.0000000  0.6508444  3
   2537   2536   2542   2544     1  0.0000000  0.6508444  3
   2538   2536   2542   5128     1  0.0000000  1.0460000  1
   2538   2536   2542   5128     1  0.0000000  0.0000000  3
   2538   2536   2542   2543     1  0.0000000  0.6508444  3
   2538   2536   2542   2544     1  0.0000000  0.6508444  3
   2542   5128   5119   5120     1  0.0000000  1.6038667  3
   2542   5128   5119   5121     1  0.0000000  1.6038667  3
   2543   2542   5128   5119     1  0.0000000  1.6038667  3
   2544   2542   5128   5119     1  0.0000000  1.6038667  3
   2545   5158   5149   5150     1  0.0000000  1.6038667  3
   2545   5158   5149   5151     1  0.0000000  1.6038667  3
   2546   2545   5158   5149     1  0.0000000  1.6038667  3
   2547   2545   5158   5149     1  0.0000000  1.6038667  3
   2550   2551   2563   2564     1  0.0000000  0.6508444  3
   2550   2551   2563   2565     1  0.0000000  0.6508444  3
   2550   2554   2566   2567     1  0.0000000  0.6508444  3
   2550   2554   2566   2568     1  0.0000000  0.6508444  3
   2550   2557   2560   2561     1  0.0000000  0.6508444  3
   2550   2557   2560   2562     1  0.0000000  0.6508444  3
   2551   2550   2554   2555     1  0.0000000  0.6508444  3
   2551   2550   2554   2556     1  0.0000000  0.6508444  3
   2551   2550   2557   2558     1  0.0000000  0.6508444  3
   2551   2550   2557   2559     1  0.0000000  0.6508444  3
   2551   2563   2575   2576     1  0.0000000  0.6508444  3
   2551   2563   2575   2577     1  0.0000000  0.6508444  3
   2552   2551   2550   2554     1  0.0000000  0.6508444  3
   2552   2551   2550   2557     1  0.0000000  0.6508444  3
   2552   2551   2550   2579     1  0.0000000  0.6508444  3
   2552   2551   2563   2575     1  0.0000000  0.6508444  3
   2552   2551   2563   2564     1  0.0000000  0.6508444  3
   2552   2551   2563   2565     1  0.0000000  0.6508444  3
   2553   2551   2550   2554     1  0.0000000  0.6508444  3
   2553   2551   2550   2557     1  0.0000000  0.6508444  3
   2553   2551   2550   2579     1  0.0000000  0.6508444  3
   2553   2551   2563   2575     1  0.0000000  0.6508444  3
   2553   2551   2563   2564     1  0.0000000  0.6508444  3
   2553   2551   2563   2565     1  0.0000000  0.6508444  3
   2554   2550   2557   2558     1  0.0000000  0.6508444  3
   2554   2550   2557   2559     1  0.0000000  0.6508444  3
   2554   2566   2572   2573     1  0.0000000  0.6508444  3
   2554   2566   2572   2574     1  0.0000000  0.6508444  3
   2555   2554   2550   2557     1  0.0000000  0.6508444  3
   2555   2554   2550   2579     1  0.0000000  0.6508444  3
   2555   2554   2566   2572     1  0.0000000  0.6508444  3
   2555   2554   2566   2567     1  0.0000000  0.6508444  3
   2555   2554   2566   2568     1  0.0000000  0.6508444  3
   2556   2554   2550   2557     1  0.0000000  0.6508444  3
   2556   2554   2550   2579     1  0.0000000  0.6508444  3
   2556   2554   2566   2572     1  0.0000000  0.6508444  3
   2556   2554   2566   2567     1  0.0000000  0.6508444  3
   2556   2554   2566   2568     1  0.0000000  0.6508444  3
   2557   2560   2569   2570     1  0.0000000  0.6508444  3
   2557   2560   2569   2571     1  0.0000000  0.6508444  3
   2558   2557   2550   2579     1  0.0000000  0.6508444  3
   2558   2557   2560   2569     1  0.0000000  0.6508444  3
   2558   2557   2560   2561     1  0.0000000  0.6508444  3
   2558   2557   2560   2562     1  0.0000000  0.6508444  3
   2559   2557   2550   2579     1  0.0000000  0.6508444  3
   2559   2557   2560   2569     1  0.0000000  0.6508444  3
   2559   2557   2560   2561     1  0.0000000  0.6508444  3
   2559   2557   2560   2562     1  0.0000000  0.6508444  3
   2560   2557   2550   2579     1  0.0000000  0.6508444  3
   2561   2560   2569   2578     1  0.0000000  1.0460000  1
   2561   2560   2569   2578     1  0.0000000  0.0000000  3
   2561   2560   2569   2570     1  0.0000000  0.6508444  3
   2561   2560   2569   2571     1  0.0000000  0.6508444  3
   2562   2560   2569   2578     1  0.0000000  1.0460000  1
   2562   2560   2569   2578     1  0.0000000  0.0000000  3
   2562   2560   2569   2570     1  0.0000000  0.6508444  3
   2562   2560   2569   2571     1  0.0000000  0.6508444  3
   2563   2551   2550   2579     1  0.0000000  0.6508444  3
   2564   2563   2575   5218     1  0.0000000  1.0460000  1
   2564   2563   2575   5218     1  0.0000000  0.0000000  3
   2564   2563   2575   2576     1  0.0000000  0.6508444  3
   2564   2563   2575   2577     1  0.0000000  0.6508444  3
   2565   2563   2575   5218     1  0.0000000  1.0460000  1
   2565   2563   2575   5218     1  0.0000000  0.0000000  3
   2565   2563   2575   2576     1  0.0000000  0.6508444  3
   2565   2563   2575   2577     1  0.0000000  0.6508444  3
   2566   2554   2550   2579     1  0.0000000  0.6508444  3
   2567   2566   2572   5188     1  0.0000000  1.0460000  1
   2567   2566   2572   5188     1  0.0000000  0.0000000  3
   2567   2566   2572   2573     1  0.0000000  0.6508444  3
   2567   2566   2572   2574     1  0.0000000  0.6508444  3
   2568   2566   2572   5188     1  0.0000000  1.0460000  1
   2568   2566   2572   5188     1  0.0000000  0.0000000  3
   2568   2566   2572   2573     1  0.0000000  0.6508444  3
   2568   2566   2572   2574     1  0.0000000  0.6508444  3
   2572   5188   5179   5180     1  0.0000000  1.6038667  3
   2572   5188   5179   5181     1  0.0000000  1.6038667  3
   2573   2572   5188   5179     1  0.0000000  1.6038667  3
   2574   2572   5188   5179     1  0.0000000  1.6038667  3
   2575   5218   5209   5210     1  0.0000000  1.6038667  3
   2575   5218   5209   5211     1  0.0000000  1.6038667  3
   2576   2575   5218   5209     1  0.0000000  1.6038667  3
   2577   2575   5218   5209     1  0.0000000  1.6038667  3
   2580   2581   2593   2594     1  0.0000000  0.6508444  3
   2580   2581   2593   2595     1  0.0000000  0.6508444  3
   2580   2584   2596   2597     1  0.0000000  0.6508444  3
   2580   2584   2596   2598     1  0.0000000  0.6508444  3
   2580   2587   2590   2591     1  0.0000000  0.6508444  3
   2580   2587   2590   2592     1  0.0000000  0.6508444  3
   2581   2580   2584   2585     1  0.0000000  0.6508444  3
   2581   2580   2584   2586     1  0.0000000  0.6508444  3
   2581   2580   2587   2588     1  0.0000000  0.6508444  3
   2581   2580   2587   2589     1  0.0000000  0.6508444  3
   2581   2593   2605   2606     1  0.0000000  0.6508444  3
   2581   2593   2605   2607     1  0.0000000  0.6508444  3
   2582   2581   2580   2584     1  0.0000000  0.6508444  3
   2582   2581   2580   2587     1  0.0000000  0.6508444  3
   2582   2581   2580   2609     1  0.0000000  0.6508444  3
   2582   2581   2593   2605     1  0.0000000  0.6508444  3
   2582   2581   2593   2594     1  0.0000000  0.6508444  3
   2582   2581   2593   2595     1  0.0000000  0.6508444  3
   2583   2581   2580   2584     1  0.0000000  0.6508444  3
   2583   2581   2580   2587     1  0.0000000  0.6508444  3
   2583   2581   2580   2609     1  0.0000000  0.6508444  3
   2583   2581   2593   2605     1  0.0000000  0.6508444  3
   2583   2581   2593   2594     1  0.0000000  0.6508444  3
   2583   2581   2593   2595     1  0.0000000  0.6508444  3
   2584   2580   2587   2588     1  0.0000000  0.6508444  3
   2584   2580   2587   2589     1  0.0000000  0.6508444  3
   2584   2596   2602   2603     1  0.0000000  0.6508444  3
   2584   2596   2602   2604     1  0.0000000  0.6508444  3
   2585   2584   2580   2587     1  0.0000000  0.6508444  3
   2585   2584   2580   2609     1  0.0000000  0.6508444  3
   2585   2584   2596   2602     1  0.0000000  0.6508444  3
   2585   2584   2596   2597     1  0.0000000  0.6508444  3
   2585   2584   2596   2598     1  0.0000000  0.6508444  3
   2586   2584   2580   2587     1  0.0000000  0.6508444  3
   2586   2584   2580   2609     1  0.0000000  0.6508444  3
   2586   2584   2596   2602     1  0.0000000  0.6508444  3
   2586   2584   2596   2597     1  0.0000000  0.6508444  3
   2586   2584   2596   2598     1  0.0000000  0.6508444  3
   2587   2590   2599   2600     1  0.0000000  0.6508444  3
   2587   2590   2599   2601     1  0.0000000  0.6508444  3
   2588   2587   2580   2609     1  0.0000000  0.6508444  3
   2588   2587   2590   2599     1  0.0000000  0.6508444  3
   2588   2587   2590   2591     1  0.0000000  0.6508444  3
   2588   2587   2590   2592     1  0.0000000  0.6508444  3
   2589   2587   2580   2609     1  0.0000000  0.6508444  3
   2589   2587   2590   2599     1  0.0000000  0.6508444  3
   2589   2587   2590   2591     1  0.0000000  0.6508444  3
   2589   2587   2590   2592     1  0.0000000  0.6508444  3
   2590   2587   2580   2609     1  0.0000000  0.6508444  3
   2591   2590   2599   2608     1  0.0000000  1.0460000  1
   2591   2590   2599   2608     1  0.0000000  0.0000000  3
   2591   2590   2599   2600     1  0.0000000  0.6508444  3
   2591   2590   2599   2601     1  0.0000000  0.6508444  3
   2592   2590   2599   2608     1  0.0000000  1.0460000  1
   2592   2590   2599   2608     1  0.0000000  0.0000000  3
   2592   2590   2599   2600     1  0.0000000  0.6508444  3
   2592   2590   2599   2601     1  0.0000000  0.6508444  3
   2593   2581   2580   2609     1  0.0000000  0.6508444  3
   2594   2593   2605   5278     1  0.0000000  1.0460000  1
   2594   2593   2605   5278     1  0.0000000  0.0000000  3
   2594   2593   2605   2606     1  0.0000000  0.6508444  3
   2594   2593   2605   2607     1  0.0000000  0.6508444  3
   2595   2593   2605   5278     1  0.0000000  1.0460000  1
   2595   2593   2605   5278     1  0.0000000  0.0000000  3
   2595   2593   2605   2606     1  0.0000000  0.6508444  3
   2595   2593   2605   2607     1  0.0000000  0.6508444  3
   2596   2584   2580   2609     1  0.0000000  0.6508444  3
   2597   2596   2602   5248     1  0.0000000  1.0460000  1
   2597   2596   2602   5248     1  0.0000000  0.0000000  3
   2597   2596   2602   2603     1  0.0000000  0.6508444  3
   2597   2596   2602   2604     1  0.0000000  0.6508444  3
   2598   2596   2602   5248     1  0.0000000  1.0460000  1
   2598   2596   2602   5248     1  0.0000000  0.0000000  3
   2598   2596   2602   2603     1  0.0000000  0.6508444  3
   2598   2596   2602   2604     1  0.0000000  0.6508444  3
   2602   5248   5239   5240     1  0.0000000  1.6038667  3
   2602   5248   5239   5241     1  0.0000000  1.6038667  3
   2603   2602   5248   5239     1  0.0000000  1.6038667  3
   2604   2602   5248   5239     1  0.0000000  1.6038667  3
   2605   5278   5269   5270     1  0.0000000  1.6038667  3
   2605   5278   5269   5271     1  0.0000000  1.6038667  3
   2606   2605   5278   5269     1  0.0000000  1.6038667  3
   2607   2605   5278   5269     1  0.0000000  1.6038667  3
   2610   2611   2623   2624     1  0.0000000  0.6508444  3
   2610   2611   2623   2625     1  0.0000000  0.6508444  3
   2610   2614   2626   2627     1  0.0000000  0.6508444  3
   2610   2614   2626   2628     1  0.0000000  0.6508444  3
   2610   2617   2620   2621     1  0.0000000  0.6508444  3
   2610   2617   2620   2622     1  0.0000000  0.6508444  3
   2611   2610   2614   2615     1  0.0000000  0.6508444  3
   2611   2610   2614   2616     1  0.0000000  0.6508444  3
   2611   2610   2617   2618     1  0.0000000  0.6508444  3
   2611   2610   2617   2619     1  0.0000000  0.6508444  3
   2611   2623   2635   2636     1  0.0000000  0.6508444  3
   2611   2623   2635   2637     1  0.0000000  0.6508444  3
   2612   2611   2610   2614     1  0.0000000  0.6508444  3
   2612   2611   2610   2617     1  0.0000000  0.6508444  3
   2612   2611   2610   2639     1  0.0000000  0.6508444  3
   2612   2611   2623   2635     1  0.0000000  0.6508444  3
   2612   2611   2623   2624     1  0.0000000  0.6508444  3
   2612   2611   2623   2625     1  0.0000000  0.6508444  3
   2613   2611   2610   2614     1  0.0000000  0.6508444  3
   2613   2611   2610   2617     1  0.0000000  0.6508444  3
   2613   2611   2610   2639     1  0.0000000  0.6508444  3
   2613   2611   2623   2635     1  0.0000000  0.6508444  3
   2613   2611   2623   2624     1  0.0000000  0.6508444  3
   2613   2611   2623   2625     1  0.0000000  0.6508444  3
   2614   2610   2617   2618     1  0.0000000  0.6508444  3
   2614   2610   2617   2619     1  0.0000000  0.6508444  3
   2614   2626   2632   2633     1  0.0000000  0.6508444  3
   2614   2626   2632   2634     1  0.0000000  0.6508444  3
   2615   2614   2610   2617     1  0.0000000  0.6508444  3
   2615   2614   2610   2639     1  0.0000000  0.6508444  3
   2615   2614   2626   2632     1  0.0000000  0.6508444  3
   2615   2614   2626   2627     1  0.0000000  0.6508444  3
   2615   2614   2626   2628     1  0.0000000  0.6508444  3
   2616   2614   2610   2617     1  0.0000000  0.6508444  3
   2616   2614   2610   2639     1  0.0000000  0.6508444  3
   2616   2614   2626   2632     1  0.0000000  0.6508444  3
   2616   2614   2626   2627     1  0.0000000  0.6508444  3
   2616   2614   2626   2628     1  0.0000000  0.6508444  3
   2617   2620   2629   2630     1  0.0000000  0.6508444  3
   2617   2620   2629   2631     1  0.0000000  0.6508444  3
   2618   2617   2610   2639     1  0.0000000  0.6508444  3
   2618   2617   2620   2629     1  0.0000000  0.6508444  3
   2618   2617   2620   2621     1  0.0000000  0.6508444  3
   2618   2617   2620   2622     1  0.0000000  0.6508444  3
   2619   2617   2610   2639     1  0.0000000  0.6508444  3
   2619   2617   2620   2629     1  0.0000000  0.6508444  3
   2619   2617   2620   2621     1  0.0000000  0.6508444  3
   2619   2617   2620   2622     1  0.0000000  0.6508444  3
   2620   2617   2610   2639     1  0.0000000  0.6508444  3
   2621   2620   2629   2638     1  0.0000000  1.0460000  1
   2621   2620   2629   2638     1  0.0000000  0.0000000  3
   2621   2620   2629   2630     1  0.0000000  0.6508444  3
   2621   2620   2629   2631     1  0.0000000  0.6508444  3
   2622   2620   2629   2638     1  0.0000000  1.0460000  1
   2622   2620   2629   2638     1  0.0000000  0.0000000  3
   2622   2620   2629   2630     1  0.0000000  0.6508444  3
   2622   2620   2629   2631     1  0.0000000  0.6508444  3
   2623   2611   2610   2639     1  0.0000000  0.6508444  3
   2624   2623   2635   5338     1  0.0000000  1.0460000  1
   2624   2623   2635   5338     1  0.0000000  0.0000000  3
   2624   2623   2635   2636     1  0.0000000  0.6508444  3
   2624   2623   2635   2637     1  0.0000000  0.6508444  3
   2625   2623   2635   5338     1  0.0000000  1.0460000  1
   2625   2623   2635   5338     1  0.0000000  0.0000000  3
   2625   2623   2635   2636     1  0.0000000  0.6508444  3
   2625   2623   2635   2637     1  0.0000000  0.6508444  3
   2626   2614   2610   2639     1  0.0000000  0.6508444  3
   2627   2626   2632   5308     1  0.0000000  1.0460000  1
   2627   2626   2632   5308     1  0.0000000  0.0000000  3
   2627   2626   2632   2633     1  0.0000000  0.6508444  3
   2627   2626   2632   2634     1  0.0000000  0.6508444  3
   2628   2626   2632   5308     1  0.0000000  1.0460000  1
   2628   2626   2632   5308     1  0.0000000  0.0000000  3
   2628   2626   2632   2633     1  0.0000000  0.6508444  3
   2628   2626   2632   2634     1  0.0000000  0.6508444  3
   2632   5308   5299   5300     1  0.0000000  1.6038667  3
   2632   5308   5299   5301     1  0.0000000  1.6038667  3
   2633   2632   5308   5299     1  0.0000000  1.6038667  3
   2634   2632   5308   5299     1  0.0000000  1.6038667  3
   2635   5338   5329   5330     1  0.0000000  1.6038667  3
   2635   5338   5329   5331     1  0.0000000  1.6038667  3
   2636   2635   5338   5329     1  0.0000000  1.6038667  3
   2637   2635   5338   5329     1  0.0000000  1.6038667  3
   2640   2641   2653   2654     1  0.0000000  0.6508444  3
   2640   2641   2653   2655     1  0.0000000  0.6508444  3
   2640   2644   2656   2657     1  0.0000000  0.6508444  3
   2640   2644   2656   2658     1  0.0000000  0.6508444  3
   2640   2647   2650   2651     1  0.0000000  0.6508444  3
   2640   2647   2650   2652     1  0.0000000  0.6508444  3
   2641   2640   2644   2645     1  0.0000000  0.6508444  3
   2641   2640   2644   2646     1  0.0000000  0.6508444  3
   2641   2640   2647   2648     1  0.0000000  0.6508444  3
   2641   2640   2647   2649     1  0.0000000  0.6508444  3
   2641   2653   2665   2666     1  0.0000000  0.6508444  3
   2641   2653   2665   2667     1  0.0000000  0.6508444  3
   2642   2641   2640   2644     1  0.0000000  0.6508444  3
   2642   2641   2640   2647     1  0.0000000  0.6508444  3
   2642   2641   2640   2669     1  0.0000000  0.6508444  3
   2642   2641   2653   2665     1  0.0000000  0.6508444  3
   2642   2641   2653   2654     1  0.0000000  0.6508444  3
   2642   2641   2653   2655     1  0.0000000  0.6508444  3
   2643   2641   2640   2644     1  0.0000000  0.6508444  3
   2643   2641   2640   2647     1  0.0000000  0.6508444  3
   2643   2641   2640   2669     1  0.0000000  0.6508444  3
   2643   2641   2653   2665     1  0.0000000  0.6508444  3
   2643   2641   2653   2654     1  0.0000000  0.6508444  3
   2643   2641   2653   2655     1  0.0000000  0.6508444  3
   2644   2640   2647   2648     1  0.0000000  0.6508444  3
   2644   2640   2647   2649     1  0.0000000  0.6508444  3
   2644   2656   2662   2663     1  0.0000000  0.6508444  3
   2644   2656   2662   2664     1  0.0000000  0.6508444  3
   2645   2644   2640   2647     1  0.0000000  0.6508444  3
   2645   2644   2640   2669     1  0.0000000  0.6508444  3
   2645   2644   2656   2662     1  0.0000000  0.6508444  3
   2645   2644   2656   2657     1  0.0000000  0.6508444  3
   2645   2644   2656   2658     1  0.0000000  0.6508444  3
   2646   2644   2640   2647     1  0.0000000  0.6508444  3
   2646   2644   2640   2669     1  0.0000000  0.6508444  3
   2646   2644   2656   2662     1  0.0000000  0.6508444  3
   2646   2644   2656   2657     1  0.0000000  0.6508444  3
   2646   2644   2656   2658     1  0.0000000  0.6508444  3
   2647   2650   2659   2660     1  0.0000000  0.6508444  3
   2647   2650   2659   2661     1  0.0000000  0.6508444  3
   2648   2647   2640   2669     1  0.0000000  0.6508444  3
   2648   2647   2650   2659     1  0.0000000  0.6508444  3
   2648   2647   2650   2651     1  0.0000000  0.6508444  3
   2648   2647   2650   2652     1  0.0000000  0.6508444  3
   2649   2647   2640   2669     1  0.0000000  0.6508444  3
   2649   2647   2650   2659     1  0.0000000  0.6508444  3
   2649   2647   2650   2651     1  0.0000000  0.6508444  3
   2649   2647   2650   2652     1  0.0000000  0.6508444  3
   2650   2647   2640   2669     1  0.0000000  0.6508444  3
   2651   2650   2659   2668     1  0.0000000  1.0460000  1
   2651   2650   2659   2668     1  0.0000000  0.0000000  3
   2651   2650   2659   2660     1  0.0000000  0.6508444  3
   2651   2650   2659   2661     1  0.0000000  0.6508444  3
   2652   2650   2659   2668     1  0.0000000  1.0460000  1
   2652   2650   2659   2668     1  0.0000000  0.0000000  3
   2652   2650   2659   2660     1  0.0000000  0.6508444  3
   2652   2650   2659   2661     1  0.0000000  0.6508444  3
   2653   2641   2640   2669     1  0.0000000  0.6508444  3
   2654   2653   2665   5398     1  0.0000000  1.0460000  1
   2654   2653   2665   5398     1  0.0000000  0.0000000  3
   2654   2653   2665   2666     1  0.0000000  0.6508444  3
   2654   2653   2665   2667     1  0.0000000  0.6508444  3
   2655   2653   2665   5398     1  0.0000000  1.0460000  1
   2655   2653   2665   5398     1  0.0000000  0.0000000  3
   2655   2653   2665   2666     1  0.0000000  0.6508444  3
   2655   2653   2665   2667     1  0.0000000  0.6508444  3
   2656   2644   2640   2669     1  0.0000000  0.6508444  3
   2657   2656   2662   5368     1  0.0000000  1.0460000  1
   2657   2656   2662   5368     1  0.0000000  0.0000000  3
   2657   2656   2662   2663     1  0.0000000  0.6508444  3
   2657   2656   2662   2664     1  0.0000000  0.6508444  3
   2658   2656   2662   5368     1  0.0000000  1.0460000  1
   2658   2656   2662   5368     1  0.0000000  0.0000000  3
   2658   2656   2662   2663     1  0.0000000  0.6508444  3
   2658   2656   2662   2664     1  0.0000000  0.6508444  3
   2662   5368   5359   5360     1  0.0000000  1.6038667  3
   2662   5368   5359   5361     1  0.0000000  1.6038667  3
   2663   2662   5368   5359     1  0.0000000  1.6038667  3
   2664   2662   5368   5359     1  0.0000000  1.6038667  3
   2665   5398   5389   5390     1  0.0000000  1.6038667  3
   2665   5398   5389   5391     1  0.0000000  1.6038667  3
   2666   2665   5398   5389     1  0.0000000  1.6038667  3
   2667   2665   5398   5389     1  0.0000000  1.6038667  3
   2670   2671   2683   2684     1  0.0000000  0.6508444  3
   2670   2671   2683   2685     1  0.0000000  0.6508444  3
   2670   2674   2686   2687     1  0.0000000  0.6508444  3
   2670   2674   2686   2688     1  0.0000000  0.6508444  3
   2670   2677   2680   2681     1  0.0000000  0.6508444  3
   2670   2677   2680   2682     1  0.0000000  0.6508444  3
   2671   2670   2674   2675     1  0.0000000  0.6508444  3
   2671   2670   2674   2676     1  0.0000000  0.6508444  3
   2671   2670   2677   2678     1  0.0000000  0.6508444  3
   2671   2670   2677   2679     1  0.0000000  0.6508444  3
   2671   2683   2695   2696     1  0.0000000  0.6508444  3
   2671   2683   2695   2697     1  0.0000000  0.6508444  3
   2672   2671   2670   2674     1  0.0000000  0.6508444  3
   2672   2671   2670   2677     1  0.0000000  0.6508444  3
   2672   2671   2670   2699     1  0.0000000  0.6508444  3
   2672   2671   2683   2695     1  0.0000000  0.6508444  3
   2672   2671   2683   2684     1  0.0000000  0.6508444  3
   2672   2671   2683   2685     1  0.0000000  0.6508444  3
   2673   2671   2670   2674     1  0.0000000  0.6508444  3
   2673   2671   2670   2677     1  0.0000000  0.6508444  3
   2673   2671   2670   2699     1  0.0000000  0.6508444  3
   2673   2671   2683   2695     1  0.0000000  0.6508444  3
   2673   2671   2683   2684     1  0.0000000  0.6508444  3
   2673   2671   2683   2685     1  0.0000000  0.6508444  3
   2674   2670   2677   2678     1  0.0000000  0.6508444  3
   2674   2670   2677   2679     1  0.0000000  0.6508444  3
   2674   2686   2692   2693     1  0.0000000  0.6508444  3
   2674   2686   2692   2694     1  0.0000000  0.6508444  3
   2675   2674   2670   2677     1  0.0000000  0.6508444  3
   2675   2674   2670   2699     1  0.0000000  0.6508444  3
   2675   2674   2686   2692     1  0.0000000  0.6508444  3
   2675   2674   2686   2687     1  0.0000000  0.6508444  3
   2675   2674   2686   2688     1  0.0000000  0.6508444  3
   2676   2674   2670   2677     1  0.0000000  0.6508444  3
   2676   2674   2670   2699     1  0.0000000  0.6508444  3
   2676   2674   2686   2692     1  0.0000000  0.6508444  3
   2676   2674   2686   2687     1  0.0000000  0.6508444  3
   2676   2674   2686   2688     1  0.0000000  0.6508444  3
   2677   2680   2689   2690     1  0.0000000  0.6508444  3
   2677   2680   2689   2691     1  0.0000000  0.6508444  3
   2678   2677   2670   2699     1  0.0000000  0.6508444  3
   2678   2677   2680   2689     1  0.0000000  0.6508444  3
   2678   2677   2680   2681     1  0.0000000  0.6508444  3
   2678   2677   2680   2682     1  0.0000000  0.6508444  3
   2679   2677   2670   2699     1  0.0000000  0.6508444  3
   2679   2677   2680   2689     1  0.0000000  0.6508444  3
   2679   2677   2680   2681     1  0.0000000  0.6508444  3
   2679   2677   2680   2682     1  0.0000000  0.6508444  3
   2680   2677   2670   2699     1  0.0000000  0.6508444  3
   2681   2680   2689   2698     1  0.0000000  1.0460000  1
   2681   2680   2689   2698     1  0.0000000  0.0000000  3
   2681   2680   2689   2690     1  0.0000000  0.6508444  3
   2681   2680   2689   2691     1  0.0000000  0.6508444  3
   2682   2680   2689   2698     1  0.0000000  1.0460000  1
   2682   2680   2689   2698     1  0.0000000  0.0000000  3
   2682   2680   2689   2690     1  0.0000000  0.6508444  3
   2682   2680   2689   2691     1  0.0000000  0.6508444  3
   2683   2671   2670   2699     1  0.0000000  0.6508444  3
   2684   2683   2695   5458     1  0.0000000  1.0460000  1
   2684   2683   2695   5458     1  0.0000000  0.0000000  3
   2684   2683   2695   2696     1  0.0000000  0.6508444  3
   2684   2683   2695   2697     1  0.0000000  0.6508444  3
   2685   2683   2695   5458     1  0.0000000  1.0460000  1
   2685   2683   2695   5458     1  0.0000000  0.0000000  3
   2685   2683   2695   2696     1  0.0000000  0.6508444  3
   2685   2683   2695   2697     1  0.0000000  0.6508444  3
   2686   2674   2670   2699     1  0.0000000  0.6508444  3
   2687   2686   2692   5428     1  0.0000000  1.0460000  1
   2687   2686   2692   5428     1  0.0000000  0.0000000  3
   2687   2686   2692   2693     1  0.0000000  0.6508444  3
   2687   2686   2692   2694     1  0.0000000  0.6508444  3
   2688   2686   2692   5428     1  0.0000000  1.0460000  1
   2688   2686   2692   5428     1  0.0000000  0.0000000  3
   2688   2686   2692   2693     1  0.0000000  0.6508444  3
   2688   2686   2692   2694     1  0.0000000  0.6508444  3
   2692   5428   5419   5420     1  0.0000000  1.6038667  3
   2692   5428   5419   5421     1  0.0000000  1.6038667  3
   2693   2692   5428   5419     1  0.0000000  1.6038667  3
   2694   2692   5428   5419     1  0.0000000  1.6038667  3
   2695   5458   5449   5450     1  0.0000000  1.6038667  3
   2695   5458   5449   5451     1  0.0000000  1.6038667  3
   2696   2695   5458   5449     1  0.0000000  1.6038667  3
   2697   2695   5458   5449     1  0.0000000  1.6038667  3
   2700   2701   2713   2714     1  0.0000000  0.6508444  3
   2700   2701   2713   2715     1  0.0000000  0.6508444  3
   2700   2704   2716   2717     1  0.0000000  0.6508444  3
   2700   2704   2716   2718     1  0.0000000  0.6508444  3
   2700   2707   2710   2711     1  0.0000000  0.6508444  3
   2700   2707   2710   2712     1  0.0000000  0.6508444  3
   2701   2700   2704   2705     1  0.0000000  0.6508444  3
   2701   2700   2704   2706     1  0.0000000  0.6508444  3
   2701   2700   2707   2708     1  0.0000000  0.6508444  3
   2701   2700   2707   2709     1  0.0000000  0.6508444  3
   2701   2713   2725   2726     1  0.0000000  0.6508444  3
   2701   2713   2725   2727     1  0.0000000  0.6508444  3
   2702   2701   2700   2704     1  0.0000000  0.6508444  3
   2702   2701   2700   2707     1  0.0000000  0.6508444  3
   2702   2701   2700   2729     1  0.0000000  0.6508444  3
   2702   2701   2713   2725     1  0.0000000  0.6508444  3
   2702   2701   2713   2714     1  0.0000000  0.6508444  3
   2702   2701   2713   2715     1  0.0000000  0.6508444  3
   2703   2701   2700   2704     1  0.0000000  0.6508444  3
   2703   2701   2700   2707     1  0.0000000  0.6508444  3
   2703   2701   2700   2729     1  0.0000000  0.6508444  3
   2703   2701   2713   2725     1  0.0000000  0.6508444  3
   2703   2701   2713   2714     1  0.0000000  0.6508444  3
   2703   2701   2713   2715     1  0.0000000  0.6508444  3
   2704   2700   2707   2708     1  0.0000000  0.6508444  3
   2704   2700   2707   2709     1  0.0000000  0.6508444  3
   2704   2716   2722   2723     1  0.0000000  0.6508444  3
   2704   2716   2722   2724     1  0.0000000  0.6508444  3
   2705   2704   2700   2707     1  0.0000000  0.6508444  3
   2705   2704   2700   2729     1  0.0000000  0.6508444  3
   2705   2704   2716   2722     1  0.0000000  0.6508444  3
   2705   2704   2716   2717     1  0.0000000  0.6508444  3
   2705   2704   2716   2718     1  0.0000000  0.6508444  3
   2706   2704   2700   2707     1  0.0000000  0.6508444  3
   2706   2704   2700   2729     1  0.0000000  0.6508444  3
   2706   2704   2716   2722     1  0.0000000  0.6508444  3
   2706   2704   2716   2717     1  0.0000000  0.6508444  3
   2706   2704   2716   2718     1  0.0000000  0.6508444  3
   2707   2710   2719   2720     1  0.0000000  0.6508444  3
   2707   2710   2719   2721     1  0.0000000  0.6508444  3
   2708   2707   2700   2729     1  0.0000000  0.6508444  3
   2708   2707   2710   2719     1  0.0000000  0.6508444  3
   2708   2707   2710   2711     1  0.0000000  0.6508444  3
   2708   2707   2710   2712     1  0.0000000  0.6508444  3
   2709   2707   2700   2729     1  0.0000000  0.6508444  3
   2709   2707   2710   2719     1  0.0000000  0.6508444  3
   2709   2707   2710   2711     1  0.0000000  0.6508444  3
   2709   2707   2710   2712     1  0.0000000  0.6508444  3
   2710   2707   2700   2729     1  0.0000000  0.6508444  3
   2711   2710   2719   2728     1  0.0000000  1.0460000  1
   2711   2710   2719   2728     1  0.0000000  0.0000000  3
   2711   2710   2719   2720     1  0.0000000  0.6508444  3
   2711   2710   2719   2721     1  0.0000000  0.6508444  3
   2712   2710   2719   2728     1  0.0000000  1.0460000  1
   2712   2710   2719   2728     1  0.0000000  0.0000000  3
   2712   2710   2719   2720     1  0.0000000  0.6508444  3
   2712   2710   2719   2721     1  0.0000000  0.6508444  3
   2713   2701   2700   2729     1  0.0000000  0.6508444  3
   2714   2713   2725   5518     1  0.0000000  1.0460000  1
   2714   2713   2725   5518     1  0.0000000  0.0000000  3
   2714   2713   2725   2726     1  0.0000000  0.6508444  3
   2714   2713   2725   2727     1  0.0000000  0.6508444  3
   2715   2713   2725   5518     1  0.0000000  1.0460000  1
   2715   2713   2725   5518     1  0.0000000  0.0000000  3
   2715   2713   2725   2726     1  0.0000000  0.6508444  3
   2715   2713   2725   2727     1  0.0000000  0.6508444  3
   2716   2704   2700   2729     1  0.0000000  0.6508444  3
   2717   2716   2722   5488     1  0.0000000  1.0460000  1
   2717   2716   2722   5488     1  0.0000000  0.0000000  3
   2717   2716   2722   2723     1  0.0000000  0.6508444  3
   2717   2716   2722   2724     1  0.0000000  0.6508444  3
   2718   2716   2722   5488     1  0.0000000  1.0460000  1
   2718   2716   2722   5488     1  0.0000000  0.0000000  3
   2718   2716   2722   2723     1  0.0000000  0.6508444  3
   2718   2716   2722   2724     1  0.0000000  0.6508444  3
   2722   5488   5479   5480     1  0.0000000  1.6038667  3
   2722   5488   5479   5481     1  0.0000000  1.6038667  3
   2723   2722   5488   5479     1  0.0000000  1.6038667  3
   2724   2722   5488   5479     1  0.0000000  1.6038667  3
   2725   5518   5509   5510     1  0.0000000  1.6038667  3
   2725   5518   5509   5511     1  0.0000000  1.6038667  3
   2726   2725   5518   5509     1  0.0000000  1.6038667  3
   2727   2725   5518   5509     1  0.0000000  1.6038667  3
   2730   2731   2743   2744     1  0.0000000  0.6508444  3
   2730   2731   2743   2745     1  0.0000000  0.6508444  3
   2730   2734   2746   2747     1  0.0000000  0.6508444  3
   2730   2734   2746   2748     1  0.0000000  0.6508444  3
   2730   2737   2740   2741     1  0.0000000  0.6508444  3
   2730   2737   2740   2742     1  0.0000000  0.6508444  3
   2731   2730   2734   2735     1  0.0000000  0.6508444  3
   2731   2730   2734   2736     1  0.0000000  0.6508444  3
   2731   2730   2737   2738     1  0.0000000  0.6508444  3
   2731   2730   2737   2739     1  0.0000000  0.6508444  3
   2731   2743   2755   2756     1  0.0000000  0.6508444  3
   2731   2743   2755   2757     1  0.0000000  0.6508444  3
   2732   2731   2730   2734     1  0.0000000  0.6508444  3
   2732   2731   2730   2737     1  0.0000000  0.6508444  3
   2732   2731   2730   2759     1  0.0000000  0.6508444  3
   2732   2731   2743   2755     1  0.0000000  0.6508444  3
   2732   2731   2743   2744     1  0.0000000  0.6508444  3
   2732   2731   2743   2745     1  0.0000000  0.6508444  3
   2733   2731   2730   2734     1  0.0000000  0.6508444  3
   2733   2731   2730   2737     1  0.0000000  0.6508444  3
   2733   2731   2730   2759     1  0.0000000  0.6508444  3
   2733   2731   2743   2755     1  0.0000000  0.6508444  3
   2733   2731   2743   2744     1  0.0000000  0.6508444  3
   2733   2731   2743   2745     1  0.0000000  0.6508444  3
   2734   2730   2737   2738     1  0.0000000  0.6508444  3
   2734   2730   2737   2739     1  0.0000000  0.6508444  3
   2734   2746   2752   2753     1  0.0000000  0.6508444  3
   2734   2746   2752   2754     1  0.0000000  0.6508444  3
   2735   2734   2730   2737     1  0.0000000  0.6508444  3
   2735   2734   2730   2759     1  0.0000000  0.6508444  3
   2735   2734   2746   2752     1  0.0000000  0.6508444  3
   2735   2734   2746   2747     1  0.0000000  0.6508444  3
   2735   2734   2746   2748     1  0.0000000  0.6508444  3
   2736   2734   2730   2737     1  0.0000000  0.6508444  3
   2736   2734   2730   2759     1  0.0000000  0.6508444  3
   2736   2734   2746   2752     1  0.0000000  0.6508444  3
   2736   2734   2746   2747     1  0.0000000  0.6508444  3
   2736   2734   2746   2748     1  0.0000000  0.6508444  3
   2737   2740   2749   2750     1  0.0000000  0.6508444  3
   2737   2740   2749   2751     1  0.0000000  0.6508444  3
   2738   2737   2730   2759     1  0.0000000  0.6508444  3
   2738   2737   2740   2749     1  0.0000000  0.6508444  3
   2738   2737   2740   2741     1  0.0000000  0.6508444  3
   2738   2737   2740   2742     1  0.0000000  0.6508444  3
   2739   2737   2730   2759     1  0.0000000  0.6508444  3
   2739   2737   2740   2749     1  0.0000000  0.6508444  3
   2739   2737   2740   2741     1  0.0000000  0.6508444  3
   2739   2737   2740   2742     1  0.0000000  0.6508444  3
   2740   2737   2730   2759     1  0.0000000  0.6508444  3
   2741   2740   2749   2758     1  0.0000000  1.0460000  1
   2741   2740   2749   2758     1  0.0000000  0.0000000  3
   2741   2740   2749   2750     1  0.0000000  0.6508444  3
   2741   2740   2749   2751     1  0.0000000  0.6508444  3
   2742   2740   2749   2758     1  0.0000000  1.0460000  1
   2742   2740   2749   2758     1  0.0000000  0.0000000  3
   2742   2740   2749   2750     1  0.0000000  0.6508444  3
   2742   2740   2749   2751     1  0.0000000  0.6508444  3
   2743   2731   2730   2759     1  0.0000000  0.6508444  3
   2744   2743   2755   5578     1  0.0000000  1.0460000  1
   2744   2743   2755   5578     1  0.0000000  0.0000000  3
   2744   2743   2755   2756     1  0.0000000  0.6508444  3
   2744   2743   2755   2757     1  0.0000000  0.6508444  3
   2745   2743   2755   5578     1  0.0000000  1.0460000  1
   2745   2743   2755   5578     1  0.0000000  0.0000000  3
   2745   2743   2755   2756     1  0.0000000  0.6508444  3
   2745   2743   2755   2757     1  0.0000000  0.6508444  3
   2746   2734   2730   2759     1  0.0000000  0.6508444  3
   2747   2746   2752   5548     1  0.0000000  1.0460000  1
   2747   2746   2752   5548     1  0.0000000  0.0000000  3
   2747   2746   2752   2753     1  0.0000000  0.6508444  3
   2747   2746   2752   2754     1  0.0000000  0.6508444  3
   2748   2746   2752   5548     1  0.0000000  1.0460000  1
   2748   2746   2752   5548     1  0.0000000  0.0000000  3
   2748   2746   2752   2753     1  0.0000000  0.6508444  3
   2748   2746   2752   2754     1  0.0000000  0.6508444  3
   2752   5548   5539   5540     1  0.0000000  1.6038667  3
   2752   5548   5539   5541     1  0.0000000  1.6038667  3
   2753   2752   5548   5539     1  0.0000000  1.6038667  3
   2754   2752   5548   5539     1  0.0000000  1.6038667  3
   2755   5578   5569   5570     1  0.0000000  1.6038667  3
   2755   5578   5569   5571     1  0.0000000  1.6038667  3
   2756   2755   5578   5569     1  0.0000000  1.6038667  3
   2757   2755   5578   5569     1  0.0000000  1.6038667  3
   2760   2761   2773   2774     1  0.0000000  0.6508444  3
   2760   2761   2773   2775     1  0.0000000  0.6508444  3
   2760   2764   2776   2777     1  0.0000000  0.6508444  3
   2760   2764   2776   2778     1  0.0000000  0.6508444  3
   2760   2767   2770   2771     1  0.0000000  0.6508444  3
   2760   2767   2770   2772     1  0.0000000  0.6508444  3
   2761   2760   2764   2765     1  0.0000000  0.6508444  3
   2761   2760   2764   2766     1  0.0000000  0.6508444  3
   2761   2760   2767   2768     1  0.0000000  0.6508444  3
   2761   2760   2767   2769     1  0.0000000  0.6508444  3
   2761   2773   2785   2786     1  0.0000000  0.6508444  3
   2761   2773   2785   2787     1  0.0000000  0.6508444  3
   2762   2761   2760   2764     1  0.0000000  0.6508444  3
   2762   2761   2760   2767     1  0.0000000  0.6508444  3
   2762   2761   2760   2789     1  0.0000000  0.6508444  3
   2762   2761   2773   2785     1  0.0000000  0.6508444  3
   2762   2761   2773   2774     1  0.0000000  0.6508444  3
   2762   2761   2773   2775     1  0.0000000  0.6508444  3
   2763   2761   2760   2764     1  0.0000000  0.6508444  3
   2763   2761   2760   2767     1  0.0000000  0.6508444  3
   2763   2761   2760   2789     1  0.0000000  0.6508444  3
   2763   2761   2773   2785     1  0.0000000  0.6508444  3
   2763   2761   2773   2774     1  0.0000000  0.6508444  3
   2763   2761   2773   2775     1  0.0000000  0.6508444  3
   2764   2760   2767   2768     1  0.0000000  0.6508444  3
   2764   2760   2767   2769     1  0.0000000  0.6508444  3
   2764   2776   2782   2783     1  0.0000000  0.6508444  3
   2764   2776   2782   2784     1  0.0000000  0.6508444  3
   2765   2764   2760   2767     1  0.0000000  0.6508444  3
   2765   2764   2760   2789     1  0.0000000  0.6508444  3
   2765   2764   2776   2782     1  0.0000000  0.6508444  3
   2765   2764   2776   2777     1  0.0000000  0.6508444  3
   2765   2764   2776   2778     1  0.0000000  0.6508444  3
   2766   2764   2760   2767     1  0.0000000  0.6508444  3
   2766   2764   2760   2789     1  0.0000000  0.6508444  3
   2766   2764   2776   2782     1  0.0000000  0.6508444  3
   2766   2764   2776   2777     1  0.0000000  0.6508444  3
   2766   2764   2776   2778     1  0.0000000  0.6508444  3
   2767   2770   2779   2780     1  0.0000000  0.6508444  3
   2767   2770   2779   2781     1  0.0000000  0.6508444  3
   2768   2767   2760   2789     1  0.0000000  0.6508444  3
   2768   2767   2770   2779     1  0.0000000  0.6508444  3
   2768   2767   2770   2771     1  0.0000000  0.6508444  3
   2768   2767   2770   2772     1  0.0000000  0.6508444  3
   2769   2767   2760   2789     1  0.0000000  0.6508444  3
   2769   2767   2770   2779     1  0.0000000  0.6508444  3
   2769   2767   2770   2771     1  0.0000000  0.6508444  3
   2769   2767   2770   2772     1  0.0000000  0.6508444  3
   2770   2767   2760   2789     1  0.0000000  0.6508444  3
   2771   2770   2779   2788     1  0.0000000  1.0460000  1
   2771   2770   2779   2788     1  0.0000000  0.0000000  3
   2771   2770   2779   2780     1  0.0000000  0.6508444  3
   2771   2770   2779   2781     1  0.0000000  0.6508444  3
   2772   2770   2779   2788     1  0.0000000  1.0460000  1
   2772   2770   2779   2788     1  0.0000000  0.0000000  3
   2772   2770   2779   2780     1  0.0000000  0.6508444  3
   2772   2770   2779   2781     1  0.0000000  0.6508444  3
   2773   2761   2760   2789     1  0.0000000  0.6508444  3
   2774   2773   2785   5638     1  0.0000000  1.0460000  1
   2774   2773   2785   5638     1  0.0000000  0.0000000  3
   2774   2773   2785   2786     1  0.0000000  0.6508444  3
   2774   2773   2785   2787     1  0.0000000  0.6508444  3
   2775   2773   2785   5638     1  0.0000000  1.0460000  1
   2775   2773   2785   5638     1  0.0000000  0.0000000  3
   2775   2773   2785   2786     1  0.0000000  0.6508444  3
   2775   2773   2785   2787     1  0.0000000  0.6508444  3
   2776   2764   2760   2789     1  0.0000000  0.6508444  3
   2777   2776   2782   5608     1  0.0000000  1.0460000  1
   2777   2776   2782   5608     1  0.0000000  0.0000000  3
   2777   2776   2782   2783     1  0.0000000  0.6508444  3
   2777   2776   2782   2784     1  0.0000000  0.6508444  3
   2778   2776   2782   5608     1  0.0000000  1.0460000  1
   2778   2776   2782   5608     1  0.0000000  0.0000000  3
   2778   2776   2782   2783     1  0.0000000  0.6508444  3
   2778   2776   2782   2784     1  0.0000000  0.6508444  3
   2782   5608   5599   5600     1  0.0000000  1.6038667  3
   2782   5608   5599   5601     1  0.0000000  1.6038667  3
   2783   2782   5608   5599     1  0.0000000  1.6038667  3
   2784   2782   5608   5599     1  0.0000000  1.6038667  3
   2785   5638   5629   5630     1  0.0000000  1.6038667  3
   2785   5638   5629   5631     1  0.0000000  1.6038667  3
   2786   2785   5638   5629     1  0.0000000  1.6038667  3
   2787   2785   5638   5629     1  0.0000000  1.6038667  3
   2790   2791   2803   2804     1  0.0000000  0.6508444  3
   2790   2791   2803   2805     1  0.0000000  0.6508444  3
   2790   2794   2806   2807     1  0.0000000  0.6508444  3
   2790   2794   2806   2808     1  0.0000000  0.6508444  3
   2790   2797   2800   2801     1  0.0000000  0.6508444  3
   2790   2797   2800   2802     1  0.0000000  0.6508444  3
   2791   2790   2794   2795     1  0.0000000  0.6508444  3
   2791   2790   2794   2796     1  0.0000000  0.6508444  3
   2791   2790   2797   2798     1  0.0000000  0.6508444  3
   2791   2790   2797   2799     1  0.0000000  0.6508444  3
   2791   2803   2815   2816     1  0.0000000  0.6508444  3
   2791   2803   2815   2817     1  0.0000000  0.6508444  3
   2792   2791   2790   2794     1  0.0000000  0.6508444  3
   2792   2791   2790   2797     1  0.0000000  0.6508444  3
   2792   2791   2790   2819     1  0.0000000  0.6508444  3
   2792   2791   2803   2815     1  0.0000000  0.6508444  3
   2792   2791   2803   2804     1  0.0000000  0.6508444  3
   2792   2791   2803   2805     1  0.0000000  0.6508444  3
   2793   2791   2790   2794     1  0.0000000  0.6508444  3
   2793   2791   2790   2797     1  0.0000000  0.6508444  3
   2793   2791   2790   2819     1  0.0000000  0.6508444  3
   2793   2791   2803   2815     1  0.0000000  0.6508444  3
   2793   2791   2803   2804     1  0.0000000  0.6508444  3
   2793   2791   2803   2805     1  0.0000000  0.6508444  3
   2794   2790   2797   2798     1  0.0000000  0.6508444  3
   2794   2790   2797   2799     1  0.0000000  0.6508444  3
   2794   2806   2812   2813     1  0.0000000  0.6508444  3
   2794   2806   2812   2814     1  0.0000000  0.6508444  3
   2795   2794   2790   2797     1  0.0000000  0.6508444  3
   2795   2794   2790   2819     1  0.0000000  0.6508444  3
   2795   2794   2806   2812     1  0.0000000  0.6508444  3
   2795   2794   2806   2807     1  0.0000000  0.6508444  3
   2795   2794   2806   2808     1  0.0000000  0.6508444  3
   2796   2794   2790   2797     1  0.0000000  0.6508444  3
   2796   2794   2790   2819     1  0.0000000  0.6508444  3
   2796   2794   2806   2812     1  0.0000000  0.6508444  3
   2796   2794   2806   2807     1  0.0000000  0.6508444  3
   2796   2794   2806   2808     1  0.0000000  0.6508444  3
   2797   2800   2809   2810     1  0.0000000  0.6508444  3
   2797   2800   2809   2811     1  0.0000000  0.6508444  3
   2798   2797   2790   2819     1  0.0000000  0.6508444  3
   2798   2797   2800   2809     1  0.0000000  0.6508444  3
   2798   2797   2800   2801     1  0.0000000  0.6508444  3
   2798   2797   2800   2802     1  0.0000000  0.6508444  3
   2799   2797   2790   2819     1  0.0000000  0.6508444  3
   2799   2797   2800   2809     1  0.0000000  0.6508444  3
   2799   2797   2800   2801     1  0.0000000  0.6508444  3
   2799   2797   2800   2802     1  0.0000000  0.6508444  3
   2800   2797   2790   2819     1  0.0000000  0.6508444  3
   2801   2800   2809   2818     1  0.0000000  1.0460000  1
   2801   2800   2809   2818     1  0.0000000  0.0000000  3
   2801   2800   2809   2810     1  0.0000000  0.6508444  3
   2801   2800   2809   2811     1  0.0000000  0.6508444  3
   2802   2800   2809   2818     1  0.0000000  1.0460000  1
   2802   2800   2809   2818     1  0.0000000  0.0000000  3
   2802   2800   2809   2810     1  0.0000000  0.6508444  3
   2802   2800   2809   2811     1  0.0000000  0.6508444  3
   2803   2791   2790   2819     1  0.0000000  0.6508444  3
   2804   2803   2815   5698     1  0.0000000  1.0460000  1
   2804   2803   2815   5698     1  0.0000000  0.0000000  3
   2804   2803   2815   2816     1  0.0000000  0.6508444  3
   2804   2803   2815   2817     1  0.0000000  0.6508444  3
   2805   2803   2815   5698     1  0.0000000  1.0460000  1
   2805   2803   2815   5698     1  0.0000000  0.0000000  3
   2805   2803   2815   2816     1  0.0000000  0.6508444  3
   2805   2803   2815   2817     1  0.0000000  0.6508444  3
   2806   2794   2790   2819     1  0.0000000  0.6508444  3
   2807   2806   2812   5668     1  0.0000000  1.0460000  1
   2807   2806   2812   5668     1  0.0000000  0.0000000  3
   2807   2806   2812   2813     1  0.0000000  0.6508444  3
   2807   2806   2812   2814     1  0.0000000  0.6508444  3
   2808   2806   2812   5668     1  0.0000000  1.0460000  1
   2808   2806   2812   5668     1  0.0000000  0.0000000  3
   2808   2806   2812   2813     1  0.0000000  0.6508444  3
   2808   2806   2812   2814     1  0.0000000  0.6508444  3
   2812   5668   5659   5660     1  0.0000000  1.6038667  3
   2812   5668   5659   5661     1  0.0000000  1.6038667  3
   2813   2812   5668   5659     1  0.0000000  1.6038667  3
   2814   2812   5668   5659     1  0.0000000  1.6038667  3
   2815   5698   5689   5690     1  0.0000000  1.6038667  3
   2815   5698   5689   5691     1  0.0000000  1.6038667  3
   2816   2815   5698   5689     1  0.0000000  1.6038667  3
   2817   2815   5698   5689     1  0.0000000  1.6038667  3
   2820   2821   2833   2834     1  0.0000000  0.6508444  3
   2820   2821   2833   2835     1  0.0000000  0.6508444  3
   2820   2824   2836   2837     1  0.0000000  0.6508444  3
   2820   2824   2836   2838     1  0.0000000  0.6508444  3
   2820   2827   2830   2831     1  0.0000000  0.6508444  3
   2820   2827   2830   2832     1  0.0000000  0.6508444  3
   2821   2820   2824   2825     1  0.0000000  0.6508444  3
   2821   2820   2824   2826     1  0.0000000  0.6508444  3
   2821   2820   2827   2828     1  0.0000000  0.6508444  3
   2821   2820   2827   2829     1  0.0000000  0.6508444  3
   2821   2833   2845   2846     1  0.0000000  0.6508444  3
   2821   2833   2845   2847     1  0.0000000  0.6508444  3
   2822   2821   2820   2824     1  0.0000000  0.6508444  3
   2822   2821   2820   2827     1  0.0000000  0.6508444  3
   2822   2821   2820   2849     1  0.0000000  0.6508444  3
   2822   2821   2833   2845     1  0.0000000  0.6508444  3
   2822   2821   2833   2834     1  0.0000000  0.6508444  3
   2822   2821   2833   2835     1  0.0000000  0.6508444  3
   2823   2821   2820   2824     1  0.0000000  0.6508444  3
   2823   2821   2820   2827     1  0.0000000  0.6508444  3
   2823   2821   2820   2849     1  0.0000000  0.6508444  3
   2823   2821   2833   2845     1  0.0000000  0.6508444  3
   2823   2821   2833   2834     1  0.0000000  0.6508444  3
   2823   2821   2833   2835     1  0.0000000  0.6508444  3
   2824   2820   2827   2828     1  0.0000000  0.6508444  3
   2824   2820   2827   2829     1  0.0000000  0.6508444  3
   2824   2836   2842   2843     1  0.0000000  0.6508444  3
   2824   2836   2842   2844     1  0.0000000  0.6508444  3
   2825   2824   2820   2827     1  0.0000000  0.6508444  3
   2825   2824   2820   2849     1  0.0000000  0.6508444  3
   2825   2824   2836   2842     1  0.0000000  0.6508444  3
   2825   2824   2836   2837     1  0.0000000  0.6508444  3
   2825   2824   2836   2838     1  0.0000000  0.6508444  3
   2826   2824   2820   2827     1  0.0000000  0.6508444  3
   2826   2824   2820   2849     1  0.0000000  0.6508444  3
   2826   2824   2836   2842     1  0.0000000  0.6508444  3
   2826   2824   2836   2837     1  0.0000000  0.6508444  3
   2826   2824   2836   2838     1  0.0000000  0.6508444  3
   2827   2830   2839   2840     1  0.0000000  0.6508444  3
   2827   2830   2839   2841     1  0.0000000  0.6508444  3
   2828   2827   2820   2849     1  0.0000000  0.6508444  3
   2828   2827   2830   2839     1  0.0000000  0.6508444  3
   2828   2827   2830   2831     1  0.0000000  0.6508444  3
   2828   2827   2830   2832     1  0.0000000  0.6508444  3
   2829   2827   2820   2849     1  0.0000000  0.6508444  3
   2829   2827   2830   2839     1  0.0000000  0.6508444  3
   2829   2827   2830   2831     1  0.0000000  0.6508444  3
   2829   2827   2830   2832     1  0.0000000  0.6508444  3
   2830   2827   2820   2849     1  0.0000000  0.6508444  3
   2831   2830   2839   2848     1  0.0000000  1.0460000  1
   2831   2830   2839   2848     1  0.0000000  0.0000000  3
   2831   2830   2839   2840     1  0.0000000  0.6508444  3
   2831   2830   2839   2841     1  0.0000000  0.6508444  3
   2832   2830   2839   2848     1  0.0000000  1.0460000  1
   2832   2830   2839   2848     1  0.0000000  0.0000000  3
   2832   2830   2839   2840     1  0.0000000  0.6508444  3
   2832   2830   2839   2841     1  0.0000000  0.6508444  3
   2833   2821   2820   2849     1  0.0000000  0.6508444  3
   2834   2833   2845   5726     1  0.0000000  1.0460000  1
   2834   2833   2845   5726     1  0.0000000  0.0000000  3
   2834   2833   2845   2846     1  0.0000000  0.6508444  3
   2834   2833   2845   2847     1  0.0000000  0.6508444  3
   2835   2833   2845   5726     1  0.0000000  1.0460000  1
   2835   2833   2845   5726     1  0.0000000  0.0000000  3
   2835   2833   2845   2846     1  0.0000000  0.6508444  3
   2835   2833   2845   2847     1  0.0000000  0.6508444  3
   2836   2824   2820   2849     1  0.0000000  0.6508444  3
   2837   2836   2842   5712     1  0.0000000  1.0460000  1
   2837   2836   2842   5712     1  0.0000000  0.0000000  3
   2837   2836   2842   2843     1  0.0000000  0.6508444  3
   2837   2836   2842   2844     1  0.0000000  0.6508444  3
   2838   2836   2842   5712     1  0.0000000  1.0460000  1
   2838   2836   2842   5712     1  0.0000000  0.0000000  3
   2838   2836   2842   2843     1  0.0000000  0.6508444  3
   2838   2836   2842   2844     1  0.0000000  0.6508444  3
   2842   5712   5706   5707     1  0.0000000  1.6038667  3
   2842   5712   5706   5708     1  0.0000000  1.6038667  3
   2843   2842   5712   5706     1  0.0000000  1.6038667  3
   2844   2842   5712   5706     1  0.0000000  1.6038667  3
   2845   5726   5720   5721     1  0.0000000  1.6038667  3
   2845   5726   5720   5722     1  0.0000000  1.6038667  3
   2846   2845   5726   5720     1  0.0000000  1.6038667  3
   2847   2845   5726   5720     1  0.0000000  1.6038667  3
   2850   2851   2863   2864     1  0.0000000  0.6508444  3
   2850   2851   2863   2865     1  0.0000000  0.6508444  3
   2850   2854   2866   2867     1  0.0000000  0.6508444  3
   2850   2854   2866   2868     1  0.0000000  0.6508444  3
   2850   2857   2860   2861     1  0.0000000  0.6508444  3
   2850   2857   2860   2862     1  0.0000000  0.6508444  3
   2851   2850   2854   2855     1  0.0000000  0.6508444  3
   2851   2850   2854   2856     1  0.0000000  0.6508444  3
   2851   2850   2857   2858     1  0.0000000  0.6508444  3
   2851   2850   2857   2859     1  0.0000000  0.6508444  3
   2851   2863   2875   2876     1  0.0000000  0.6508444  3
   2851   2863   2875   2877     1  0.0000000  0.6508444  3
   2852   2851   2850   2854     1  0.0000000  0.6508444  3
   2852   2851   2850   2857     1  0.0000000  0.6508444  3
   2852   2851   2850   2879     1  0.0000000  0.6508444  3
   2852   2851   2863   2875     1  0.0000000  0.6508444  3
   2852   2851   2863   2864     1  0.0000000  0.6508444  3
   2852   2851   2863   2865     1  0.0000000  0.6508444  3
   2853   2851   2850   2854     1  0.0000000  0.6508444  3
   2853   2851   2850   2857     1  0.0000000  0.6508444  3
   2853   2851   2850   2879     1  0.0000000  0.6508444  3
   2853   2851   2863   2875     1  0.0000000  0.6508444  3
   2853   2851   2863   2864     1  0.0000000  0.6508444  3
   2853   2851   2863   2865     1  0.0000000  0.6508444  3
   2854   2850   2857   2858     1  0.0000000  0.6508444  3
   2854   2850   2857   2859     1  0.0000000  0.6508444  3
   2854   2866   2872   2873     1  0.0000000  0.6508444  3
   2854   2866   2872   2874     1  0.0000000  0.6508444  3
   2855   2854   2850   2857     1  0.0000000  0.6508444  3
   2855   2854   2850   2879     1  0.0000000  0.6508444  3
   2855   2854   2866   2872     1  0.0000000  0.6508444  3
   2855   2854   2866   2867     1  0.0000000  0.6508444  3
   2855   2854   2866   2868     1  0.0000000  0.6508444  3
   2856   2854   2850   2857     1  0.0000000  0.6508444  3
   2856   2854   2850   2879     1  0.0000000  0.6508444  3
   2856   2854   2866   2872     1  0.0000000  0.6508444  3
   2856   2854   2866   2867     1  0.0000000  0.6508444  3
   2856   2854   2866   2868     1  0.0000000  0.6508444  3
   2857   2860   2869   2870     1  0.0000000  0.6508444  3
   2857   2860   2869   2871     1  0.0000000  0.6508444  3
   2858   2857   2850   2879     1  0.0000000  0.6508444  3
   2858   2857   2860   2869     1  0.0000000  0.6508444  3
   2858   2857   2860   2861     1  0.0000000  0.6508444  3
   2858   2857   2860   2862     1  0.0000000  0.6508444  3
   2859   2857   2850   2879     1  0.0000000  0.6508444  3
   2859   2857   2860   2869     1  0.0000000  0.6508444  3
   2859   2857   2860   2861     1  0.0000000  0.6508444  3
   2859   2857   2860   2862     1  0.0000000  0.6508444  3
   2860   2857   2850   2879     1  0.0000000  0.6508444  3
   2861   2860   2869   2878     1  0.0000000  1.0460000  1
   2861   2860   2869   2878     1  0.0000000  0.0000000  3
   2861   2860   2869   2870     1  0.0000000  0.6508444  3
   2861   2860   2869   2871     1  0.0000000  0.6508444  3
   2862   2860   2869   2878     1  0.0000000  1.0460000  1
   2862   2860   2869   2878     1  0.0000000  0.0000000  3
   2862   2860   2869   2870     1  0.0000000  0.6508444  3
   2862   2860   2869   2871     1  0.0000000  0.6508444  3
   2863   2851   2850   2879     1  0.0000000  0.6508444  3
   2864   2863   2875   5754     1  0.0000000  1.0460000  1
   2864   2863   2875   5754     1  0.0000000  0.0000000  3
   2864   2863   2875   2876     1  0.0000000  0.6508444  3
   2864   2863   2875   2877     1  0.0000000  0.6508444  3
   2865   2863   2875   5754     1  0.0000000  1.0460000  1
   2865   2863   2875   5754     1  0.0000000  0.0000000  3
   2865   2863   2875   2876     1  0.0000000  0.6508444  3
   2865   2863   2875   2877     1  0.0000000  0.6508444  3
   2866   2854   2850   2879     1  0.0000000  0.6508444  3
   2867   2866   2872   5740     1  0.0000000  1.0460000  1
   2867   2866   2872   5740     1  0.0000000  0.0000000  3
   2867   2866   2872   2873     1  0.0000000  0.6508444  3
   2867   2866   2872   2874     1  0.0000000  0.6508444  3
   2868   2866   2872   5740     1  0.0000000  1.0460000  1
   2868   2866   2872   5740     1  0.0000000  0.0000000  3
   2868   2866   2872   2873     1  0.0000000  0.6508444  3
   2868   2866   2872   2874     1  0.0000000  0.6508444  3
   2872   5740   5734   5735     1  0.0000000  1.6038667  3
   2872   5740   5734   5736     1  0.0000000  1.6038667  3
   2873   2872   5740   5734     1  0.0000000  1.6038667  3
   2874   2872   5740   5734     1  0.0000000  1.6038667  3
   2875   5754   5748   5749     1  0.0000000  1.6038667  3
   2875   5754   5748   5750     1  0.0000000  1.6038667  3
   2876   2875   5754   5748     1  0.0000000  1.6038667  3
   2877   2875   5754   5748     1  0.0000000  1.6038667  3
   2880   2881   2893   2894     1  0.0000000  0.6508444  3
   2880   2881   2893   2895     1  0.0000000  0.6508444  3
   2880   2884   2896   2897     1  0.0000000  0.6508444  3
   2880   2884   2896   2898     1  0.0000000  0.6508444  3
   2880   2887   2890   2891     1  0.0000000  0.6508444  3
   2880   2887   2890   2892     1  0.0000000  0.6508444  3
   2881   2880   2884   2885     1  0.0000000  0.6508444  3
   2881   2880   2884   2886     1  0.0000000  0.6508444  3
   2881   2880   2887   2888     1  0.0000000  0.6508444  3
   2881   2880   2887   2889     1  0.0000000  0.6508444  3
   2881   2893   2905   2906     1  0.0000000  0.6508444  3
   2881   2893   2905   2907     1  0.0000000  0.6508444  3
   2882   2881   2880   2884     1  0.0000000  0.6508444  3
   2882   2881   2880   2887     1  0.0000000  0.6508444  3
   2882   2881   2880   2909     1  0.0000000  0.6508444  3
   2882   2881   2893   2905     1  0.0000000  0.6508444  3
   2882   2881   2893   2894     1  0.0000000  0.6508444  3
   2882   2881   2893   2895     1  0.0000000  0.6508444  3
   2883   2881   2880   2884     1  0.0000000  0.6508444  3
   2883   2881   2880   2887     1  0.0000000  0.6508444  3
   2883   2881   2880   2909     1  0.0000000  0.6508444  3
   2883   2881   2893   2905     1  0.0000000  0.6508444  3
   2883   2881   2893   2894     1  0.0000000  0.6508444  3
   2883   2881   2893   2895     1  0.0000000  0.6508444  3
   2884   2880   2887   2888     1  0.0000000  0.6508444  3
   2884   2880   2887   2889     1  0.0000000  0.6508444  3
   2884   2896   2902   2903     1  0.0000000  0.6508444  3
   2884   2896   2902   2904     1  0.0000000  0.6508444  3
   2885   2884   2880   2887     1  0.0000000  0.6508444  3
   2885   2884   2880   2909     1  0.0000000  0.6508444  3
   2885   2884   2896   2902     1  0.0000000  0.6508444  3
   2885   2884   2896   2897     1  0.0000000  0.6508444  3
   2885   2884   2896   2898     1  0.0000000  0.6508444  3
   2886   2884   2880   2887     1  0.0000000  0.6508444  3
   2886   2884   2880   2909     1  0.0000000  0.6508444  3
   2886   2884   2896   2902     1  0.0000000  0.6508444  3
   2886   2884   2896   2897     1  0.0000000  0.6508444  3
   2886   2884   2896   2898     1  0.0000000  0.6508444  3
   2887   2890   2899   2900     1  0.0000000  0.6508444  3
   2887   2890   2899   2901     1  0.0000000  0.6508444  3
   2888   2887   2880   2909     1  0.0000000  0.6508444  3
   2888   2887   2890   2899     1  0.0000000  0.6508444  3
   2888   2887   2890   2891     1  0.0000000  0.6508444  3
   2888   2887   2890   2892     1  0.0000000  0.6508444  3
   2889   2887   2880   2909     1  0.0000000  0.6508444  3
   2889   2887   2890   2899     1  0.0000000  0.6508444  3
   2889   2887   2890   2891     1  0.0000000  0.6508444  3
   2889   2887   2890   2892     1  0.0000000  0.6508444  3
   2890   2887   2880   2909     1  0.0000000  0.6508444  3
   2891   2890   2899   2908     1  0.0000000  1.0460000  1
   2891   2890   2899   2908     1  0.0000000  0.0000000  3
   2891   2890   2899   2900     1  0.0000000  0.6508444  3
   2891   2890   2899   2901     1  0.0000000  0.6508444  3
   2892   2890   2899   2908     1  0.0000000  1.0460000  1
   2892   2890   2899   2908     1  0.0000000  0.0000000  3
   2892   2890   2899   2900     1  0.0000000  0.6508444  3
   2892   2890   2899   2901     1  0.0000000  0.6508444  3
   2893   2881   2880   2909     1  0.0000000  0.6508444  3
   2894   2893   2905   5782     1  0.0000000  1.0460000  1
   2894   2893   2905   5782     1  0.0000000  0.0000000  3
   2894   2893   2905   2906     1  0.0000000  0.6508444  3
   2894   2893   2905   2907     1  0.0000000  0.6508444  3
   2895   2893   2905   5782     1  0.0000000  1.0460000  1
   2895   2893   2905   5782     1  0.0000000  0.0000000  3
   2895   2893   2905   2906     1  0.0000000  0.6508444  3
   2895   2893   2905   2907     1  0.0000000  0.6508444  3
   2896   2884   2880   2909     1  0.0000000  0.6508444  3
   2897   2896   2902   5768     1  0.0000000  1.0460000  1
   2897   2896   2902   5768     1  0.0000000  0.0000000  3
   2897   2896   2902   2903     1  0.0000000  0.6508444  3
   2897   2896   2902   2904     1  0.0000000  0.6508444  3
   2898   2896   2902   5768     1  0.0000000  1.0460000  1
   2898   2896   2902   5768     1  0.0000000  0.0000000  3
   2898   2896   2902   2903     1  0.0000000  0.6508444  3
   2898   2896   2902   2904     1  0.0000000  0.6508444  3
   2902   5768   5762   5763     1  0.0000000  1.6038667  3
   2902   5768   5762   5764     1  0.0000000  1.6038667  3
   2903   2902   5768   5762     1  0.0000000  1.6038667  3
   2904   2902   5768   5762     1  0.0000000  1.6038667  3
   2905   5782   5776   5777     1  0.0000000  1.6038667  3
   2905   5782   5776   5778     1  0.0000000  1.6038667  3
   2906   2905   5782   5776     1  0.0000000  1.6038667  3
   2907   2905   5782   5776     1  0.0000000  1.6038667  3
   2910   2911   2923   2924     1  0.0000000  0.6508444  3
   2910   2911   2923   2925     1  0.0000000  0.6508444  3
   2910   2914   2926   2927     1  0.0000000  0.6508444  3
   2910   2914   2926   2928     1  0.0000000  0.6508444  3
   2910   2917   2920   2921     1  0.0000000  0.6508444  3
   2910   2917   2920   2922     1  0.0000000  0.6508444  3
   2911   2910   2914   2915     1  0.0000000  0.6508444  3
   2911   2910   2914   2916     1  0.0000000  0.6508444  3
   2911   2910   2917   2918     1  0.0000000  0.6508444  3
   2911   2910   2917   2919     1  0.0000000  0.6508444  3
   2911   2923   2935   2936     1  0.0000000  0.6508444  3
   2911   2923   2935   2937     1  0.0000000  0.6508444  3
   2912   2911   2910   2914     1  0.0000000  0.6508444  3
   2912   2911   2910   2917     1  0.0000000  0.6508444  3
   2912   2911   2910   2939     1  0.0000000  0.6508444  3
   2912   2911   2923   2935     1  0.0000000  0.6508444  3
   2912   2911   2923   2924     1  0.0000000  0.6508444  3
   2912   2911   2923   2925     1  0.0000000  0.6508444  3
   2913   2911   2910   2914     1  0.0000000  0.6508444  3
   2913   2911   2910   2917     1  0.0000000  0.6508444  3
   2913   2911   2910   2939     1  0.0000000  0.6508444  3
   2913   2911   2923   2935     1  0.0000000  0.6508444  3
   2913   2911   2923   2924     1  0.0000000  0.6508444  3
   2913   2911   2923   2925     1  0.0000000  0.6508444  3
   2914   2910   2917   2918     1  0.0000000  0.6508444  3
   2914   2910   2917   2919     1  0.0000000  0.6508444  3
   2914   2926   2932   2933     1  0.0000000  0.6508444  3
   2914   2926   2932   2934     1  0.0000000  0.6508444  3
   2915   2914   2910   2917     1  0.0000000  0.6508444  3
   2915   2914   2910   2939     1  0.0000000  0.6508444  3
   2915   2914   2926   2932     1  0.0000000  0.6508444  3
   2915   2914   2926   2927     1  0.0000000  0.6508444  3
   2915   2914   2926   2928     1  0.0000000  0.6508444  3
   2916   2914   2910   2917     1  0.0000000  0.6508444  3
   2916   2914   2910   2939     1  0.0000000  0.6508444  3
   2916   2914   2926   2932     1  0.0000000  0.6508444  3
   2916   2914   2926   2927     1  0.0000000  0.6508444  3
   2916   2914   2926   2928     1  0.0000000  0.6508444  3
   2917   2920   2929   2930     1  0.0000000  0.6508444  3
   2917   2920   2929   2931     1  0.0000000  0.6508444  3
   2918   2917   2910   2939     1  0.0000000  0.6508444  3
   2918   2917   2920   2929     1  0.0000000  0.6508444  3
   2918   2917   2920   2921     1  0.0000000  0.6508444  3
   2918   2917   2920   2922     1  0.0000000  0.6508444  3
   2919   2917   2910   2939     1  0.0000000  0.6508444  3
   2919   2917   2920   2929     1  0.0000000  0.6508444  3
   2919   2917   2920   2921     1  0.0000000  0.6508444  3
   2919   2917   2920   2922     1  0.0000000  0.6508444  3
   2920   2917   2910   2939     1  0.0000000  0.6508444  3
   2921   2920   2929   2938     1  0.0000000  1.0460000  1
   2921   2920   2929   2938     1  0.0000000  0.0000000  3
   2921   2920   2929   2930     1  0.0000000  0.6508444  3
   2921   2920   2929   2931     1  0.0000000  0.6508444  3
   2922   2920   2929   2938     1  0.0000000  1.0460000  1
   2922   2920   2929   2938     1  0.0000000  0.0000000  3
   2922   2920   2929   2930     1  0.0000000  0.6508444  3
   2922   2920   2929   2931     1  0.0000000  0.6508444  3
   2923   2911   2910   2939     1  0.0000000  0.6508444  3
   2924   2923   2935   5810     1  0.0000000  1.0460000  1
   2924   2923   2935   5810     1  0.0000000  0.0000000  3
   2924   2923   2935   2936     1  0.0000000  0.6508444  3
   2924   2923   2935   2937     1  0.0000000  0.6508444  3
   2925   2923   2935   5810     1  0.0000000  1.0460000  1
   2925   2923   2935   5810     1  0.0000000  0.0000000  3
   2925   2923   2935   2936     1  0.0000000  0.6508444  3
   2925   2923   2935   2937     1  0.0000000  0.6508444  3
   2926   2914   2910   2939     1  0.0000000  0.6508444  3
   2927   2926   2932   5796     1  0.0000000  1.0460000  1
   2927   2926   2932   5796     1  0.0000000  0.0000000  3
   2927   2926   2932   2933     1  0.0000000  0.6508444  3
   2927   2926   2932   2934     1  0.0000000  0.6508444  3
   2928   2926   2932   5796     1  0.0000000  1.0460000  1
   2928   2926   2932   5796     1  0.0000000  0.0000000  3
   2928   2926   2932   2933     1  0.0000000  0.6508444  3
   2928   2926   2932   2934     1  0.0000000  0.6508444  3
   2932   5796   5790   5791     1  0.0000000  1.6038667  3
   2932   5796   5790   5792     1  0.0000000  1.6038667  3
   2933   2932   5796   5790     1  0.0000000  1.6038667  3
   2934   2932   5796   5790     1  0.0000000  1.6038667  3
   2935   5810   5804   5805     1  0.0000000  1.6038667  3
   2935   5810   5804   5806     1  0.0000000  1.6038667  3
   2936   2935   5810   5804     1  0.0000000  1.6038667  3
   2937   2935   5810   5804     1  0.0000000  1.6038667  3
   2940   2941   2953   2954     1  0.0000000  0.6508444  3
   2940   2941   2953   2955     1  0.0000000  0.6508444  3
   2940   2944   2956   2957     1  0.0000000  0.6508444  3
   2940   2944   2956   2958     1  0.0000000  0.6508444  3
   2940   2947   2950   2951     1  0.0000000  0.6508444  3
   2940   2947   2950   2952     1  0.0000000  0.6508444  3
   2941   2940   2944   2945     1  0.0000000  0.6508444  3
   2941   2940   2944   2946     1  0.0000000  0.6508444  3
   2941   2940   2947   2948     1  0.0000000  0.6508444  3
   2941   2940   2947   2949     1  0.0000000  0.6508444  3
   2941   2953   2965   2966     1  0.0000000  0.6508444  3
   2941   2953   2965   2967     1  0.0000000  0.6508444  3
   2942   2941   2940   2944     1  0.0000000  0.6508444  3
   2942   2941   2940   2947     1  0.0000000  0.6508444  3
   2942   2941   2940   2969     1  0.0000000  0.6508444  3
   2942   2941   2953   2965     1  0.0000000  0.6508444  3
   2942   2941   2953   2954     1  0.0000000  0.6508444  3
   2942   2941   2953   2955     1  0.0000000  0.6508444  3
   2943   2941   2940   2944     1  0.0000000  0.6508444  3
   2943   2941   2940   2947     1  0.0000000  0.6508444  3
   2943   2941   2940   2969     1  0.0000000  0.6508444  3
   2943   2941   2953   2965     1  0.0000000  0.6508444  3
   2943   2941   2953   2954     1  0.0000000  0.6508444  3
   2943   2941   2953   2955     1  0.0000000  0.6508444  3
   2944   2940   2947   2948     1  0.0000000  0.6508444  3
   2944   2940   2947   2949     1  0.0000000  0.6508444  3
   2944   2956   2962   2963     1  0.0000000  0.6508444  3
   2944   2956   2962   2964     1  0.0000000  0.6508444  3
   2945   2944   2940   2947     1  0.0000000  0.6508444  3
   2945   2944   2940   2969     1  0.0000000  0.6508444  3
   2945   2944   2956   2962     1  0.0000000  0.6508444  3
   2945   2944   2956   2957     1  0.0000000  0.6508444  3
   2945   2944   2956   2958     1  0.0000000  0.6508444  3
   2946   2944   2940   2947     1  0.0000000  0.6508444  3
   2946   2944   2940   2969     1  0.0000000  0.6508444  3
   2946   2944   2956   2962     1  0.0000000  0.6508444  3
   2946   2944   2956   2957     1  0.0000000  0.6508444  3
   2946   2944   2956   2958     1  0.0000000  0.6508444  3
   2947   2950   2959   2960     1  0.0000000  0.6508444  3
   2947   2950   2959   2961     1  0.0000000  0.6508444  3
   2948   2947   2940   2969     1  0.0000000  0.6508444  3
   2948   2947   2950   2959     1  0.0000000  0.6508444  3
   2948   2947   2950   2951     1  0.0000000  0.6508444  3
   2948   2947   2950   2952     1  0.0000000  0.6508444  3
   2949   2947   2940   2969     1  0.0000000  0.6508444  3
   2949   2947   2950   2959     1  0.0000000  0.6508444  3
   2949   2947   2950   2951     1  0.0000000  0.6508444  3
   2949   2947   2950   2952     1  0.0000000  0.6508444  3
   2950   2947   2940   2969     1  0.0000000  0.6508444  3
   2951   2950   2959   2968     1  0.0000000  1.0460000  1
   2951   2950   2959   2968     1  0.0000000  0.0000000  3
   2951   2950   2959   2960     1  0.0000000  0.6508444  3
   2951   2950   2959   2961     1  0.0000000  0.6508444  3
   2952   2950   2959   2968     1  0.0000000  1.0460000  1
   2952   2950   2959   2968     1  0.0000000  0.0000000  3
   2952   2950   2959   2960     1  0.0000000  0.6508444  3
   2952   2950   2959   2961     1  0.0000000  0.6508444  3
   2953   2941   2940   2969     1  0.0000000  0.6508444  3
   2954   2953   2965   5838     1  0.0000000  1.0460000  1
   2954   2953   2965   5838     1  0.0000000  0.0000000  3
   2954   2953   2965   2966     1  0.0000000  0.6508444  3
   2954   2953   2965   2967     1  0.0000000  0.6508444  3
   2955   2953   2965   5838     1  0.0000000  1.0460000  1
   2955   2953   2965   5838     1  0.0000000  0.0000000  3
   2955   2953   2965   2966     1  0.0000000  0.6508444  3
   2955   2953   2965   2967     1  0.0000000  0.6508444  3
   2956   2944   2940   2969     1  0.0000000  0.6508444  3
   2957   2956   2962   5824     1  0.0000000  1.0460000  1
   2957   2956   2962   5824     1  0.0000000  0.0000000  3
   2957   2956   2962   2963     1  0.0000000  0.6508444  3
   2957   2956   2962   2964     1  0.0000000  0.6508444  3
   2958   2956   2962   5824     1  0.0000000  1.0460000  1
   2958   2956   2962   5824     1  0.0000000  0.0000000  3
   2958   2956   2962   2963     1  0.0000000  0.6508444  3
   2958   2956   2962   2964     1  0.0000000  0.6508444  3
   2962   5824   5818   5819     1  0.0000000  1.6038667  3
   2962   5824   5818   5820     1  0.0000000  1.6038667  3
   2963   2962   5824   5818     1  0.0000000  1.6038667  3
   2964   2962   5824   5818     1  0.0000000  1.6038667  3
   2965   5838   5832   5833     1  0.0000000  1.6038667  3
   2965   5838   5832   5834     1  0.0000000  1.6038667  3
   2966   2965   5838   5832     1  0.0000000  1.6038667  3
   2967   2965   5838   5832     1  0.0000000  1.6038667  3
   2970   2971   2983   2984     1  0.0000000  0.6508444  3
   2970   2971   2983   2985     1  0.0000000  0.6508444  3
   2970   2974   2986   2987     1  0.0000000  0.6508444  3
   2970   2974   2986   2988     1  0.0000000  0.6508444  3
   2970   2977   2980   2981     1  0.0000000  0.6508444  3
   2970   2977   2980   2982     1  0.0000000  0.6508444  3
   2971   2970   2974   2975     1  0.0000000  0.6508444  3
   2971   2970   2974   2976     1  0.0000000  0.6508444  3
   2971   2970   2977   2978     1  0.0000000  0.6508444  3
   2971   2970   2977   2979     1  0.0000000  0.6508444  3
   2971   2983   2995   2996     1  0.0000000  0.6508444  3
   2971   2983   2995   2997     1  0.0000000  0.6508444  3
   2972   2971   2970   2974     1  0.0000000  0.6508444  3
   2972   2971   2970   2977     1  0.0000000  0.6508444  3
   2972   2971   2970   2999     1  0.0000000  0.6508444  3
   2972   2971   2983   2995     1  0.0000000  0.6508444  3
   2972   2971   2983   2984     1  0.0000000  0.6508444  3
   2972   2971   2983   2985     1  0.0000000  0.6508444  3
   2973   2971   2970   2974     1  0.0000000  0.6508444  3
   2973   2971   2970   2977     1  0.0000000  0.6508444  3
   2973   2971   2970   2999     1  0.0000000  0.6508444  3
   2973   2971   2983   2995     1  0.0000000  0.6508444  3
   2973   2971   2983   2984     1  0.0000000  0.6508444  3
   2973   2971   2983   2985     1  0.0000000  0.6508444  3
   2974   2970   2977   2978     1  0.0000000  0.6508444  3
   2974   2970   2977   2979     1  0.0000000  0.6508444  3
   2974   2986   2992   2993     1  0.0000000  0.6508444  3
   2974   2986   2992   2994     1  0.0000000  0.6508444  3
   2975   2974   2970   2977     1  0.0000000  0.6508444  3
   2975   2974   2970   2999     1  0.0000000  0.6508444  3
   2975   2974   2986   2992     1  0.0000000  0.6508444  3
   2975   2974   2986   2987     1  0.0000000  0.6508444  3
   2975   2974   2986   2988     1  0.0000000  0.6508444  3
   2976   2974   2970   2977     1  0.0000000  0.6508444  3
   2976   2974   2970   2999     1  0.0000000  0.6508444  3
   2976   2974   2986   2992     1  0.0000000  0.6508444  3
   2976   2974   2986   2987     1  0.0000000  0.6508444  3
   2976   2974   2986   2988     1  0.0000000  0.6508444  3
   2977   2980   2989   2990     1  0.0000000  0.6508444  3
   2977   2980   2989   2991     1  0.0000000  0.6508444  3
   2978   2977   2970   2999     1  0.0000000  0.6508444  3
   2978   2977   2980   2989     1  0.0000000  0.6508444  3
   2978   2977   2980   2981     1  0.0000000  0.6508444  3
   2978   2977   2980   2982     1  0.0000000  0.6508444  3
   2979   2977   2970   2999     1  0.0000000  0.6508444  3
   2979   2977   2980   2989     1  0.0000000  0.6508444  3
   2979   2977   2980   2981     1  0.0000000  0.6508444  3
   2979   2977   2980   2982     1  0.0000000  0.6508444  3
   2980   2977   2970   2999     1  0.0000000  0.6508444  3
   2981   2980   2989   2998     1  0.0000000  1.0460000  1
   2981   2980   2989   2998     1  0.0000000  0.0000000  3
   2981   2980   2989   2990     1  0.0000000  0.6508444  3
   2981   2980   2989   2991     1  0.0000000  0.6508444  3
   2982   2980   2989   2998     1  0.0000000  1.0460000  1
   2982   2980   2989   2998     1  0.0000000  0.0000000  3
   2982   2980   2989   2990     1  0.0000000  0.6508444  3
   2982   2980   2989   2991     1  0.0000000  0.6508444  3
   2983   2971   2970   2999     1  0.0000000  0.6508444  3
   2984   2983   2995   5866     1  0.0000000  1.0460000  1
   2984   2983   2995   5866     1  0.0000000  0.0000000  3
   2984   2983   2995   2996     1  0.0000000  0.6508444  3
   2984   2983   2995   2997     1  0.0000000  0.6508444  3
   2985   2983   2995   5866     1  0.0000000  1.0460000  1
   2985   2983   2995   5866     1  0.0000000  0.0000000  3
   2985   2983   2995   2996     1  0.0000000  0.6508444  3
   2985   2983   2995   2997     1  0.0000000  0.6508444  3
   2986   2974   2970   2999     1  0.0000000  0.6508444  3
   2987   2986   2992   5852     1  0.0000000  1.0460000  1
   2987   2986   2992   5852     1  0.0000000  0.0000000  3
   2987   2986   2992   2993     1  0.0000000  0.6508444  3
   2987   2986   2992   2994     1  0.0000000  0.6508444  3
   2988   2986   2992   5852     1  0.0000000  1.0460000  1
   2988   2986   2992   5852     1  0.0000000  0.0000000  3
   2988   2986   2992   2993     1  0.0000000  0.6508444  3
   2988   2986   2992   2994     1  0.0000000  0.6508444  3
   2992   5852   5846   5847     1  0.0000000  1.6038667  3
   2992   5852   5846   5848     1  0.0000000  1.6038667  3
   2993   2992   5852   5846     1  0.0000000  1.6038667  3
   2994   2992   5852   5846     1  0.0000000  1.6038667  3
   2995   5866   5860   5861     1  0.0000000  1.6038667  3
   2995   5866   5860   5862     1  0.0000000  1.6038667  3
   2996   2995   5866   5860     1  0.0000000  1.6038667  3
   2997   2995   5866   5860     1  0.0000000  1.6038667  3
   3000   3001   3013   3014     1  0.0000000  0.6508444  3
   3000   3001   3013   3015     1  0.0000000  0.6508444  3
   3000   3004   3016   3017     1  0.0000000  0.6508444  3
   3000   3004   3016   3018     1  0.0000000  0.6508444  3
   3000   3007   3010   3011     1  0.0000000  0.6508444  3
   3000   3007   3010   3012     1  0.0000000  0.6508444  3
   3001   3000   3004   3005     1  0.0000000  0.6508444  3
   3001   3000   3004   3006     1  0.0000000  0.6508444  3
   3001   3000   3007   3008     1  0.0000000  0.6508444  3
   3001   3000   3007   3009     1  0.0000000  0.6508444  3
   3001   3013   3025   3026     1  0.0000000  0.6508444  3
   3001   3013   3025   3027     1  0.0000000  0.6508444  3
   3002   3001   3000   3004     1  0.0000000  0.6508444  3
   3002   3001   3000   3007     1  0.0000000  0.6508444  3
   3002   3001   3000   3029     1  0.0000000  0.6508444  3
   3002   3001   3013   3025     1  0.0000000  0.6508444  3
   3002   3001   3013   3014     1  0.0000000  0.6508444  3
   3002   3001   3013   3015     1  0.0000000  0.6508444  3
   3003   3001   3000   3004     1  0.0000000  0.6508444  3
   3003   3001   3000   3007     1  0.0000000  0.6508444  3
   3003   3001   3000   3029     1  0.0000000  0.6508444  3
   3003   3001   3013   3025     1  0.0000000  0.6508444  3
   3003   3001   3013   3014     1  0.0000000  0.6508444  3
   3003   3001   3013   3015     1  0.0000000  0.6508444  3
   3004   3000   3007   3008     1  0.0000000  0.6508444  3
   3004   3000   3007   3009     1  0.0000000  0.6508444  3
   3004   3016   3022   3023     1  0.0000000  0.6508444  3
   3004   3016   3022   3024     1  0.0000000  0.6508444  3
   3005   3004   3000   3007     1  0.0000000  0.6508444  3
   3005   3004   3000   3029     1  0.0000000  0.6508444  3
   3005   3004   3016   3022     1  0.0000000  0.6508444  3
   3005   3004   3016   3017     1  0.0000000  0.6508444  3
   3005   3004   3016   3018     1  0.0000000  0.6508444  3
   3006   3004   3000   3007     1  0.0000000  0.6508444  3
   3006   3004   3000   3029     1  0.0000000  0.6508444  3
   3006   3004   3016   3022     1  0.0000000  0.6508444  3
   3006   3004   3016   3017     1  0.0000000  0.6508444  3
   3006   3004   3016   3018     1  0.0000000  0.6508444  3
   3007   3010   3019   3020     1  0.0000000  0.6508444  3
   3007   3010   3019   3021     1  0.0000000  0.6508444  3
   3008   3007   3000   3029     1  0.0000000  0.6508444  3
   3008   3007   3010   3019     1  0.0000000  0.6508444  3
   3008   3007   3010   3011     1  0.0000000  0.6508444  3
   3008   3007   3010   3012     1  0.0000000  0.6508444  3
   3009   3007   3000   3029     1  0.0000000  0.6508444  3
   3009   3007   3010   3019     1  0.0000000  0.6508444  3
   3009   3007   3010   3011     1  0.0000000  0.6508444  3
   3009   3007   3010   3012     1  0.0000000  0.6508444  3
   3010   3007   3000   3029     1  0.0000000  0.6508444  3
   3011   3010   3019   3028     1  0.0000000  1.0460000  1
   3011   3010   3019   3028     1  0.0000000  0.0000000  3
   3011   3010   3019   3020     1  0.0000000  0.6508444  3
   3011   3010   3019   3021     1  0.0000000  0.6508444  3
   3012   3010   3019   3028     1  0.0000000  1.0460000  1
   3012   3010   3019   3028     1  0.0000000  0.0000000  3
   3012   3010   3019   3020     1  0.0000000  0.6508444  3
   3012   3010   3019   3021     1  0.0000000  0.6508444  3
   3013   3001   3000   3029     1  0.0000000  0.6508444  3
   3014   3013   3025   5894     1  0.0000000  1.0460000  1
   3014   3013   3025   5894     1  0.0000000  0.0000000  3
   3014   3013   3025   3026     1  0.0000000  0.6508444  3
   3014   3013   3025   3027     1  0.0000000  0.6508444  3
   3015   3013   3025   5894     1  0.0000000  1.0460000  1
   3015   3013   3025   5894     1  0.0000000  0.0000000  3
   3015   3013   3025   3026     1  0.0000000  0.6508444  3
   3015   3013   3025   3027     1  0.0000000  0.6508444  3
   3016   3004   3000   3029     1  0.0000000  0.6508444  3
   3017   3016   3022   5880     1  0.0000000  1.0460000  1
   3017   3016   3022   5880     1  0.0000000  0.0000000  3
   3017   3016   3022   3023     1  0.0000000  0.6508444  3
   3017   3016   3022   3024     1  0.0000000  0.6508444  3
   3018   3016   3022   5880     1  0.0000000  1.0460000  1
   3018   3016   3022   5880     1  0.0000000  0.0000000  3
   3018   3016   3022   3023     1  0.0000000  0.6508444  3
   3018   3016   3022   3024     1  0.0000000  0.6508444  3
   3022   5880   5874   5875     1  0.0000000  1.6038667  3
   3022   5880   5874   5876     1  0.0000000  1.6038667  3
   3023   3022   5880   5874     1  0.0000000  1.6038667  3
   3024   3022   5880   5874     1  0.0000000  1.6038667  3
   3025   5894   5888   5889     1  0.0000000  1.6038667  3
   3025   5894   5888   5890     1  0.0000000  1.6038667  3
   3026   3025   5894   5888     1  0.0000000  1.6038667  3
   3027   3025   5894   5888     1  0.0000000  1.6038667  3
   3030   3031   3043   3044     1  0.0000000  0.6508444  3
   3030   3031   3043   3045     1  0.0000000  0.6508444  3
   3030   3034   3046   3047     1  0.0000000  0.6508444  3
   3030   3034   3046   3048     1  0.0000000  0.6508444  3
   3030   3037   3040   3041     1  0.0000000  0.6508444  3
   3030   3037   3040   3042     1  0.0000000  0.6508444  3
   3031   3030   3034   3035     1  0.0000000  0.6508444  3
   3031   3030   3034   3036     1  0.0000000  0.6508444  3
   3031   3030   3037   3038     1  0.0000000  0.6508444  3
   3031   3030   3037   3039     1  0.0000000  0.6508444  3
   3031   3043   3055   3056     1  0.0000000  0.6508444  3
   3031   3043   3055   3057     1  0.0000000  0.6508444  3
   3032   3031   3030   3034     1  0.0000000  0.6508444  3
   3032   3031   3030   3037     1  0.0000000  0.6508444  3
   3032   3031   3030   3059     1  0.0000000  0.6508444  3
   3032   3031   3043   3055     1  0.0000000  0.6508444  3
   3032   3031   3043   3044     1  0.0000000  0.6508444  3
   3032   3031   3043   3045     1  0.0000000  0.6508444  3
   3033   3031   3030   3034     1  0.0000000  0.6508444  3
   3033   3031   3030   3037     1  0.0000000  0.6508444  3
   3033   3031   3030   3059     1  0.0000000  0.6508444  3
   3033   3031   3043   3055     1  0.0000000  0.6508444  3
   3033   3031   3043   3044     1  0.0000000  0.6508444  3
   3033   3031   3043   3045     1  0.0000000  0.6508444  3
   3034   3030   3037   3038     1  0.0000000  0.6508444  3
   3034   3030   3037   3039     1  0.0000000  0.6508444  3
   3034   3046   3052   3053     1  0.0000000  0.6508444  3
   3034   3046   3052   3054     1  0.0000000  0.6508444  3
   3035   3034   3030   3037     1  0.0000000  0.6508444  3
   3035   3034   3030   3059     1  0.0000000  0.6508444  3
   3035   3034   3046   3052     1  0.0000000  0.6508444  3
   3035   3034   3046   3047     1  0.0000000  0.6508444  3
   3035   3034   3046   3048     1  0.0000000  0.6508444  3
   3036   3034   3030   3037     1  0.0000000  0.6508444  3
   3036   3034   3030   3059     1  0.0000000  0.6508444  3
   3036   3034   3046   3052     1  0.0000000  0.6508444  3
   3036   3034   3046   3047     1  0.0000000  0.6508444  3
   3036   3034   3046   3048     1  0.0000000  0.6508444  3
   3037   3040   3049   3050     1  0.0000000  0.6508444  3
   3037   3040   3049   3051     1  0.0000000  0.6508444  3
   3038   3037   3030   3059     1  0.0000000  0.6508444  3
   3038   3037   3040   3049     1  0.0000000  0.6508444  3
   3038   3037   3040   3041     1  0.0000000  0.6508444  3
   3038   3037   3040   3042     1  0.0000000  0.6508444  3
   3039   3037   3030   3059     1  0.0000000  0.6508444  3
   3039   3037   3040   3049     1  0.0000000  0.6508444  3
   3039   3037   3040   3041     1  0.0000000  0.6508444  3
   3039   3037   3040   3042     1  0.0000000  0.6508444  3
   3040   3037   3030   3059     1  0.0000000  0.6508444  3
   3041   3040   3049   3058     1  0.0000000  1.0460000  1
   3041   3040   3049   3058     1  0.0000000  0.0000000  3
   3041   3040   3049   3050     1  0.0000000  0.6508444  3
   3041   3040   3049   3051     1  0.0000000  0.6508444  3
   3042   3040   3049   3058     1  0.0000000  1.0460000  1
   3042   3040   3049   3058     1  0.0000000  0.0000000  3
   3042   3040   3049   3050     1  0.0000000  0.6508444  3
   3042   3040   3049   3051     1  0.0000000  0.6508444  3
   3043   3031   3030   3059     1  0.0000000  0.6508444  3
   3044   3043   3055   5922     1  0.0000000  1.0460000  1
   3044   3043   3055   5922     1  0.0000000  0.0000000  3
   3044   3043   3055   3056     1  0.0000000  0.6508444  3
   3044   3043   3055   3057     1  0.0000000  0.6508444  3
   3045   3043   3055   5922     1  0.0000000  1.0460000  1
   3045   3043   3055   5922     1  0.0000000  0.0000000  3
   3045   3043   3055   3056     1  0.0000000  0.6508444  3
   3045   3043   3055   3057     1  0.0000000  0.6508444  3
   3046   3034   3030   3059     1  0.0000000  0.6508444  3
   3047   3046   3052   5908     1  0.0000000  1.0460000  1
   3047   3046   3052   5908     1  0.0000000  0.0000000  3
   3047   3046   3052   3053     1  0.0000000  0.6508444  3
   3047   3046   3052   3054     1  0.0000000  0.6508444  3
   3048   3046   3052   5908     1  0.0000000  1.0460000  1
   3048   3046   3052   5908     1  0.0000000  0.0000000  3
   3048   3046   3052   3053     1  0.0000000  0.6508444  3
   3048   3046   3052   3054     1  0.0000000  0.6508444  3
   3052   5908   5902   5903     1  0.0000000  1.6038667  3
   3052   5908   5902   5904     1  0.0000000  1.6038667  3
   3053   3052   5908   5902     1  0.0000000  1.6038667  3
   3054   3052   5908   5902     1  0.0000000  1.6038667  3
   3055   5922   5916   5917     1  0.0000000  1.6038667  3
   3055   5922   5916   5918     1  0.0000000  1.6038667  3
   3056   3055   5922   5916     1  0.0000000  1.6038667  3
   3057   3055   5922   5916     1  0.0000000  1.6038667  3
   3060   3061   3073   3074     1  0.0000000  0.6508444  3
   3060   3061   3073   3075     1  0.0000000  0.6508444  3
   3060   3064   3076   3077     1  0.0000000  0.6508444  3
   3060   3064   3076   3078     1  0.0000000  0.6508444  3
   3060   3067   3070   3071     1  0.0000000  0.6508444  3
   3060   3067   3070   3072     1  0.0000000  0.6508444  3
   3061   3060   3064   3065     1  0.0000000  0.6508444  3
   3061   3060   3064   3066     1  0.0000000  0.6508444  3
   3061   3060   3067   3068     1  0.0000000  0.6508444  3
   3061   3060   3067   3069     1  0.0000000  0.6508444  3
   3061   3073   3085   3086     1  0.0000000  0.6508444  3
   3061   3073   3085   3087     1  0.0000000  0.6508444  3
   3062   3061   3060   3064     1  0.0000000  0.6508444  3
   3062   3061   3060   3067     1  0.0000000  0.6508444  3
   3062   3061   3060   3089     1  0.0000000  0.6508444  3
   3062   3061   3073   3085     1  0.0000000  0.6508444  3
   3062   3061   3073   3074     1  0.0000000  0.6508444  3
   3062   3061   3073   3075     1  0.0000000  0.6508444  3
   3063   3061   3060   3064     1  0.0000000  0.6508444  3
   3063   3061   3060   3067     1  0.0000000  0.6508444  3
   3063   3061   3060   3089     1  0.0000000  0.6508444  3
   3063   3061   3073   3085     1  0.0000000  0.6508444  3
   3063   3061   3073   3074     1  0.0000000  0.6508444  3
   3063   3061   3073   3075     1  0.0000000  0.6508444  3
   3064   3060   3067   3068     1  0.0000000  0.6508444  3
   3064   3060   3067   3069     1  0.0000000  0.6508444  3
   3064   3076   3082   3083     1  0.0000000  0.6508444  3
   3064   3076   3082   3084     1  0.0000000  0.6508444  3
   3065   3064   3060   3067     1  0.0000000  0.6508444  3
   3065   3064   3060   3089     1  0.0000000  0.6508444  3
   3065   3064   3076   3082     1  0.0000000  0.6508444  3
   3065   3064   3076   3077     1  0.0000000  0.6508444  3
   3065   3064   3076   3078     1  0.0000000  0.6508444  3
   3066   3064   3060   3067     1  0.0000000  0.6508444  3
   3066   3064   3060   3089     1  0.0000000  0.6508444  3
   3066   3064   3076   3082     1  0.0000000  0.6508444  3
   3066   3064   3076   3077     1  0.0000000  0.6508444  3
   3066   3064   3076   3078     1  0.0000000  0.6508444  3
   3067   3070   3079   3080     1  0.0000000  0.6508444  3
   3067   3070   3079   3081     1  0.0000000  0.6508444  3
   3068   3067   3060   3089     1  0.0000000  0.6508444  3
   3068   3067   3070   3079     1  0.0000000  0.6508444  3
   3068   3067   3070   3071     1  0.0000000  0.6508444  3
   3068   3067   3070   3072     1  0.0000000  0.6508444  3
   3069   3067   3060   3089     1  0.0000000  0.6508444  3
   3069   3067   3070   3079     1  0.0000000  0.6508444  3
   3069   3067   3070   3071     1  0.0000000  0.6508444  3
   3069   3067   3070   3072     1  0.0000000  0.6508444  3
   3070   3067   3060   3089     1  0.0000000  0.6508444  3
   3071   3070   3079   3088     1  0.0000000  1.0460000  1
   3071   3070   3079   3088     1  0.0000000  0.0000000  3
   3071   3070   3079   3080     1  0.0000000  0.6508444  3
   3071   3070   3079   3081     1  0.0000000  0.6508444  3
   3072   3070   3079   3088     1  0.0000000  1.0460000  1
   3072   3070   3079   3088     1  0.0000000  0.0000000  3
   3072   3070   3079   3080     1  0.0000000  0.6508444  3
   3072   3070   3079   3081     1  0.0000000  0.6508444  3
   3073   3061   3060   3089     1  0.0000000  0.6508444  3
   3074   3073   3085   5950     1  0.0000000  1.0460000  1
   3074   3073   3085   5950     1  0.0000000  0.0000000  3
   3074   3073   3085   3086     1  0.0000000  0.6508444  3
   3074   3073   3085   3087     1  0.0000000  0.6508444  3
   3075   3073   3085   5950     1  0.0000000  1.0460000  1
   3075   3073   3085   5950     1  0.0000000  0.0000000  3
   3075   3073   3085   3086     1  0.0000000  0.6508444  3
   3075   3073   3085   3087     1  0.0000000  0.6508444  3
   3076   3064   3060   3089     1  0.0000000  0.6508444  3
   3077   3076   3082   5936     1  0.0000000  1.0460000  1
   3077   3076   3082   5936     1  0.0000000  0.0000000  3
   3077   3076   3082   3083     1  0.0000000  0.6508444  3
   3077   3076   3082   3084     1  0.0000000  0.6508444  3
   3078   3076   3082   5936     1  0.0000000  1.0460000  1
   3078   3076   3082   5936     1  0.0000000  0.0000000  3
   3078   3076   3082   3083     1  0.0000000  0.6508444  3
   3078   3076   3082   3084     1  0.0000000  0.6508444  3
   3082   5936   5930   5931     1  0.0000000  1.6038667  3
   3082   5936   5930   5932     1  0.0000000  1.6038667  3
   3083   3082   5936   5930     1  0.0000000  1.6038667  3
   3084   3082   5936   5930     1  0.0000000  1.6038667  3
   3085   5950   5944   5945     1  0.0000000  1.6038667  3
   3085   5950   5944   5946     1  0.0000000  1.6038667  3
   3086   3085   5950   5944     1  0.0000000  1.6038667  3
   3087   3085   5950   5944     1  0.0000000  1.6038667  3
   3090   3091   3103   3104     1  0.0000000  0.6508444  3
   3090   3091   3103   3105     1  0.0000000  0.6508444  3
   3090   3094   3106   3107     1  0.0000000  0.6508444  3
   3090   3094   3106   3108     1  0.0000000  0.6508444  3
   3090   3097   3100   3101     1  0.0000000  0.6508444  3
   3090   3097   3100   3102     1  0.0000000  0.6508444  3
   3091   3090   3094   3095     1  0.0000000  0.6508444  3
   3091   3090   3094   3096     1  0.0000000  0.6508444  3
   3091   3090   3097   3098     1  0.0000000  0.6508444  3
   3091   3090   3097   3099     1  0.0000000  0.6508444  3
   3091   3103   3115   3116     1  0.0000000  0.6508444  3
   3091   3103   3115   3117     1  0.0000000  0.6508444  3
   3092   3091   3090   3094     1  0.0000000  0.6508444  3
   3092   3091   3090   3097     1  0.0000000  0.6508444  3
   3092   3091   3090   3119     1  0.0000000  0.6508444  3
   3092   3091   3103   3115     1  0.0000000  0.6508444  3
   3092   3091   3103   3104     1  0.0000000  0.6508444  3
   3092   3091   3103   3105     1  0.0000000  0.6508444  3
   3093   3091   3090   3094     1  0.0000000  0.6508444  3
   3093   3091   3090   3097     1  0.0000000  0.6508444  3
   3093   3091   3090   3119     1  0.0000000  0.6508444  3
   3093   3091   3103   3115     1  0.0000000  0.6508444  3
   3093   3091   3103   3104     1  0.0000000  0.6508444  3
   3093   3091   3103   3105     1  0.0000000  0.6508444  3
   3094   3090   3097   3098     1  0.0000000  0.6508444  3
   3094   3090   3097   3099     1  0.0000000  0.6508444  3
   3094   3106   3112   3113     1  0.0000000  0.6508444  3
   3094   3106   3112   3114     1  0.0000000  0.6508444  3
   3095   3094   3090   3097     1  0.0000000  0.6508444  3
   3095   3094   3090   3119     1  0.0000000  0.6508444  3
   3095   3094   3106   3112     1  0.0000000  0.6508444  3
   3095   3094   3106   3107     1  0.0000000  0.6508444  3
   3095   3094   3106   3108     1  0.0000000  0.6508444  3
   3096   3094   3090   3097     1  0.0000000  0.6508444  3
   3096   3094   3090   3119     1  0.0000000  0.6508444  3
   3096   3094   3106   3112     1  0.0000000  0.6508444  3
   3096   3094   3106   3107     1  0.0000000  0.6508444  3
   3096   3094   3106   3108     1  0.0000000  0.6508444  3
   3097   3100   3109   3110     1  0.0000000  0.6508444  3
   3097   3100   3109   3111     1  0.0000000  0.6508444  3
   3098   3097   3090   3119     1  0.0000000  0.6508444  3
   3098   3097   3100   3109     1  0.0000000  0.6508444  3
   3098   3097   3100   3101     1  0.0000000  0.6508444  3
   3098   3097   3100   3102     1  0.0000000  0.6508444  3
   3099   3097   3090   3119     1  0.0000000  0.6508444  3
   3099   3097   3100   3109     1  0.0000000  0.6508444  3
   3099   3097   3100   3101     1  0.0000000  0.6508444  3
   3099   3097   3100   3102     1  0.0000000  0.6508444  3
   3100   3097   3090   3119     1  0.0000000  0.6508444  3
   3101   3100   3109   3118     1  0.0000000  1.0460000  1
   3101   3100   3109   3118     1  0.0000000  0.0000000  3
   3101   3100   3109   3110     1  0.0000000  0.6508444  3
   3101   3100   3109   3111     1  0.0000000  0.6508444  3
   3102   3100   3109   3118     1  0.0000000  1.0460000  1
   3102   3100   3109   3118     1  0.0000000  0.0000000  3
   3102   3100   3109   3110     1  0.0000000  0.6508444  3
   3102   3100   3109   3111     1  0.0000000  0.6508444  3
   3103   3091   3090   3119     1  0.0000000  0.6508444  3
   3104   3103   3115   5978     1  0.0000000  1.0460000  1
   3104   3103   3115   5978     1  0.0000000  0.0000000  3
   3104   3103   3115   3116     1  0.0000000  0.6508444  3
   3104   3103   3115   3117     1  0.0000000  0.6508444  3
   3105   3103   3115   5978     1  0.0000000  1.0460000  1
   3105   3103   3115   5978     1  0.0000000  0.0000000  3
   3105   3103   3115   3116     1  0.0000000  0.6508444  3
   3105   3103   3115   3117     1  0.0000000  0.6508444  3
   3106   3094   3090   3119     1  0.0000000  0.6508444  3
   3107   3106   3112   5964     1  0.0000000  1.0460000  1
   3107   3106   3112   5964     1  0.0000000  0.0000000  3
   3107   3106   3112   3113     1  0.0000000  0.6508444  3
   3107   3106   3112   3114     1  0.0000000  0.6508444  3
   3108   3106   3112   5964     1  0.0000000  1.0460000  1
   3108   3106   3112   5964     1  0.0000000  0.0000000  3
   3108   3106   3112   3113     1  0.0000000  0.6508444  3
   3108   3106   3112   3114     1  0.0000000  0.6508444  3
   3112   5964   5958   5959     1  0.0000000  1.6038667  3
   3112   5964   5958   5960     1  0.0000000  1.6038667  3
   3113   3112   5964   5958     1  0.0000000  1.6038667  3
   3114   3112   5964   5958     1  0.0000000  1.6038667  3
   3115   5978   5972   5973     1  0.0000000  1.6038667  3
   3115   5978   5972   5974     1  0.0000000  1.6038667  3
   3116   3115   5978   5972     1  0.0000000  1.6038667  3
   3117   3115   5978   5972     1  0.0000000  1.6038667  3
   3120   3121   3133   3134     1  0.0000000  0.6508444  3
   3120   3121   3133   3135     1  0.0000000  0.6508444  3
   3120   3124   3136   3137     1  0.0000000  0.6508444  3
   3120   3124   3136   3138     1  0.0000000  0.6508444  3
   3120   3127   3130   3131     1  0.0000000  0.6508444  3
   3120   3127   3130   3132     1  0.0000000  0.6508444  3
   3121   3120   3124   3125     1  0.0000000  0.6508444  3
   3121   3120   3124   3126     1  0.0000000  0.6508444  3
   3121   3120   3127   3128     1  0.0000000  0.6508444  3
   3121   3120   3127   3129     1  0.0000000  0.6508444  3
   3121   3133   3145   3146     1  0.0000000  0.6508444  3
   3121   3133   3145   3147     1  0.0000000  0.6508444  3
   3122   3121   3120   3124     1  0.0000000  0.6508444  3
   3122   3121   3120   3127     1  0.0000000  0.6508444  3
   3122   3121   3120   3149     1  0.0000000  0.6508444  3
   3122   3121   3133   3145     1  0.0000000  0.6508444  3
   3122   3121   3133   3134     1  0.0000000  0.6508444  3
   3122   3121   3133   3135     1  0.0000000  0.6508444  3
   3123   3121   3120   3124     1  0.0000000  0.6508444  3
   3123   3121   3120   3127     1  0.0000000  0.6508444  3
   3123   3121   3120   3149     1  0.0000000  0.6508444  3
   3123   3121   3133   3145     1  0.0000000  0.6508444  3
   3123   3121   3133   3134     1  0.0000000  0.6508444  3
   3123   3121   3133   3135     1  0.0000000  0.6508444  3
   3124   3120   3127   3128     1  0.0000000  0.6508444  3
   3124   3120   3127   3129     1  0.0000000  0.6508444  3
   3124   3136   3142   3143     1  0.0000000  0.6508444  3
   3124   3136   3142   3144     1  0.0000000  0.6508444  3
   3125   3124   3120   3127     1  0.0000000  0.6508444  3
   3125   3124   3120   3149     1  0.0000000  0.6508444  3
   3125   3124   3136   3142     1  0.0000000  0.6508444  3
   3125   3124   3136   3137     1  0.0000000  0.6508444  3
   3125   3124   3136   3138     1  0.0000000  0.6508444  3
   3126   3124   3120   3127     1  0.0000000  0.6508444  3
   3126   3124   3120   3149     1  0.0000000  0.6508444  3
   3126   3124   3136   3142     1  0.0000000  0.6508444  3
   3126   3124   3136   3137     1  0.0000000  0.6508444  3
   3126   3124   3136   3138     1  0.0000000  0.6508444  3
   3127   3130   3139   3140     1  0.0000000  0.6508444  3
   3127   3130   3139   3141     1  0.0000000  0.6508444  3
   3128   3127   3120   3149     1  0.0000000  0.6508444  3
   3128   3127   3130   3139     1  0.0000000  0.6508444  3
   3128   3127   3130   3131     1  0.0000000  0.6508444  3
   3128   3127   3130   3132     1  0.0000000  0.6508444  3
   3129   3127   3120   3149     1  0.0000000  0.6508444  3
   3129   3127   3130   3139     1  0.0000000  0.6508444  3
   3129   3127   3130   3131     1  0.0000000  0.6508444  3
   3129   3127   3130   3132     1  0.0000000  0.6508444  3
   3130   3127   3120   3149     1  0.0000000  0.6508444  3
   3131   3130   3139   3148     1  0.0000000  1.0460000  1
   3131   3130   3139   3148     1  0.0000000  0.0000000  3
   3131   3130   3139   3140     1  0.0000000  0.6508444  3
   3131   3130   3139   3141     1  0.0000000  0.6508444  3
   3132   3130   3139   3148     1  0.0000000  1.0460000  1
   3132   3130   3139   3148     1  0.0000000  0.0000000  3
   3132   3130   3139   3140     1  0.0000000  0.6508444  3
   3132   3130   3139   3141     1  0.0000000  0.6508444  3
   3133   3121   3120   3149     1  0.0000000  0.6508444  3
   3134   3133   3145   6006     1  0.0000000  1.0460000  1
   3134   3133   3145   6006     1  0.0000000  0.0000000  3
   3134   3133   3145   3146     1  0.0000000  0.6508444  3
   3134   3133   3145   3147     1  0.0000000  0.6508444  3
   3135   3133   3145   6006     1  0.0000000  1.0460000  1
   3135   3133   3145   6006     1  0.0000000  0.0000000  3
   3135   3133   3145   3146     1  0.0000000  0.6508444  3
   3135   3133   3145   3147     1  0.0000000  0.6508444  3
   3136   3124   3120   3149     1  0.0000000  0.6508444  3
   3137   3136   3142   5992     1  0.0000000  1.0460000  1
   3137   3136   3142   5992     1  0.0000000  0.0000000  3
   3137   3136   3142   3143     1  0.0000000  0.6508444  3
   3137   3136   3142   3144     1  0.0000000  0.6508444  3
   3138   3136   3142   5992     1  0.0000000  1.0460000  1
   3138   3136   3142   5992     1  0.0000000  0.0000000  3
   3138   3136   3142   3143     1  0.0000000  0.6508444  3
   3138   3136   3142   3144     1  0.0000000  0.6508444  3
   3142   5992   5986   5987     1  0.0000000  1.6038667  3
   3142   5992   5986   5988     1  0.0000000  1.6038667  3
   3143   3142   5992   5986     1  0.0000000  1.6038667  3
   3144   3142   5992   5986     1  0.0000000  1.6038667  3
   3145   6006   6000   6001     1  0.0000000  1.6038667  3
   3145   6006   6000   6002     1  0.0000000  1.6038667  3
   3146   3145   6006   6000     1  0.0000000  1.6038667  3
   3147   3145   6006   6000     1  0.0000000  1.6038667  3
   3150   3151   3163   3164     1  0.0000000  0.6508444  3
   3150   3151   3163   3165     1  0.0000000  0.6508444  3
   3150   3154   3166   3167     1  0.0000000  0.6508444  3
   3150   3154   3166   3168     1  0.0000000  0.6508444  3
   3150   3157   3160   3161     1  0.0000000  0.6508444  3
   3150   3157   3160   3162     1  0.0000000  0.6508444  3
   3151   3150   3154   3155     1  0.0000000  0.6508444  3
   3151   3150   3154   3156     1  0.0000000  0.6508444  3
   3151   3150   3157   3158     1  0.0000000  0.6508444  3
   3151   3150   3157   3159     1  0.0000000  0.6508444  3
   3151   3163   3175   3176     1  0.0000000  0.6508444  3
   3151   3163   3175   3177     1  0.0000000  0.6508444  3
   3152   3151   3150   3154     1  0.0000000  0.6508444  3
   3152   3151   3150   3157     1  0.0000000  0.6508444  3
   3152   3151   3150   3179     1  0.0000000  0.6508444  3
   3152   3151   3163   3175     1  0.0000000  0.6508444  3
   3152   3151   3163   3164     1  0.0000000  0.6508444  3
   3152   3151   3163   3165     1  0.0000000  0.6508444  3
   3153   3151   3150   3154     1  0.0000000  0.6508444  3
   3153   3151   3150   3157     1  0.0000000  0.6508444  3
   3153   3151   3150   3179     1  0.0000000  0.6508444  3
   3153   3151   3163   3175     1  0.0000000  0.6508444  3
   3153   3151   3163   3164     1  0.0000000  0.6508444  3
   3153   3151   3163   3165     1  0.0000000  0.6508444  3
   3154   3150   3157   3158     1  0.0000000  0.6508444  3
   3154   3150   3157   3159     1  0.0000000  0.6508444  3
   3154   3166   3172   3173     1  0.0000000  0.6508444  3
   3154   3166   3172   3174     1  0.0000000  0.6508444  3
   3155   3154   3150   3157     1  0.0000000  0.6508444  3
   3155   3154   3150   3179     1  0.0000000  0.6508444  3
   3155   3154   3166   3172     1  0.0000000  0.6508444  3
   3155   3154   3166   3167     1  0.0000000  0.6508444  3
   3155   3154   3166   3168     1  0.0000000  0.6508444  3
   3156   3154   3150   3157     1  0.0000000  0.6508444  3
   3156   3154   3150   3179     1  0.0000000  0.6508444  3
   3156   3154   3166   3172     1  0.0000000  0.6508444  3
   3156   3154   3166   3167     1  0.0000000  0.6508444  3
   3156   3154   3166   3168     1  0.0000000  0.6508444  3
   3157   3160   3169   3170     1  0.0000000  0.6508444  3
   3157   3160   3169   3171     1  0.0000000  0.6508444  3
   3158   3157   3150   3179     1  0.0000000  0.6508444  3
   3158   3157   3160   3169     1  0.0000000  0.6508444  3
   3158   3157   3160   3161     1  0.0000000  0.6508444  3
   3158   3157   3160   3162     1  0.0000000  0.6508444  3
   3159   3157   3150   3179     1  0.0000000  0.6508444  3
   3159   3157   3160   3169     1  0.0000000  0.6508444  3
   3159   3157   3160   3161     1  0.0000000  0.6508444  3
   3159   3157   3160   3162     1  0.0000000  0.6508444  3
   3160   3157   3150   3179     1  0.0000000  0.6508444  3
   3161   3160   3169   3178     1  0.0000000  1.0460000  1
   3161   3160   3169   3178     1  0.0000000  0.0000000  3
   3161   3160   3169   3170     1  0.0000000  0.6508444  3
   3161   3160   3169   3171     1  0.0000000  0.6508444  3
   3162   3160   3169   3178     1  0.0000000  1.0460000  1
   3162   3160   3169   3178     1  0.0000000  0.0000000  3
   3162   3160   3169   3170     1  0.0000000  0.6508444  3
   3162   3160   3169   3171     1  0.0000000  0.6508444  3
   3163   3151   3150   3179     1  0.0000000  0.6508444  3
   3164   3163   3175   6034     1  0.0000000  1.0460000  1
   3164   3163   3175   6034     1  0.0000000  0.0000000  3
   3164   3163   3175   3176     1  0.0000000  0.6508444  3
   3164   3163   3175   3177     1  0.0000000  0.6508444  3
   3165   3163   3175   6034     1  0.0000000  1.0460000  1
   3165   3163   3175   6034     1  0.0000000  0.0000000  3
   3165   3163   3175   3176     1  0.0000000  0.6508444  3
   3165   3163   3175   3177     1  0.0000000  0.6508444  3
   3166   3154   3150   3179     1  0.0000000  0.6508444  3
   3167   3166   3172   6020     1  0.0000000  1.0460000  1
   3167   3166   3172   6020     1  0.0000000  0.0000000  3
   3167   3166   3172   3173     1  0.0000000  0.6508444  3
   3167   3166   3172   3174     1  0.0000000  0.6508444  3
   3168   3166   3172   6020     1  0.0000000  1.0460000  1
   3168   3166   3172   6020     1  0.0000000  0.0000000  3
   3168   3166   3172   3173     1  0.0000000  0.6508444  3
   3168   3166   3172   3174     1  0.0000000  0.6508444  3
   3172   6020   6014   6015     1  0.0000000  1.6038667  3
   3172   6020   6014   6016     1  0.0000000  1.6038667  3
   3173   3172   6020   6014     1  0.0000000  1.6038667  3
   3174   3172   6020   6014     1  0.0000000  1.6038667  3
   3175   6034   6028   6029     1  0.0000000  1.6038667  3
   3175   6034   6028   6030     1  0.0000000  1.6038667  3
   3176   3175   6034   6028     1  0.0000000  1.6038667  3
   3177   3175   6034   6028     1  0.0000000  1.6038667  3
   3180   3181   3193   3194     1  0.0000000  0.6508444  3
   3180   3181   3193   3195     1  0.0000000  0.6508444  3
   3180   3184   3196   3197     1  0.0000000  0.6508444  3
   3180   3184   3196   3198     1  0.0000000  0.6508444  3
   3180   3187   3190   3191     1  0.0000000  0.6508444  3
   3180   3187   3190   3192     1  0.0000000  0.6508444  3
   3181   3180   3184   3185     1  0.0000000  0.6508444  3
   3181   3180   3184   3186     1  0.0000000  0.6508444  3
   3181   3180   3187   3188     1  0.0000000  0.6508444  3
   3181   3180   3187   3189     1  0.0000000  0.6508444  3
   3181   3193   3205   3206     1  0.0000000  0.6508444  3
   3181   3193   3205   3207     1  0.0000000  0.6508444  3
   3182   3181   3180   3184     1  0.0000000  0.6508444  3
   3182   3181   3180   3187     1  0.0000000  0.6508444  3
   3182   3181   3180   3209     1  0.0000000  0.6508444  3
   3182   3181   3193   3205     1  0.0000000  0.6508444  3
   3182   3181   3193   3194     1  0.0000000  0.6508444  3
   3182   3181   3193   3195     1  0.0000000  0.6508444  3
   3183   3181   3180   3184     1  0.0000000  0.6508444  3
   3183   3181   3180   3187     1  0.0000000  0.6508444  3
   3183   3181   3180   3209     1  0.0000000  0.6508444  3
   3183   3181   3193   3205     1  0.0000000  0.6508444  3
   3183   3181   3193   3194     1  0.0000000  0.6508444  3
   3183   3181   3193   3195     1  0.0000000  0.6508444  3
   3184   3180   3187   3188     1  0.0000000  0.6508444  3
   3184   3180   3187   3189     1  0.0000000  0.6508444  3
   3184   3196   3202   3203     1  0.0000000  0.6508444  3
   3184   3196   3202   3204     1  0.0000000  0.6508444  3
   3185   3184   3180   3187     1  0.0000000  0.6508444  3
   3185   3184   3180   3209     1  0.0000000  0.6508444  3
   3185   3184   3196   3202     1  0.0000000  0.6508444  3
   3185   3184   3196   3197     1  0.0000000  0.6508444  3
   3185   3184   3196   3198     1  0.0000000  0.6508444  3
   3186   3184   3180   3187     1  0.0000000  0.6508444  3
   3186   3184   3180   3209     1  0.0000000  0.6508444  3
   3186   3184   3196   3202     1  0.0000000  0.6508444  3
   3186   3184   3196   3197     1  0.0000000  0.6508444  3
   3186   3184   3196   3198     1  0.0000000  0.6508444  3
   3187   3190   3199   3200     1  0.0000000  0.6508444  3
   3187   3190   3199   3201     1  0.0000000  0.6508444  3
   3188   3187   3180   3209     1  0.0000000  0.6508444  3
   3188   3187   3190   3199     1  0.0000000  0.6508444  3
   3188   3187   3190   3191     1  0.0000000  0.6508444  3
   3188   3187   3190   3192     1  0.0000000  0.6508444  3
   3189   3187   3180   3209     1  0.0000000  0.6508444  3
   3189   3187   3190   3199     1  0.0000000  0.6508444  3
   3189   3187   3190   3191     1  0.0000000  0.6508444  3
   3189   3187   3190   3192     1  0.0000000  0.6508444  3
   3190   3187   3180   3209     1  0.0000000  0.6508444  3
   3191   3190   3199   3208     1  0.0000000  1.0460000  1
   3191   3190   3199   3208     1  0.0000000  0.0000000  3
   3191   3190   3199   3200     1  0.0000000  0.6508444  3
   3191   3190   3199   3201     1  0.0000000  0.6508444  3
   3192   3190   3199   3208     1  0.0000000  1.0460000  1
   3192   3190   3199   3208     1  0.0000000  0.0000000  3
   3192   3190   3199   3200     1  0.0000000  0.6508444  3
   3192   3190   3199   3201     1  0.0000000  0.6508444  3
   3193   3181   3180   3209     1  0.0000000  0.6508444  3
   3194   3193   3205   6062     1  0.0000000  1.0460000  1
   3194   3193   3205   6062     1  0.0000000  0.0000000  3
   3194   3193   3205   3206     1  0.0000000  0.6508444  3
   3194   3193   3205   3207     1  0.0000000  0.6508444  3
   3195   3193   3205   6062     1  0.0000000  1.0460000  1
   3195   3193   3205   6062     1  0.0000000  0.0000000  3
   3195   3193   3205   3206     1  0.0000000  0.6508444  3
   3195   3193   3205   3207     1  0.0000000  0.6508444  3
   3196   3184   3180   3209     1  0.0000000  0.6508444  3
   3197   3196   3202   6048     1  0.0000000  1.0460000  1
   3197   3196   3202   6048     1  0.0000000  0.0000000  3
   3197   3196   3202   3203     1  0.0000000  0.6508444  3
   3197   3196   3202   3204     1  0.0000000  0.6508444  3
   3198   3196   3202   6048     1  0.0000000  1.0460000  1
   3198   3196   3202   6048     1  0.0000000  0.0000000  3
   3198   3196   3202   3203     1  0.0000000  0.6508444  3
   3198   3196   3202   3204     1  0.0000000  0.6508444  3
   3202   6048   6042   6043     1  0.0000000  1.6038667  3
   3202   6048   6042   6044     1  0.0000000  1.6038667  3
   3203   3202   6048   6042     1  0.0000000  1.6038667  3
   3204   3202   6048   6042     1  0.0000000  1.6038667  3
   3205   6062   6056   6057     1  0.0000000  1.6038667  3
   3205   6062   6056   6058     1  0.0000000  1.6038667  3
   3206   3205   6062   6056     1  0.0000000  1.6038667  3
   3207   3205   6062   6056     1  0.0000000  1.6038667  3
   3210   3211   3223   3224     1  0.0000000  0.6508444  3
   3210   3211   3223   3225     1  0.0000000  0.6508444  3
   3210   3214   3226   3227     1  0.0000000  0.6508444  3
   3210   3214   3226   3228     1  0.0000000  0.6508444  3
   3210   3217   3220   3221     1  0.0000000  0.6508444  3
   3210   3217   3220   3222     1  0.0000000  0.6508444  3
   3211   3210   3214   3215     1  0.0000000  0.6508444  3
   3211   3210   3214   3216     1  0.0000000  0.6508444  3
   3211   3210   3217   3218     1  0.0000000  0.6508444  3
   3211   3210   3217   3219     1  0.0000000  0.6508444  3
   3211   3223   3235   3236     1  0.0000000  0.6508444  3
   3211   3223   3235   3237     1  0.0000000  0.6508444  3
   3212   3211   3210   3214     1  0.0000000  0.6508444  3
   3212   3211   3210   3217     1  0.0000000  0.6508444  3
   3212   3211   3210   3239     1  0.0000000  0.6508444  3
   3212   3211   3223   3235     1  0.0000000  0.6508444  3
   3212   3211   3223   3224     1  0.0000000  0.6508444  3
   3212   3211   3223   3225     1  0.0000000  0.6508444  3
   3213   3211   3210   3214     1  0.0000000  0.6508444  3
   3213   3211   3210   3217     1  0.0000000  0.6508444  3
   3213   3211   3210   3239     1  0.0000000  0.6508444  3
   3213   3211   3223   3235     1  0.0000000  0.6508444  3
   3213   3211   3223   3224     1  0.0000000  0.6508444  3
   3213   3211   3223   3225     1  0.0000000  0.6508444  3
   3214   3210   3217   3218     1  0.0000000  0.6508444  3
   3214   3210   3217   3219     1  0.0000000  0.6508444  3
   3214   3226   3232   3233     1  0.0000000  0.6508444  3
   3214   3226   3232   3234     1  0.0000000  0.6508444  3
   3215   3214   3210   3217     1  0.0000000  0.6508444  3
   3215   3214   3210   3239     1  0.0000000  0.6508444  3
   3215   3214   3226   3232     1  0.0000000  0.6508444  3
   3215   3214   3226   3227     1  0.0000000  0.6508444  3
   3215   3214   3226   3228     1  0.0000000  0.6508444  3
   3216   3214   3210   3217     1  0.0000000  0.6508444  3
   3216   3214   3210   3239     1  0.0000000  0.6508444  3
   3216   3214   3226   3232     1  0.0000000  0.6508444  3
   3216   3214   3226   3227     1  0.0000000  0.6508444  3
   3216   3214   3226   3228     1  0.0000000  0.6508444  3
   3217   3220   3229   3230     1  0.0000000  0.6508444  3
   3217   3220   3229   3231     1  0.0000000  0.6508444  3
   3218   3217   3210   3239     1  0.0000000  0.6508444  3
   3218   3217   3220   3229     1  0.0000000  0.6508444  3
   3218   3217   3220   3221     1  0.0000000  0.6508444  3
   3218   3217   3220   3222     1  0.0000000  0.6508444  3
   3219   3217   3210   3239     1  0.0000000  0.6508444  3
   3219   3217   3220   3229     1  0.0000000  0.6508444  3
   3219   3217   3220   3221     1  0.0000000  0.6508444  3
   3219   3217   3220   3222     1  0.0000000  0.6508444  3
   3220   3217   3210   3239     1  0.0000000  0.6508444  3
   3221   3220   3229   3238     1  0.0000000  1.0460000  1
   3221   3220   3229   3238     1  0.0000000  0.0000000  3
   3221   3220   3229   3230     1  0.0000000  0.6508444  3
   3221   3220   3229   3231     1  0.0000000  0.6508444  3
   3222   3220   3229   3238     1  0.0000000  1.0460000  1
   3222   3220   3229   3238     1  0.0000000  0.0000000  3
   3222   3220   3229   3230     1  0.0000000  0.6508444  3
   3222   3220   3229   3231     1  0.0000000  0.6508444  3
   3223   3211   3210   3239     1  0.0000000  0.6508444  3
   3224   3223   3235   6090     1  0.0000000  1.0460000  1
   3224   3223   3235   6090     1  0.0000000  0.0000000  3
   3224   3223   3235   3236     1  0.0000000  0.6508444  3
   3224   3223   3235   3237     1  0.0000000  0.6508444  3
   3225   3223   3235   6090     1  0.0000000  1.0460000  1
   3225   3223   3235   6090     1  0.0000000  0.0000000  3
   3225   3223   3235   3236     1  0.0000000  0.6508444  3
   3225   3223   3235   3237     1  0.0000000  0.6508444  3
   3226   3214   3210   3239     1  0.0000000  0.6508444  3
   3227   3226   3232   6076     1  0.0000000  1.0460000  1
   3227   3226   3232   6076     1  0.0000000  0.0000000  3
   3227   3226   3232   3233     1  0.0000000  0.6508444  3
   3227   3226   3232   3234     1  0.0000000  0.6508444  3
   3228   3226   3232   6076     1  0.0000000  1.0460000  1
   3228   3226   3232   6076     1  0.0000000  0.0000000  3
   3228   3226   3232   3233     1  0.0000000  0.6508444  3
   3228   3226   3232   3234     1  0.0000000  0.6508444  3
   3232   6076   6070   6071     1  0.0000000  1.6038667  3
   3232   6076   6070   6072     1  0.0000000  1.6038667  3
   3233   3232   6076   6070     1  0.0000000  1.6038667  3
   3234   3232   6076   6070     1  0.0000000  1.6038667  3
   3235   6090   6084   6085     1  0.0000000  1.6038667  3
   3235   6090   6084   6086     1  0.0000000  1.6038667  3
   3236   3235   6090   6084     1  0.0000000  1.6038667  3
   3237   3235   6090   6084     1  0.0000000  1.6038667  3
   3240   3241   3253   3254     1  0.0000000  0.6508444  3
   3240   3241   3253   3255     1  0.0000000  0.6508444  3
   3240   3244   3256   3257     1  0.0000000  0.6508444  3
   3240   3244   3256   3258     1  0.0000000  0.6508444  3
   3240   3247   3250   3251     1  0.0000000  0.6508444  3
   3240   3247   3250   3252     1  0.0000000  0.6508444  3
   3241   3240   3244   3245     1  0.0000000  0.6508444  3
   3241   3240   3244   3246     1  0.0000000  0.6508444  3
   3241   3240   3247   3248     1  0.0000000  0.6508444  3
   3241   3240   3247   3249     1  0.0000000  0.6508444  3
   3241   3253   3265   3266     1  0.0000000  0.6508444  3
   3241   3253   3265   3267     1  0.0000000  0.6508444  3
   3242   3241   3240   3244     1  0.0000000  0.6508444  3
   3242   3241   3240   3247     1  0.0000000  0.6508444  3
   3242   3241   3240   3269     1  0.0000000  0.6508444  3
   3242   3241   3253   3265     1  0.0000000  0.6508444  3
   3242   3241   3253   3254     1  0.0000000  0.6508444  3
   3242   3241   3253   3255     1  0.0000000  0.6508444  3
   3243   3241   3240   3244     1  0.0000000  0.6508444  3
   3243   3241   3240   3247     1  0.0000000  0.6508444  3
   3243   3241   3240   3269     1  0.0000000  0.6508444  3
   3243   3241   3253   3265     1  0.0000000  0.6508444  3
   3243   3241   3253   3254     1  0.0000000  0.6508444  3
   3243   3241   3253   3255     1  0.0000000  0.6508444  3
   3244   3240   3247   3248     1  0.0000000  0.6508444  3
   3244   3240   3247   3249     1  0.0000000  0.6508444  3
   3244   3256   3262   3263     1  0.0000000  0.6508444  3
   3244   3256   3262   3264     1  0.0000000  0.6508444  3
   3245   3244   3240   3247     1  0.0000000  0.6508444  3
   3245   3244   3240   3269     1  0.0000000  0.6508444  3
   3245   3244   3256   3262     1  0.0000000  0.6508444  3
   3245   3244   3256   3257     1  0.0000000  0.6508444  3
   3245   3244   3256   3258     1  0.0000000  0.6508444  3
   3246   3244   3240   3247     1  0.0000000  0.6508444  3
   3246   3244   3240   3269     1  0.0000000  0.6508444  3
   3246   3244   3256   3262     1  0.0000000  0.6508444  3
   3246   3244   3256   3257     1  0.0000000  0.6508444  3
   3246   3244   3256   3258     1  0.0000000  0.6508444  3
   3247   3250   3259   3260     1  0.0000000  0.6508444  3
   3247   3250   3259   3261     1  0.0000000  0.6508444  3
   3248   3247   3240   3269     1  0.0000000  0.6508444  3
   3248   3247   3250   3259     1  0.0000000  0.6508444  3
   3248   3247   3250   3251     1  0.0000000  0.6508444  3
   3248   3247   3250   3252     1  0.0000000  0.6508444  3
   3249   3247   3240   3269     1  0.0000000  0.6508444  3
   3249   3247   3250   3259     1  0.0000000  0.6508444  3
   3249   3247   3250   3251     1  0.0000000  0.6508444  3
   3249   3247   3250   3252     1  0.0000000  0.6508444  3
   3250   3247   3240   3269     1  0.0000000  0.6508444  3
   3251   3250   3259   3268     1  0.0000000  1.0460000  1
   3251   3250   3259   3268     1  0.0000000  0.0000000  3
   3251   3250   3259   3260     1  0.0000000  0.6508444  3
   3251   3250   3259   3261     1  0.0000000  0.6508444  3
   3252   3250   3259   3268     1  0.0000000  1.0460000  1
   3252   3250   3259   3268     1  0.0000000  0.0000000  3
   3252   3250   3259   3260     1  0.0000000  0.6508444  3
   3252   3250   3259   3261     1  0.0000000  0.6508444  3
   3253   3241   3240   3269     1  0.0000000  0.6508444  3
   3254   3253   3265   6118     1  0.0000000  1.0460000  1
   3254   3253   3265   6118     1  0.0000000  0.0000000  3
   3254   3253   3265   3266     1  0.0000000  0.6508444  3
   3254   3253   3265   3267     1  0.0000000  0.6508444  3
   3255   3253   3265   6118     1  0.0000000  1.0460000  1
   3255   3253   3265   6118     1  0.0000000  0.0000000  3
   3255   3253   3265   3266     1  0.0000000  0.6508444  3
   3255   3253   3265   3267     1  0.0000000  0.6508444  3
   3256   3244   3240   3269     1  0.0000000  0.6508444  3
   3257   3256   3262   6104     1  0.0000000  1.0460000  1
   3257   3256   3262   6104     1  0.0000000  0.0000000  3
   3257   3256   3262   3263     1  0.0000000  0.6508444  3
   3257   3256   3262   3264     1  0.0000000  0.6508444  3
   3258   3256   3262   6104     1  0.0000000  1.0460000  1
   3258   3256   3262   6104     1  0.0000000  0.0000000  3
   3258   3256   3262   3263     1  0.0000000  0.6508444  3
   3258   3256   3262   3264     1  0.0000000  0.6508444  3
   3262   6104   6098   6099     1  0.0000000  1.6038667  3
   3262   6104   6098   6100     1  0.0000000  1.6038667  3
   3263   3262   6104   6098     1  0.0000000  1.6038667  3
   3264   3262   6104   6098     1  0.0000000  1.6038667  3
   3265   6118   6112   6113     1  0.0000000  1.6038667  3
   3265   6118   6112   6114     1  0.0000000  1.6038667  3
   3266   3265   6118   6112     1  0.0000000  1.6038667  3
   3267   3265   6118   6112     1  0.0000000  1.6038667  3
   3270   3271   3283   3284     1  0.0000000  0.6508444  3
   3270   3271   3283   3285     1  0.0000000  0.6508444  3
   3270   3274   3286   3287     1  0.0000000  0.6508444  3
   3270   3274   3286   3288     1  0.0000000  0.6508444  3
   3270   3277   3280   3281     1  0.0000000  0.6508444  3
   3270   3277   3280   3282     1  0.0000000  0.6508444  3
   3271   3270   3274   3275     1  0.0000000  0.6508444  3
   3271   3270   3274   3276     1  0.0000000  0.6508444  3
   3271   3270   3277   3278     1  0.0000000  0.6508444  3
   3271   3270   3277   3279     1  0.0000000  0.6508444  3
   3271   3283   3295   3296     1  0.0000000  0.6508444  3
   3271   3283   3295   3297     1  0.0000000  0.6508444  3
   3272   3271   3270   3274     1  0.0000000  0.6508444  3
   3272   3271   3270   3277     1  0.0000000  0.6508444  3
   3272   3271   3270   3299     1  0.0000000  0.6508444  3
   3272   3271   3283   3295     1  0.0000000  0.6508444  3
   3272   3271   3283   3284     1  0.0000000  0.6508444  3
   3272   3271   3283   3285     1  0.0000000  0.6508444  3
   3273   3271   3270   3274     1  0.0000000  0.6508444  3
   3273   3271   3270   3277     1  0.0000000  0.6508444  3
   3273   3271   3270   3299     1  0.0000000  0.6508444  3
   3273   3271   3283   3295     1  0.0000000  0.6508444  3
   3273   3271   3283   3284     1  0.0000000  0.6508444  3
   3273   3271   3283   3285     1  0.0000000  0.6508444  3
   3274   3270   3277   3278     1  0.0000000  0.6508444  3
   3274   3270   3277   3279     1  0.0000000  0.6508444  3
   3274   3286   3292   3293     1  0.0000000  0.6508444  3
   3274   3286   3292   3294     1  0.0000000  0.6508444  3
   3275   3274   3270   3277     1  0.0000000  0.6508444  3
   3275   3274   3270   3299     1  0.0000000  0.6508444  3
   3275   3274   3286   3292     1  0.0000000  0.6508444  3
   3275   3274   3286   3287     1  0.0000000  0.6508444  3
   3275   3274   3286   3288     1  0.0000000  0.6508444  3
   3276   3274   3270   3277     1  0.0000000  0.6508444  3
   3276   3274   3270   3299     1  0.0000000  0.6508444  3
   3276   3274   3286   3292     1  0.0000000  0.6508444  3
   3276   3274   3286   3287     1  0.0000000  0.6508444  3
   3276   3274   3286   3288     1  0.0000000  0.6508444  3
   3277   3280   3289   3290     1  0.0000000  0.6508444  3
   3277   3280   3289   3291     1  0.0000000  0.6508444  3
   3278   3277   3270   3299     1  0.0000000  0.6508444  3
   3278   3277   3280   3289     1  0.0000000  0.6508444  3
   3278   3277   3280   3281     1  0.0000000  0.6508444  3
   3278   3277   3280   3282     1  0.0000000  0.6508444  3
   3279   3277   3270   3299     1  0.0000000  0.6508444  3
   3279   3277   3280   3289     1  0.0000000  0.6508444  3
   3279   3277   3280   3281     1  0.0000000  0.6508444  3
   3279   3277   3280   3282     1  0.0000000  0.6508444  3
   3280   3277   3270   3299     1  0.0000000  0.6508444  3
   3281   3280   3289   3298     1  0.0000000  1.0460000  1
   3281   3280   3289   3298     1  0.0000000  0.0000000  3
   3281   3280   3289   3290     1  0.0000000  0.6508444  3
   3281   3280   3289   3291     1  0.0000000  0.6508444  3
   3282   3280   3289   3298     1  0.0000000  1.0460000  1
   3282   3280   3289   3298     1  0.0000000  0.0000000  3
   3282   3280   3289   3290     1  0.0000000  0.6508444  3
   3282   3280   3289   3291     1  0.0000000  0.6508444  3
   3283   3271   3270   3299     1  0.0000000  0.6508444  3
   3284   3283   3295   6146     1  0.0000000  1.0460000  1
   3284   3283   3295   6146     1  0.0000000  0.0000000  3
   3284   3283   3295   3296     1  0.0000000  0.6508444  3
   3284   3283   3295   3297     1  0.0000000  0.6508444  3
   3285   3283   3295   6146     1  0.0000000  1.0460000  1
   3285   3283   3295   6146     1  0.0000000  0.0000000  3
   3285   3283   3295   3296     1  0.0000000  0.6508444  3
   3285   3283   3295   3297     1  0.0000000  0.6508444  3
   3286   3274   3270   3299     1  0.0000000  0.6508444  3
   3287   3286   3292   6132     1  0.0000000  1.0460000  1
   3287   3286   3292   6132     1  0.0000000  0.0000000  3
   3287   3286   3292   3293     1  0.0000000  0.6508444  3
   3287   3286   3292   3294     1  0.0000000  0.6508444  3
   3288   3286   3292   6132     1  0.0000000  1.0460000  1
   3288   3286   3292   6132     1  0.0000000  0.0000000  3
   3288   3286   3292   3293     1  0.0000000  0.6508444  3
   3288   3286   3292   3294     1  0.0000000  0.6508444  3
   3292   6132   6126   6127     1  0.0000000  1.6038667  3
   3292   6132   6126   6128     1  0.0000000  1.6038667  3
   3293   3292   6132   6126     1  0.0000000  1.6038667  3
   3294   3292   6132   6126     1  0.0000000  1.6038667  3
   3295   6146   6140   6141     1  0.0000000  1.6038667  3
   3295   6146   6140   6142     1  0.0000000  1.6038667  3
   3296   3295   6146   6140     1  0.0000000  1.6038667  3
   3297   3295   6146   6140     1  0.0000000  1.6038667  3
   3300   3301   3313   3314     1  0.0000000  0.6508444  3
   3300   3301   3313   3315     1  0.0000000  0.6508444  3
   3300   3304   3316   3317     1  0.0000000  0.6508444  3
   3300   3304   3316   3318     1  0.0000000  0.6508444  3
   3300   3307   3310   3311     1  0.0000000  0.6508444  3
   3300   3307   3310   3312     1  0.0000000  0.6508444  3
   3301   3300   3304   3305     1  0.0000000  0.6508444  3
   3301   3300   3304   3306     1  0.0000000  0.6508444  3
   3301   3300   3307   3308     1  0.0000000  0.6508444  3
   3301   3300   3307   3309     1  0.0000000  0.6508444  3
   3301   3313   3325   3326     1  0.0000000  0.6508444  3
   3301   3313   3325   3327     1  0.0000000  0.6508444  3
   3302   3301   3300   3304     1  0.0000000  0.6508444  3
   3302   3301   3300   3307     1  0.0000000  0.6508444  3
   3302   3301   3300   3329     1  0.0000000  0.6508444  3
   3302   3301   3313   3325     1  0.0000000  0.6508444  3
   3302   3301   3313   3314     1  0.0000000  0.6508444  3
   3302   3301   3313   3315     1  0.0000000  0.6508444  3
   3303   3301   3300   3304     1  0.0000000  0.6508444  3
   3303   3301   3300   3307     1  0.0000000  0.6508444  3
   3303   3301   3300   3329     1  0.0000000  0.6508444  3
   3303   3301   3313   3325     1  0.0000000  0.6508444  3
   3303   3301   3313   3314     1  0.0000000  0.6508444  3
   3303   3301   3313   3315     1  0.0000000  0.6508444  3
   3304   3300   3307   3308     1  0.0000000  0.6508444  3
   3304   3300   3307   3309     1  0.0000000  0.6508444  3
   3304   3316   3322   3323     1  0.0000000  0.6508444  3
   3304   3316   3322   3324     1  0.0000000  0.6508444  3
   3305   3304   3300   3307     1  0.0000000  0.6508444  3
   3305   3304   3300   3329     1  0.0000000  0.6508444  3
   3305   3304   3316   3322     1  0.0000000  0.6508444  3
   3305   3304   3316   3317     1  0.0000000  0.6508444  3
   3305   3304   3316   3318     1  0.0000000  0.6508444  3
   3306   3304   3300   3307     1  0.0000000  0.6508444  3
   3306   3304   3300   3329     1  0.0000000  0.6508444  3
   3306   3304   3316   3322     1  0.0000000  0.6508444  3
   3306   3304   3316   3317     1  0.0000000  0.6508444  3
   3306   3304   3316   3318     1  0.0000000  0.6508444  3
   3307   3310   3319   3320     1  0.0000000  0.6508444  3
   3307   3310   3319   3321     1  0.0000000  0.6508444  3
   3308   3307   3300   3329     1  0.0000000  0.6508444  3
   3308   3307   3310   3319     1  0.0000000  0.6508444  3
   3308   3307   3310   3311     1  0.0000000  0.6508444  3
   3308   3307   3310   3312     1  0.0000000  0.6508444  3
   3309   3307   3300   3329     1  0.0000000  0.6508444  3
   3309   3307   3310   3319     1  0.0000000  0.6508444  3
   3309   3307   3310   3311     1  0.0000000  0.6508444  3
   3309   3307   3310   3312     1  0.0000000  0.6508444  3
   3310   3307   3300   3329     1  0.0000000  0.6508444  3
   3311   3310   3319   3328     1  0.0000000  1.0460000  1
   3311   3310   3319   3328     1  0.0000000  0.0000000  3
   3311   3310   3319   3320     1  0.0000000  0.6508444  3
   3311   3310   3319   3321     1  0.0000000  0.6508444  3
   3312   3310   3319   3328     1  0.0000000  1.0460000  1
   3312   3310   3319   3328     1  0.0000000  0.0000000  3
   3312   3310   3319   3320     1  0.0000000  0.6508444  3
   3312   3310   3319   3321     1  0.0000000  0.6508444  3
   3313   3301   3300   3329     1  0.0000000  0.6508444  3
   3314   3313   3325   6174     1  0.0000000  1.0460000  1
   3314   3313   3325   6174     1  0.0000000  0.0000000  3
   3314   3313   3325   3326     1  0.0000000  0.6508444  3
   3314   3313   3325   3327     1  0.0000000  0.6508444  3
   3315   3313   3325   6174     1  0.0000000  1.0460000  1
   3315   3313   3325   6174     1  0.0000000  0.0000000  3
   3315   3313   3325   3326     1  0.0000000  0.6508444  3
   3315   3313   3325   3327     1  0.0000000  0.6508444  3
   3316   3304   3300   3329     1  0.0000000  0.6508444  3
   3317   3316   3322   6160     1  0.0000000  1.0460000  1
   3317   3316   3322   6160     1  0.0000000  0.0000000  3
   3317   3316   3322   3323     1  0.0000000  0.6508444  3
   3317   3316   3322   3324     1  0.0000000  0.6508444  3
   3318   3316   3322   6160     1  0.0000000  1.0460000  1
   3318   3316   3322   6160     1  0.0000000  0.0000000  3
   3318   3316   3322   3323     1  0.0000000  0.6508444  3
   3318   3316   3322   3324     1  0.0000000  0.6508444  3
   3322   6160   6154   6155     1  0.0000000  1.6038667  3
   3322   6160   6154   6156     1  0.0000000  1.6038667  3
   3323   3322   6160   6154     1  0.0000000  1.6038667  3
   3324   3322   6160   6154     1  0.0000000  1.6038667  3
   3325   6174   6168   6169     1  0.0000000  1.6038667  3
   3325   6174   6168   6170     1  0.0000000  1.6038667  3
   3326   3325   6174   6168     1  0.0000000  1.6038667  3
   3327   3325   6174   6168     1  0.0000000  1.6038667  3
   3330   3331   3343   3344     1  0.0000000  0.6508444  3
   3330   3331   3343   3345     1  0.0000000  0.6508444  3
   3330   3334   3346   3347     1  0.0000000  0.6508444  3
   3330   3334   3346   3348     1  0.0000000  0.6508444  3
   3330   3337   3340   3341     1  0.0000000  0.6508444  3
   3330   3337   3340   3342     1  0.0000000  0.6508444  3
   3331   3330   3334   3335     1  0.0000000  0.6508444  3
   3331   3330   3334   3336     1  0.0000000  0.6508444  3
   3331   3330   3337   3338     1  0.0000000  0.6508444  3
   3331   3330   3337   3339     1  0.0000000  0.6508444  3
   3331   3343   3355   3356     1  0.0000000  0.6508444  3
   3331   3343   3355   3357     1  0.0000000  0.6508444  3
   3332   3331   3330   3334     1  0.0000000  0.6508444  3
   3332   3331   3330   3337     1  0.0000000  0.6508444  3
   3332   3331   3330   3359     1  0.0000000  0.6508444  3
   3332   3331   3343   3355     1  0.0000000  0.6508444  3
   3332   3331   3343   3344     1  0.0000000  0.6508444  3
   3332   3331   3343   3345     1  0.0000000  0.6508444  3
   3333   3331   3330   3334     1  0.0000000  0.6508444  3
   3333   3331   3330   3337     1  0.0000000  0.6508444  3
   3333   3331   3330   3359     1  0.0000000  0.6508444  3
   3333   3331   3343   3355     1  0.0000000  0.6508444  3
   3333   3331   3343   3344     1  0.0000000  0.6508444  3
   3333   3331   3343   3345     1  0.0000000  0.6508444  3
   3334   3330   3337   3338     1  0.0000000  0.6508444  3
   3334   3330   3337   3339     1  0.0000000  0.6508444  3
   3334   3346   3352   3353     1  0.0000000  0.6508444  3
   3334   3346   3352   3354     1  0.0000000  0.6508444  3
   3335   3334   3330   3337     1  0.0000000  0.6508444  3
   3335   3334   3330   3359     1  0.0000000  0.6508444  3
   3335   3334   3346   3352     1  0.0000000  0.6508444  3
   3335   3334   3346   3347     1  0.0000000  0.6508444  3
   3335   3334   3346   3348     1  0.0000000  0.6508444  3
   3336   3334   3330   3337     1  0.0000000  0.6508444  3
   3336   3334   3330   3359     1  0.0000000  0.6508444  3
   3336   3334   3346   3352     1  0.0000000  0.6508444  3
   3336   3334   3346   3347     1  0.0000000  0.6508444  3
   3336   3334   3346   3348     1  0.0000000  0.6508444  3
   3337   3340   3349   3350     1  0.0000000  0.6508444  3
   3337   3340   3349   3351     1  0.0000000  0.6508444  3
   3338   3337   3330   3359     1  0.0000000  0.6508444  3
   3338   3337   3340   3349     1  0.0000000  0.6508444  3
   3338   3337   3340   3341     1  0.0000000  0.6508444  3
   3338   3337   3340   3342     1  0.0000000  0.6508444  3
   3339   3337   3330   3359     1  0.0000000  0.6508444  3
   3339   3337   3340   3349     1  0.0000000  0.6508444  3
   3339   3337   3340   3341     1  0.0000000  0.6508444  3
   3339   3337   3340   3342     1  0.0000000  0.6508444  3
   3340   3337   3330   3359     1  0.0000000  0.6508444  3
   3341   3340   3349   3358     1  0.0000000  1.0460000  1
   3341   3340   3349   3358     1  0.0000000  0.0000000  3
   3341   3340   3349   3350     1  0.0000000  0.6508444  3
   3341   3340   3349   3351     1  0.0000000  0.6508444  3
   3342   3340   3349   3358     1  0.0000000  1.0460000  1
   3342   3340   3349   3358     1  0.0000000  0.0000000  3
   3342   3340   3349   3350     1  0.0000000  0.6508444  3
   3342   3340   3349   3351     1  0.0000000  0.6508444  3
   3343   3331   3330   3359     1  0.0000000  0.6508444  3
   3344   3343   3355   6202     1  0.0000000  1.0460000  1
   3344   3343   3355   6202     1  0.0000000  0.0000000  3
   3344   3343   3355   3356     1  0.0000000  0.6508444  3
   3344   3343   3355   3357     1  0.0000000  0.6508444  3
   3345   3343   3355   6202     1  0.0000000  1.0460000  1
   3345   3343   3355   6202     1  0.0000000  0.0000000  3
   3345   3343   3355   3356     1  0.0000000  0.6508444  3
   3345   3343   3355   3357     1  0.0000000  0.6508444  3
   3346   3334   3330   3359     1  0.0000000  0.6508444  3
   3347   3346   3352   6188     1  0.0000000  1.0460000  1
   3347   3346   3352   6188     1  0.0000000  0.0000000  3
   3347   3346   3352   3353     1  0.0000000  0.6508444  3
   3347   3346   3352   3354     1  0.0000000  0.6508444  3
   3348   3346   3352   6188     1  0.0000000  1.0460000  1
   3348   3346   3352   6188     1  0.0000000  0.0000000  3
   3348   3346   3352   3353     1  0.0000000  0.6508444  3
   3348   3346   3352   3354     1  0.0000000  0.6508444  3
   3352   6188   6182   6183     1  0.0000000  1.6038667  3
   3352   6188   6182   6184     1  0.0000000  1.6038667  3
   3353   3352   6188   6182     1  0.0000000  1.6038667  3
   3354   3352   6188   6182     1  0.0000000  1.6038667  3
   3355   6202   6196   6197     1  0.0000000  1.6038667  3
   3355   6202   6196   6198     1  0.0000000  1.6038667  3
   3356   3355   6202   6196     1  0.0000000  1.6038667  3
   3357   3355   6202   6196     1  0.0000000  1.6038667  3
   3360   3361   3373   3374     1  0.0000000  0.6508444  3
   3360   3361   3373   3375     1  0.0000000  0.6508444  3
   3360   3364   3376   3377     1  0.0000000  0.6508444  3
   3360   3364   3376   3378     1  0.0000000  0.6508444  3
   3360   3367   3370   3371     1  0.0000000  0.6508444  3
   3360   3367   3370   3372     1  0.0000000  0.6508444  3
   3361   3360   3364   3365     1  0.0000000  0.6508444  3
   3361   3360   3364   3366     1  0.0000000  0.6508444  3
   3361   3360   3367   3368     1  0.0000000  0.6508444  3
   3361   3360   3367   3369     1  0.0000000  0.6508444  3
   3361   3373   3385   3386     1  0.0000000  0.6508444  3
   3361   3373   3385   3387     1  0.0000000  0.6508444  3
   3362   3361   3360   3364     1  0.0000000  0.6508444  3
   3362   3361   3360   3367     1  0.0000000  0.6508444  3
   3362   3361   3360   3389     1  0.0000000  0.6508444  3
   3362   3361   3373   3385     1  0.0000000  0.6508444  3
   3362   3361   3373   3374     1  0.0000000  0.6508444  3
   3362   3361   3373   3375     1  0.0000000  0.6508444  3
   3363   3361   3360   3364     1  0.0000000  0.6508444  3
   3363   3361   3360   3367     1  0.0000000  0.6508444  3
   3363   3361   3360   3389     1  0.0000000  0.6508444  3
   3363   3361   3373   3385     1  0.0000000  0.6508444  3
   3363   3361   3373   3374     1  0.0000000  0.6508444  3
   3363   3361   3373   3375     1  0.0000000  0.6508444  3
   3364   3360   3367   3368     1  0.0000000  0.6508444  3
   3364   3360   3367   3369     1  0.0000000  0.6508444  3
   3364   3376   3382   3383     1  0.0000000  0.6508444  3
   3364   3376   3382   3384     1  0.0000000  0.6508444  3
   3365   3364   3360   3367     1  0.0000000  0.6508444  3
   3365   3364   3360   3389     1  0.0000000  0.6508444  3
   3365   3364   3376   3382     1  0.0000000  0.6508444  3
   3365   3364   3376   3377     1  0.0000000  0.6508444  3
   3365   3364   3376   3378     1  0.0000000  0.6508444  3
   3366   3364   3360   3367     1  0.0000000  0.6508444  3
   3366   3364   3360   3389     1  0.0000000  0.6508444  3
   3366   3364   3376   3382     1  0.0000000  0.6508444  3
   3366   3364   3376   3377     1  0.0000000  0.6508444  3
   3366   3364   3376   3378     1  0.0000000  0.6508444  3
   3367   3370   3379   3380     1  0.0000000  0.6508444  3
   3367   3370   3379   3381     1  0.0000000  0.6508444  3
   3368   3367   3360   3389     1  0.0000000  0.6508444  3
   3368   3367   3370   3379     1  0.0000000  0.6508444  3
   3368   3367   3370   3371     1  0.0000000  0.6508444  3
   3368   3367   3370   3372     1  0.0000000  0.6508444  3
   3369   3367   3360   3389     1  0.0000000  0.6508444  3
   3369   3367   3370   3379     1  0.0000000  0.6508444  3
   3369   3367   3370   3371     1  0.0000000  0.6508444  3
   3369   3367   3370   3372     1  0.0000000  0.6508444  3
   3370   3367   3360   3389     1  0.0000000  0.6508444  3
   3371   3370   3379   3388     1  0.0000000  1.0460000  1
   3371   3370   3379   3388     1  0.0000000  0.0000000  3
   3371   3370   3379   3380     1  0.0000000  0.6508444  3
   3371   3370   3379   3381     1  0.0000000  0.6508444  3
   3372   3370   3379   3388     1  0.0000000  1.0460000  1
   3372   3370   3379   3388     1  0.0000000  0.0000000  3
   3372   3370   3379   3380     1  0.0000000  0.6508444  3
   3372   3370   3379   3381     1  0.0000000  0.6508444  3
   3373   3361   3360   3389     1  0.0000000  0.6508444  3
   3374   3373   3385   6230     1  0.0000000  1.0460000  1
   3374   3373   3385   6230     1  0.0000000  0.0000000  3
   3374   3373   3385   3386     1  0.0000000  0.6508444  3
   3374   3373   3385   3387     1  0.0000000  0.6508444  3
   3375   3373   3385   6230     1  0.0000000  1.0460000  1
   3375   3373   3385   6230     1  0.0000000  0.0000000  3
   3375   3373   3385   3386     1  0.0000000  0.6508444  3
   3375   3373   3385   3387     1  0.0000000  0.6508444  3
   3376   3364   3360   3389     1  0.0000000  0.6508444  3
   3377   3376   3382   6216     1  0.0000000  1.0460000  1
   3377   3376   3382   6216     1  0.0000000  0.0000000  3
   3377   3376   3382   3383     1  0.0000000  0.6508444  3
   3377   3376   3382   3384     1  0.0000000  0.6508444  3
   3378   3376   3382   6216     1  0.0000000  1.0460000  1
   3378   3376   3382   6216     1  0.0000000  0.0000000  3
   3378   3376   3382   3383     1  0.0000000  0.6508444  3
   3378   3376   3382   3384     1  0.0000000  0.6508444  3
   3382   6216   6210   6211     1  0.0000000  1.6038667  3
   3382   6216   6210   6212     1  0.0000000  1.6038667  3
   3383   3382   6216   6210     1  0.0000000  1.6038667  3
   3384   3382   6216   6210     1  0.0000000  1.6038667  3
   3385   6230   6224   6225     1  0.0000000  1.6038667  3
   3385   6230   6224   6226     1  0.0000000  1.6038667  3
   3386   3385   6230   6224     1  0.0000000  1.6038667  3
   3387   3385   6230   6224     1  0.0000000  1.6038667  3
   3390   3391   3403   3404     1  0.0000000  0.6508444  3
   3390   3391   3403   3405     1  0.0000000  0.6508444  3
   3390   3394   3406   3407     1  0.0000000  0.6508444  3
   3390   3394   3406   3408     1  0.0000000  0.6508444  3
   3390   3397   3400   3401     1  0.0000000  0.6508444  3
   3390   3397   3400   3402     1  0.0000000  0.6508444  3
   3391   3390   3394   3395     1  0.0000000  0.6508444  3
   3391   3390   3394   3396     1  0.0000000  0.6508444  3
   3391   3390   3397   3398     1  0.0000000  0.6508444  3
   3391   3390   3397   3399     1  0.0000000  0.6508444  3
   3391   3403   3415   3416     1  0.0000000  0.6508444  3
   3391   3403   3415   3417     1  0.0000000  0.6508444  3
   3392   3391   3390   3394     1  0.0000000  0.6508444  3
   3392   3391   3390   3397     1  0.0000000  0.6508444  3
   3392   3391   3390   3419     1  0.0000000  0.6508444  3
   3392   3391   3403   3415     1  0.0000000  0.6508444  3
   3392   3391   3403   3404     1  0.0000000  0.6508444  3
   3392   3391   3403   3405     1  0.0000000  0.6508444  3
   3393   3391   3390   3394     1  0.0000000  0.6508444  3
   3393   3391   3390   3397     1  0.0000000  0.6508444  3
   3393   3391   3390   3419     1  0.0000000  0.6508444  3
   3393   3391   3403   3415     1  0.0000000  0.6508444  3
   3393   3391   3403   3404     1  0.0000000  0.6508444  3
   3393   3391   3403   3405     1  0.0000000  0.6508444  3
   3394   3390   3397   3398     1  0.0000000  0.6508444  3
   3394   3390   3397   3399     1  0.0000000  0.6508444  3
   3394   3406   3412   3413     1  0.0000000  0.6508444  3
   3394   3406   3412   3414     1  0.0000000  0.6508444  3
   3395   3394   3390   3397     1  0.0000000  0.6508444  3
   3395   3394   3390   3419     1  0.0000000  0.6508444  3
   3395   3394   3406   3412     1  0.0000000  0.6508444  3
   3395   3394   3406   3407     1  0.0000000  0.6508444  3
   3395   3394   3406   3408     1  0.0000000  0.6508444  3
   3396   3394   3390   3397     1  0.0000000  0.6508444  3
   3396   3394   3390   3419     1  0.0000000  0.6508444  3
   3396   3394   3406   3412     1  0.0000000  0.6508444  3
   3396   3394   3406   3407     1  0.0000000  0.6508444  3
   3396   3394   3406   3408     1  0.0000000  0.6508444  3
   3397   3400   3409   3410     1  0.0000000  0.6508444  3
   3397   3400   3409   3411     1  0.0000000  0.6508444  3
   3398   3397   3390   3419     1  0.0000000  0.6508444  3
   3398   3397   3400   3409     1  0.0000000  0.6508444  3
   3398   3397   3400   3401     1  0.0000000  0.6508444  3
   3398   3397   3400   3402     1  0.0000000  0.6508444  3
   3399   3397   3390   3419     1  0.0000000  0.6508444  3
   3399   3397   3400   3409     1  0.0000000  0.6508444  3
   3399   3397   3400   3401     1  0.0000000  0.6508444  3
   3399   3397   3400   3402     1  0.0000000  0.6508444  3
   3400   3397   3390   3419     1  0.0000000  0.6508444  3
   3401   3400   3409   3418     1  0.0000000  1.0460000  1
   3401   3400   3409   3418     1  0.0000000  0.0000000  3
   3401   3400   3409   3410     1  0.0000000  0.6508444  3
   3401   3400   3409   3411     1  0.0000000  0.6508444  3
   3402   3400   3409   3418     1  0.0000000  1.0460000  1
   3402   3400   3409   3418     1  0.0000000  0.0000000  3
   3402   3400   3409   3410     1  0.0000000  0.6508444  3
   3402   3400   3409   3411     1  0.0000000  0.6508444  3
   3403   3391   3390   3419     1  0.0000000  0.6508444  3
   3404   3403   3415   6258     1  0.0000000  1.0460000  1
   3404   3403   3415   6258     1  0.0000000  0.0000000  3
   3404   3403   3415   3416     1  0.0000000  0.6508444  3
   3404   3403   3415   3417     1  0.0000000  0.6508444  3
   3405   3403   3415   6258     1  0.0000000  1.0460000  1
   3405   3403   3415   6258     1  0.0000000  0.0000000  3
   3405   3403   3415   3416     1  0.0000000  0.6508444  3
   3405   3403   3415   3417     1  0.0000000  0.6508444  3
   3406   3394   3390   3419     1  0.0000000  0.6508444  3
   3407   3406   3412   6244     1  0.0000000  1.0460000  1
   3407   3406   3412   6244     1  0.0000000  0.0000000  3
   3407   3406   3412   3413     1  0.0000000  0.6508444  3
   3407   3406   3412   3414     1  0.0000000  0.6508444  3
   3408   3406   3412   6244     1  0.0000000  1.0460000  1
   3408   3406   3412   6244     1  0.0000000  0.0000000  3
   3408   3406   3412   3413     1  0.0000000  0.6508444  3
   3408   3406   3412   3414     1  0.0000000  0.6508444  3
   3412   6244   6238   6239     1  0.0000000  1.6038667  3
   3412   6244   6238   6240     1  0.0000000  1.6038667  3
   3413   3412   6244   6238     1  0.0000000  1.6038667  3
   3414   3412   6244   6238     1  0.0000000  1.6038667  3
   3415   6258   6252   6253     1  0.0000000  1.6038667  3
   3415   6258   6252   6254     1  0.0000000  1.6038667  3
   3416   3415   6258   6252     1  0.0000000  1.6038667  3
   3417   3415   6258   6252     1  0.0000000  1.6038667  3
   3420   3421   3433   3434     1  0.0000000  0.6508444  3
   3420   3421   3433   3435     1  0.0000000  0.6508444  3
   3420   3424   3436   3437     1  0.0000000  0.6508444  3
   3420   3424   3436   3438     1  0.0000000  0.6508444  3
   3420   3427   3430   3431     1  0.0000000  0.6508444  3
   3420   3427   3430   3432     1  0.0000000  0.6508444  3
   3421   3420   3424   3425     1  0.0000000  0.6508444  3
   3421   3420   3424   3426     1  0.0000000  0.6508444  3
   3421   3420   3427   3428     1  0.0000000  0.6508444  3
   3421   3420   3427   3429     1  0.0000000  0.6508444  3
   3421   3433   3445   3446     1  0.0000000  0.6508444  3
   3421   3433   3445   3447     1  0.0000000  0.6508444  3
   3422   3421   3420   3424     1  0.0000000  0.6508444  3
   3422   3421   3420   3427     1  0.0000000  0.6508444  3
   3422   3421   3420   3449     1  0.0000000  0.6508444  3
   3422   3421   3433   3445     1  0.0000000  0.6508444  3
   3422   3421   3433   3434     1  0.0000000  0.6508444  3
   3422   3421   3433   3435     1  0.0000000  0.6508444  3
   3423   3421   3420   3424     1  0.0000000  0.6508444  3
   3423   3421   3420   3427     1  0.0000000  0.6508444  3
   3423   3421   3420   3449     1  0.0000000  0.6508444  3
   3423   3421   3433   3445     1  0.0000000  0.6508444  3
   3423   3421   3433   3434     1  0.0000000  0.6508444  3
   3423   3421   3433   3435     1  0.0000000  0.6508444  3
   3424   3420   3427   3428     1  0.0000000  0.6508444  3
   3424   3420   3427   3429     1  0.0000000  0.6508444  3
   3424   3436   3442   3443     1  0.0000000  0.6508444  3
   3424   3436   3442   3444     1  0.0000000  0.6508444  3
   3425   3424   3420   3427     1  0.0000000  0.6508444  3
   3425   3424   3420   3449     1  0.0000000  0.6508444  3
   3425   3424   3436   3442     1  0.0000000  0.6508444  3
   3425   3424   3436   3437     1  0.0000000  0.6508444  3
   3425   3424   3436   3438     1  0.0000000  0.6508444  3
   3426   3424   3420   3427     1  0.0000000  0.6508444  3
   3426   3424   3420   3449     1  0.0000000  0.6508444  3
   3426   3424   3436   3442     1  0.0000000  0.6508444  3
   3426   3424   3436   3437     1  0.0000000  0.6508444  3
   3426   3424   3436   3438     1  0.0000000  0.6508444  3
   3427   3430   3439   3440     1  0.0000000  0.6508444  3
   3427   3430   3439   3441     1  0.0000000  0.6508444  3
   3428   3427   3420   3449     1  0.0000000  0.6508444  3
   3428   3427   3430   3439     1  0.0000000  0.6508444  3
   3428   3427   3430   3431     1  0.0000000  0.6508444  3
   3428   3427   3430   3432     1  0.0000000  0.6508444  3
   3429   3427   3420   3449     1  0.0000000  0.6508444  3
   3429   3427   3430   3439     1  0.0000000  0.6508444  3
   3429   3427   3430   3431     1  0.0000000  0.6508444  3
   3429   3427   3430   3432     1  0.0000000  0.6508444  3
   3430   3427   3420   3449     1  0.0000000  0.6508444  3
   3431   3430   3439   3448     1  0.0000000  1.0460000  1
   3431   3430   3439   3448     1  0.0000000  0.0000000  3
   3431   3430   3439   3440     1  0.0000000  0.6508444  3
   3431   3430   3439   3441     1  0.0000000  0.6508444  3
   3432   3430   3439   3448     1  0.0000000  1.0460000  1
   3432   3430   3439   3448     1  0.0000000  0.0000000  3
   3432   3430   3439   3440     1  0.0000000  0.6508444  3
   3432   3430   3439   3441     1  0.0000000  0.6508444  3
   3433   3421   3420   3449     1  0.0000000  0.6508444  3
   3434   3433   3445   6286     1  0.0000000  1.0460000  1
   3434   3433   3445   6286     1  0.0000000  0.0000000  3
   3434   3433   3445   3446     1  0.0000000  0.6508444  3
   3434   3433   3445   3447     1  0.0000000  0.6508444  3
   3435   3433   3445   6286     1  0.0000000  1.0460000  1
   3435   3433   3445   6286     1  0.0000000  0.0000000  3
   3435   3433   3445   3446     1  0.0000000  0.6508444  3
   3435   3433   3445   3447     1  0.0000000  0.6508444  3
   3436   3424   3420   3449     1  0.0000000  0.6508444  3
   3437   3436   3442   6272     1  0.0000000  1.0460000  1
   3437   3436   3442   6272     1  0.0000000  0.0000000  3
   3437   3436   3442   3443     1  0.0000000  0.6508444  3
   3437   3436   3442   3444     1  0.0000000  0.6508444  3
   3438   3436   3442   6272     1  0.0000000  1.0460000  1
   3438   3436   3442   6272     1  0.0000000  0.0000000  3
   3438   3436   3442   3443     1  0.0000000  0.6508444  3
   3438   3436   3442   3444     1  0.0000000  0.6508444  3
   3442   6272   6266   6267     1  0.0000000  1.6038667  3
   3442   6272   6266   6268     1  0.0000000  1.6038667  3
   3443   3442   6272   6266     1  0.0000000  1.6038667  3
   3444   3442   6272   6266     1  0.0000000  1.6038667  3
   3445   6286   6280   6281     1  0.0000000  1.6038667  3
   3445   6286   6280   6282     1  0.0000000  1.6038667  3
   3446   3445   6286   6280     1  0.0000000  1.6038667  3
   3447   3445   6286   6280     1  0.0000000  1.6038667  3
   3450   3451   3463   3464     1  0.0000000  0.6508444  3
   3450   3451   3463   3465     1  0.0000000  0.6508444  3
   3450   3454   3466   3467     1  0.0000000  0.6508444  3
   3450   3454   3466   3468     1  0.0000000  0.6508444  3
   3450   3457   3460   3461     1  0.0000000  0.6508444  3
   3450   3457   3460   3462     1  0.0000000  0.6508444  3
   3451   3450   3454   3455     1  0.0000000  0.6508444  3
   3451   3450   3454   3456     1  0.0000000  0.6508444  3
   3451   3450   3457   3458     1  0.0000000  0.6508444  3
   3451   3450   3457   3459     1  0.0000000  0.6508444  3
   3451   3463   3475   3476     1  0.0000000  0.6508444  3
   3451   3463   3475   3477     1  0.0000000  0.6508444  3
   3452   3451   3450   3454     1  0.0000000  0.6508444  3
   3452   3451   3450   3457     1  0.0000000  0.6508444  3
   3452   3451   3450   3479     1  0.0000000  0.6508444  3
   3452   3451   3463   3475     1  0.0000000  0.6508444  3
   3452   3451   3463   3464     1  0.0000000  0.6508444  3
   3452   3451   3463   3465     1  0.0000000  0.6508444  3
   3453   3451   3450   3454     1  0.0000000  0.6508444  3
   3453   3451   3450   3457     1  0.0000000  0.6508444  3
   3453   3451   3450   3479     1  0.0000000  0.6508444  3
   3453   3451   3463   3475     1  0.0000000  0.6508444  3
   3453   3451   3463   3464     1  0.0000000  0.6508444  3
   3453   3451   3463   3465     1  0.0000000  0.6508444  3
   3454   3450   3457   3458     1  0.0000000  0.6508444  3
   3454   3450   3457   3459     1  0.0000000  0.6508444  3
   3454   3466   3472   3473     1  0.0000000  0.6508444  3
   3454   3466   3472   3474     1  0.0000000  0.6508444  3
   3455   3454   3450   3457     1  0.0000000  0.6508444  3
   3455   3454   3450   3479     1  0.0000000  0.6508444  3
   3455   3454   3466   3472     1  0.0000000  0.6508444  3
   3455   3454   3466   3467     1  0.0000000  0.6508444  3
   3455   3454   3466   3468     1  0.0000000  0.6508444  3
   3456   3454   3450   3457     1  0.0000000  0.6508444  3
   3456   3454   3450   3479     1  0.0000000  0.6508444  3
   3456   3454   3466   3472     1  0.0000000  0.6508444  3
   3456   3454   3466   3467     1  0.0000000  0.6508444  3
   3456   3454   3466   3468     1  0.0000000  0.6508444  3
   3457   3460   3469   3470     1  0.0000000  0.6508444  3
   3457   3460   3469   3471     1  0.0000000  0.6508444  3
   3458   3457   3450   3479     1  0.0000000  0.6508444  3
   3458   3457   3460   3469     1  0.0000000  0.6508444  3
   3458   3457   3460   3461     1  0.0000000  0.6508444  3
   3458   3457   3460   3462     1  0.0000000  0.6508444  3
   3459   3457   3450   3479     1  0.0000000  0.6508444  3
   3459   3457   3460   3469     1  0.0000000  0.6508444  3
   3459   3457   3460   3461     1  0.0000000  0.6508444  3
   3459   3457   3460   3462     1  0.0000000  0.6508444  3
   3460   3457   3450   3479     1  0.0000000  0.6508444  3
   3461   3460   3469   3478     1  0.0000000  1.0460000  1
   3461   3460   3469   3478     1  0.0000000  0.0000000  3
   3461   3460   3469   3470     1  0.0000000  0.6508444  3
   3461   3460   3469   3471     1  0.0000000  0.6508444  3
   3462   3460   3469   3478     1  0.0000000  1.0460000  1
   3462   3460   3469   3478     1  0.0000000  0.0000000  3
   3462   3460   3469   3470     1  0.0000000  0.6508444  3
   3462   3460   3469   3471     1  0.0000000  0.6508444  3
   3463   3451   3450   3479     1  0.0000000  0.6508444  3
   3464   3463   3475   6314     1  0.0000000  1.0460000  1
   3464   3463   3475   6314     1  0.0000000  0.0000000  3
   3464   3463   3475   3476     1  0.0000000  0.6508444  3
   3464   3463   3475   3477     1  0.0000000  0.6508444  3
   3465   3463   3475   6314     1  0.0000000  1.0460000  1
   3465   3463   3475   6314     1  0.0000000  0.0000000  3
   3465   3463   3475   3476     1  0.0000000  0.6508444  3
   3465   3463   3475   3477     1  0.0000000  0.6508444  3
   3466   3454   3450   3479     1  0.0000000  0.6508444  3
   3467   3466   3472   6300     1  0.0000000  1.0460000  1
   3467   3466   3472   6300     1  0.0000000  0.0000000  3
   3467   3466   3472   3473     1  0.0000000  0.6508444  3
   3467   3466   3472   3474     1  0.0000000  0.6508444  3
   3468   3466   3472   6300     1  0.0000000  1.0460000  1
   3468   3466   3472   6300     1  0.0000000  0.0000000  3
   3468   3466   3472   3473     1  0.0000000  0.6508444  3
   3468   3466   3472   3474     1  0.0000000  0.6508444  3
   3472   6300   6294   6295     1  0.0000000  1.6038667  3
   3472   6300   6294   6296     1  0.0000000  1.6038667  3
   3473   3472   6300   6294     1  0.0000000  1.6038667  3
   3474   3472   6300   6294     1  0.0000000  1.6038667  3
   3475   6314   6308   6309     1  0.0000000  1.6038667  3
   3475   6314   6308   6310     1  0.0000000  1.6038667  3
   3476   3475   6314   6308     1  0.0000000  1.6038667  3
   3477   3475   6314   6308     1  0.0000000  1.6038667  3
   3480   3481   3493   3494     1  0.0000000  0.6508444  3
   3480   3481   3493   3495     1  0.0000000  0.6508444  3
   3480   3484   3496   3497     1  0.0000000  0.6508444  3
   3480   3484   3496   3498     1  0.0000000  0.6508444  3
   3480   3487   3490   3491     1  0.0000000  0.6508444  3
   3480   3487   3490   3492     1  0.0000000  0.6508444  3
   3481   3480   3484   3485     1  0.0000000  0.6508444  3
   3481   3480   3484   3486     1  0.0000000  0.6508444  3
   3481   3480   3487   3488     1  0.0000000  0.6508444  3
   3481   3480   3487   3489     1  0.0000000  0.6508444  3
   3481   3493   3505   3506     1  0.0000000  0.6508444  3
   3481   3493   3505   3507     1  0.0000000  0.6508444  3
   3482   3481   3480   3484     1  0.0000000  0.6508444  3
   3482   3481   3480   3487     1  0.0000000  0.6508444  3
   3482   3481   3480   3509     1  0.0000000  0.6508444  3
   3482   3481   3493   3505     1  0.0000000  0.6508444  3
   3482   3481   3493   3494     1  0.0000000  0.6508444  3
   3482   3481   3493   3495     1  0.0000000  0.6508444  3
   3483   3481   3480   3484     1  0.0000000  0.6508444  3
   3483   3481   3480   3487     1  0.0000000  0.6508444  3
   3483   3481   3480   3509     1  0.0000000  0.6508444  3
   3483   3481   3493   3505     1  0.0000000  0.6508444  3
   3483   3481   3493   3494     1  0.0000000  0.6508444  3
   3483   3481   3493   3495     1  0.0000000  0.6508444  3
   3484   3480   3487   3488     1  0.0000000  0.6508444  3
   3484   3480   3487   3489     1  0.0000000  0.6508444  3
   3484   3496   3502   3503     1  0.0000000  0.6508444  3
   3484   3496   3502   3504     1  0.0000000  0.6508444  3
   3485   3484   3480   3487     1  0.0000000  0.6508444  3
   3485   3484   3480   3509     1  0.0000000  0.6508444  3
   3485   3484   3496   3502     1  0.0000000  0.6508444  3
   3485   3484   3496   3497     1  0.0000000  0.6508444  3
   3485   3484   3496   3498     1  0.0000000  0.6508444  3
   3486   3484   3480   3487     1  0.0000000  0.6508444  3
   3486   3484   3480   3509     1  0.0000000  0.6508444  3
   3486   3484   3496   3502     1  0.0000000  0.6508444  3
   3486   3484   3496   3497     1  0.0000000  0.6508444  3
   3486   3484   3496   3498     1  0.0000000  0.6508444  3
   3487   3490   3499   3500     1  0.0000000  0.6508444  3
   3487   3490   3499   3501     1  0.0000000  0.6508444  3
   3488   3487   3480   3509     1  0.0000000  0.6508444  3
   3488   3487   3490   3499     1  0.0000000  0.6508444  3
   3488   3487   3490   3491     1  0.0000000  0.6508444  3
   3488   3487   3490   3492     1  0.0000000  0.6508444  3
   3489   3487   3480   3509     1  0.0000000  0.6508444  3
   3489   3487   3490   3499     1  0.0000000  0.6508444  3
   3489   3487   3490   3491     1  0.0000000  0.6508444  3
   3489   3487   3490   3492     1  0.0000000  0.6508444  3
   3490   3487   3480   3509     1  0.0000000  0.6508444  3
   3491   3490   3499   3508     1  0.0000000  1.0460000  1
   3491   3490   3499   3508     1  0.0000000  0.0000000  3
   3491   3490   3499   3500     1  0.0000000  0.6508444  3
   3491   3490   3499   3501     1  0.0000000  0.6508444  3
   3492   3490   3499   3508     1  0.0000000  1.0460000  1
   3492   3490   3499   3508     1  0.0000000  0.0000000  3
   3492   3490   3499   3500     1  0.0000000  0.6508444  3
   3492   3490   3499   3501     1  0.0000000  0.6508444  3
   3493   3481   3480   3509     1  0.0000000  0.6508444  3
   3494   3493   3505   6342     1  0.0000000  1.0460000  1
   3494   3493   3505   6342     1  0.0000000  0.0000000  3
   3494   3493   3505   3506     1  0.0000000  0.6508444  3
   3494   3493   3505   3507     1  0.0000000  0.6508444  3
   3495   3493   3505   6342     1  0.0000000  1.0460000  1
   3495   3493   3505   6342     1  0.0000000  0.0000000  3
   3495   3493   3505   3506     1  0.0000000  0.6508444  3
   3495   3493   3505   3507     1  0.0000000  0.6508444  3
   3496   3484   3480   3509     1  0.0000000  0.6508444  3
   3497   3496   3502   6328     1  0.0000000  1.0460000  1
   3497   3496   3502   6328     1  0.0000000  0.0000000  3
   3497   3496   3502   3503     1  0.0000000  0.6508444  3
   3497   3496   3502   3504     1  0.0000000  0.6508444  3
   3498   3496   3502   6328     1  0.0000000  1.0460000  1
   3498   3496   3502   6328     1  0.0000000  0.0000000  3
   3498   3496   3502   3503     1  0.0000000  0.6508444  3
   3498   3496   3502   3504     1  0.0000000  0.6508444  3
   3502   6328   6322   6323     1  0.0000000  1.6038667  3
   3502   6328   6322   6324     1  0.0000000  1.6038667  3
   3503   3502   6328   6322     1  0.0000000  1.6038667  3
   3504   3502   6328   6322     1  0.0000000  1.6038667  3
   3505   6342   6336   6337     1  0.0000000  1.6038667  3
   3505   6342   6336   6338     1  0.0000000  1.6038667  3
   3506   3505   6342   6336     1  0.0000000  1.6038667  3
   3507   3505   6342   6336     1  0.0000000  1.6038667  3
   3510   3511   3523   3524     1  0.0000000  0.6508444  3
   3510   3511   3523   3525     1  0.0000000  0.6508444  3
   3510   3514   3526   3527     1  0.0000000  0.6508444  3
   3510   3514   3526   3528     1  0.0000000  0.6508444  3
   3510   3517   3520   3521     1  0.0000000  0.6508444  3
   3510   3517   3520   3522     1  0.0000000  0.6508444  3
   3511   3510   3514   3515     1  0.0000000  0.6508444  3
   3511   3510   3514   3516     1  0.0000000  0.6508444  3
   3511   3510   3517   3518     1  0.0000000  0.6508444  3
   3511   3510   3517   3519     1  0.0000000  0.6508444  3
   3511   3523   3535   3536     1  0.0000000  0.6508444  3
   3511   3523   3535   3537     1  0.0000000  0.6508444  3
   3512   3511   3510   3514     1  0.0000000  0.6508444  3
   3512   3511   3510   3517     1  0.0000000  0.6508444  3
   3512   3511   3510   3539     1  0.0000000  0.6508444  3
   3512   3511   3523   3535     1  0.0000000  0.6508444  3
   3512   3511   3523   3524     1  0.0000000  0.6508444  3
   3512   3511   3523   3525     1  0.0000000  0.6508444  3
   3513   3511   3510   3514     1  0.0000000  0.6508444  3
   3513   3511   3510   3517     1  0.0000000  0.6508444  3
   3513   3511   3510   3539     1  0.0000000  0.6508444  3
   3513   3511   3523   3535     1  0.0000000  0.6508444  3
   3513   3511   3523   3524     1  0.0000000  0.6508444  3
   3513   3511   3523   3525     1  0.0000000  0.6508444  3
   3514   3510   3517   3518     1  0.0000000  0.6508444  3
   3514   3510   3517   3519     1  0.0000000  0.6508444  3
   3514   3526   3532   3533     1  0.0000000  0.6508444  3
   3514   3526   3532   3534     1  0.0000000  0.6508444  3
   3515   3514   3510   3517     1  0.0000000  0.6508444  3
   3515   3514   3510   3539     1  0.0000000  0.6508444  3
   3515   3514   3526   3532     1  0.0000000  0.6508444  3
   3515   3514   3526   3527     1  0.0000000  0.6508444  3
   3515   3514   3526   3528     1  0.0000000  0.6508444  3
   3516   3514   3510   3517     1  0.0000000  0.6508444  3
   3516   3514   3510   3539     1  0.0000000  0.6508444  3
   3516   3514   3526   3532     1  0.0000000  0.6508444  3
   3516   3514   3526   3527     1  0.0000000  0.6508444  3
   3516   3514   3526   3528     1  0.0000000  0.6508444  3
   3517   3520   3529   3530     1  0.0000000  0.6508444  3
   3517   3520   3529   3531     1  0.0000000  0.6508444  3
   3518   3517   3510   3539     1  0.0000000  0.6508444  3
   3518   3517   3520   3529     1  0.0000000  0.6508444  3
   3518   3517   3520   3521     1  0.0000000  0.6508444  3
   3518   3517   3520   3522     1  0.0000000  0.6508444  3
   3519   3517   3510   3539     1  0.0000000  0.6508444  3
   3519   3517   3520   3529     1  0.0000000  0.6508444  3
   3519   3517   3520   3521     1  0.0000000  0.6508444  3
   3519   3517   3520   3522     1  0.0000000  0.6508444  3
   3520   3517   3510   3539     1  0.0000000  0.6508444  3
   3521   3520   3529   3538     1  0.0000000  1.0460000  1
   3521   3520   3529   3538     1  0.0000000  0.0000000  3
   3521   3520   3529   3530     1  0.0000000  0.6508444  3
   3521   3520   3529   3531     1  0.0000000  0.6508444  3
   3522   3520   3529   3538     1  0.0000000  1.0460000  1
   3522   3520   3529   3538     1  0.0000000  0.0000000  3
   3522   3520   3529   3530     1  0.0000000  0.6508444  3
   3522   3520   3529   3531     1  0.0000000  0.6508444  3
   3523   3511   3510   3539     1  0.0000000  0.6508444  3
   3524   3523   3535   6370     1  0.0000000  1.0460000  1
   3524   3523   3535   6370     1  0.0000000  0.0000000  3
   3524   3523   3535   3536     1  0.0000000  0.6508444  3
   3524   3523   3535   3537     1  0.0000000  0.6508444  3
   3525   3523   3535   6370     1  0.0000000  1.0460000  1
   3525   3523   3535   6370     1  0.0000000  0.0000000  3
   3525   3523   3535   3536     1  0.0000000  0.6508444  3
   3525   3523   3535   3537     1  0.0000000  0.6508444  3
   3526   3514   3510   3539     1  0.0000000  0.6508444  3
   3527   3526   3532   6356     1  0.0000000  1.0460000  1
   3527   3526   3532   6356     1  0.0000000  0.0000000  3
   3527   3526   3532   3533     1  0.0000000  0.6508444  3
   3527   3526   3532   3534     1  0.0000000  0.6508444  3
   3528   3526   3532   6356     1  0.0000000  1.0460000  1
   3528   3526   3532   6356     1  0.0000000  0.0000000  3
   3528   3526   3532   3533     1  0.0000000  0.6508444  3
   3528   3526   3532   3534     1  0.0000000  0.6508444  3
   3532   6356   6350   6351     1  0.0000000  1.6038667  3
   3532   6356   6350   6352     1  0.0000000  1.6038667  3
   3533   3532   6356   6350     1  0.0000000  1.6038667  3
   3534   3532   6356   6350     1  0.0000000  1.6038667  3
   3535   6370   6364   6365     1  0.0000000  1.6038667  3
   3535   6370   6364   6366     1  0.0000000  1.6038667  3
   3536   3535   6370   6364     1  0.0000000  1.6038667  3
   3537   3535   6370   6364     1  0.0000000  1.6038667  3
   3540   3541   3553   3554     1  0.0000000  0.6508444  3
   3540   3541   3553   3555     1  0.0000000  0.6508444  3
   3540   3544   3556   3557     1  0.0000000  0.6508444  3
   3540   3544   3556   3558     1  0.0000000  0.6508444  3
   3540   3547   3550   3551     1  0.0000000  0.6508444  3
   3540   3547   3550   3552     1  0.0000000  0.6508444  3
   3541   3540   3544   3545     1  0.0000000  0.6508444  3
   3541   3540   3544   3546     1  0.0000000  0.6508444  3
   3541   3540   3547   3548     1  0.0000000  0.6508444  3
   3541   3540   3547   3549     1  0.0000000  0.6508444  3
   3541   3553   3565   3566     1  0.0000000  0.6508444  3
   3541   3553   3565   3567     1  0.0000000  0.6508444  3
   3542   3541   3540   3544     1  0.0000000  0.6508444  3
   3542   3541   3540   3547     1  0.0000000  0.6508444  3
   3542   3541   3540   3569     1  0.0000000  0.6508444  3
   3542   3541   3553   3565     1  0.0000000  0.6508444  3
   3542   3541   3553   3554     1  0.0000000  0.6508444  3
   3542   3541   3553   3555     1  0.0000000  0.6508444  3
   3543   3541   3540   3544     1  0.0000000  0.6508444  3
   3543   3541   3540   3547     1  0.0000000  0.6508444  3
   3543   3541   3540   3569     1  0.0000000  0.6508444  3
   3543   3541   3553   3565     1  0.0000000  0.6508444  3
   3543   3541   3553   3554     1  0.0000000  0.6508444  3
   3543   3541   3553   3555     1  0.0000000  0.6508444  3
   3544   3540   3547   3548     1  0.0000000  0.6508444  3
   3544   3540   3547   3549     1  0.0000000  0.6508444  3
   3544   3556   3562   3563     1  0.0000000  0.6508444  3
   3544   3556   3562   3564     1  0.0000000  0.6508444  3
   3545   3544   3540   3547     1  0.0000000  0.6508444  3
   3545   3544   3540   3569     1  0.0000000  0.6508444  3
   3545   3544   3556   3562     1  0.0000000  0.6508444  3
   3545   3544   3556   3557     1  0.0000000  0.6508444  3
   3545   3544   3556   3558     1  0.0000000  0.6508444  3
   3546   3544   3540   3547     1  0.0000000  0.6508444  3
   3546   3544   3540   3569     1  0.0000000  0.6508444  3
   3546   3544   3556   3562     1  0.0000000  0.6508444  3
   3546   3544   3556   3557     1  0.0000000  0.6508444  3
   3546   3544   3556   3558     1  0.0000000  0.6508444  3
   3547   3550   3559   3560     1  0.0000000  0.6508444  3
   3547   3550   3559   3561     1  0.0000000  0.6508444  3
   3548   3547   3540   3569     1  0.0000000  0.6508444  3
   3548   3547   3550   3559     1  0.0000000  0.6508444  3
   3548   3547   3550   3551     1  0.0000000  0.6508444  3
   3548   3547   3550   3552     1  0.0000000  0.6508444  3
   3549   3547   3540   3569     1  0.0000000  0.6508444  3
   3549   3547   3550   3559     1  0.0000000  0.6508444  3
   3549   3547   3550   3551     1  0.0000000  0.6508444  3
   3549   3547   3550   3552     1  0.0000000  0.6508444  3
   3550   3547   3540   3569     1  0.0000000  0.6508444  3
   3551   3550   3559   3568     1  0.0000000  1.0460000  1
   3551   3550   3559   3568     1  0.0000000  0.0000000  3
   3551   3550   3559   3560     1  0.0000000  0.6508444  3
   3551   3550   3559   3561     1  0.0000000  0.6508444  3
   3552   3550   3559   3568     1  0.0000000  1.0460000  1
   3552   3550   3559   3568     1  0.0000000  0.0000000  3
   3552   3550   3559   3560     1  0.0000000  0.6508444  3
   3552   3550   3559   3561     1  0.0000000  0.6508444  3
   3553   3541   3540   3569     1  0.0000000  0.6508444  3
   3554   3553   3565   6398     1  0.0000000  1.0460000  1
   3554   3553   3565   6398     1  0.0000000  0.0000000  3
   3554   3553   3565   3566     1  0.0000000  0.6508444  3
   3554   3553   3565   3567     1  0.0000000  0.6508444  3
   3555   3553   3565   6398     1  0.0000000  1.0460000  1
   3555   3553   3565   6398     1  0.0000000  0.0000000  3
   3555   3553   3565   3566     1  0.0000000  0.6508444  3
   3555   3553   3565   3567     1  0.0000000  0.6508444  3
   3556   3544   3540   3569     1  0.0000000  0.6508444  3
   3557   3556   3562   6384     1  0.0000000  1.0460000  1
   3557   3556   3562   6384     1  0.0000000  0.0000000  3
   3557   3556   3562   3563     1  0.0000000  0.6508444  3
   3557   3556   3562   3564     1  0.0000000  0.6508444  3
   3558   3556   3562   6384     1  0.0000000  1.0460000  1
   3558   3556   3562   6384     1  0.0000000  0.0000000  3
   3558   3556   3562   3563     1  0.0000000  0.6508444  3
   3558   3556   3562   3564     1  0.0000000  0.6508444  3
   3562   6384   6378   6379     1  0.0000000  1.6038667  3
   3562   6384   6378   6380     1  0.0000000  1.6038667  3
   3563   3562   6384   6378     1  0.0000000  1.6038667  3
   3564   3562   6384   6378     1  0.0000000  1.6038667  3
   3565   6398   6392   6393     1  0.0000000  1.6038667  3
   3565   6398   6392   6394     1  0.0000000  1.6038667  3
   3566   3565   6398   6392     1  0.0000000  1.6038667  3
   3567   3565   6398   6392     1  0.0000000  1.6038667  3
   3570   3571   3583   3584     1  0.0000000  0.6508444  3
   3570   3571   3583   3585     1  0.0000000  0.6508444  3
   3570   3574   3586   3587     1  0.0000000  0.6508444  3
   3570   3574   3586   3588     1  0.0000000  0.6508444  3
   3570   3577   3580   3581     1  0.0000000  0.6508444  3
   3570   3577   3580   3582     1  0.0000000  0.6508444  3
   3571   3570   3574   3575     1  0.0000000  0.6508444  3
   3571   3570   3574   3576     1  0.0000000  0.6508444  3
   3571   3570   3577   3578     1  0.0000000  0.6508444  3
   3571   3570   3577   3579     1  0.0000000  0.6508444  3
   3571   3583   3595   3596     1  0.0000000  0.6508444  3
   3571   3583   3595   3597     1  0.0000000  0.6508444  3
   3572   3571   3570   3574     1  0.0000000  0.6508444  3
   3572   3571   3570   3577     1  0.0000000  0.6508444  3
   3572   3571   3570   3599     1  0.0000000  0.6508444  3
   3572   3571   3583   3595     1  0.0000000  0.6508444  3
   3572   3571   3583   3584     1  0.0000000  0.6508444  3
   3572   3571   3583   3585     1  0.0000000  0.6508444  3
   3573   3571   3570   3574     1  0.0000000  0.6508444  3
   3573   3571   3570   3577     1  0.0000000  0.6508444  3
   3573   3571   3570   3599     1  0.0000000  0.6508444  3
   3573   3571   3583   3595     1  0.0000000  0.6508444  3
   3573   3571   3583   3584     1  0.0000000  0.6508444  3
   3573   3571   3583   3585     1  0.0000000  0.6508444  3
   3574   3570   3577   3578     1  0.0000000  0.6508444  3
   3574   3570   3577   3579     1  0.0000000  0.6508444  3
   3574   3586   3592   3593     1  0.0000000  0.6508444  3
   3574   3586   3592   3594     1  0.0000000  0.6508444  3
   3575   3574   3570   3577     1  0.0000000  0.6508444  3
   3575   3574   3570   3599     1  0.0000000  0.6508444  3
   3575   3574   3586   3592     1  0.0000000  0.6508444  3
   3575   3574   3586   3587     1  0.0000000  0.6508444  3
   3575   3574   3586   3588     1  0.0000000  0.6508444  3
   3576   3574   3570   3577     1  0.0000000  0.6508444  3
   3576   3574   3570   3599     1  0.0000000  0.6508444  3
   3576   3574   3586   3592     1  0.0000000  0.6508444  3
   3576   3574   3586   3587     1  0.0000000  0.6508444  3
   3576   3574   3586   3588     1  0.0000000  0.6508444  3
   3577   3580   3589   3590     1  0.0000000  0.6508444  3
   3577   3580   3589   3591     1  0.0000000  0.6508444  3
   3578   3577   3570   3599     1  0.0000000  0.6508444  3
   3578   3577   3580   3589     1  0.0000000  0.6508444  3
   3578   3577   3580   3581     1  0.0000000  0.6508444  3
   3578   3577   3580   3582     1  0.0000000  0.6508444  3
   3579   3577   3570   3599     1  0.0000000  0.6508444  3
   3579   3577   3580   3589     1  0.0000000  0.6508444  3
   3579   3577   3580   3581     1  0.0000000  0.6508444  3
   3579   3577   3580   3582     1  0.0000000  0.6508444  3
   3580   3577   3570   3599     1  0.0000000  0.6508444  3
   3581   3580   3589   3598     1  0.0000000  1.0460000  1
   3581   3580   3589   3598     1  0.0000000  0.0000000  3
   3581   3580   3589   3590     1  0.0000000  0.6508444  3
   3581   3580   3589   3591     1  0.0000000  0.6508444  3
   3582   3580   3589   3598     1  0.0000000  1.0460000  1
   3582   3580   3589   3598     1  0.0000000  0.0000000  3
   3582   3580   3589   3590     1  0.0000000  0.6508444  3
   3582   3580   3589   3591     1  0.0000000  0.6508444  3
   3583   3571   3570   3599     1  0.0000000  0.6508444  3
   3584   3583   3595   6426     1  0.0000000  1.0460000  1
   3584   3583   3595   6426     1  0.0000000  0.0000000  3
   3584   3583   3595   3596     1  0.0000000  0.6508444  3
   3584   3583   3595   3597     1  0.0000000  0.6508444  3
   3585   3583   3595   6426     1  0.0000000  1.0460000  1
   3585   3583   3595   6426     1  0.0000000  0.0000000  3
   3585   3583   3595   3596     1  0.0000000  0.6508444  3
   3585   3583   3595   3597     1  0.0000000  0.6508444  3
   3586   3574   3570   3599     1  0.0000000  0.6508444  3
   3587   3586   3592   6412     1  0.0000000  1.0460000  1
   3587   3586   3592   6412     1  0.0000000  0.0000000  3
   3587   3586   3592   3593     1  0.0000000  0.6508444  3
   3587   3586   3592   3594     1  0.0000000  0.6508444  3
   3588   3586   3592   6412     1  0.0000000  1.0460000  1
   3588   3586   3592   6412     1  0.0000000  0.0000000  3
   3588   3586   3592   3593     1  0.0000000  0.6508444  3
   3588   3586   3592   3594     1  0.0000000  0.6508444  3
   3592   6412   6406   6407     1  0.0000000  1.6038667  3
   3592   6412   6406   6408     1  0.0000000  1.6038667  3
   3593   3592   6412   6406     1  0.0000000  1.6038667  3
   3594   3592   6412   6406     1  0.0000000  1.6038667  3
   3595   6426   6420   6421     1  0.0000000  1.6038667  3
   3595   6426   6420   6422     1  0.0000000  1.6038667  3
   3596   3595   6426   6420     1  0.0000000  1.6038667  3
   3597   3595   6426   6420     1  0.0000000  1.6038667  3
   3600   3601   3613   3614     1  0.0000000  0.6508444  3
   3600   3601   3613   3615     1  0.0000000  0.6508444  3
   3600   3604   3616   3617     1  0.0000000  0.6508444  3
   3600   3604   3616   3618     1  0.0000000  0.6508444  3
   3600   3607   3610   3611     1  0.0000000  0.6508444  3
   3600   3607   3610   3612     1  0.0000000  0.6508444  3
   3601   3600   3604   3605     1  0.0000000  0.6508444  3
   3601   3600   3604   3606     1  0.0000000  0.6508444  3
   3601   3600   3607   3608     1  0.0000000  0.6508444  3
   3601   3600   3607   3609     1  0.0000000  0.6508444  3
   3601   3613   3625   3626     1  0.0000000  0.6508444  3
   3601   3613   3625   3627     1  0.0000000  0.6508444  3
   3602   3601   3600   3604     1  0.0000000  0.6508444  3
   3602   3601   3600   3607     1  0.0000000  0.6508444  3
   3602   3601   3600   3629     1  0.0000000  0.6508444  3
   3602   3601   3613   3625     1  0.0000000  0.6508444  3
   3602   3601   3613   3614     1  0.0000000  0.6508444  3
   3602   3601   3613   3615     1  0.0000000  0.6508444  3
   3603   3601   3600   3604     1  0.0000000  0.6508444  3
   3603   3601   3600   3607     1  0.0000000  0.6508444  3
   3603   3601   3600   3629     1  0.0000000  0.6508444  3
   3603   3601   3613   3625     1  0.0000000  0.6508444  3
   3603   3601   3613   3614     1  0.0000000  0.6508444  3
   3603   3601   3613   3615     1  0.0000000  0.6508444  3
   3604   3600   3607   3608     1  0.0000000  0.6508444  3
   3604   3600   3607   3609     1  0.0000000  0.6508444  3
   3604   3616   3622   3623     1  0.0000000  0.6508444  3
   3604   3616   3622   3624     1  0.0000000  0.6508444  3
   3605   3604   3600   3607     1  0.0000000  0.6508444  3
   3605   3604   3600   3629     1  0.0000000  0.6508444  3
   3605   3604   3616   3622     1  0.0000000  0.6508444  3
   3605   3604   3616   3617     1  0.0000000  0.6508444  3
   3605   3604   3616   3618     1  0.0000000  0.6508444  3
   3606   3604   3600   3607     1  0.0000000  0.6508444  3
   3606   3604   3600   3629     1  0.0000000  0.6508444  3
   3606   3604   3616   3622     1  0.0000000  0.6508444  3
   3606   3604   3616   3617     1  0.0000000  0.6508444  3
   3606   3604   3616   3618     1  0.0000000  0.6508444  3
   3607   3610   3619   3620     1  0.0000000  0.6508444  3
   3607   3610   3619   3621     1  0.0000000  0.6508444  3
   3608   3607   3600   3629     1  0.0000000  0.6508444  3
   3608   3607   3610   3619     1  0.0000000  0.6508444  3
   3608   3607   3610   3611     1  0.0000000  0.6508444  3
   3608   3607   3610   3612     1  0.0000000  0.6508444  3
   3609   3607   3600   3629     1  0.0000000  0.6508444  3
   3609   3607   3610   3619     1  0.0000000  0.6508444  3
   3609   3607   3610   3611     1  0.0000000  0.6508444  3
   3609   3607   3610   3612     1  0.0000000  0.6508444  3
   3610   3607   3600   3629     1  0.0000000  0.6508444  3
   3611   3610   3619   3628     1  0.0000000  1.0460000  1
   3611   3610   3619   3628     1  0.0000000  0.0000000  3
   3611   3610   3619   3620     1  0.0000000  0.6508444  3
   3611   3610   3619   3621     1  0.0000000  0.6508444  3
   3612   3610   3619   3628     1  0.0000000  1.0460000  1
   3612   3610   3619   3628     1  0.0000000  0.0000000  3
   3612   3610   3619   3620     1  0.0000000  0.6508444  3
   3612   3610   3619   3621     1  0.0000000  0.6508444  3
   3613   3601   3600   3629     1  0.0000000  0.6508444  3
   3614   3613   3625   6454     1  0.0000000  1.0460000  1
   3614   3613   3625   6454     1  0.0000000  0.0000000  3
   3614   3613   3625   3626     1  0.0000000  0.6508444  3
   3614   3613   3625   3627     1  0.0000000  0.6508444  3
   3615   3613   3625   6454     1  0.0000000  1.0460000  1
   3615   3613   3625   6454     1  0.0000000  0.0000000  3
   3615   3613   3625   3626     1  0.0000000  0.6508444  3
   3615   3613   3625   3627     1  0.0000000  0.6508444  3
   3616   3604   3600   3629     1  0.0000000  0.6508444  3
   3617   3616   3622   6440     1  0.0000000  1.0460000  1
   3617   3616   3622   6440     1  0.0000000  0.0000000  3
   3617   3616   3622   3623     1  0.0000000  0.6508444  3
   3617   3616   3622   3624     1  0.0000000  0.6508444  3
   3618   3616   3622   6440     1  0.0000000  1.0460000  1
   3618   3616   3622   6440     1  0.0000000  0.0000000  3
   3618   3616   3622   3623     1  0.0000000  0.6508444  3
   3618   3616   3622   3624     1  0.0000000  0.6508444  3
   3622   6440   6434   6435     1  0.0000000  1.6038667  3
   3622   6440   6434   6436     1  0.0000000  1.6038667  3
   3623   3622   6440   6434     1  0.0000000  1.6038667  3
   3624   3622   6440   6434     1  0.0000000  1.6038667  3
   3625   6454   6448   6449     1  0.0000000  1.6038667  3
   3625   6454   6448   6450     1  0.0000000  1.6038667  3
   3626   3625   6454   6448     1  0.0000000  1.6038667  3
   3627   3625   6454   6448     1  0.0000000  1.6038667  3
   3630   3631   3643   3644     1  0.0000000  0.6508444  3
   3630   3631   3643   3645     1  0.0000000  0.6508444  3
   3630   3634   3646   3647     1  0.0000000  0.6508444  3
   3630   3634   3646   3648     1  0.0000000  0.6508444  3
   3630   3637   3640   3641     1  0.0000000  0.6508444  3
   3630   3637   3640   3642     1  0.0000000  0.6508444  3
   3631   3630   3634   3635     1  0.0000000  0.6508444  3
   3631   3630   3634   3636     1  0.0000000  0.6508444  3
   3631   3630   3637   3638     1  0.0000000  0.6508444  3
   3631   3630   3637   3639     1  0.0000000  0.6508444  3
   3631   3643   3655   3656     1  0.0000000  0.6508444  3
   3631   3643   3655   3657     1  0.0000000  0.6508444  3
   3632   3631   3630   3634     1  0.0000000  0.6508444  3
   3632   3631   3630   3637     1  0.0000000  0.6508444  3
   3632   3631   3630   3659     1  0.0000000  0.6508444  3
   3632   3631   3643   3655     1  0.0000000  0.6508444  3
   3632   3631   3643   3644     1  0.0000000  0.6508444  3
   3632   3631   3643   3645     1  0.0000000  0.6508444  3
   3633   3631   3630   3634     1  0.0000000  0.6508444  3
   3633   3631   3630   3637     1  0.0000000  0.6508444  3
   3633   3631   3630   3659     1  0.0000000  0.6508444  3
   3633   3631   3643   3655     1  0.0000000  0.6508444  3
   3633   3631   3643   3644     1  0.0000000  0.6508444  3
   3633   3631   3643   3645     1  0.0000000  0.6508444  3
   3634   3630   3637   3638     1  0.0000000  0.6508444  3
   3634   3630   3637   3639     1  0.0000000  0.6508444  3
   3634   3646   3652   3653     1  0.0000000  0.6508444  3
   3634   3646   3652   3654     1  0.0000000  0.6508444  3
   3635   3634   3630   3637     1  0.0000000  0.6508444  3
   3635   3634   3630   3659     1  0.0000000  0.6508444  3
   3635   3634   3646   3652     1  0.0000000  0.6508444  3
   3635   3634   3646   3647     1  0.0000000  0.6508444  3
   3635   3634   3646   3648     1  0.0000000  0.6508444  3
   3636   3634   3630   3637     1  0.0000000  0.6508444  3
   3636   3634   3630   3659     1  0.0000000  0.6508444  3
   3636   3634   3646   3652     1  0.0000000  0.6508444  3
   3636   3634   3646   3647     1  0.0000000  0.6508444  3
   3636   3634   3646   3648     1  0.0000000  0.6508444  3
   3637   3640   3649   3650     1  0.0000000  0.6508444  3
   3637   3640   3649   3651     1  0.0000000  0.6508444  3
   3638   3637   3630   3659     1  0.0000000  0.6508444  3
   3638   3637   3640   3649     1  0.0000000  0.6508444  3
   3638   3637   3640   3641     1  0.0000000  0.6508444  3
   3638   3637   3640   3642     1  0.0000000  0.6508444  3
   3639   3637   3630   3659     1  0.0000000  0.6508444  3
   3639   3637   3640   3649     1  0.0000000  0.6508444  3
   3639   3637   3640   3641     1  0.0000000  0.6508444  3
   3639   3637   3640   3642     1  0.0000000  0.6508444  3
   3640   3637   3630   3659     1  0.0000000  0.6508444  3
   3641   3640   3649   3658     1  0.0000000  1.0460000  1
   3641   3640   3649   3658     1  0.0000000  0.0000000  3
   3641   3640   3649   3650     1  0.0000000  0.6508444  3
   3641   3640   3649   3651     1  0.0000000  0.6508444  3
   3642   3640   3649   3658     1  0.0000000  1.0460000  1
   3642   3640   3649   3658     1  0.0000000  0.0000000  3
   3642   3640   3649   3650     1  0.0000000  0.6508444  3
   3642   3640   3649   3651     1  0.0000000  0.6508444  3
   3643   3631   3630   3659     1  0.0000000  0.6508444  3
   3644   3643   3655   6482     1  0.0000000  1.0460000  1
   3644   3643   3655   6482     1  0.0000000  0.0000000  3
   3644   3643   3655   3656     1  0.0000000  0.6508444  3
   3644   3643   3655   3657     1  0.0000000  0.6508444  3
   3645   3643   3655   6482     1  0.0000000  1.0460000  1
   3645   3643   3655   6482     1  0.0000000  0.0000000  3
   3645   3643   3655   3656     1  0.0000000  0.6508444  3
   3645   3643   3655   3657     1  0.0000000  0.6508444  3
   3646   3634   3630   3659     1  0.0000000  0.6508444  3
   3647   3646   3652   6468     1  0.0000000  1.0460000  1
   3647   3646   3652   6468     1  0.0000000  0.0000000  3
   3647   3646   3652   3653     1  0.0000000  0.6508444  3
   3647   3646   3652   3654     1  0.0000000  0.6508444  3
   3648   3646   3652   6468     1  0.0000000  1.0460000  1
   3648   3646   3652   6468     1  0.0000000  0.0000000  3
   3648   3646   3652   3653     1  0.0000000  0.6508444  3
   3648   3646   3652   3654     1  0.0000000  0.6508444  3
   3652   6468   6462   6463     1  0.0000000  1.6038667  3
   3652   6468   6462   6464     1  0.0000000  1.6038667  3
   3653   3652   6468   6462     1  0.0000000  1.6038667  3
   3654   3652   6468   6462     1  0.0000000  1.6038667  3
   3655   6482   6476   6477     1  0.0000000  1.6038667  3
   3655   6482   6476   6478     1  0.0000000  1.6038667  3
   3656   3655   6482   6476     1  0.0000000  1.6038667  3
   3657   3655   6482   6476     1  0.0000000  1.6038667  3
   3660   3661   3673   3674     1  0.0000000  0.6508444  3
   3660   3661   3673   3675     1  0.0000000  0.6508444  3
   3660   3664   3676   3677     1  0.0000000  0.6508444  3
   3660   3664   3676   3678     1  0.0000000  0.6508444  3
   3660   3667   3670   3671     1  0.0000000  0.6508444  3
   3660   3667   3670   3672     1  0.0000000  0.6508444  3
   3661   3660   3664   3665     1  0.0000000  0.6508444  3
   3661   3660   3664   3666     1  0.0000000  0.6508444  3
   3661   3660   3667   3668     1  0.0000000  0.6508444  3
   3661   3660   3667   3669     1  0.0000000  0.6508444  3
   3661   3673   3685   3686     1  0.0000000  0.6508444  3
   3661   3673   3685   3687     1  0.0000000  0.6508444  3
   3662   3661   3660   3664     1  0.0000000  0.6508444  3
   3662   3661   3660   3667     1  0.0000000  0.6508444  3
   3662   3661   3660   3689     1  0.0000000  0.6508444  3
   3662   3661   3673   3685     1  0.0000000  0.6508444  3
   3662   3661   3673   3674     1  0.0000000  0.6508444  3
   3662   3661   3673   3675     1  0.0000000  0.6508444  3
   3663   3661   3660   3664     1  0.0000000  0.6508444  3
   3663   3661   3660   3667     1  0.0000000  0.6508444  3
   3663   3661   3660   3689     1  0.0000000  0.6508444  3
   3663   3661   3673   3685     1  0.0000000  0.6508444  3
   3663   3661   3673   3674     1  0.0000000  0.6508444  3
   3663   3661   3673   3675     1  0.0000000  0.6508444  3
   3664   3660   3667   3668     1  0.0000000  0.6508444  3
   3664   3660   3667   3669     1  0.0000000  0.6508444  3
   3664   3676   3682   3683     1  0.0000000  0.6508444  3
   3664   3676   3682   3684     1  0.0000000  0.6508444  3
   3665   3664   3660   3667     1  0.0000000  0.6508444  3
   3665   3664   3660   3689     1  0.0000000  0.6508444  3
   3665   3664   3676   3682     1  0.0000000  0.6508444  3
   3665   3664   3676   3677     1  0.0000000  0.6508444  3
   3665   3664   3676   3678     1  0.0000000  0.6508444  3
   3666   3664   3660   3667     1  0.0000000  0.6508444  3
   3666   3664   3660   3689     1  0.0000000  0.6508444  3
   3666   3664   3676   3682     1  0.0000000  0.6508444  3
   3666   3664   3676   3677     1  0.0000000  0.6508444  3
   3666   3664   3676   3678     1  0.0000000  0.6508444  3
   3667   3670   3679   3680     1  0.0000000  0.6508444  3
   3667   3670   3679   3681     1  0.0000000  0.6508444  3
   3668   3667   3660   3689     1  0.0000000  0.6508444  3
   3668   3667   3670   3679     1  0.0000000  0.6508444  3
   3668   3667   3670   3671     1  0.0000000  0.6508444  3
   3668   3667   3670   3672     1  0.0000000  0.6508444  3
   3669   3667   3660   3689     1  0.0000000  0.6508444  3
   3669   3667   3670   3679     1  0.0000000  0.6508444  3
   3669   3667   3670   3671     1  0.0000000  0.6508444  3
   3669   3667   3670   3672     1  0.0000000  0.6508444  3
   3670   3667   3660   3689     1  0.0000000  0.6508444  3
   3671   3670   3679   3688     1  0.0000000  1.0460000  1
   3671   3670   3679   3688     1  0.0000000  0.0000000  3
   3671   3670   3679   3680     1  0.0000000  0.6508444  3
   3671   3670   3679   3681     1  0.0000000  0.6508444  3
   3672   3670   3679   3688     1  0.0000000  1.0460000  1
   3672   3670   3679   3688     1  0.0000000  0.0000000  3
   3672   3670   3679   3680     1  0.0000000  0.6508444  3
   3672   3670   3679   3681     1  0.0000000  0.6508444  3
   3673   3661   3660   3689     1  0.0000000  0.6508444  3
   3674   3673   3685   6510     1  0.0000000  1.0460000  1
   3674   3673   3685   6510     1  0.0000000  0.0000000  3
   3674   3673   3685   3686     1  0.0000000  0.6508444  3
   3674   3673   3685   3687     1  0.0000000  0.6508444  3
   3675   3673   3685   6510     1  0.0000000  1.0460000  1
   3675   3673   3685   6510     1  0.0000000  0.0000000  3
   3675   3673   3685   3686     1  0.0000000  0.6508444  3
   3675   3673   3685   3687     1  0.0000000  0.6508444  3
   3676   3664   3660   3689     1  0.0000000  0.6508444  3
   3677   3676   3682   6496     1  0.0000000  1.0460000  1
   3677   3676   3682   6496     1  0.0000000  0.0000000  3
   3677   3676   3682   3683     1  0.0000000  0.6508444  3
   3677   3676   3682   3684     1  0.0000000  0.6508444  3
   3678   3676   3682   6496     1  0.0000000  1.0460000  1
   3678   3676   3682   6496     1  0.0000000  0.0000000  3
   3678   3676   3682   3683     1  0.0000000  0.6508444  3
   3678   3676   3682   3684     1  0.0000000  0.6508444  3
   3682   6496   6490   6491     1  0.0000000  1.6038667  3
   3682   6496   6490   6492     1  0.0000000  1.6038667  3
   3683   3682   6496   6490     1  0.0000000  1.6038667  3
   3684   3682   6496   6490     1  0.0000000  1.6038667  3
   3685   6510   6504   6505     1  0.0000000  1.6038667  3
   3685   6510   6504   6506     1  0.0000000  1.6038667  3
   3686   3685   6510   6504     1  0.0000000  1.6038667  3
   3687   3685   6510   6504     1  0.0000000  1.6038667  3
   3690   3691   3703   3704     1  0.0000000  0.6508444  3
   3690   3691   3703   3705     1  0.0000000  0.6508444  3
   3690   3694   3706   3707     1  0.0000000  0.6508444  3
   3690   3694   3706   3708     1  0.0000000  0.6508444  3
   3690   3697   3700   3701     1  0.0000000  0.6508444  3
   3690   3697   3700   3702     1  0.0000000  0.6508444  3
   3691   3690   3694   3695     1  0.0000000  0.6508444  3
   3691   3690   3694   3696     1  0.0000000  0.6508444  3
   3691   3690   3697   3698     1  0.0000000  0.6508444  3
   3691   3690   3697   3699     1  0.0000000  0.6508444  3
   3691   3703   3715   3716     1  0.0000000  0.6508444  3
   3691   3703   3715   3717     1  0.0000000  0.6508444  3
   3692   3691   3690   3694     1  0.0000000  0.6508444  3
   3692   3691   3690   3697     1  0.0000000  0.6508444  3
   3692   3691   3690   3719     1  0.0000000  0.6508444  3
   3692   3691   3703   3715     1  0.0000000  0.6508444  3
   3692   3691   3703   3704     1  0.0000000  0.6508444  3
   3692   3691   3703   3705     1  0.0000000  0.6508444  3
   3693   3691   3690   3694     1  0.0000000  0.6508444  3
   3693   3691   3690   3697     1  0.0000000  0.6508444  3
   3693   3691   3690   3719     1  0.0000000  0.6508444  3
   3693   3691   3703   3715     1  0.0000000  0.6508444  3
   3693   3691   3703   3704     1  0.0000000  0.6508444  3
   3693   3691   3703   3705     1  0.0000000  0.6508444  3
   3694   3690   3697   3698     1  0.0000000  0.6508444  3
   3694   3690   3697   3699     1  0.0000000  0.6508444  3
   3694   3706   3712   3713     1  0.0000000  0.6508444  3
   3694   3706   3712   3714     1  0.0000000  0.6508444  3
   3695   3694   3690   3697     1  0.0000000  0.6508444  3
   3695   3694   3690   3719     1  0.0000000  0.6508444  3
   3695   3694   3706   3712     1  0.0000000  0.6508444  3
   3695   3694   3706   3707     1  0.0000000  0.6508444  3
   3695   3694   3706   3708     1  0.0000000  0.6508444  3
   3696   3694   3690   3697     1  0.0000000  0.6508444  3
   3696   3694   3690   3719     1  0.0000000  0.6508444  3
   3696   3694   3706   3712     1  0.0000000  0.6508444  3
   3696   3694   3706   3707     1  0.0000000  0.6508444  3
   3696   3694   3706   3708     1  0.0000000  0.6508444  3
   3697   3700   3709   3710     1  0.0000000  0.6508444  3
   3697   3700   3709   3711     1  0.0000000  0.6508444  3
   3698   3697   3690   3719     1  0.0000000  0.6508444  3
   3698   3697   3700   3709     1  0.0000000  0.6508444  3
   3698   3697   3700   3701     1  0.0000000  0.6508444  3
   3698   3697   3700   3702     1  0.0000000  0.6508444  3
   3699   3697   3690   3719     1  0.0000000  0.6508444  3
   3699   3697   3700   3709     1  0.0000000  0.6508444  3
   3699   3697   3700   3701     1  0.0000000  0.6508444  3
   3699   3697   3700   3702     1  0.0000000  0.6508444  3
   3700   3697   3690   3719     1  0.0000000  0.6508444  3
   3701   3700   3709   3718     1  0.0000000  1.0460000  1
   3701   3700   3709   3718     1  0.0000000  0.0000000  3
   3701   3700   3709   3710     1  0.0000000  0.6508444  3
   3701   3700   3709   3711     1  0.0000000  0.6508444  3
   3702   3700   3709   3718     1  0.0000000  1.0460000  1
   3702   3700   3709   3718     1  0.0000000  0.0000000  3
   3702   3700   3709   3710     1  0.0000000  0.6508444  3
   3702   3700   3709   3711     1  0.0000000  0.6508444  3
   3703   3691   3690   3719     1  0.0000000  0.6508444  3
   3704   3703   3715   6538     1  0.0000000  1.0460000  1
   3704   3703   3715   6538     1  0.0000000  0.0000000  3
   3704   3703   3715   3716     1  0.0000000  0.6508444  3
   3704   3703   3715   3717     1  0.0000000  0.6508444  3
   3705   3703   3715   6538     1  0.0000000  1.0460000  1
   3705   3703   3715   6538     1  0.0000000  0.0000000  3
   3705   3703   3715   3716     1  0.0000000  0.6508444  3
   3705   3703   3715   3717     1  0.0000000  0.6508444  3
   3706   3694   3690   3719     1  0.0000000  0.6508444  3
   3707   3706   3712   6524     1  0.0000000  1.0460000  1
   3707   3706   3712   6524     1  0.0000000  0.0000000  3
   3707   3706   3712   3713     1  0.0000000  0.6508444  3
   3707   3706   3712   3714     1  0.0000000  0.6508444  3
   3708   3706   3712   6524     1  0.0000000  1.0460000  1
   3708   3706   3712   6524     1  0.0000000  0.0000000  3
   3708   3706   3712   3713     1  0.0000000  0.6508444  3
   3708   3706   3712   3714     1  0.0000000  0.6508444  3
   3712   6524   6518   6519     1  0.0000000  1.6038667  3
   3712   6524   6518   6520     1  0.0000000  1.6038667  3
   3713   3712   6524   6518     1  0.0000000  1.6038667  3
   3714   3712   6524   6518     1  0.0000000  1.6038667  3
   3715   6538   6532   6533     1  0.0000000  1.6038667  3
   3715   6538   6532   6534     1  0.0000000  1.6038667  3
   3716   3715   6538   6532     1  0.0000000  1.6038667  3
   3717   3715   6538   6532     1  0.0000000  1.6038667  3
   3720   3721   3733   3734     1  0.0000000  0.6508444  3
   3720   3721   3733   3735     1  0.0000000  0.6508444  3
   3720   3724   3736   3737     1  0.0000000  0.6508444  3
   3720   3724   3736   3738     1  0.0000000  0.6508444  3
   3720   3727   3730   3731     1  0.0000000  0.6508444  3
   3720   3727   3730   3732     1  0.0000000  0.6508444  3
   3721   3720   3724   3725     1  0.0000000  0.6508444  3
   3721   3720   3724   3726     1  0.0000000  0.6508444  3
   3721   3720   3727   3728     1  0.0000000  0.6508444  3
   3721   3720   3727   3729     1  0.0000000  0.6508444  3
   3721   3733   3745   3746     1  0.0000000  0.6508444  3
   3721   3733   3745   3747     1  0.0000000  0.6508444  3
   3722   3721   3720   3724     1  0.0000000  0.6508444  3
   3722   3721   3720   3727     1  0.0000000  0.6508444  3
   3722   3721   3720   3749     1  0.0000000  0.6508444  3
   3722   3721   3733   3745     1  0.0000000  0.6508444  3
   3722   3721   3733   3734     1  0.0000000  0.6508444  3
   3722   3721   3733   3735     1  0.0000000  0.6508444  3
   3723   3721   3720   3724     1  0.0000000  0.6508444  3
   3723   3721   3720   3727     1  0.0000000  0.6508444  3
   3723   3721   3720   3749     1  0.0000000  0.6508444  3
   3723   3721   3733   3745     1  0.0000000  0.6508444  3
   3723   3721   3733   3734     1  0.0000000  0.6508444  3
   3723   3721   3733   3735     1  0.0000000  0.6508444  3
   3724   3720   3727   3728     1  0.0000000  0.6508444  3
   3724   3720   3727   3729     1  0.0000000  0.6508444  3
   3724   3736   3742   3743     1  0.0000000  0.6508444  3
   3724   3736   3742   3744     1  0.0000000  0.6508444  3
   3725   3724   3720   3727     1  0.0000000  0.6508444  3
   3725   3724   3720   3749     1  0.0000000  0.6508444  3
   3725   3724   3736   3742     1  0.0000000  0.6508444  3
   3725   3724   3736   3737     1  0.0000000  0.6508444  3
   3725   3724   3736   3738     1  0.0000000  0.6508444  3
   3726   3724   3720   3727     1  0.0000000  0.6508444  3
   3726   3724   3720   3749     1  0.0000000  0.6508444  3
   3726   3724   3736   3742     1  0.0000000  0.6508444  3
   3726   3724   3736   3737     1  0.0000000  0.6508444  3
   3726   3724   3736   3738     1  0.0000000  0.6508444  3
   3727   3730   3739   3740     1  0.0000000  0.6508444  3
   3727   3730   3739   3741     1  0.0000000  0.6508444  3
   3728   3727   3720   3749     1  0.0000000  0.6508444  3
   3728   3727   3730   3739     1  0.0000000  0.6508444  3
   3728   3727   3730   3731     1  0.0000000  0.6508444  3
   3728   3727   3730   3732     1  0.0000000  0.6508444  3
   3729   3727   3720   3749     1  0.0000000  0.6508444  3
   3729   3727   3730   3739     1  0.0000000  0.6508444  3
   3729   3727   3730   3731     1  0.0000000  0.6508444  3
   3729   3727   3730   3732     1  0.0000000  0.6508444  3
   3730   3727   3720   3749     1  0.0000000  0.6508444  3
   3731   3730   3739   3748     1  0.0000000  1.0460000  1
   3731   3730   3739   3748     1  0.0000000  0.0000000  3
   3731   3730   3739   3740     1  0.0000000  0.6508444  3
   3731   3730   3739   3741     1  0.0000000  0.6508444  3
   3732   3730   3739   3748     1  0.0000000  1.0460000  1
   3732   3730   3739   3748     1  0.0000000  0.0000000  3
   3732   3730   3739   3740     1  0.0000000  0.6508444  3
   3732   3730   3739   3741     1  0.0000000  0.6508444  3
   3733   3721   3720   3749     1  0.0000000  0.6508444  3
   3734   3733   3745   6566     1  0.0000000  1.0460000  1
   3734   3733   3745   6566     1  0.0000000  0.0000000  3
   3734   3733   3745   3746     1  0.0000000  0.6508444  3
   3734   3733   3745   3747     1  0.0000000  0.6508444  3
   3735   3733   3745   6566     1  0.0000000  1.0460000  1
   3735   3733   3745   6566     1  0.0000000  0.0000000  3
   3735   3733   3745   3746     1  0.0000000  0.6508444  3
   3735   3733   3745   3747     1  0.0000000  0.6508444  3
   3736   3724   3720   3749     1  0.0000000  0.6508444  3
   3737   3736   3742   6552     1  0.0000000  1.0460000  1
   3737   3736   3742   6552     1  0.0000000  0.0000000  3
   3737   3736   3742   3743     1  0.0000000  0.6508444  3
   3737   3736   3742   3744     1  0.0000000  0.6508444  3
   3738   3736   3742   6552     1  0.0000000  1.0460000  1
   3738   3736   3742   6552     1  0.0000000  0.0000000  3
   3738   3736   3742   3743     1  0.0000000  0.6508444  3
   3738   3736   3742   3744     1  0.0000000  0.6508444  3
   3742   6552   6546   6547     1  0.0000000  1.6038667  3
   3742   6552   6546   6548     1  0.0000000  1.6038667  3
   3743   3742   6552   6546     1  0.0000000  1.6038667  3
   3744   3742   6552   6546     1  0.0000000  1.6038667  3
   3745   6566   6560   6561     1  0.0000000  1.6038667  3
   3745   6566   6560   6562     1  0.0000000  1.6038667  3
   3746   3745   6566   6560     1  0.0000000  1.6038667  3
   3747   3745   6566   6560     1  0.0000000  1.6038667  3
   3750   3751   3763   3764     1  0.0000000  0.6508444  3
   3750   3751   3763   3765     1  0.0000000  0.6508444  3
   3750   3754   3766   3767     1  0.0000000  0.6508444  3
   3750   3754   3766   3768     1  0.0000000  0.6508444  3
   3750   3757   3760   3761     1  0.0000000  0.6508444  3
   3750   3757   3760   3762     1  0.0000000  0.6508444  3
   3751   3750   3754   3755     1  0.0000000  0.6508444  3
   3751   3750   3754   3756     1  0.0000000  0.6508444  3
   3751   3750   3757   3758     1  0.0000000  0.6508444  3
   3751   3750   3757   3759     1  0.0000000  0.6508444  3
   3751   3763   3775   3776     1  0.0000000  0.6508444  3
   3751   3763   3775   3777     1  0.0000000  0.6508444  3
   3752   3751   3750   3754     1  0.0000000  0.6508444  3
   3752   3751   3750   3757     1  0.0000000  0.6508444  3
   3752   3751   3750   3779     1  0.0000000  0.6508444  3
   3752   3751   3763   3775     1  0.0000000  0.6508444  3
   3752   3751   3763   3764     1  0.0000000  0.6508444  3
   3752   3751   3763   3765     1  0.0000000  0.6508444  3
   3753   3751   3750   3754     1  0.0000000  0.6508444  3
   3753   3751   3750   3757     1  0.0000000  0.6508444  3
   3753   3751   3750   3779     1  0.0000000  0.6508444  3
   3753   3751   3763   3775     1  0.0000000  0.6508444  3
   3753   3751   3763   3764     1  0.0000000  0.6508444  3
   3753   3751   3763   3765     1  0.0000000  0.6508444  3
   3754   3750   3757   3758     1  0.0000000  0.6508444  3
   3754   3750   3757   3759     1  0.0000000  0.6508444  3
   3754   3766   3772   3773     1  0.0000000  0.6508444  3
   3754   3766   3772   3774     1  0.0000000  0.6508444  3
   3755   3754   3750   3757     1  0.0000000  0.6508444  3
   3755   3754   3750   3779     1  0.0000000  0.6508444  3
   3755   3754   3766   3772     1  0.0000000  0.6508444  3
   3755   3754   3766   3767     1  0.0000000  0.6508444  3
   3755   3754   3766   3768     1  0.0000000  0.6508444  3
   3756   3754   3750   3757     1  0.0000000  0.6508444  3
   3756   3754   3750   3779     1  0.0000000  0.6508444  3
   3756   3754   3766   3772     1  0.0000000  0.6508444  3
   3756   3754   3766   3767     1  0.0000000  0.6508444  3
   3756   3754   3766   3768     1  0.0000000  0.6508444  3
   3757   3760   3769   3770     1  0.0000000  0.6508444  3
   3757   3760   3769   3771     1  0.0000000  0.6508444  3
   3758   3757   3750   3779     1  0.0000000  0.6508444  3
   3758   3757   3760   3769     1  0.0000000  0.6508444  3
   3758   3757   3760   3761     1  0.0000000  0.6508444  3
   3758   3757   3760   3762     1  0.0000000  0.6508444  3
   3759   3757   3750   3779     1  0.0000000  0.6508444  3
   3759   3757   3760   3769     1  0.0000000  0.6508444  3
   3759   3757   3760   3761     1  0.0000000  0.6508444  3
   3759   3757   3760   3762     1  0.0000000  0.6508444  3
   3760   3757   3750   3779     1  0.0000000  0.6508444  3
   3761   3760   3769   3778     1  0.0000000  1.0460000  1
   3761   3760   3769   3778     1  0.0000000  0.0000000  3
   3761   3760   3769   3770     1  0.0000000  0.6508444  3
   3761   3760   3769   3771     1  0.0000000  0.6508444  3
   3762   3760   3769   3778     1  0.0000000  1.0460000  1
   3762   3760   3769   3778     1  0.0000000  0.0000000  3
   3762   3760   3769   3770     1  0.0000000  0.6508444  3
   3762   3760   3769   3771     1  0.0000000  0.6508444  3
   3763   3751   3750   3779     1  0.0000000  0.6508444  3
   3764   3763   3775   6594     1  0.0000000  1.0460000  1
   3764   3763   3775   6594     1  0.0000000  0.0000000  3
   3764   3763   3775   3776     1  0.0000000  0.6508444  3
   3764   3763   3775   3777     1  0.0000000  0.6508444  3
   3765   3763   3775   6594     1  0.0000000  1.0460000  1
   3765   3763   3775   6594     1  0.0000000  0.0000000  3
   3765   3763   3775   3776     1  0.0000000  0.6508444  3
   3765   3763   3775   3777     1  0.0000000  0.6508444  3
   3766   3754   3750   3779     1  0.0000000  0.6508444  3
   3767   3766   3772   6580     1  0.0000000  1.0460000  1
   3767   3766   3772   6580     1  0.0000000  0.0000000  3
   3767   3766   3772   3773     1  0.0000000  0.6508444  3
   3767   3766   3772   3774     1  0.0000000  0.6508444  3
   3768   3766   3772   6580     1  0.0000000  1.0460000  1
   3768   3766   3772   6580     1  0.0000000  0.0000000  3
   3768   3766   3772   3773     1  0.0000000  0.6508444  3
   3768   3766   3772   3774     1  0.0000000  0.6508444  3
   3772   6580   6574   6575     1  0.0000000  1.6038667  3
   3772   6580   6574   6576     1  0.0000000  1.6038667  3
   3773   3772   6580   6574     1  0.0000000  1.6038667  3
   3774   3772   6580   6574     1  0.0000000  1.6038667  3
   3775   6594   6588   6589     1  0.0000000  1.6038667  3
   3775   6594   6588   6590     1  0.0000000  1.6038667  3
   3776   3775   6594   6588     1  0.0000000  1.6038667  3
   3777   3775   6594   6588     1  0.0000000  1.6038667  3
   3780   3781   3793   3794     1  0.0000000  0.6508444  3
   3780   3781   3793   3795     1  0.0000000  0.6508444  3
   3780   3784   3796   3797     1  0.0000000  0.6508444  3
   3780   3784   3796   3798     1  0.0000000  0.6508444  3
   3780   3787   3790   3791     1  0.0000000  0.6508444  3
   3780   3787   3790   3792     1  0.0000000  0.6508444  3
   3781   3780   3784   3785     1  0.0000000  0.6508444  3
   3781   3780   3784   3786     1  0.0000000  0.6508444  3
   3781   3780   3787   3788     1  0.0000000  0.6508444  3
   3781   3780   3787   3789     1  0.0000000  0.6508444  3
   3781   3793   3805   3806     1  0.0000000  0.6508444  3
   3781   3793   3805   3807     1  0.0000000  0.6508444  3
   3782   3781   3780   3784     1  0.0000000  0.6508444  3
   3782   3781   3780   3787     1  0.0000000  0.6508444  3
   3782   3781   3780   3809     1  0.0000000  0.6508444  3
   3782   3781   3793   3805     1  0.0000000  0.6508444  3
   3782   3781   3793   3794     1  0.0000000  0.6508444  3
   3782   3781   3793   3795     1  0.0000000  0.6508444  3
   3783   3781   3780   3784     1  0.0000000  0.6508444  3
   3783   3781   3780   3787     1  0.0000000  0.6508444  3
   3783   3781   3780   3809     1  0.0000000  0.6508444  3
   3783   3781   3793   3805     1  0.0000000  0.6508444  3
   3783   3781   3793   3794     1  0.0000000  0.6508444  3
   3783   3781   3793   3795     1  0.0000000  0.6508444  3
   3784   3780   3787   3788     1  0.0000000  0.6508444  3
   3784   3780   3787   3789     1  0.0000000  0.6508444  3
   3784   3796   3802   3803     1  0.0000000  0.6508444  3
   3784   3796   3802   3804     1  0.0000000  0.6508444  3
   3785   3784   3780   3787     1  0.0000000  0.6508444  3
   3785   3784   3780   3809     1  0.0000000  0.6508444  3
   3785   3784   3796   3802     1  0.0000000  0.6508444  3
   3785   3784   3796   3797     1  0.0000000  0.6508444  3
   3785   3784   3796   3798     1  0.0000000  0.6508444  3
   3786   3784   3780   3787     1  0.0000000  0.6508444  3
   3786   3784   3780   3809     1  0.0000000  0.6508444  3
   3786   3784   3796   3802     1  0.0000000  0.6508444  3
   3786   3784   3796   3797     1  0.0000000  0.6508444  3
   3786   3784   3796   3798     1  0.0000000  0.6508444  3
   3787   3790   3799   3800     1  0.0000000  0.6508444  3
   3787   3790   3799   3801     1  0.0000000  0.6508444  3
   3788   3787   3780   3809     1  0.0000000  0.6508444  3
   3788   3787   3790   3799     1  0.0000000  0.6508444  3
   3788   3787   3790   3791     1  0.0000000  0.6508444  3
   3788   3787   3790   3792     1  0.0000000  0.6508444  3
   3789   3787   3780   3809     1  0.0000000  0.6508444  3
   3789   3787   3790   3799     1  0.0000000  0.6508444  3
   3789   3787   3790   3791     1  0.0000000  0.6508444  3
   3789   3787   3790   3792     1  0.0000000  0.6508444  3
   3790   3787   3780   3809     1  0.0000000  0.6508444  3
   3791   3790   3799   3808     1  0.0000000  1.0460000  1
   3791   3790   3799   3808     1  0.0000000  0.0000000  3
   3791   3790   3799   3800     1  0.0000000  0.6508444  3
   3791   3790   3799   3801     1  0.0000000  0.6508444  3
   3792   3790   3799   3808     1  0.0000000  1.0460000  1
   3792   3790   3799   3808     1  0.0000000  0.0000000  3
   3792   3790   3799   3800     1  0.0000000  0.6508444  3
   3792   3790   3799   3801     1  0.0000000  0.6508444  3
   3793   3781   3780   3809     1  0.0000000  0.6508444  3
   3794   3793   3805   6622     1  0.0000000  1.0460000  1
   3794   3793   3805   6622     1  0.0000000  0.0000000  3
   3794   3793   3805   3806     1  0.0000000  0.6508444  3
   3794   3793   3805   3807     1  0.0000000  0.6508444  3
   3795   3793   3805   6622     1  0.0000000  1.0460000  1
   3795   3793   3805   6622     1  0.0000000  0.0000000  3
   3795   3793   3805   3806     1  0.0000000  0.6508444  3
   3795   3793   3805   3807     1  0.0000000  0.6508444  3
   3796   3784   3780   3809     1  0.0000000  0.6508444  3
   3797   3796   3802   6608     1  0.0000000  1.0460000  1
   3797   3796   3802   6608     1  0.0000000  0.0000000  3
   3797   3796   3802   3803     1  0.0000000  0.6508444  3
   3797   3796   3802   3804     1  0.0000000  0.6508444  3
   3798   3796   3802   6608     1  0.0000000  1.0460000  1
   3798   3796   3802   6608     1  0.0000000  0.0000000  3
   3798   3796   3802   3803     1  0.0000000  0.6508444  3
   3798   3796   3802   3804     1  0.0000000  0.6508444  3
   3802   6608   6602   6603     1  0.0000000  1.6038667  3
   3802   6608   6602   6604     1  0.0000000  1.6038667  3
   3803   3802   6608   6602     1  0.0000000  1.6038667  3
   3804   3802   6608   6602     1  0.0000000  1.6038667  3
   3805   6622   6616   6617     1  0.0000000  1.6038667  3
   3805   6622   6616   6618     1  0.0000000  1.6038667  3
   3806   3805   6622   6616     1  0.0000000  1.6038667  3
   3807   3805   6622   6616     1  0.0000000  1.6038667  3
   3810   3811   3823   3824     1  0.0000000  0.6508444  3
   3810   3811   3823   3825     1  0.0000000  0.6508444  3
   3810   3814   3826   3827     1  0.0000000  0.6508444  3
   3810   3814   3826   3828     1  0.0000000  0.6508444  3
   3810   3817   3820   3821     1  0.0000000  0.6508444  3
   3810   3817   3820   3822     1  0.0000000  0.6508444  3
   3811   3810   3814   3815     1  0.0000000  0.6508444  3
   3811   3810   3814   3816     1  0.0000000  0.6508444  3
   3811   3810   3817   3818     1  0.0000000  0.6508444  3
   3811   3810   3817   3819     1  0.0000000  0.6508444  3
   3811   3823   3835   3836     1  0.0000000  0.6508444  3
   3811   3823   3835   3837     1  0.0000000  0.6508444  3
   3812   3811   3810   3814     1  0.0000000  0.6508444  3
   3812   3811   3810   3817     1  0.0000000  0.6508444  3
   3812   3811   3810   3839     1  0.0000000  0.6508444  3
   3812   3811   3823   3835     1  0.0000000  0.6508444  3
   3812   3811   3823   3824     1  0.0000000  0.6508444  3
   3812   3811   3823   3825     1  0.0000000  0.6508444  3
   3813   3811   3810   3814     1  0.0000000  0.6508444  3
   3813   3811   3810   3817     1  0.0000000  0.6508444  3
   3813   3811   3810   3839     1  0.0000000  0.6508444  3
   3813   3811   3823   3835     1  0.0000000  0.6508444  3
   3813   3811   3823   3824     1  0.0000000  0.6508444  3
   3813   3811   3823   3825     1  0.0000000  0.6508444  3
   3814   3810   3817   3818     1  0.0000000  0.6508444  3
   3814   3810   3817   3819     1  0.0000000  0.6508444  3
   3814   3826   3832   3833     1  0.0000000  0.6508444  3
   3814   3826   3832   3834     1  0.0000000  0.6508444  3
   3815   3814   3810   3817     1  0.0000000  0.6508444  3
   3815   3814   3810   3839     1  0.0000000  0.6508444  3
   3815   3814   3826   3832     1  0.0000000  0.6508444  3
   3815   3814   3826   3827     1  0.0000000  0.6508444  3
   3815   3814   3826   3828     1  0.0000000  0.6508444  3
   3816   3814   3810   3817     1  0.0000000  0.6508444  3
   3816   3814   3810   3839     1  0.0000000  0.6508444  3
   3816   3814   3826   3832     1  0.0000000  0.6508444  3
   3816   3814   3826   3827     1  0.0000000  0.6508444  3
   3816   3814   3826   3828     1  0.0000000  0.6508444  3
   3817   3820   3829   3830     1  0.0000000  0.6508444  3
   3817   3820   3829   3831     1  0.0000000  0.6508444  3
   3818   3817   3810   3839     1  0.0000000  0.6508444  3
   3818   3817   3820   3829     1  0.0000000  0.6508444  3
   3818   3817   3820   3821     1  0.0000000  0.6508444  3
   3818   3817   3820   3822     1  0.0000000  0.6508444  3
   3819   3817   3810   3839     1  0.0000000  0.6508444  3
   3819   3817   3820   3829     1  0.0000000  0.6508444  3
   3819   3817   3820   3821     1  0.0000000  0.6508444  3
   3819   3817   3820   3822     1  0.0000000  0.6508444  3
   3820   3817   3810   3839     1  0.0000000  0.6508444  3
   3821   3820   3829   3838     1  0.0000000  1.0460000  1
   3821   3820   3829   3838     1  0.0000000  0.0000000  3
   3821   3820   3829   3830     1  0.0000000  0.6508444  3
   3821   3820   3829   3831     1  0.0000000  0.6508444  3
   3822   3820   3829   3838     1  0.0000000  1.0460000  1
   3822   3820   3829   3838     1  0.0000000  0.0000000  3
   3822   3820   3829   3830     1  0.0000000  0.6508444  3
   3822   3820   3829   3831     1  0.0000000  0.6508444  3
   3823   3811   3810   3839     1  0.0000000  0.6508444  3
   3824   3823   3835   6650     1  0.0000000  1.0460000  1
   3824   3823   3835   6650     1  0.0000000  0.0000000  3
   3824   3823   3835   3836     1  0.0000000  0.6508444  3
   3824   3823   3835   3837     1  0.0000000  0.6508444  3
   3825   3823   3835   6650     1  0.0000000  1.0460000  1
   3825   3823   3835   6650     1  0.0000000  0.0000000  3
   3825   3823   3835   3836     1  0.0000000  0.6508444  3
   3825   3823   3835   3837     1  0.0000000  0.6508444  3
   3826   3814   3810   3839     1  0.0000000  0.6508444  3
   3827   3826   3832   6636     1  0.0000000  1.0460000  1
   3827   3826   3832   6636     1  0.0000000  0.0000000  3
   3827   3826   3832   3833     1  0.0000000  0.6508444  3
   3827   3826   3832   3834     1  0.0000000  0.6508444  3
   3828   3826   3832   6636     1  0.0000000  1.0460000  1
   3828   3826   3832   6636     1  0.0000000  0.0000000  3
   3828   3826   3832   3833     1  0.0000000  0.6508444  3
   3828   3826   3832   3834     1  0.0000000  0.6508444  3
   3832   6636   6630   6631     1  0.0000000  1.6038667  3
   3832   6636   6630   6632     1  0.0000000  1.6038667  3
   3833   3832   6636   6630     1  0.0000000  1.6038667  3
   3834   3832   6636   6630     1  0.0000000  1.6038667  3
   3835   6650   6644   6645     1  0.0000000  1.6038667  3
   3835   6650   6644   6646     1  0.0000000  1.6038667  3
   3836   3835   6650   6644     1  0.0000000  1.6038667  3
   3837   3835   6650   6644     1  0.0000000  1.6038667  3
   3840   3841   3853   3854     1  0.0000000  0.6508444  3
   3840   3841   3853   3855     1  0.0000000  0.6508444  3
   3840   3844   3856   3857     1  0.0000000  0.6508444  3
   3840   3844   3856   3858     1  0.0000000  0.6508444  3
   3840   3847   3850   3851     1  0.0000000  0.6508444  3
   3840   3847   3850   3852     1  0.0000000  0.6508444  3
   3841   3840   3844   3845     1  0.0000000  0.6508444  3
   3841   3840   3844   3846     1  0.0000000  0.6508444  3
   3841   3840   3847   3848     1  0.0000000  0.6508444  3
   3841   3840   3847   3849     1  0.0000000  0.6508444  3
   3841   3853   3865   3866     1  0.0000000  0.6508444  3
   3841   3853   3865   3867     1  0.0000000  0.6508444  3
   3842   3841   3840   3844     1  0.0000000  0.6508444  3
   3842   3841   3840   3847     1  0.0000000  0.6508444  3
   3842   3841   3840   3869     1  0.0000000  0.6508444  3
   3842   3841   3853   3865     1  0.0000000  0.6508444  3
   3842   3841   3853   3854     1  0.0000000  0.6508444  3
   3842   3841   3853   3855     1  0.0000000  0.6508444  3
   3843   3841   3840   3844     1  0.0000000  0.6508444  3
   3843   3841   3840   3847     1  0.0000000  0.6508444  3
   3843   3841   3840   3869     1  0.0000000  0.6508444  3
   3843   3841   3853   3865     1  0.0000000  0.6508444  3
   3843   3841   3853   3854     1  0.0000000  0.6508444  3
   3843   3841   3853   3855     1  0.0000000  0.6508444  3
   3844   3840   3847   3848     1  0.0000000  0.6508444  3
   3844   3840   3847   3849     1  0.0000000  0.6508444  3
   3844   3856   3862   3863     1  0.0000000  0.6508444  3
   3844   3856   3862   3864     1  0.0000000  0.6508444  3
   3845   3844   3840   3847     1  0.0000000  0.6508444  3
   3845   3844   3840   3869     1  0.0000000  0.6508444  3
   3845   3844   3856   3862     1  0.0000000  0.6508444  3
   3845   3844   3856   3857     1  0.0000000  0.6508444  3
   3845   3844   3856   3858     1  0.0000000  0.6508444  3
   3846   3844   3840   3847     1  0.0000000  0.6508444  3
   3846   3844   3840   3869     1  0.0000000  0.6508444  3
   3846   3844   3856   3862     1  0.0000000  0.6508444  3
   3846   3844   3856   3857     1  0.0000000  0.6508444  3
   3846   3844   3856   3858     1  0.0000000  0.6508444  3
   3847   3850   3859   3860     1  0.0000000  0.6508444  3
   3847   3850   3859   3861     1  0.0000000  0.6508444  3
   3848   3847   3840   3869     1  0.0000000  0.6508444  3
   3848   3847   3850   3859     1  0.0000000  0.6508444  3
   3848   3847   3850   3851     1  0.0000000  0.6508444  3
   3848   3847   3850   3852     1  0.0000000  0.6508444  3
   3849   3847   3840   3869     1  0.0000000  0.6508444  3
   3849   3847   3850   3859     1  0.0000000  0.6508444  3
   3849   3847   3850   3851     1  0.0000000  0.6508444  3
   3849   3847   3850   3852     1  0.0000000  0.6508444  3
   3850   3847   3840   3869     1  0.0000000  0.6508444  3
   3851   3850   3859   3868     1  0.0000000  1.0460000  1
   3851   3850   3859   3868     1  0.0000000  0.0000000  3
   3851   3850   3859   3860     1  0.0000000  0.6508444  3
   3851   3850   3859   3861     1  0.0000000  0.6508444  3
   3852   3850   3859   3868     1  0.0000000  1.0460000  1
   3852   3850   3859   3868     1  0.0000000  0.0000000  3
   3852   3850   3859   3860     1  0.0000000  0.6508444  3
   3852   3850   3859   3861     1  0.0000000  0.6508444  3
   3853   3841   3840   3869     1  0.0000000  0.6508444  3
   3854   3853   3865   6678     1  0.0000000  1.0460000  1
   3854   3853   3865   6678     1  0.0000000  0.0000000  3
   3854   3853   3865   3866     1  0.0000000  0.6508444  3
   3854   3853   3865   3867     1  0.0000000  0.6508444  3
   3855   3853   3865   6678     1  0.0000000  1.0460000  1
   3855   3853   3865   6678     1  0.0000000  0.0000000  3
   3855   3853   3865   3866     1  0.0000000  0.6508444  3
   3855   3853   3865   3867     1  0.0000000  0.6508444  3
   3856   3844   3840   3869     1  0.0000000  0.6508444  3
   3857   3856   3862   6664     1  0.0000000  1.0460000  1
   3857   3856   3862   6664     1  0.0000000  0.0000000  3
   3857   3856   3862   3863     1  0.0000000  0.6508444  3
   3857   3856   3862   3864     1  0.0000000  0.6508444  3
   3858   3856   3862   6664     1  0.0000000  1.0460000  1
   3858   3856   3862   6664     1  0.0000000  0.0000000  3
   3858   3856   3862   3863     1  0.0000000  0.6508444  3
   3858   3856   3862   3864     1  0.0000000  0.6508444  3
   3862   6664   6658   6659     1  0.0000000  1.6038667  3
   3862   6664   6658   6660     1  0.0000000  1.6038667  3
   3863   3862   6664   6658     1  0.0000000  1.6038667  3
   3864   3862   6664   6658     1  0.0000000  1.6038667  3
   3865   6678   6672   6673     1  0.0000000  1.6038667  3
   3865   6678   6672   6674     1  0.0000000  1.6038667  3
   3866   3865   6678   6672     1  0.0000000  1.6038667  3
   3867   3865   6678   6672     1  0.0000000  1.6038667  3
   3870   3871   3883   3884     1  0.0000000  0.6508444  3
   3870   3871   3883   3885     1  0.0000000  0.6508444  3
   3870   3874   3886   3887     1  0.0000000  0.6508444  3
   3870   3874   3886   3888     1  0.0000000  0.6508444  3
   3870   3877   3880   3881     1  0.0000000  0.6508444  3
   3870   3877   3880   3882     1  0.0000000  0.6508444  3
   3871   3870   3874   3875     1  0.0000000  0.6508444  3
   3871   3870   3874   3876     1  0.0000000  0.6508444  3
   3871   3870   3877   3878     1  0.0000000  0.6508444  3
   3871   3870   3877   3879     1  0.0000000  0.6508444  3
   3871   3883   3895   3896     1  0.0000000  0.6508444  3
   3871   3883   3895   3897     1  0.0000000  0.6508444  3
   3872   3871   3870   3874     1  0.0000000  0.6508444  3
   3872   3871   3870   3877     1  0.0000000  0.6508444  3
   3872   3871   3870   3899     1  0.0000000  0.6508444  3
   3872   3871   3883   3895     1  0.0000000  0.6508444  3
   3872   3871   3883   3884     1  0.0000000  0.6508444  3
   3872   3871   3883   3885     1  0.0000000  0.6508444  3
   3873   3871   3870   3874     1  0.0000000  0.6508444  3
   3873   3871   3870   3877     1  0.0000000  0.6508444  3
   3873   3871   3870   3899     1  0.0000000  0.6508444  3
   3873   3871   3883   3895     1  0.0000000  0.6508444  3
   3873   3871   3883   3884     1  0.0000000  0.6508444  3
   3873   3871   3883   3885     1  0.0000000  0.6508444  3
   3874   3870   3877   3878     1  0.0000000  0.6508444  3
   3874   3870   3877   3879     1  0.0000000  0.6508444  3
   3874   3886   3892   3893     1  0.0000000  0.6508444  3
   3874   3886   3892   3894     1  0.0000000  0.6508444  3
   3875   3874   3870   3877     1  0.0000000  0.6508444  3
   3875   3874   3870   3899     1  0.0000000  0.6508444  3
   3875   3874   3886   3892     1  0.0000000  0.6508444  3
   3875   3874   3886   3887     1  0.0000000  0.6508444  3
   3875   3874   3886   3888     1  0.0000000  0.6508444  3
   3876   3874   3870   3877     1  0.0000000  0.6508444  3
   3876   3874   3870   3899     1  0.0000000  0.6508444  3
   3876   3874   3886   3892     1  0.0000000  0.6508444  3
   3876   3874   3886   3887     1  0.0000000  0.6508444  3
   3876   3874   3886   3888     1  0.0000000  0.6508444  3
   3877   3880   3889   3890     1  0.0000000  0.6508444  3
   3877   3880   3889   3891     1  0.0000000  0.6508444  3
   3878   3877   3870   3899     1  0.0000000  0.6508444  3
   3878   3877   3880   3889     1  0.0000000  0.6508444  3
   3878   3877   3880   3881     1  0.0000000  0.6508444  3
   3878   3877   3880   3882     1  0.0000000  0.6508444  3
   3879   3877   3870   3899     1  0.0000000  0.6508444  3
   3879   3877   3880   3889     1  0.0000000  0.6508444  3
   3879   3877   3880   3881     1  0.0000000  0.6508444  3
   3879   3877   3880   3882     1  0.0000000  0.6508444  3
   3880   3877   3870   3899     1  0.0000000  0.6508444  3
   3881   3880   3889   3898     1  0.0000000  1.0460000  1
   3881   3880   3889   3898     1  0.0000000  0.0000000  3
   3881   3880   3889   3890     1  0.0000000  0.6508444  3
   3881   3880   3889   3891     1  0.0000000  0.6508444  3
   3882   3880   3889   3898     1  0.0000000  1.0460000  1
   3882   3880   3889   3898     1  0.0000000  0.0000000  3
   3882   3880   3889   3890     1  0.0000000  0.6508444  3
   3882   3880   3889   3891     1  0.0000000  0.6508444  3
   3883   3871   3870   3899     1  0.0000000  0.6508444  3
   3884   3883   3895   6706     1  0.0000000  1.0460000  1
   3884   3883   3895   6706     1  0.0000000  0.0000000  3
   3884   3883   3895   3896     1  0.0000000  0.6508444  3
   3884   3883   3895   3897     1  0.0000000  0.6508444  3
   3885   3883   3895   6706     1  0.0000000  1.0460000  1
   3885   3883   3895   6706     1  0.0000000  0.0000000  3
   3885   3883   3895   3896     1  0.0000000  0.6508444  3
   3885   3883   3895   3897     1  0.0000000  0.6508444  3
   3886   3874   3870   3899     1  0.0000000  0.6508444  3
   3887   3886   3892   6692     1  0.0000000  1.0460000  1
   3887   3886   3892   6692     1  0.0000000  0.0000000  3
   3887   3886   3892   3893     1  0.0000000  0.6508444  3
   3887   3886   3892   3894     1  0.0000000  0.6508444  3
   3888   3886   3892   6692     1  0.0000000  1.0460000  1
   3888   3886   3892   6692     1  0.0000000  0.0000000  3
   3888   3886   3892   3893     1  0.0000000  0.6508444  3
   3888   3886   3892   3894     1  0.0000000  0.6508444  3
   3892   6692   6686   6687     1  0.0000000  1.6038667  3
   3892   6692   6686   6688     1  0.0000000  1.6038667  3
   3893   3892   6692   6686     1  0.0000000  1.6038667  3
   3894   3892   6692   6686     1  0.0000000  1.6038667  3
   3895   6706   6700   6701     1  0.0000000  1.6038667  3
   3895   6706   6700   6702     1  0.0000000  1.6038667  3
   3896   3895   6706   6700     1  0.0000000  1.6038667  3
   3897   3895   6706   6700     1  0.0000000  1.6038667  3
   3900   3901   3913   3914     1  0.0000000  0.6508444  3
   3900   3901   3913   3915     1  0.0000000  0.6508444  3
   3900   3904   3916   3917     1  0.0000000  0.6508444  3
   3900   3904   3916   3918     1  0.0000000  0.6508444  3
   3900   3907   3910   3911     1  0.0000000  0.6508444  3
   3900   3907   3910   3912     1  0.0000000  0.6508444  3
   3901   3900   3904   3905     1  0.0000000  0.6508444  3
   3901   3900   3904   3906     1  0.0000000  0.6508444  3
   3901   3900   3907   3908     1  0.0000000  0.6508444  3
   3901   3900   3907   3909     1  0.0000000  0.6508444  3
   3901   3913   3925   3926     1  0.0000000  0.6508444  3
   3901   3913   3925   3927     1  0.0000000  0.6508444  3
   3902   3901   3900   3904     1  0.0000000  0.6508444  3
   3902   3901   3900   3907     1  0.0000000  0.6508444  3
   3902   3901   3900   3929     1  0.0000000  0.6508444  3
   3902   3901   3913   3925     1  0.0000000  0.6508444  3
   3902   3901   3913   3914     1  0.0000000  0.6508444  3
   3902   3901   3913   3915     1  0.0000000  0.6508444  3
   3903   3901   3900   3904     1  0.0000000  0.6508444  3
   3903   3901   3900   3907     1  0.0000000  0.6508444  3
   3903   3901   3900   3929     1  0.0000000  0.6508444  3
   3903   3901   3913   3925     1  0.0000000  0.6508444  3
   3903   3901   3913   3914     1  0.0000000  0.6508444  3
   3903   3901   3913   3915     1  0.0000000  0.6508444  3
   3904   3900   3907   3908     1  0.0000000  0.6508444  3
   3904   3900   3907   3909     1  0.0000000  0.6508444  3
   3904   3916   3922   3923     1  0.0000000  0.6508444  3
   3904   3916   3922   3924     1  0.0000000  0.6508444  3
   3905   3904   3900   3907     1  0.0000000  0.6508444  3
   3905   3904   3900   3929     1  0.0000000  0.6508444  3
   3905   3904   3916   3922     1  0.0000000  0.6508444  3
   3905   3904   3916   3917     1  0.0000000  0.6508444  3
   3905   3904   3916   3918     1  0.0000000  0.6508444  3
   3906   3904   3900   3907     1  0.0000000  0.6508444  3
   3906   3904   3900   3929     1  0.0000000  0.6508444  3
   3906   3904   3916   3922     1  0.0000000  0.6508444  3
   3906   3904   3916   3917     1  0.0000000  0.6508444  3
   3906   3904   3916   3918     1  0.0000000  0.6508444  3
   3907   3910   3919   3920     1  0.0000000  0.6508444  3
   3907   3910   3919   3921     1  0.0000000  0.6508444  3
   3908   3907   3900   3929     1  0.0000000  0.6508444  3
   3908   3907   3910   3919     1  0.0000000  0.6508444  3
   3908   3907   3910   3911     1  0.0000000  0.6508444  3
   3908   3907   3910   3912     1  0.0000000  0.6508444  3
   3909   3907   3900   3929     1  0.0000000  0.6508444  3
   3909   3907   3910   3919     1  0.0000000  0.6508444  3
   3909   3907   3910   3911     1  0.0000000  0.6508444  3
   3909   3907   3910   3912     1  0.0000000  0.6508444  3
   3910   3907   3900   3929     1  0.0000000  0.6508444  3
   3911   3910   3919   3928     1  0.0000000  1.0460000  1
   3911   3910   3919   3928     1  0.0000000  0.0000000  3
   3911   3910   3919   3920     1  0.0000000  0.6508444  3
   3911   3910   3919   3921     1  0.0000000  0.6508444  3
   3912   3910   3919   3928     1  0.0000000  1.0460000  1
   3912   3910   3919   3928     1  0.0000000  0.0000000  3
   3912   3910   3919   3920     1  0.0000000  0.6508444  3
   3912   3910   3919   3921     1  0.0000000  0.6508444  3
   3913   3901   3900   3929     1  0.0000000  0.6508444  3
   3914   3913   3925   6734     1  0.0000000  1.0460000  1
   3914   3913   3925   6734     1  0.0000000  0.0000000  3
   3914   3913   3925   3926     1  0.0000000  0.6508444  3
   3914   3913   3925   3927     1  0.0000000  0.6508444  3
   3915   3913   3925   6734     1  0.0000000  1.0460000  1
   3915   3913   3925   6734     1  0.0000000  0.0000000  3
   3915   3913   3925   3926     1  0.0000000  0.6508444  3
   3915   3913   3925   3927     1  0.0000000  0.6508444  3
   3916   3904   3900   3929     1  0.0000000  0.6508444  3
   3917   3916   3922   6720     1  0.0000000  1.0460000  1
   3917   3916   3922   6720     1  0.0000000  0.0000000  3
   3917   3916   3922   3923     1  0.0000000  0.6508444  3
   3917   3916   3922   3924     1  0.0000000  0.6508444  3
   3918   3916   3922   6720     1  0.0000000  1.0460000  1
   3918   3916   3922   6720     1  0.0000000  0.0000000  3
   3918   3916   3922   3923     1  0.0000000  0.6508444  3
   3918   3916   3922   3924     1  0.0000000  0.6508444  3
   3922   6720   6714   6715     1  0.0000000  1.6038667  3
   3922   6720   6714   6716     1  0.0000000  1.6038667  3
   3923   3922   6720   6714     1  0.0000000  1.6038667  3
   3924   3922   6720   6714     1  0.0000000  1.6038667  3
   3925   6734   6728   6729     1  0.0000000  1.6038667  3
   3925   6734   6728   6730     1  0.0000000  1.6038667  3
   3926   3925   6734   6728     1  0.0000000  1.6038667  3
   3927   3925   6734   6728     1  0.0000000  1.6038667  3
   3930   3931   3943   3944     1  0.0000000  0.6508444  3
   3930   3931   3943   3945     1  0.0000000  0.6508444  3
   3930   3934   3946   3947     1  0.0000000  0.6508444  3
   3930   3934   3946   3948     1  0.0000000  0.6508444  3
   3930   3937   3940   3941     1  0.0000000  0.6508444  3
   3930   3937   3940   3942     1  0.0000000  0.6508444  3
   3931   3930   3934   3935     1  0.0000000  0.6508444  3
   3931   3930   3934   3936     1  0.0000000  0.6508444  3
   3931   3930   3937   3938     1  0.0000000  0.6508444  3
   3931   3930   3937   3939     1  0.0000000  0.6508444  3
   3931   3943   3955   3956     1  0.0000000  0.6508444  3
   3931   3943   3955   3957     1  0.0000000  0.6508444  3
   3932   3931   3930   3934     1  0.0000000  0.6508444  3
   3932   3931   3930   3937     1  0.0000000  0.6508444  3
   3932   3931   3930   3959     1  0.0000000  0.6508444  3
   3932   3931   3943   3955     1  0.0000000  0.6508444  3
   3932   3931   3943   3944     1  0.0000000  0.6508444  3
   3932   3931   3943   3945     1  0.0000000  0.6508444  3
   3933   3931   3930   3934     1  0.0000000  0.6508444  3
   3933   3931   3930   3937     1  0.0000000  0.6508444  3
   3933   3931   3930   3959     1  0.0000000  0.6508444  3
   3933   3931   3943   3955     1  0.0000000  0.6508444  3
   3933   3931   3943   3944     1  0.0000000  0.6508444  3
   3933   3931   3943   3945     1  0.0000000  0.6508444  3
   3934   3930   3937   3938     1  0.0000000  0.6508444  3
   3934   3930   3937   3939     1  0.0000000  0.6508444  3
   3934   3946   3952   3953     1  0.0000000  0.6508444  3
   3934   3946   3952   3954     1  0.0000000  0.6508444  3
   3935   3934   3930   3937     1  0.0000000  0.6508444  3
   3935   3934   3930   3959     1  0.0000000  0.6508444  3
   3935   3934   3946   3952     1  0.0000000  0.6508444  3
   3935   3934   3946   3947     1  0.0000000  0.6508444  3
   3935   3934   3946   3948     1  0.0000000  0.6508444  3
   3936   3934   3930   3937     1  0.0000000  0.6508444  3
   3936   3934   3930   3959     1  0.0000000  0.6508444  3
   3936   3934   3946   3952     1  0.0000000  0.6508444  3
   3936   3934   3946   3947     1  0.0000000  0.6508444  3
   3936   3934   3946   3948     1  0.0000000  0.6508444  3
   3937   3940   3949   3950     1  0.0000000  0.6508444  3
   3937   3940   3949   3951     1  0.0000000  0.6508444  3
   3938   3937   3930   3959     1  0.0000000  0.6508444  3
   3938   3937   3940   3949     1  0.0000000  0.6508444  3
   3938   3937   3940   3941     1  0.0000000  0.6508444  3
   3938   3937   3940   3942     1  0.0000000  0.6508444  3
   3939   3937   3930   3959     1  0.0000000  0.6508444  3
   3939   3937   3940   3949     1  0.0000000  0.6508444  3
   3939   3937   3940   3941     1  0.0000000  0.6508444  3
   3939   3937   3940   3942     1  0.0000000  0.6508444  3
   3940   3937   3930   3959     1  0.0000000  0.6508444  3
   3941   3940   3949   3958     1  0.0000000  1.0460000  1
   3941   3940   3949   3958     1  0.0000000  0.0000000  3
   3941   3940   3949   3950     1  0.0000000  0.6508444  3
   3941   3940   3949   3951     1  0.0000000  0.6508444  3
   3942   3940   3949   3958     1  0.0000000  1.0460000  1
   3942   3940   3949   3958     1  0.0000000  0.0000000  3
   3942   3940   3949   3950     1  0.0000000  0.6508444  3
   3942   3940   3949   3951     1  0.0000000  0.6508444  3
   3943   3931   3930   3959     1  0.0000000  0.6508444  3
   3944   3943   3955   6762     1  0.0000000  1.0460000  1
   3944   3943   3955   6762     1  0.0000000  0.0000000  3
   3944   3943   3955   3956     1  0.0000000  0.6508444  3
   3944   3943   3955   3957     1  0.0000000  0.6508444  3
   3945   3943   3955   6762     1  0.0000000  1.0460000  1
   3945   3943   3955   6762     1  0.0000000  0.0000000  3
   3945   3943   3955   3956     1  0.0000000  0.6508444  3
   3945   3943   3955   3957     1  0.0000000  0.6508444  3
   3946   3934   3930   3959     1  0.0000000  0.6508444  3
   3947   3946   3952   6748     1  0.0000000  1.0460000  1
   3947   3946   3952   6748     1  0.0000000  0.0000000  3
   3947   3946   3952   3953     1  0.0000000  0.6508444  3
   3947   3946   3952   3954     1  0.0000000  0.6508444  3
   3948   3946   3952   6748     1  0.0000000  1.0460000  1
   3948   3946   3952   6748     1  0.0000000  0.0000000  3
   3948   3946   3952   3953     1  0.0000000  0.6508444  3
   3948   3946   3952   3954     1  0.0000000  0.6508444  3
   3952   6748   6742   6743     1  0.0000000  1.6038667  3
   3952   6748   6742   6744     1  0.0000000  1.6038667  3
   3953   3952   6748   6742     1  0.0000000  1.6038667  3
   3954   3952   6748   6742     1  0.0000000  1.6038667  3
   3955   6762   6756   6757     1  0.0000000  1.6038667  3
   3955   6762   6756   6758     1  0.0000000  1.6038667  3
   3956   3955   6762   6756     1  0.0000000  1.6038667  3
   3957   3955   6762   6756     1  0.0000000  1.6038667  3
   3960   3961   3973   3974     1  0.0000000  0.6508444  3
   3960   3961   3973   3975     1  0.0000000  0.6508444  3
   3960   3964   3976   3977     1  0.0000000  0.6508444  3
   3960   3964   3976   3978     1  0.0000000  0.6508444  3
   3960   3967   3970   3971     1  0.0000000  0.6508444  3
   3960   3967   3970   3972     1  0.0000000  0.6508444  3
   3961   3960   3964   3965     1  0.0000000  0.6508444  3
   3961   3960   3964   3966     1  0.0000000  0.6508444  3
   3961   3960   3967   3968     1  0.0000000  0.6508444  3
   3961   3960   3967   3969     1  0.0000000  0.6508444  3
   3961   3973   3985   3986     1  0.0000000  0.6508444  3
   3961   3973   3985   3987     1  0.0000000  0.6508444  3
   3962   3961   3960   3964     1  0.0000000  0.6508444  3
   3962   3961   3960   3967     1  0.0000000  0.6508444  3
   3962   3961   3960   3989     1  0.0000000  0.6508444  3
   3962   3961   3973   3985     1  0.0000000  0.6508444  3
   3962   3961   3973   3974     1  0.0000000  0.6508444  3
   3962   3961   3973   3975     1  0.0000000  0.6508444  3
   3963   3961   3960   3964     1  0.0000000  0.6508444  3
   3963   3961   3960   3967     1  0.0000000  0.6508444  3
   3963   3961   3960   3989     1  0.0000000  0.6508444  3
   3963   3961   3973   3985     1  0.0000000  0.6508444  3
   3963   3961   3973   3974     1  0.0000000  0.6508444  3
   3963   3961   3973   3975     1  0.0000000  0.6508444  3
   3964   3960   3967   3968     1  0.0000000  0.6508444  3
   3964   3960   3967   3969     1  0.0000000  0.6508444  3
   3964   3976   3982   3983     1  0.0000000  0.6508444  3
   3964   3976   3982   3984     1  0.0000000  0.6508444  3
   3965   3964   3960   3967     1  0.0000000  0.6508444  3
   3965   3964   3960   3989     1  0.0000000  0.6508444  3
   3965   3964   3976   3982     1  0.0000000  0.6508444  3
   3965   3964   3976   3977     1  0.0000000  0.6508444  3
   3965   3964   3976   3978     1  0.0000000  0.6508444  3
   3966   3964   3960   3967     1  0.0000000  0.6508444  3
   3966   3964   3960   3989     1  0.0000000  0.6508444  3
   3966   3964   3976   3982     1  0.0000000  0.6508444  3
   3966   3964   3976   3977     1  0.0000000  0.6508444  3
   3966   3964   3976   3978     1  0.0000000  0.6508444  3
   3967   3970   3979   3980     1  0.0000000  0.6508444  3
   3967   3970   3979   3981     1  0.0000000  0.6508444  3
   3968   3967   3960   3989     1  0.0000000  0.6508444  3
   3968   3967   3970   3979     1  0.0000000  0.6508444  3
   3968   3967   3970   3971     1  0.0000000  0.6508444  3
   3968   3967   3970   3972     1  0.0000000  0.6508444  3
   3969   3967   3960   3989     1  0.0000000  0.6508444  3
   3969   3967   3970   3979     1  0.0000000  0.6508444  3
   3969   3967   3970   3971     1  0.0000000  0.6508444  3
   3969   3967   3970   3972     1  0.0000000  0.6508444  3
   3970   3967   3960   3989     1  0.0000000  0.6508444  3
   3971   3970   3979   3988     1  0.0000000  1.0460000  1
   3971   3970   3979   3988     1  0.0000000  0.0000000  3
   3971   3970   3979   3980     1  0.0000000  0.6508444  3
   3971   3970   3979   3981     1  0.0000000  0.6508444  3
   3972   3970   3979   3988     1  0.0000000  1.0460000  1
   3972   3970   3979   3988     1  0.0000000  0.0000000  3
   3972   3970   3979   3980     1  0.0000000  0.6508444  3
   3972   3970   3979   3981     1  0.0000000  0.6508444  3
   3973   3961   3960   3989     1  0.0000000  0.6508444  3
   3974   3973   3985   6790     1  0.0000000  1.0460000  1
   3974   3973   3985   6790     1  0.0000000  0.0000000  3
   3974   3973   3985   3986     1  0.0000000  0.6508444  3
   3974   3973   3985   3987     1  0.0000000  0.6508444  3
   3975   3973   3985   6790     1  0.0000000  1.0460000  1
   3975   3973   3985   6790     1  0.0000000  0.0000000  3
   3975   3973   3985   3986     1  0.0000000  0.6508444  3
   3975   3973   3985   3987     1  0.0000000  0.6508444  3
   3976   3964   3960   3989     1  0.0000000  0.6508444  3
   3977   3976   3982   6776     1  0.0000000  1.0460000  1
   3977   3976   3982   6776     1  0.0000000  0.0000000  3
   3977   3976   3982   3983     1  0.0000000  0.6508444  3
   3977   3976   3982   3984     1  0.0000000  0.6508444  3
   3978   3976   3982   6776     1  0.0000000  1.0460000  1
   3978   3976   3982   6776     1  0.0000000  0.0000000  3
   3978   3976   3982   3983     1  0.0000000  0.6508444  3
   3978   3976   3982   3984     1  0.0000000  0.6508444  3
   3982   6776   6770   6771     1  0.0000000  1.6038667  3
   3982   6776   6770   6772     1  0.0000000  1.6038667  3
   3983   3982   6776   6770     1  0.0000000  1.6038667  3
   3984   3982   6776   6770     1  0.0000000  1.6038667  3
   3985   6790   6784   6785     1  0.0000000  1.6038667  3
   3985   6790   6784   6786     1  0.0000000  1.6038667  3
   3986   3985   6790   6784     1  0.0000000  1.6038667  3
   3987   3985   6790   6784     1  0.0000000  1.6038667  3
   3990   3991   4003   4004     1  0.0000000  0.6508444  3
   3990   3991   4003   4005     1  0.0000000  0.6508444  3
   3990   3994   4006   4007     1  0.0000000  0.6508444  3
   3990   3994   4006   4008     1  0.0000000  0.6508444  3
   3990   3997   4000   4001     1  0.0000000  0.6508444  3
   3990   3997   4000   4002     1  0.0000000  0.6508444  3
   3991   3990   3994   3995     1  0.0000000  0.6508444  3
   3991   3990   3994   3996     1  0.0000000  0.6508444  3
   3991   3990   3997   3998     1  0.0000000  0.6508444  3
   3991   3990   3997   3999     1  0.0000000  0.6508444  3
   3991   4003   4015   4016     1  0.0000000  0.6508444  3
   3991   4003   4015   4017     1  0.0000000  0.6508444  3
   3992   3991   3990   3994     1  0.0000000  0.6508444  3
   3992   3991   3990   3997     1  0.0000000  0.6508444  3
   3992   3991   3990   4019     1  0.0000000  0.6508444  3
   3992   3991   4003   4015     1  0.0000000  0.6508444  3
   3992   3991   4003   4004     1  0.0000000  0.6508444  3
   3992   3991   4003   4005     1  0.0000000  0.6508444  3
   3993   3991   3990   3994     1  0.0000000  0.6508444  3
   3993   3991   3990   3997     1  0.0000000  0.6508444  3
   3993   3991   3990   4019     1  0.0000000  0.6508444  3
   3993   3991   4003   4015     1  0.0000000  0.6508444  3
   3993   3991   4003   4004     1  0.0000000  0.6508444  3
   3993   3991   4003   4005     1  0.0000000  0.6508444  3
   3994   3990   3997   3998     1  0.0000000  0.6508444  3
   3994   3990   3997   3999     1  0.0000000  0.6508444  3
   3994   4006   4012   4013     1  0.0000000  0.6508444  3
   3994   4006   4012   4014     1  0.0000000  0.6508444  3
   3995   3994   3990   3997     1  0.0000000  0.6508444  3
   3995   3994   3990   4019     1  0.0000000  0.6508444  3
   3995   3994   4006   4012     1  0.0000000  0.6508444  3
   3995   3994   4006   4007     1  0.0000000  0.6508444  3
   3995   3994   4006   4008     1  0.0000000  0.6508444  3
   3996   3994   3990   3997     1  0.0000000  0.6508444  3
   3996   3994   3990   4019     1  0.0000000  0.6508444  3
   3996   3994   4006   4012     1  0.0000000  0.6508444  3
   3996   3994   4006   4007     1  0.0000000  0.6508444  3
   3996   3994   4006   4008     1  0.0000000  0.6508444  3
   3997   4000   4009   4010     1  0.0000000  0.6508444  3
   3997   4000   4009   4011     1  0.0000000  0.6508444  3
   3998   3997   3990   4019     1  0.0000000  0.6508444  3
   3998   3997   4000   4009     1  0.0000000  0.6508444  3
   3998   3997   4000   4001     1  0.0000000  0.6508444  3
   3998   3997   4000   4002     1  0.0000000  0.6508444  3
   3999   3997   3990   4019     1  0.0000000  0.6508444  3
   3999   3997   4000   4009     1  0.0000000  0.6508444  3
   3999   3997   4000   4001     1  0.0000000  0.6508444  3
   3999   3997   4000   4002     1  0.0000000  0.6508444  3
   4000   3997   3990   4019     1  0.0000000  0.6508444  3
   4001   4000   4009   4018     1  0.0000000  1.0460000  1
   4001   4000   4009   4018     1  0.0000000  0.0000000  3
   4001   4000   4009   4010     1  0.0000000  0.6508444  3
   4001   4000   4009   4011     1  0.0000000  0.6508444  3
   4002   4000   4009   4018     1  0.0000000  1.0460000  1
   4002   4000   4009   4018     1  0.0000000  0.0000000  3
   4002   4000   4009   4010     1  0.0000000  0.6508444  3
   4002   4000   4009   4011     1  0.0000000  0.6508444  3
   4003   3991   3990   4019     1  0.0000000  0.6508444  3
   4004   4003   4015   6818     1  0.0000000  1.0460000  1
   4004   4003   4015   6818     1  0.0000000  0.0000000  3
   4004   4003   4015   4016     1  0.0000000  0.6508444  3
   4004   4003   4015   4017     1  0.0000000  0.6508444  3
   4005   4003   4015   6818     1  0.0000000  1.0460000  1
   4005   4003   4015   6818     1  0.0000000  0.0000000  3
   4005   4003   4015   4016     1  0.0000000  0.6508444  3
   4005   4003   4015   4017     1  0.0000000  0.6508444  3
   4006   3994   3990   4019     1  0.0000000  0.6508444  3
   4007   4006   4012   6804     1  0.0000000  1.0460000  1
   4007   4006   4012   6804     1  0.0000000  0.0000000  3
   4007   4006   4012   4013     1  0.0000000  0.6508444  3
   4007   4006   4012   4014     1  0.0000000  0.6508444  3
   4008   4006   4012   6804     1  0.0000000  1.0460000  1
   4008   4006   4012   6804     1  0.0000000  0.0000000  3
   4008   4006   4012   4013     1  0.0000000  0.6508444  3
   4008   4006   4012   4014     1  0.0000000  0.6508444  3
   4012   6804   6798   6799     1  0.0000000  1.6038667  3
   4012   6804   6798   6800     1  0.0000000  1.6038667  3
   4013   4012   6804   6798     1  0.0000000  1.6038667  3
   4014   4012   6804   6798     1  0.0000000  1.6038667  3
   4015   6818   6812   6813     1  0.0000000  1.6038667  3
   4015   6818   6812   6814     1  0.0000000  1.6038667  3
   4016   4015   6818   6812     1  0.0000000  1.6038667  3
   4017   4015   6818   6812     1  0.0000000  1.6038667  3
   4020   4021   4033   4034     1  0.0000000  0.6508444  3
   4020   4021   4033   4035     1  0.0000000  0.6508444  3
   4020   4024   4036   4037     1  0.0000000  0.6508444  3
   4020   4024   4036   4038     1  0.0000000  0.6508444  3
   4020   4027   4030   4031     1  0.0000000  0.6508444  3
   4020   4027   4030   4032     1  0.0000000  0.6508444  3
   4021   4020   4024   4025     1  0.0000000  0.6508444  3
   4021   4020   4024   4026     1  0.0000000  0.6508444  3
   4021   4020   4027   4028     1  0.0000000  0.6508444  3
   4021   4020   4027   4029     1  0.0000000  0.6508444  3
   4021   4033   4045   4046     1  0.0000000  0.6508444  3
   4021   4033   4045   4047     1  0.0000000  0.6508444  3
   4022   4021   4020   4024     1  0.0000000  0.6508444  3
   4022   4021   4020   4027     1  0.0000000  0.6508444  3
   4022   4021   4020   4049     1  0.0000000  0.6508444  3
   4022   4021   4033   4045     1  0.0000000  0.6508444  3
   4022   4021   4033   4034     1  0.0000000  0.6508444  3
   4022   4021   4033   4035     1  0.0000000  0.6508444  3
   4023   4021   4020   4024     1  0.0000000  0.6508444  3
   4023   4021   4020   4027     1  0.0000000  0.6508444  3
   4023   4021   4020   4049     1  0.0000000  0.6508444  3
   4023   4021   4033   4045     1  0.0000000  0.6508444  3
   4023   4021   4033   4034     1  0.0000000  0.6508444  3
   4023   4021   4033   4035     1  0.0000000  0.6508444  3
   4024   4020   4027   4028     1  0.0000000  0.6508444  3
   4024   4020   4027   4029     1  0.0000000  0.6508444  3
   4024   4036   4042   4043     1  0.0000000  0.6508444  3
   4024   4036   4042   4044     1  0.0000000  0.6508444  3
   4025   4024   4020   4027     1  0.0000000  0.6508444  3
   4025   4024   4020   4049     1  0.0000000  0.6508444  3
   4025   4024   4036   4042     1  0.0000000  0.6508444  3
   4025   4024   4036   4037     1  0.0000000  0.6508444  3
   4025   4024   4036   4038     1  0.0000000  0.6508444  3
   4026   4024   4020   4027     1  0.0000000  0.6508444  3
   4026   4024   4020   4049     1  0.0000000  0.6508444  3
   4026   4024   4036   4042     1  0.0000000  0.6508444  3
   4026   4024   4036   4037     1  0.0000000  0.6508444  3
   4026   4024   4036   4038     1  0.0000000  0.6508444  3
   4027   4030   4039   4040     1  0.0000000  0.6508444  3
   4027   4030   4039   4041     1  0.0000000  0.6508444  3
   4028   4027   4020   4049     1  0.0000000  0.6508444  3
   4028   4027   4030   4039     1  0.0000000  0.6508444  3
   4028   4027   4030   4031     1  0.0000000  0.6508444  3
   4028   4027   4030   4032     1  0.0000000  0.6508444  3
   4029   4027   4020   4049     1  0.0000000  0.6508444  3
   4029   4027   4030   4039     1  0.0000000  0.6508444  3
   4029   4027   4030   4031     1  0.0000000  0.6508444  3
   4029   4027   4030   4032     1  0.0000000  0.6508444  3
   4030   4027   4020   4049     1  0.0000000  0.6508444  3
   4031   4030   4039   4048     1  0.0000000  1.0460000  1
   4031   4030   4039   4048     1  0.0000000  0.0000000  3
   4031   4030   4039   4040     1  0.0000000  0.6508444  3
   4031   4030   4039   4041     1  0.0000000  0.6508444  3
   4032   4030   4039   4048     1  0.0000000  1.0460000  1
   4032   4030   4039   4048     1  0.0000000  0.0000000  3
   4032   4030   4039   4040     1  0.0000000  0.6508444  3
   4032   4030   4039   4041     1  0.0000000  0.6508444  3
   4033   4021   4020   4049     1  0.0000000  0.6508444  3
   4034   4033   4045   6846     1  0.0000000  1.0460000  1
   4034   4033   4045   6846     1  0.0000000  0.0000000  3
   4034   4033   4045   4046     1  0.0000000  0.6508444  3
   4034   4033   4045   4047     1  0.0000000  0.6508444  3
   4035   4033   4045   6846     1  0.0000000  1.0460000  1
   4035   4033   4045   6846     1  0.0000000  0.0000000  3
   4035   4033   4045   4046     1  0.0000000  0.6508444  3
   4035   4033   4045   4047     1  0.0000000  0.6508444  3
   4036   4024   4020   4049     1  0.0000000  0.6508444  3
   4037   4036   4042   6832     1  0.0000000  1.0460000  1
   4037   4036   4042   6832     1  0.0000000  0.0000000  3
   4037   4036   4042   4043     1  0.0000000  0.6508444  3
   4037   4036   4042   4044     1  0.0000000  0.6508444  3
   4038   4036   4042   6832     1  0.0000000  1.0460000  1
   4038   4036   4042   6832     1  0.0000000  0.0000000  3
   4038   4036   4042   4043     1  0.0000000  0.6508444  3
   4038   4036   4042   4044     1  0.0000000  0.6508444  3
   4042   6832   6826   6827     1  0.0000000  1.6038667  3
   4042   6832   6826   6828     1  0.0000000  1.6038667  3
   4043   4042   6832   6826     1  0.0000000  1.6038667  3
   4044   4042   6832   6826     1  0.0000000  1.6038667  3
   4045   6846   6840   6841     1  0.0000000  1.6038667  3
   4045   6846   6840   6842     1  0.0000000  1.6038667  3
   4046   4045   6846   6840     1  0.0000000  1.6038667  3
   4047   4045   6846   6840     1  0.0000000  1.6038667  3
   4050   4051   4063   4064     1  0.0000000  0.6508444  3
   4050   4051   4063   4065     1  0.0000000  0.6508444  3
   4050   4054   4066   4067     1  0.0000000  0.6508444  3
   4050   4054   4066   4068     1  0.0000000  0.6508444  3
   4050   4057   4060   4061     1  0.0000000  0.6508444  3
   4050   4057   4060   4062     1  0.0000000  0.6508444  3
   4051   4050   4054   4055     1  0.0000000  0.6508444  3
   4051   4050   4054   4056     1  0.0000000  0.6508444  3
   4051   4050   4057   4058     1  0.0000000  0.6508444  3
   4051   4050   4057   4059     1  0.0000000  0.6508444  3
   4051   4063   4075   4076     1  0.0000000  0.6508444  3
   4051   4063   4075   4077     1  0.0000000  0.6508444  3
   4052   4051   4050   4054     1  0.0000000  0.6508444  3
   4052   4051   4050   4057     1  0.0000000  0.6508444  3
   4052   4051   4050   4079     1  0.0000000  0.6508444  3
   4052   4051   4063   4075     1  0.0000000  0.6508444  3
   4052   4051   4063   4064     1  0.0000000  0.6508444  3
   4052   4051   4063   4065     1  0.0000000  0.6508444  3
   4053   4051   4050   4054     1  0.0000000  0.6508444  3
   4053   4051   4050   4057     1  0.0000000  0.6508444  3
   4053   4051   4050   4079     1  0.0000000  0.6508444  3
   4053   4051   4063   4075     1  0.0000000  0.6508444  3
   4053   4051   4063   4064     1  0.0000000  0.6508444  3
   4053   4051   4063   4065     1  0.0000000  0.6508444  3
   4054   4050   4057   4058     1  0.0000000  0.6508444  3
   4054   4050   4057   4059     1  0.0000000  0.6508444  3
   4054   4066   4072   4073     1  0.0000000  0.6508444  3
   4054   4066   4072   4074     1  0.0000000  0.6508444  3
   4055   4054   4050   4057     1  0.0000000  0.6508444  3
   4055   4054   4050   4079     1  0.0000000  0.6508444  3
   4055   4054   4066   4072     1  0.0000000  0.6508444  3
   4055   4054   4066   4067     1  0.0000000  0.6508444  3
   4055   4054   4066   4068     1  0.0000000  0.6508444  3
   4056   4054   4050   4057     1  0.0000000  0.6508444  3
   4056   4054   4050   4079     1  0.0000000  0.6508444  3
   4056   4054   4066   4072     1  0.0000000  0.6508444  3
   4056   4054   4066   4067     1  0.0000000  0.6508444  3
   4056   4054   4066   4068     1  0.0000000  0.6508444  3
   4057   4060   4069   4070     1  0.0000000  0.6508444  3
   4057   4060   4069   4071     1  0.0000000  0.6508444  3
   4058   4057   4050   4079     1  0.0000000  0.6508444  3
   4058   4057   4060   4069     1  0.0000000  0.6508444  3
   4058   4057   4060   4061     1  0.0000000  0.6508444  3
   4058   4057   4060   4062     1  0.0000000  0.6508444  3
   4059   4057   4050   4079     1  0.0000000  0.6508444  3
   4059   4057   4060   4069     1  0.0000000  0.6508444  3
   4059   4057   4060   4061     1  0.0000000  0.6508444  3
   4059   4057   4060   4062     1  0.0000000  0.6508444  3
   4060   4057   4050   4079     1  0.0000000  0.6508444  3
   4061   4060   4069   4078     1  0.0000000  1.0460000  1
   4061   4060   4069   4078     1  0.0000000  0.0000000  3
   4061   4060   4069   4070     1  0.0000000  0.6508444  3
   4061   4060   4069   4071     1  0.0000000  0.6508444  3
   4062   4060   4069   4078     1  0.0000000  1.0460000  1
   4062   4060   4069   4078     1  0.0000000  0.0000000  3
   4062   4060   4069   4070     1  0.0000000  0.6508444  3
   4062   4060   4069   4071     1  0.0000000  0.6508444  3
   4063   4051   4050   4079     1  0.0000000  0.6508444  3
   4064   4063   4075   6874     1  0.0000000  1.0460000  1
   4064   4063   4075   6874     1  0.0000000  0.0000000  3
   4064   4063   4075   4076     1  0.0000000  0.6508444  3
   4064   4063   4075   4077     1  0.0000000  0.6508444  3
   4065   4063   4075   6874     1  0.0000000  1.0460000  1
   4065   4063   4075   6874     1  0.0000000  0.0000000  3
   4065   4063   4075   4076     1  0.0000000  0.6508444  3
   4065   4063   4075   4077     1  0.0000000  0.6508444  3
   4066   4054   4050   4079     1  0.0000000  0.6508444  3
   4067   4066   4072   6860     1  0.0000000  1.0460000  1
   4067   4066   4072   6860     1  0.0000000  0.0000000  3
   4067   4066   4072   4073     1  0.0000000  0.6508444  3
   4067   4066   4072   4074     1  0.0000000  0.6508444  3
   4068   4066   4072   6860     1  0.0000000  1.0460000  1
   4068   4066   4072   6860     1  0.0000000  0.0000000  3
   4068   4066   4072   4073     1  0.0000000  0.6508444  3
   4068   4066   4072   4074     1  0.0000000  0.6508444  3
   4072   6860   6854   6855     1  0.0000000  1.6038667  3
   4072   6860   6854   6856     1  0.0000000  1.6038667  3
   4073   4072   6860   6854     1  0.0000000  1.6038667  3
   4074   4072   6860   6854     1  0.0000000  1.6038667  3
   4075   6874   6868   6869     1  0.0000000  1.6038667  3
   4075   6874   6868   6870     1  0.0000000  1.6038667  3
   4076   4075   6874   6868     1  0.0000000  1.6038667  3
   4077   4075   6874   6868     1  0.0000000  1.6038667  3
   4080   4081   4093   4094     1  0.0000000  0.6508444  3
   4080   4081   4093   4095     1  0.0000000  0.6508444  3
   4080   4084   4096   4097     1  0.0000000  0.6508444  3
   4080   4084   4096   4098     1  0.0000000  0.6508444  3
   4080   4087   4090   4091     1  0.0000000  0.6508444  3
   4080   4087   4090   4092     1  0.0000000  0.6508444  3
   4081   4080   4084   4085     1  0.0000000  0.6508444  3
   4081   4080   4084   4086     1  0.0000000  0.6508444  3
   4081   4080   4087   4088     1  0.0000000  0.6508444  3
   4081   4080   4087   4089     1  0.0000000  0.6508444  3
   4081   4093   4105   4106     1  0.0000000  0.6508444  3
   4081   4093   4105   4107     1  0.0000000  0.6508444  3
   4082   4081   4080   4084     1  0.0000000  0.6508444  3
   4082   4081   4080   4087     1  0.0000000  0.6508444  3
   4082   4081   4080   4109     1  0.0000000  0.6508444  3
   4082   4081   4093   4105     1  0.0000000  0.6508444  3
   4082   4081   4093   4094     1  0.0000000  0.6508444  3
   4082   4081   4093   4095     1  0.0000000  0.6508444  3
   4083   4081   4080   4084     1  0.0000000  0.6508444  3
   4083   4081   4080   4087     1  0.0000000  0.6508444  3
   4083   4081   4080   4109     1  0.0000000  0.6508444  3
   4083   4081   4093   4105     1  0.0000000  0.6508444  3
   4083   4081   4093   4094     1  0.0000000  0.6508444  3
   4083   4081   4093   4095     1  0.0000000  0.6508444  3
   4084   4080   4087   4088     1  0.0000000  0.6508444  3
   4084   4080   4087   4089     1  0.0000000  0.6508444  3
   4084   4096   4102   4103     1  0.0000000  0.6508444  3
   4084   4096   4102   4104     1  0.0000000  0.6508444  3
   4085   4084   4080   4087     1  0.0000000  0.6508444  3
   4085   4084   4080   4109     1  0.0000000  0.6508444  3
   4085   4084   4096   4102     1  0.0000000  0.6508444  3
   4085   4084   4096   4097     1  0.0000000  0.6508444  3
   4085   4084   4096   4098     1  0.0000000  0.6508444  3
   4086   4084   4080   4087     1  0.0000000  0.6508444  3
   4086   4084   4080   4109     1  0.0000000  0.6508444  3
   4086   4084   4096   4102     1  0.0000000  0.6508444  3
   4086   4084   4096   4097     1  0.0000000  0.6508444  3
   4086   4084   4096   4098     1  0.0000000  0.6508444  3
   4087   4090   4099   4100     1  0.0000000  0.6508444  3
   4087   4090   4099   4101     1  0.0000000  0.6508444  3
   4088   4087   4080   4109     1  0.0000000  0.6508444  3
   4088   4087   4090   4099     1  0.0000000  0.6508444  3
   4088   4087   4090   4091     1  0.0000000  0.6508444  3
   4088   4087   4090   4092     1  0.0000000  0.6508444  3
   4089   4087   4080   4109     1  0.0000000  0.6508444  3
   4089   4087   4090   4099     1  0.0000000  0.6508444  3
   4089   4087   4090   4091     1  0.0000000  0.6508444  3
   4089   4087   4090   4092     1  0.0000000  0.6508444  3
   4090   4087   4080   4109     1  0.0000000  0.6508444  3
   4091   4090   4099   4108     1  0.0000000  1.0460000  1
   4091   4090   4099   4108     1  0.0000000  0.0000000  3
   4091   4090   4099   4100     1  0.0000000  0.6508444  3
   4091   4090   4099   4101     1  0.0000000  0.6508444  3
   4092   4090   4099   4108     1  0.0000000  1.0460000  1
   4092   4090   4099   4108     1  0.0000000  0.0000000  3
   4092   4090   4099   4100     1  0.0000000  0.6508444  3
   4092   4090   4099   4101     1  0.0000000  0.6508444  3
   4093   4081   4080   4109     1  0.0000000  0.6508444  3
   4094   4093   4105   6902     1  0.0000000  1.0460000  1
   4094   4093   4105   6902     1  0.0000000  0.0000000  3
   4094   4093   4105   4106     1  0.0000000  0.6508444  3
   4094   4093   4105   4107     1  0.0000000  0.6508444  3
   4095   4093   4105   6902     1  0.0000000  1.0460000  1
   4095   4093   4105   6902     1  0.0000000  0.0000000  3
   4095   4093   4105   4106     1  0.0000000  0.6508444  3
   4095   4093   4105   4107     1  0.0000000  0.6508444  3
   4096   4084   4080   4109     1  0.0000000  0.6508444  3
   4097   4096   4102   6888     1  0.0000000  1.0460000  1
   4097   4096   4102   6888     1  0.0000000  0.0000000  3
   4097   4096   4102   4103     1  0.0000000  0.6508444  3
   4097   4096   4102   4104     1  0.0000000  0.6508444  3
   4098   4096   4102   6888     1  0.0000000  1.0460000  1
   4098   4096   4102   6888     1  0.0000000  0.0000000  3
   4098   4096   4102   4103     1  0.0000000  0.6508444  3
   4098   4096   4102   4104     1  0.0000000  0.6508444  3
   4102   6888   6882   6883     1  0.0000000  1.6038667  3
   4102   6888   6882   6884     1  0.0000000  1.6038667  3
   4103   4102   6888   6882     1  0.0000000  1.6038667  3
   4104   4102   6888   6882     1  0.0000000  1.6038667  3
   4105   6902   6896   6897     1  0.0000000  1.6038667  3
   4105   6902   6896   6898     1  0.0000000  1.6038667  3
   4106   4105   6902   6896     1  0.0000000  1.6038667  3
   4107   4105   6902   6896     1  0.0000000  1.6038667  3
   4110   4111   4123   4124     1  0.0000000  0.6508444  3
   4110   4111   4123   4125     1  0.0000000  0.6508444  3
   4110   4114   4126   4127     1  0.0000000  0.6508444  3
   4110   4114   4126   4128     1  0.0000000  0.6508444  3
   4110   4117   4120   4121     1  0.0000000  0.6508444  3
   4110   4117   4120   4122     1  0.0000000  0.6508444  3
   4111   4110   4114   4115     1  0.0000000  0.6508444  3
   4111   4110   4114   4116     1  0.0000000  0.6508444  3
   4111   4110   4117   4118     1  0.0000000  0.6508444  3
   4111   4110   4117   4119     1  0.0000000  0.6508444  3
   4111   4123   4135   4136     1  0.0000000  0.6508444  3
   4111   4123   4135   4137     1  0.0000000  0.6508444  3
   4112   4111   4110   4114     1  0.0000000  0.6508444  3
   4112   4111   4110   4117     1  0.0000000  0.6508444  3
   4112   4111   4110   4139     1  0.0000000  0.6508444  3
   4112   4111   4123   4135     1  0.0000000  0.6508444  3
   4112   4111   4123   4124     1  0.0000000  0.6508444  3
   4112   4111   4123   4125     1  0.0000000  0.6508444  3
   4113   4111   4110   4114     1  0.0000000  0.6508444  3
   4113   4111   4110   4117     1  0.0000000  0.6508444  3
   4113   4111   4110   4139     1  0.0000000  0.6508444  3
   4113   4111   4123   4135     1  0.0000000  0.6508444  3
   4113   4111   4123   4124     1  0.0000000  0.6508444  3
   4113   4111   4123   4125     1  0.0000000  0.6508444  3
   4114   4110   4117   4118     1  0.0000000  0.6508444  3
   4114   4110   4117   4119     1  0.0000000  0.6508444  3
   4114   4126   4132   4133     1  0.0000000  0.6508444  3
   4114   4126   4132   4134     1  0.0000000  0.6508444  3
   4115   4114   4110   4117     1  0.0000000  0.6508444  3
   4115   4114   4110   4139     1  0.0000000  0.6508444  3
   4115   4114   4126   4132     1  0.0000000  0.6508444  3
   4115   4114   4126   4127     1  0.0000000  0.6508444  3
   4115   4114   4126   4128     1  0.0000000  0.6508444  3
   4116   4114   4110   4117     1  0.0000000  0.6508444  3
   4116   4114   4110   4139     1  0.0000000  0.6508444  3
   4116   4114   4126   4132     1  0.0000000  0.6508444  3
   4116   4114   4126   4127     1  0.0000000  0.6508444  3
   4116   4114   4126   4128     1  0.0000000  0.6508444  3
   4117   4120   4129   4130     1  0.0000000  0.6508444  3
   4117   4120   4129   4131     1  0.0000000  0.6508444  3
   4118   4117   4110   4139     1  0.0000000  0.6508444  3
   4118   4117   4120   4129     1  0.0000000  0.6508444  3
   4118   4117   4120   4121     1  0.0000000  0.6508444  3
   4118   4117   4120   4122     1  0.0000000  0.6508444  3
   4119   4117   4110   4139     1  0.0000000  0.6508444  3
   4119   4117   4120   4129     1  0.0000000  0.6508444  3
   4119   4117   4120   4121     1  0.0000000  0.6508444  3
   4119   4117   4120   4122     1  0.0000000  0.6508444  3
   4120   4117   4110   4139     1  0.0000000  0.6508444  3
   4121   4120   4129   4138     1  0.0000000  1.0460000  1
   4121   4120   4129   4138     1  0.0000000  0.0000000  3
   4121   4120   4129   4130     1  0.0000000  0.6508444  3
   4121   4120   4129   4131     1  0.0000000  0.6508444  3
   4122   4120   4129   4138     1  0.0000000  1.0460000  1
   4122   4120   4129   4138     1  0.0000000  0.0000000  3
   4122   4120   4129   4130     1  0.0000000  0.6508444  3
   4122   4120   4129   4131     1  0.0000000  0.6508444  3
   4123   4111   4110   4139     1  0.0000000  0.6508444  3
   4124   4123   4135   6930     1  0.0000000  1.0460000  1
   4124   4123   4135   6930     1  0.0000000  0.0000000  3
   4124   4123   4135   4136     1  0.0000000  0.6508444  3
   4124   4123   4135   4137     1  0.0000000  0.6508444  3
   4125   4123   4135   6930     1  0.0000000  1.0460000  1
   4125   4123   4135   6930     1  0.0000000  0.0000000  3
   4125   4123   4135   4136     1  0.0000000  0.6508444  3
   4125   4123   4135   4137     1  0.0000000  0.6508444  3
   4126   4114   4110   4139     1  0.0000000  0.6508444  3
   4127   4126   4132   6916     1  0.0000000  1.0460000  1
   4127   4126   4132   6916     1  0.0000000  0.0000000  3
   4127   4126   4132   4133     1  0.0000000  0.6508444  3
   4127   4126   4132   4134     1  0.0000000  0.6508444  3
   4128   4126   4132   6916     1  0.0000000  1.0460000  1
   4128   4126   4132   6916     1  0.0000000  0.0000000  3
   4128   4126   4132   4133     1  0.0000000  0.6508444  3
   4128   4126   4132   4134     1  0.0000000  0.6508444  3
   4132   6916   6910   6911     1  0.0000000  1.6038667  3
   4132   6916   6910   6912     1  0.0000000  1.6038667  3
   4133   4132   6916   6910     1  0.0000000  1.6038667  3
   4134   4132   6916   6910     1  0.0000000  1.6038667  3
   4135   6930   6924   6925     1  0.0000000  1.6038667  3
   4135   6930   6924   6926     1  0.0000000  1.6038667  3
   4136   4135   6930   6924     1  0.0000000  1.6038667  3
   4137   4135   6930   6924     1  0.0000000  1.6038667  3
   4140   4141   4153   4154     1  0.0000000  0.6508444  3
   4140   4141   4153   4155     1  0.0000000  0.6508444  3
   4140   4144   4156   4157     1  0.0000000  0.6508444  3
   4140   4144   4156   4158     1  0.0000000  0.6508444  3
   4140   4147   4150   4151     1  0.0000000  0.6508444  3
   4140   4147   4150   4152     1  0.0000000  0.6508444  3
   4141   4140   4144   4145     1  0.0000000  0.6508444  3
   4141   4140   4144   4146     1  0.0000000  0.6508444  3
   4141   4140   4147   4148     1  0.0000000  0.6508444  3
   4141   4140   4147   4149     1  0.0000000  0.6508444  3
   4141   4153   4165   4166     1  0.0000000  0.6508444  3
   4141   4153   4165   4167     1  0.0000000  0.6508444  3
   4142   4141   4140   4144     1  0.0000000  0.6508444  3
   4142   4141   4140   4147     1  0.0000000  0.6508444  3
   4142   4141   4140   4169     1  0.0000000  0.6508444  3
   4142   4141   4153   4165     1  0.0000000  0.6508444  3
   4142   4141   4153   4154     1  0.0000000  0.6508444  3
   4142   4141   4153   4155     1  0.0000000  0.6508444  3
   4143   4141   4140   4144     1  0.0000000  0.6508444  3
   4143   4141   4140   4147     1  0.0000000  0.6508444  3
   4143   4141   4140   4169     1  0.0000000  0.6508444  3
   4143   4141   4153   4165     1  0.0000000  0.6508444  3
   4143   4141   4153   4154     1  0.0000000  0.6508444  3
   4143   4141   4153   4155     1  0.0000000  0.6508444  3
   4144   4140   4147   4148     1  0.0000000  0.6508444  3
   4144   4140   4147   4149     1  0.0000000  0.6508444  3
   4144   4156   4162   4163     1  0.0000000  0.6508444  3
   4144   4156   4162   4164     1  0.0000000  0.6508444  3
   4145   4144   4140   4147     1  0.0000000  0.6508444  3
   4145   4144   4140   4169     1  0.0000000  0.6508444  3
   4145   4144   4156   4162     1  0.0000000  0.6508444  3
   4145   4144   4156   4157     1  0.0000000  0.6508444  3
   4145   4144   4156   4158     1  0.0000000  0.6508444  3
   4146   4144   4140   4147     1  0.0000000  0.6508444  3
   4146   4144   4140   4169     1  0.0000000  0.6508444  3
   4146   4144   4156   4162     1  0.0000000  0.6508444  3
   4146   4144   4156   4157     1  0.0000000  0.6508444  3
   4146   4144   4156   4158     1  0.0000000  0.6508444  3
   4147   4150   4159   4160     1  0.0000000  0.6508444  3
   4147   4150   4159   4161     1  0.0000000  0.6508444  3
   4148   4147   4140   4169     1  0.0000000  0.6508444  3
   4148   4147   4150   4159     1  0.0000000  0.6508444  3
   4148   4147   4150   4151     1  0.0000000  0.6508444  3
   4148   4147   4150   4152     1  0.0000000  0.6508444  3
   4149   4147   4140   4169     1  0.0000000  0.6508444  3
   4149   4147   4150   4159     1  0.0000000  0.6508444  3
   4149   4147   4150   4151     1  0.0000000  0.6508444  3
   4149   4147   4150   4152     1  0.0000000  0.6508444  3
   4150   4147   4140   4169     1  0.0000000  0.6508444  3
   4151   4150   4159   4168     1  0.0000000  1.0460000  1
   4151   4150   4159   4168     1  0.0000000  0.0000000  3
   4151   4150   4159   4160     1  0.0000000  0.6508444  3
   4151   4150   4159   4161     1  0.0000000  0.6508444  3
   4152   4150   4159   4168     1  0.0000000  1.0460000  1
   4152   4150   4159   4168     1  0.0000000  0.0000000  3
   4152   4150   4159   4160     1  0.0000000  0.6508444  3
   4152   4150   4159   4161     1  0.0000000  0.6508444  3
   4153   4141   4140   4169     1  0.0000000  0.6508444  3
   4154   4153   4165   6958     1  0.0000000  1.0460000  1
   4154   4153   4165   6958     1  0.0000000  0.0000000  3
   4154   4153   4165   4166     1  0.0000000  0.6508444  3
   4154   4153   4165   4167     1  0.0000000  0.6508444  3
   4155   4153   4165   6958     1  0.0000000  1.0460000  1
   4155   4153   4165   6958     1  0.0000000  0.0000000  3
   4155   4153   4165   4166     1  0.0000000  0.6508444  3
   4155   4153   4165   4167     1  0.0000000  0.6508444  3
   4156   4144   4140   4169     1  0.0000000  0.6508444  3
   4157   4156   4162   6944     1  0.0000000  1.0460000  1
   4157   4156   4162   6944     1  0.0000000  0.0000000  3
   4157   4156   4162   4163     1  0.0000000  0.6508444  3
   4157   4156   4162   4164     1  0.0000000  0.6508444  3
   4158   4156   4162   6944     1  0.0000000  1.0460000  1
   4158   4156   4162   6944     1  0.0000000  0.0000000  3
   4158   4156   4162   4163     1  0.0000000  0.6508444  3
   4158   4156   4162   4164     1  0.0000000  0.6508444  3
   4162   6944   6938   6939     1  0.0000000  1.6038667  3
   4162   6944   6938   6940     1  0.0000000  1.6038667  3
   4163   4162   6944   6938     1  0.0000000  1.6038667  3
   4164   4162   6944   6938     1  0.0000000  1.6038667  3
   4165   6958   6952   6953     1  0.0000000  1.6038667  3
   4165   6958   6952   6954     1  0.0000000  1.6038667  3
   4166   4165   6958   6952     1  0.0000000  1.6038667  3
   4167   4165   6958   6952     1  0.0000000  1.6038667  3
   4170   4171   4183   4184     1  0.0000000  0.6508444  3
   4170   4171   4183   4185     1  0.0000000  0.6508444  3
   4170   4174   4186   4187     1  0.0000000  0.6508444  3
   4170   4174   4186   4188     1  0.0000000  0.6508444  3
   4170   4177   4180   4181     1  0.0000000  0.6508444  3
   4170   4177   4180   4182     1  0.0000000  0.6508444  3
   4171   4170   4174   4175     1  0.0000000  0.6508444  3
   4171   4170   4174   4176     1  0.0000000  0.6508444  3
   4171   4170   4177   4178     1  0.0000000  0.6508444  3
   4171   4170   4177   4179     1  0.0000000  0.6508444  3
   4171   4183   4195   4196     1  0.0000000  0.6508444  3
   4171   4183   4195   4197     1  0.0000000  0.6508444  3
   4172   4171   4170   4174     1  0.0000000  0.6508444  3
   4172   4171   4170   4177     1  0.0000000  0.6508444  3
   4172   4171   4170   4199     1  0.0000000  0.6508444  3
   4172   4171   4183   4195     1  0.0000000  0.6508444  3
   4172   4171   4183   4184     1  0.0000000  0.6508444  3
   4172   4171   4183   4185     1  0.0000000  0.6508444  3
   4173   4171   4170   4174     1  0.0000000  0.6508444  3
   4173   4171   4170   4177     1  0.0000000  0.6508444  3
   4173   4171   4170   4199     1  0.0000000  0.6508444  3
   4173   4171   4183   4195     1  0.0000000  0.6508444  3
   4173   4171   4183   4184     1  0.0000000  0.6508444  3
   4173   4171   4183   4185     1  0.0000000  0.6508444  3
   4174   4170   4177   4178     1  0.0000000  0.6508444  3
   4174   4170   4177   4179     1  0.0000000  0.6508444  3
   4174   4186   4192   4193     1  0.0000000  0.6508444  3
   4174   4186   4192   4194     1  0.0000000  0.6508444  3
   4175   4174   4170   4177     1  0.0000000  0.6508444  3
   4175   4174   4170   4199     1  0.0000000  0.6508444  3
   4175   4174   4186   4192     1  0.0000000  0.6508444  3
   4175   4174   4186   4187     1  0.0000000  0.6508444  3
   4175   4174   4186   4188     1  0.0000000  0.6508444  3
   4176   4174   4170   4177     1  0.0000000  0.6508444  3
   4176   4174   4170   4199     1  0.0000000  0.6508444  3
   4176   4174   4186   4192     1  0.0000000  0.6508444  3
   4176   4174   4186   4187     1  0.0000000  0.6508444  3
   4176   4174   4186   4188     1  0.0000000  0.6508444  3
   4177   4180   4189   4190     1  0.0000000  0.6508444  3
   4177   4180   4189   4191     1  0.0000000  0.6508444  3
   4178   4177   4170   4199     1  0.0000000  0.6508444  3
   4178   4177   4180   4189     1  0.0000000  0.6508444  3
   4178   4177   4180   4181     1  0.0000000  0.6508444  3
   4178   4177   4180   4182     1  0.0000000  0.6508444  3
   4179   4177   4170   4199     1  0.0000000  0.6508444  3
   4179   4177   4180   4189     1  0.0000000  0.6508444  3
   4179   4177   4180   4181     1  0.0000000  0.6508444  3
   4179   4177   4180   4182     1  0.0000000  0.6508444  3
   4180   4177   4170   4199     1  0.0000000  0.6508444  3
   4181   4180   4189   4198     1  0.0000000  1.0460000  1
   4181   4180   4189   4198     1  0.0000000  0.0000000  3
   4181   4180   4189   4190     1  0.0000000  0.6508444  3
   4181   4180   4189   4191     1  0.0000000  0.6508444  3
   4182   4180   4189   4198     1  0.0000000  1.0460000  1
   4182   4180   4189   4198     1  0.0000000  0.0000000  3
   4182   4180   4189   4190     1  0.0000000  0.6508444  3
   4182   4180   4189   4191     1  0.0000000  0.6508444  3
   4183   4171   4170   4199     1  0.0000000  0.6508444  3
   4184   4183   4195   6986     1  0.0000000  1.0460000  1
   4184   4183   4195   6986     1  0.0000000  0.0000000  3
   4184   4183   4195   4196     1  0.0000000  0.6508444  3
   4184   4183   4195   4197     1  0.0000000  0.6508444  3
   4185   4183   4195   6986     1  0.0000000  1.0460000  1
   4185   4183   4195   6986     1  0.0000000  0.0000000  3
   4185   4183   4195   4196     1  0.0000000  0.6508444  3
   4185   4183   4195   4197     1  0.0000000  0.6508444  3
   4186   4174   4170   4199     1  0.0000000  0.6508444  3
   4187   4186   4192   6972     1  0.0000000  1.0460000  1
   4187   4186   4192   6972     1  0.0000000  0.0000000  3
   4187   4186   4192   4193     1  0.0000000  0.6508444  3
   4187   4186   4192   4194     1  0.0000000  0.6508444  3
   4188   4186   4192   6972     1  0.0000000  1.0460000  1
   4188   4186   4192   6972     1  0.0000000  0.0000000  3
   4188   4186   4192   4193     1  0.0000000  0.6508444  3
   4188   4186   4192   4194     1  0.0000000  0.6508444  3
   4192   6972   6966   6967     1  0.0000000  1.6038667  3
   4192   6972   6966   6968     1  0.0000000  1.6038667  3
   4193   4192   6972   6966     1  0.0000000  1.6038667  3
   4194   4192   6972   6966     1  0.0000000  1.6038667  3
   4195   6986   6980   6981     1  0.0000000  1.6038667  3
   4195   6986   6980   6982     1  0.0000000  1.6038667  3
   4196   4195   6986   6980     1  0.0000000  1.6038667  3
   4197   4195   6986   6980     1  0.0000000  1.6038667  3
   4200   4201   4213   4214     1  0.0000000  0.6508444  3
   4200   4201   4213   4215     1  0.0000000  0.6508444  3
   4200   4204   4216   4217     1  0.0000000  0.6508444  3
   4200   4204   4216   4218     1  0.0000000  0.6508444  3
   4200   4207   4210   4211     1  0.0000000  0.6508444  3
   4200   4207   4210   4212     1  0.0000000  0.6508444  3
   4201   4200   4204   4205     1  0.0000000  0.6508444  3
   4201   4200   4204   4206     1  0.0000000  0.6508444  3
   4201   4200   4207   4208     1  0.0000000  0.6508444  3
   4201   4200   4207   4209     1  0.0000000  0.6508444  3
   4201   4213   4225   4226     1  0.0000000  0.6508444  3
   4201   4213   4225   4227     1  0.0000000  0.6508444  3
   4202   4201   4200   4204     1  0.0000000  0.6508444  3
   4202   4201   4200   4207     1  0.0000000  0.6508444  3
   4202   4201   4200   4229     1  0.0000000  0.6508444  3
   4202   4201   4213   4225     1  0.0000000  0.6508444  3
   4202   4201   4213   4214     1  0.0000000  0.6508444  3
   4202   4201   4213   4215     1  0.0000000  0.6508444  3
   4203   4201   4200   4204     1  0.0000000  0.6508444  3
   4203   4201   4200   4207     1  0.0000000  0.6508444  3
   4203   4201   4200   4229     1  0.0000000  0.6508444  3
   4203   4201   4213   4225     1  0.0000000  0.6508444  3
   4203   4201   4213   4214     1  0.0000000  0.6508444  3
   4203   4201   4213   4215     1  0.0000000  0.6508444  3
   4204   4200   4207   4208     1  0.0000000  0.6508444  3
   4204   4200   4207   4209     1  0.0000000  0.6508444  3
   4204   4216   4222   4223     1  0.0000000  0.6508444  3
   4204   4216   4222   4224     1  0.0000000  0.6508444  3
   4205   4204   4200   4207     1  0.0000000  0.6508444  3
   4205   4204   4200   4229     1  0.0000000  0.6508444  3
   4205   4204   4216   4222     1  0.0000000  0.6508444  3
   4205   4204   4216   4217     1  0.0000000  0.6508444  3
   4205   4204   4216   4218     1  0.0000000  0.6508444  3
   4206   4204   4200   4207     1  0.0000000  0.6508444  3
   4206   4204   4200   4229     1  0.0000000  0.6508444  3
   4206   4204   4216   4222     1  0.0000000  0.6508444  3
   4206   4204   4216   4217     1  0.0000000  0.6508444  3
   4206   4204   4216   4218     1  0.0000000  0.6508444  3
   4207   4210   4219   4220     1  0.0000000  0.6508444  3
   4207   4210   4219   4221     1  0.0000000  0.6508444  3
   4208   4207   4200   4229     1  0.0000000  0.6508444  3
   4208   4207   4210   4219     1  0.0000000  0.6508444  3
   4208   4207   4210   4211     1  0.0000000  0.6508444  3
   4208   4207   4210   4212     1  0.0000000  0.6508444  3
   4209   4207   4200   4229     1  0.0000000  0.6508444  3
   4209   4207   4210   4219     1  0.0000000  0.6508444  3
   4209   4207   4210   4211     1  0.0000000  0.6508444  3
   4209   4207   4210   4212     1  0.0000000  0.6508444  3
   4210   4207   4200   4229     1  0.0000000  0.6508444  3
   4211   4210   4219   4228     1  0.0000000  1.0460000  1
   4211   4210   4219   4228     1  0.0000000  0.0000000  3
   4211   4210   4219   4220     1  0.0000000  0.6508444  3
   4211   4210   4219   4221     1  0.0000000  0.6508444  3
   4212   4210   4219   4228     1  0.0000000  1.0460000  1
   4212   4210   4219   4228     1  0.0000000  0.0000000  3
   4212   4210   4219   4220     1  0.0000000  0.6508444  3
   4212   4210   4219   4221     1  0.0000000  0.6508444  3
   4213   4201   4200   4229     1  0.0000000  0.6508444  3
   4214   4213   4225   7014     1  0.0000000  1.0460000  1
   4214   4213   4225   7014     1  0.0000000  0.0000000  3
   4214   4213   4225   4226     1  0.0000000  0.6508444  3
   4214   4213   4225   4227     1  0.0000000  0.6508444  3
   4215   4213   4225   7014     1  0.0000000  1.0460000  1
   4215   4213   4225   7014     1  0.0000000  0.0000000  3
   4215   4213   4225   4226     1  0.0000000  0.6508444  3
   4215   4213   4225   4227     1  0.0000000  0.6508444  3
   4216   4204   4200   4229     1  0.0000000  0.6508444  3
   4217   4216   4222   7000     1  0.0000000  1.0460000  1
   4217   4216   4222   7000     1  0.0000000  0.0000000  3
   4217   4216   4222   4223     1  0.0000000  0.6508444  3
   4217   4216   4222   4224     1  0.0000000  0.6508444  3
   4218   4216   4222   7000     1  0.0000000  1.0460000  1
   4218   4216   4222   7000     1  0.0000000  0.0000000  3
   4218   4216   4222   4223     1  0.0000000  0.6508444  3
   4218   4216   4222   4224     1  0.0000000  0.6508444  3
   4222   7000   6994   6995     1  0.0000000  1.6038667  3
   4222   7000   6994   6996     1  0.0000000  1.6038667  3
   4223   4222   7000   6994     1  0.0000000  1.6038667  3
   4224   4222   7000   6994     1  0.0000000  1.6038667  3
   4225   7014   7008   7009     1  0.0000000  1.6038667  3
   4225   7014   7008   7010     1  0.0000000  1.6038667  3
   4226   4225   7014   7008     1  0.0000000  1.6038667  3
   4227   4225   7014   7008     1  0.0000000  1.6038667  3
   4230   4231   4243   4244     1  0.0000000  0.6508444  3
   4230   4231   4243   4245     1  0.0000000  0.6508444  3
   4230   4234   4246   4247     1  0.0000000  0.6508444  3
   4230   4234   4246   4248     1  0.0000000  0.6508444  3
   4230   4237   4240   4241     1  0.0000000  0.6508444  3
   4230   4237   4240   4242     1  0.0000000  0.6508444  3
   4231   4230   4234   4235     1  0.0000000  0.6508444  3
   4231   4230   4234   4236     1  0.0000000  0.6508444  3
   4231   4230   4237   4238     1  0.0000000  0.6508444  3
   4231   4230   4237   4239     1  0.0000000  0.6508444  3
   4231   4243   4255   4256     1  0.0000000  0.6508444  3
   4231   4243   4255   4257     1  0.0000000  0.6508444  3
   4232   4231   4230   4234     1  0.0000000  0.6508444  3
   4232   4231   4230   4237     1  0.0000000  0.6508444  3
   4232   4231   4230   4259     1  0.0000000  0.6508444  3
   4232   4231   4243   4255     1  0.0000000  0.6508444  3
   4232   4231   4243   4244     1  0.0000000  0.6508444  3
   4232   4231   4243   4245     1  0.0000000  0.6508444  3
   4233   4231   4230   4234     1  0.0000000  0.6508444  3
   4233   4231   4230   4237     1  0.0000000  0.6508444  3
   4233   4231   4230   4259     1  0.0000000  0.6508444  3
   4233   4231   4243   4255     1  0.0000000  0.6508444  3
   4233   4231   4243   4244     1  0.0000000  0.6508444  3
   4233   4231   4243   4245     1  0.0000000  0.6508444  3
   4234   4230   4237   4238     1  0.0000000  0.6508444  3
   4234   4230   4237   4239     1  0.0000000  0.6508444  3
   4234   4246   4252   4253     1  0.0000000  0.6508444  3
   4234   4246   4252   4254     1  0.0000000  0.6508444  3
   4235   4234   4230   4237     1  0.0000000  0.6508444  3
   4235   4234   4230   4259     1  0.0000000  0.6508444  3
   4235   4234   4246   4252     1  0.0000000  0.6508444  3
   4235   4234   4246   4247     1  0.0000000  0.6508444  3
   4235   4234   4246   4248     1  0.0000000  0.6508444  3
   4236   4234   4230   4237     1  0.0000000  0.6508444  3
   4236   4234   4230   4259     1  0.0000000  0.6508444  3
   4236   4234   4246   4252     1  0.0000000  0.6508444  3
   4236   4234   4246   4247     1  0.0000000  0.6508444  3
   4236   4234   4246   4248     1  0.0000000  0.6508444  3
   4237   4240   4249   4250     1  0.0000000  0.6508444  3
   4237   4240   4249   4251     1  0.0000000  0.6508444  3
   4238   4237   4230   4259     1  0.0000000  0.6508444  3
   4238   4237   4240   4249     1  0.0000000  0.6508444  3
   4238   4237   4240   4241     1  0.0000000  0.6508444  3
   4238   4237   4240   4242     1  0.0000000  0.6508444  3
   4239   4237   4230   4259     1  0.0000000  0.6508444  3
   4239   4237   4240   4249     1  0.0000000  0.6508444  3
   4239   4237   4240   4241     1  0.0000000  0.6508444  3
   4239   4237   4240   4242     1  0.0000000  0.6508444  3
   4240   4237   4230   4259     1  0.0000000  0.6508444  3
   4241   4240   4249   4258     1  0.0000000  1.0460000  1
   4241   4240   4249   4258     1  0.0000000  0.0000000  3
   4241   4240   4249   4250     1  0.0000000  0.6508444  3
   4241   4240   4249   4251     1  0.0000000  0.6508444  3
   4242   4240   4249   4258     1  0.0000000  1.0460000  1
   4242   4240   4249   4258     1  0.0000000  0.0000000  3
   4242   4240   4249   4250     1  0.0000000  0.6508444  3
   4242   4240   4249   4251     1  0.0000000  0.6508444  3
   4243   4231   4230   4259     1  0.0000000  0.6508444  3
   4244   4243   4255   7042     1  0.0000000  1.0460000  1
   4244   4243   4255   7042     1  0.0000000  0.0000000  3
   4244   4243   4255   4256     1  0.0000000  0.6508444  3
   4244   4243   4255   4257     1  0.0000000  0.6508444  3
   4245   4243   4255   7042     1  0.0000000  1.0460000  1
   4245   4243   4255   7042     1  0.0000000  0.0000000  3
   4245   4243   4255   4256     1  0.0000000  0.6508444  3
   4245   4243   4255   4257     1  0.0000000  0.6508444  3
   4246   4234   4230   4259     1  0.0000000  0.6508444  3
   4247   4246   4252   7028     1  0.0000000  1.0460000  1
   4247   4246   4252   7028     1  0.0000000  0.0000000  3
   4247   4246   4252   4253     1  0.0000000  0.6508444  3
   4247   4246   4252   4254     1  0.0000000  0.6508444  3
   4248   4246   4252   7028     1  0.0000000  1.0460000  1
   4248   4246   4252   7028     1  0.0000000  0.0000000  3
   4248   4246   4252   4253     1  0.0000000  0.6508444  3
   4248   4246   4252   4254     1  0.0000000  0.6508444  3
   4252   7028   7022   7023     1  0.0000000  1.6038667  3
   4252   7028   7022   7024     1  0.0000000  1.6038667  3
   4253   4252   7028   7022     1  0.0000000  1.6038667  3
   4254   4252   7028   7022     1  0.0000000  1.6038667  3
   4255   7042   7036   7037     1  0.0000000  1.6038667  3
   4255   7042   7036   7038     1  0.0000000  1.6038667  3
   4256   4255   7042   7036     1  0.0000000  1.6038667  3
   4257   4255   7042   7036     1  0.0000000  1.6038667  3
   4260   4261   4273   4274     1  0.0000000  0.6508444  3
   4260   4261   4273   4275     1  0.0000000  0.6508444  3
   4260   4264   4276   4277     1  0.0000000  0.6508444  3
   4260   4264   4276   4278     1  0.0000000  0.6508444  3
   4260   4267   4270   4271     1  0.0000000  0.6508444  3
   4260   4267   4270   4272     1  0.0000000  0.6508444  3
   4261   4260   4264   4265     1  0.0000000  0.6508444  3
   4261   4260   4264   4266     1  0.0000000  0.6508444  3
   4261   4260   4267   4268     1  0.0000000  0.6508444  3
   4261   4260   4267   4269     1  0.0000000  0.6508444  3
   4261   4273   4285   4286     1  0.0000000  0.6508444  3
   4261   4273   4285   4287     1  0.0000000  0.6508444  3
   4262   4261   4260   4264     1  0.0000000  0.6508444  3
   4262   4261   4260   4267     1  0.0000000  0.6508444  3
   4262   4261   4260   4289     1  0.0000000  0.6508444  3
   4262   4261   4273   4285     1  0.0000000  0.6508444  3
   4262   4261   4273   4274     1  0.0000000  0.6508444  3
   4262   4261   4273   4275     1  0.0000000  0.6508444  3
   4263   4261   4260   4264     1  0.0000000  0.6508444  3
   4263   4261   4260   4267     1  0.0000000  0.6508444  3
   4263   4261   4260   4289     1  0.0000000  0.6508444  3
   4263   4261   4273   4285     1  0.0000000  0.6508444  3
   4263   4261   4273   4274     1  0.0000000  0.6508444  3
   4263   4261   4273   4275     1  0.0000000  0.6508444  3
   4264   4260   4267   4268     1  0.0000000  0.6508444  3
   4264   4260   4267   4269     1  0.0000000  0.6508444  3
   4264   4276   4282   4283     1  0.0000000  0.6508444  3
   4264   4276   4282   4284     1  0.0000000  0.6508444  3
   4265   4264   4260   4267     1  0.0000000  0.6508444  3
   4265   4264   4260   4289     1  0.0000000  0.6508444  3
   4265   4264   4276   4282     1  0.0000000  0.6508444  3
   4265   4264   4276   4277     1  0.0000000  0.6508444  3
   4265   4264   4276   4278     1  0.0000000  0.6508444  3
   4266   4264   4260   4267     1  0.0000000  0.6508444  3
   4266   4264   4260   4289     1  0.0000000  0.6508444  3
   4266   4264   4276   4282     1  0.0000000  0.6508444  3
   4266   4264   4276   4277     1  0.0000000  0.6508444  3
   4266   4264   4276   4278     1  0.0000000  0.6508444  3
   4267   4270   4279   4280     1  0.0000000  0.6508444  3
   4267   4270   4279   4281     1  0.0000000  0.6508444  3
   4268   4267   4260   4289     1  0.0000000  0.6508444  3
   4268   4267   4270   4279     1  0.0000000  0.6508444  3
   4268   4267   4270   4271     1  0.0000000  0.6508444  3
   4268   4267   4270   4272     1  0.0000000  0.6508444  3
   4269   4267   4260   4289     1  0.0000000  0.6508444  3
   4269   4267   4270   4279     1  0.0000000  0.6508444  3
   4269   4267   4270   4271     1  0.0000000  0.6508444  3
   4269   4267   4270   4272     1  0.0000000  0.6508444  3
   4270   4267   4260   4289     1  0.0000000  0.6508444  3
   4271   4270   4279   4288     1  0.0000000  1.0460000  1
   4271   4270   4279   4288     1  0.0000000  0.0000000  3
   4271   4270   4279   4280     1  0.0000000  0.6508444  3
   4271   4270   4279   4281     1  0.0000000  0.6508444  3
   4272   4270   4279   4288     1  0.0000000  1.0460000  1
   4272   4270   4279   4288     1  0.0000000  0.0000000  3
   4272   4270   4279   4280     1  0.0000000  0.6508444  3
   4272   4270   4279   4281     1  0.0000000  0.6508444  3
   4273   4261   4260   4289     1  0.0000000  0.6508444  3
   4274   4273   4285   7070     1  0.0000000  1.0460000  1
   4274   4273   4285   7070     1  0.0000000  0.0000000  3
   4274   4273   4285   4286     1  0.0000000  0.6508444  3
   4274   4273   4285   4287     1  0.0000000  0.6508444  3
   4275   4273   4285   7070     1  0.0000000  1.0460000  1
   4275   4273   4285   7070     1  0.0000000  0.0000000  3
   4275   4273   4285   4286     1  0.0000000  0.6508444  3
   4275   4273   4285   4287     1  0.0000000  0.6508444  3
   4276   4264   4260   4289     1  0.0000000  0.6508444  3
   4277   4276   4282   7056     1  0.0000000  1.0460000  1
   4277   4276   4282   7056     1  0.0000000  0.0000000  3
   4277   4276   4282   4283     1  0.0000000  0.6508444  3
   4277   4276   4282   4284     1  0.0000000  0.6508444  3
   4278   4276   4282   7056     1  0.0000000  1.0460000  1
   4278   4276   4282   7056     1  0.0000000  0.0000000  3
   4278   4276   4282   4283     1  0.0000000  0.6508444  3
   4278   4276   4282   4284     1  0.0000000  0.6508444  3
   4282   7056   7050   7051     1  0.0000000  1.6038667  3
   4282   7056   7050   7052     1  0.0000000  1.6038667  3
   4283   4282   7056   7050     1  0.0000000  1.6038667  3
   4284   4282   7056   7050     1  0.0000000  1.6038667  3
   4285   7070   7064   7065     1  0.0000000  1.6038667  3
   4285   7070   7064   7066     1  0.0000000  1.6038667  3
   4286   4285   7070   7064     1  0.0000000  1.6038667  3
   4287   4285   7070   7064     1  0.0000000  1.6038667  3
   4290   4291   4303   4304     1  0.0000000  0.6508444  3
   4290   4291   4303   4305     1  0.0000000  0.6508444  3
   4290   4294   4306   4307     1  0.0000000  0.6508444  3
   4290   4294   4306   4308     1  0.0000000  0.6508444  3
   4290   4297   4300   4301     1  0.0000000  0.6508444  3
   4290   4297   4300   4302     1  0.0000000  0.6508444  3
   4291   4290   4294   4295     1  0.0000000  0.6508444  3
   4291   4290   4294   4296     1  0.0000000  0.6508444  3
   4291   4290   4297   4298     1  0.0000000  0.6508444  3
   4291   4290   4297   4299     1  0.0000000  0.6508444  3
   4291   4303   4315   4316     1  0.0000000  0.6508444  3
   4291   4303   4315   4317     1  0.0000000  0.6508444  3
   4292   4291   4290   4294     1  0.0000000  0.6508444  3
   4292   4291   4290   4297     1  0.0000000  0.6508444  3
   4292   4291   4290   4319     1  0.0000000  0.6508444  3
   4292   4291   4303   4315     1  0.0000000  0.6508444  3
   4292   4291   4303   4304     1  0.0000000  0.6508444  3
   4292   4291   4303   4305     1  0.0000000  0.6508444  3
   4293   4291   4290   4294     1  0.0000000  0.6508444  3
   4293   4291   4290   4297     1  0.0000000  0.6508444  3
   4293   4291   4290   4319     1  0.0000000  0.6508444  3
   4293   4291   4303   4315     1  0.0000000  0.6508444  3
   4293   4291   4303   4304     1  0.0000000  0.6508444  3
   4293   4291   4303   4305     1  0.0000000  0.6508444  3
   4294   4290   4297   4298     1  0.0000000  0.6508444  3
   4294   4290   4297   4299     1  0.0000000  0.6508444  3
   4294   4306   4312   4313     1  0.0000000  0.6508444  3
   4294   4306   4312   4314     1  0.0000000  0.6508444  3
   4295   4294   4290   4297     1  0.0000000  0.6508444  3
   4295   4294   4290   4319     1  0.0000000  0.6508444  3
   4295   4294   4306   4312     1  0.0000000  0.6508444  3
   4295   4294   4306   4307     1  0.0000000  0.6508444  3
   4295   4294   4306   4308     1  0.0000000  0.6508444  3
   4296   4294   4290   4297     1  0.0000000  0.6508444  3
   4296   4294   4290   4319     1  0.0000000  0.6508444  3
   4296   4294   4306   4312     1  0.0000000  0.6508444  3
   4296   4294   4306   4307     1  0.0000000  0.6508444  3
   4296   4294   4306   4308     1  0.0000000  0.6508444  3
   4297   4300   4309   4310     1  0.0000000  0.6508444  3
   4297   4300   4309   4311     1  0.0000000  0.6508444  3
   4298   4297   4290   4319     1  0.0000000  0.6508444  3
   4298   4297   4300   4309     1  0.0000000  0.6508444  3
   4298   4297   4300   4301     1  0.0000000  0.6508444  3
   4298   4297   4300   4302     1  0.0000000  0.6508444  3
   4299   4297   4290   4319     1  0.0000000  0.6508444  3
   4299   4297   4300   4309     1  0.0000000  0.6508444  3
   4299   4297   4300   4301     1  0.0000000  0.6508444  3
   4299   4297   4300   4302     1  0.0000000  0.6508444  3
   4300   4297   4290   4319     1  0.0000000  0.6508444  3
   4301   4300   4309   4318     1  0.0000000  1.0460000  1
   4301   4300   4309   4318     1  0.0000000  0.0000000  3
   4301   4300   4309   4310     1  0.0000000  0.6508444  3
   4301   4300   4309   4311     1  0.0000000  0.6508444  3
   4302   4300   4309   4318     1  0.0000000  1.0460000  1
   4302   4300   4309   4318     1  0.0000000  0.0000000  3
   4302   4300   4309   4310     1  0.0000000  0.6508444  3
   4302   4300   4309   4311     1  0.0000000  0.6508444  3
   4303   4291   4290   4319     1  0.0000000  0.6508444  3
   4304   4303   4315   7098     1  0.0000000  1.0460000  1
   4304   4303   4315   7098     1  0.0000000  0.0000000  3
   4304   4303   4315   4316     1  0.0000000  0.6508444  3
   4304   4303   4315   4317     1  0.0000000  0.6508444  3
   4305   4303   4315   7098     1  0.0000000  1.0460000  1
   4305   4303   4315   7098     1  0.0000000  0.0000000  3
   4305   4303   4315   4316     1  0.0000000  0.6508444  3
   4305   4303   4315   4317     1  0.0000000  0.6508444  3
   4306   4294   4290   4319     1  0.0000000  0.6508444  3
   4307   4306   4312   7084     1  0.0000000  1.0460000  1
   4307   4306   4312   7084     1  0.0000000  0.0000000  3
   4307   4306   4312   4313     1  0.0000000  0.6508444  3
   4307   4306   4312   4314     1  0.0000000  0.6508444  3
   4308   4306   4312   7084     1  0.0000000  1.0460000  1
   4308   4306   4312   7084     1  0.0000000  0.0000000  3
   4308   4306   4312   4313     1  0.0000000  0.6508444  3
   4308   4306   4312   4314     1  0.0000000  0.6508444  3
   4312   7084   7078   7079     1  0.0000000  1.6038667  3
   4312   7084   7078   7080     1  0.0000000  1.6038667  3
   4313   4312   7084   7078     1  0.0000000  1.6038667  3
   4314   4312   7084   7078     1  0.0000000  1.6038667  3
   4315   7098   7092   7093     1  0.0000000  1.6038667  3
   4315   7098   7092   7094     1  0.0000000  1.6038667  3
   4316   4315   7098   7092     1  0.0000000  1.6038667  3
   4317   4315   7098   7092     1  0.0000000  1.6038667  3
   4320   4321   4333   4334     1  0.0000000  0.6508444  3
   4320   4321   4333   4335     1  0.0000000  0.6508444  3
   4320   4324   4336   4337     1  0.0000000  0.6508444  3
   4320   4324   4336   4338     1  0.0000000  0.6508444  3
   4320   4327   4330   4331     1  0.0000000  0.6508444  3
   4320   4327   4330   4332     1  0.0000000  0.6508444  3
   4321   4320   4324   4325     1  0.0000000  0.6508444  3
   4321   4320   4324   4326     1  0.0000000  0.6508444  3
   4321   4320   4327   4328     1  0.0000000  0.6508444  3
   4321   4320   4327   4329     1  0.0000000  0.6508444  3
   4321   4333   4345   4346     1  0.0000000  0.6508444  3
   4321   4333   4345   4347     1  0.0000000  0.6508444  3
   4322   4321   4320   4324     1  0.0000000  0.6508444  3
   4322   4321   4320   4327     1  0.0000000  0.6508444  3
   4322   4321   4320   4349     1  0.0000000  0.6508444  3
   4322   4321   4333   4345     1  0.0000000  0.6508444  3
   4322   4321   4333   4334     1  0.0000000  0.6508444  3
   4322   4321   4333   4335     1  0.0000000  0.6508444  3
   4323   4321   4320   4324     1  0.0000000  0.6508444  3
   4323   4321   4320   4327     1  0.0000000  0.6508444  3
   4323   4321   4320   4349     1  0.0000000  0.6508444  3
   4323   4321   4333   4345     1  0.0000000  0.6508444  3
   4323   4321   4333   4334     1  0.0000000  0.6508444  3
   4323   4321   4333   4335     1  0.0000000  0.6508444  3
   4324   4320   4327   4328     1  0.0000000  0.6508444  3
   4324   4320   4327   4329     1  0.0000000  0.6508444  3
   4324   4336   4342   4343     1  0.0000000  0.6508444  3
   4324   4336   4342   4344     1  0.0000000  0.6508444  3
   4325   4324   4320   4327     1  0.0000000  0.6508444  3
   4325   4324   4320   4349     1  0.0000000  0.6508444  3
   4325   4324   4336   4342     1  0.0000000  0.6508444  3
   4325   4324   4336   4337     1  0.0000000  0.6508444  3
   4325   4324   4336   4338     1  0.0000000  0.6508444  3
   4326   4324   4320   4327     1  0.0000000  0.6508444  3
   4326   4324   4320   4349     1  0.0000000  0.6508444  3
   4326   4324   4336   4342     1  0.0000000  0.6508444  3
   4326   4324   4336   4337     1  0.0000000  0.6508444  3
   4326   4324   4336   4338     1  0.0000000  0.6508444  3
   4327   4330   4339   4340     1  0.0000000  0.6508444  3
   4327   4330   4339   4341     1  0.0000000  0.6508444  3
   4328   4327   4320   4349     1  0.0000000  0.6508444  3
   4328   4327   4330   4339     1  0.0000000  0.6508444  3
   4328   4327   4330   4331     1  0.0000000  0.6508444  3
   4328   4327   4330   4332     1  0.0000000  0.6508444  3
   4329   4327   4320   4349     1  0.0000000  0.6508444  3
   4329   4327   4330   4339     1  0.0000000  0.6508444  3
   4329   4327   4330   4331     1  0.0000000  0.6508444  3
   4329   4327   4330   4332     1  0.0000000  0.6508444  3
   4330   4327   4320   4349     1  0.0000000  0.6508444  3
   4331   4330   4339   4348     1  0.0000000  1.0460000  1
   4331   4330   4339   4348     1  0.0000000  0.0000000  3
   4331   4330   4339   4340     1  0.0000000  0.6508444  3
   4331   4330   4339   4341     1  0.0000000  0.6508444  3
   4332   4330   4339   4348     1  0.0000000  1.0460000  1
   4332   4330   4339   4348     1  0.0000000  0.0000000  3
   4332   4330   4339   4340     1  0.0000000  0.6508444  3
   4332   4330   4339   4341     1  0.0000000  0.6508444  3
   4333   4321   4320   4349     1  0.0000000  0.6508444  3
   4334   4333   4345   7126     1  0.0000000  1.0460000  1
   4334   4333   4345   7126     1  0.0000000  0.0000000  3
   4334   4333   4345   4346     1  0.0000000  0.6508444  3
   4334   4333   4345   4347     1  0.0000000  0.6508444  3
   4335   4333   4345   7126     1  0.0000000  1.0460000  1
   4335   4333   4345   7126     1  0.0000000  0.0000000  3
   4335   4333   4345   4346     1  0.0000000  0.6508444  3
   4335   4333   4345   4347     1  0.0000000  0.6508444  3
   4336   4324   4320   4349     1  0.0000000  0.6508444  3
   4337   4336   4342   7112     1  0.0000000  1.0460000  1
   4337   4336   4342   7112     1  0.0000000  0.0000000  3
   4337   4336   4342   4343     1  0.0000000  0.6508444  3
   4337   4336   4342   4344     1  0.0000000  0.6508444  3
   4338   4336   4342   7112     1  0.0000000  1.0460000  1
   4338   4336   4342   7112     1  0.0000000  0.0000000  3
   4338   4336   4342   4343     1  0.0000000  0.6508444  3
   4338   4336   4342   4344     1  0.0000000  0.6508444  3
   4342   7112   7106   7107     1  0.0000000  1.6038667  3
   4342   7112   7106   7108     1  0.0000000  1.6038667  3
   4343   4342   7112   7106     1  0.0000000  1.6038667  3
   4344   4342   7112   7106     1  0.0000000  1.6038667  3
   4345   7126   7120   7121     1  0.0000000  1.6038667  3
   4345   7126   7120   7122     1  0.0000000  1.6038667  3
   4346   4345   7126   7120     1  0.0000000  1.6038667  3
   4347   4345   7126   7120     1  0.0000000  1.6038667  3
   4350   4351   4363   4364     1  0.0000000  0.6508444  3
   4350   4351   4363   4365     1  0.0000000  0.6508444  3
   4350   4354   4366   4367     1  0.0000000  0.6508444  3
   4350   4354   4366   4368     1  0.0000000  0.6508444  3
   4350   4357   4360   4361     1  0.0000000  0.6508444  3
   4350   4357   4360   4362     1  0.0000000  0.6508444  3
   4351   4350   4354   4355     1  0.0000000  0.6508444  3
   4351   4350   4354   4356     1  0.0000000  0.6508444  3
   4351   4350   4357   4358     1  0.0000000  0.6508444  3
   4351   4350   4357   4359     1  0.0000000  0.6508444  3
   4351   4363   4375   4376     1  0.0000000  0.6508444  3
   4351   4363   4375   4377     1  0.0000000  0.6508444  3
   4352   4351   4350   4354     1  0.0000000  0.6508444  3
   4352   4351   4350   4357     1  0.0000000  0.6508444  3
   4352   4351   4350   4379     1  0.0000000  0.6508444  3
   4352   4351   4363   4375     1  0.0000000  0.6508444  3
   4352   4351   4363   4364     1  0.0000000  0.6508444  3
   4352   4351   4363   4365     1  0.0000000  0.6508444  3
   4353   4351   4350   4354     1  0.0000000  0.6508444  3
   4353   4351   4350   4357     1  0.0000000  0.6508444  3
   4353   4351   4350   4379     1  0.0000000  0.6508444  3
   4353   4351   4363   4375     1  0.0000000  0.6508444  3
   4353   4351   4363   4364     1  0.0000000  0.6508444  3
   4353   4351   4363   4365     1  0.0000000  0.6508444  3
   4354   4350   4357   4358     1  0.0000000  0.6508444  3
   4354   4350   4357   4359     1  0.0000000  0.6508444  3
   4354   4366   4372   4373     1  0.0000000  0.6508444  3
   4354   4366   4372   4374     1  0.0000000  0.6508444  3
   4355   4354   4350   4357     1  0.0000000  0.6508444  3
   4355   4354   4350   4379     1  0.0000000  0.6508444  3
   4355   4354   4366   4372     1  0.0000000  0.6508444  3
   4355   4354   4366   4367     1  0.0000000  0.6508444  3
   4355   4354   4366   4368     1  0.0000000  0.6508444  3
   4356   4354   4350   4357     1  0.0000000  0.6508444  3
   4356   4354   4350   4379     1  0.0000000  0.6508444  3
   4356   4354   4366   4372     1  0.0000000  0.6508444  3
   4356   4354   4366   4367     1  0.0000000  0.6508444  3
   4356   4354   4366   4368     1  0.0000000  0.6508444  3
   4357   4360   4369   4370     1  0.0000000  0.6508444  3
   4357   4360   4369   4371     1  0.0000000  0.6508444  3
   4358   4357   4350   4379     1  0.0000000  0.6508444  3
   4358   4357   4360   4369     1  0.0000000  0.6508444  3
   4358   4357   4360   4361     1  0.0000000  0.6508444  3
   4358   4357   4360   4362     1  0.0000000  0.6508444  3
   4359   4357   4350   4379     1  0.0000000  0.6508444  3
   4359   4357   4360   4369     1  0.0000000  0.6508444  3
   4359   4357   4360   4361     1  0.0000000  0.6508444  3
   4359   4357   4360   4362     1  0.0000000  0.6508444  3
   4360   4357   4350   4379     1  0.0000000  0.6508444  3
   4361   4360   4369   4378     1  0.0000000  1.0460000  1
   4361   4360   4369   4378     1  0.0000000  0.0000000  3
   4361   4360   4369   4370     1  0.0000000  0.6508444  3
   4361   4360   4369   4371     1  0.0000000  0.6508444  3
   4362   4360   4369   4378     1  0.0000000  1.0460000  1
   4362   4360   4369   4378     1  0.0000000  0.0000000  3
   4362   4360   4369   4370     1  0.0000000  0.6508444  3
   4362   4360   4369   4371     1  0.0000000  0.6508444  3
   4363   4351   4350   4379     1  0.0000000  0.6508444  3
   4364   4363   4375   7154     1  0.0000000  1.0460000  1
   4364   4363   4375   7154     1  0.0000000  0.0000000  3
   4364   4363   4375   4376     1  0.0000000  0.6508444  3
   4364   4363   4375   4377     1  0.0000000  0.6508444  3
   4365   4363   4375   7154     1  0.0000000  1.0460000  1
   4365   4363   4375   7154     1  0.0000000  0.0000000  3
   4365   4363   4375   4376     1  0.0000000  0.6508444  3
   4365   4363   4375   4377     1  0.0000000  0.6508444  3
   4366   4354   4350   4379     1  0.0000000  0.6508444  3
   4367   4366   4372   7140     1  0.0000000  1.0460000  1
   4367   4366   4372   7140     1  0.0000000  0.0000000  3
   4367   4366   4372   4373     1  0.0000000  0.6508444  3
   4367   4366   4372   4374     1  0.0000000  0.6508444  3
   4368   4366   4372   7140     1  0.0000000  1.0460000  1
   4368   4366   4372   7140     1  0.0000000  0.0000000  3
   4368   4366   4372   4373     1  0.0000000  0.6508444  3
   4368   4366   4372   4374     1  0.0000000  0.6508444  3
   4372   7140   7134   7135     1  0.0000000  1.6038667  3
   4372   7140   7134   7136     1  0.0000000  1.6038667  3
   4373   4372   7140   7134     1  0.0000000  1.6038667  3
   4374   4372   7140   7134     1  0.0000000  1.6038667  3
   4375   7154   7148   7149     1  0.0000000  1.6038667  3
   4375   7154   7148   7150     1  0.0000000  1.6038667  3
   4376   4375   7154   7148     1  0.0000000  1.6038667  3
   4377   4375   7154   7148     1  0.0000000  1.6038667  3
   4380   4381   4393   4394     1  0.0000000  0.6508444  3
   4380   4381   4393   4395     1  0.0000000  0.6508444  3
   4380   4384   4396   4397     1  0.0000000  0.6508444  3
   4380   4384   4396   4398     1  0.0000000  0.6508444  3
   4380   4387   4390   4391     1  0.0000000  0.6508444  3
   4380   4387   4390   4392     1  0.0000000  0.6508444  3
   4381   4380   4384   4385     1  0.0000000  0.6508444  3
   4381   4380   4384   4386     1  0.0000000  0.6508444  3
   4381   4380   4387   4388     1  0.0000000  0.6508444  3
   4381   4380   4387   4389     1  0.0000000  0.6508444  3
   4381   4393   4405   4406     1  0.0000000  0.6508444  3
   4381   4393   4405   4407     1  0.0000000  0.6508444  3
   4382   4381   4380   4384     1  0.0000000  0.6508444  3
   4382   4381   4380   4387     1  0.0000000  0.6508444  3
   4382   4381   4380   4409     1  0.0000000  0.6508444  3
   4382   4381   4393   4405     1  0.0000000  0.6508444  3
   4382   4381   4393   4394     1  0.0000000  0.6508444  3
   4382   4381   4393   4395     1  0.0000000  0.6508444  3
   4383   4381   4380   4384     1  0.0000000  0.6508444  3
   4383   4381   4380   4387     1  0.0000000  0.6508444  3
   4383   4381   4380   4409     1  0.0000000  0.6508444  3
   4383   4381   4393   4405     1  0.0000000  0.6508444  3
   4383   4381   4393   4394     1  0.0000000  0.6508444  3
   4383   4381   4393   4395     1  0.0000000  0.6508444  3
   4384   4380   4387   4388     1  0.0000000  0.6508444  3
   4384   4380   4387   4389     1  0.0000000  0.6508444  3
   4384   4396   4402   4403     1  0.0000000  0.6508444  3
   4384   4396   4402   4404     1  0.0000000  0.6508444  3
   4385   4384   4380   4387     1  0.0000000  0.6508444  3
   4385   4384   4380   4409     1  0.0000000  0.6508444  3
   4385   4384   4396   4402     1  0.0000000  0.6508444  3
   4385   4384   4396   4397     1  0.0000000  0.6508444  3
   4385   4384   4396   4398     1  0.0000000  0.6508444  3
   4386   4384   4380   4387     1  0.0000000  0.6508444  3
   4386   4384   4380   4409     1  0.0000000  0.6508444  3
   4386   4384   4396   4402     1  0.0000000  0.6508444  3
   4386   4384   4396   4397     1  0.0000000  0.6508444  3
   4386   4384   4396   4398     1  0.0000000  0.6508444  3
   4387   4390   4399   4400     1  0.0000000  0.6508444  3
   4387   4390   4399   4401     1  0.0000000  0.6508444  3
   4388   4387   4380   4409     1  0.0000000  0.6508444  3
   4388   4387   4390   4399     1  0.0000000  0.6508444  3
   4388   4387   4390   4391     1  0.0000000  0.6508444  3
   4388   4387   4390   4392     1  0.0000000  0.6508444  3
   4389   4387   4380   4409     1  0.0000000  0.6508444  3
   4389   4387   4390   4399     1  0.0000000  0.6508444  3
   4389   4387   4390   4391     1  0.0000000  0.6508444  3
   4389   4387   4390   4392     1  0.0000000  0.6508444  3
   4390   4387   4380   4409     1  0.0000000  0.6508444  3
   4391   4390   4399   4408     1  0.0000000  1.0460000  1
   4391   4390   4399   4408     1  0.0000000  0.0000000  3
   4391   4390   4399   4400     1  0.0000000  0.6508444  3
   4391   4390   4399   4401     1  0.0000000  0.6508444  3
   4392   4390   4399   4408     1  0.0000000  1.0460000  1
   4392   4390   4399   4408     1  0.0000000  0.0000000  3
   4392   4390   4399   4400     1  0.0000000  0.6508444  3
   4392   4390   4399   4401     1  0.0000000  0.6508444  3
   4393   4381   4380   4409     1  0.0000000  0.6508444  3
   4394   4393   4405   7182     1  0.0000000  1.0460000  1
   4394   4393   4405   7182     1  0.0000000  0.0000000  3
   4394   4393   4405   4406     1  0.0000000  0.6508444  3
   4394   4393   4405   4407     1  0.0000000  0.6508444  3
   4395   4393   4405   7182     1  0.0000000  1.0460000  1
   4395   4393   4405   7182     1  0.0000000  0.0000000  3
   4395   4393   4405   4406     1  0.0000000  0.6508444  3
   4395   4393   4405   4407     1  0.0000000  0.6508444  3
   4396   4384   4380   4409     1  0.0000000  0.6508444  3
   4397   4396   4402   7168     1  0.0000000  1.0460000  1
   4397   4396   4402   7168     1  0.0000000  0.0000000  3
   4397   4396   4402   4403     1  0.0000000  0.6508444  3
   4397   4396   4402   4404     1  0.0000000  0.6508444  3
   4398   4396   4402   7168     1  0.0000000  1.0460000  1
   4398   4396   4402   7168     1  0.0000000  0.0000000  3
   4398   4396   4402   4403     1  0.0000000  0.6508444  3
   4398   4396   4402   4404     1  0.0000000  0.6508444  3
   4402   7168   7162   7163     1  0.0000000  1.6038667  3
   4402   7168   7162   7164     1  0.0000000  1.6038667  3
   4403   4402   7168   7162     1  0.0000000  1.6038667  3
   4404   4402   7168   7162     1  0.0000000  1.6038667  3
   4405   7182   7176   7177     1  0.0000000  1.6038667  3
   4405   7182   7176   7178     1  0.0000000  1.6038667  3
   4406   4405   7182   7176     1  0.0000000  1.6038667  3
   4407   4405   7182   7176     1  0.0000000  1.6038667  3
   4410   4411   4423   4424     1  0.0000000  0.6508444  3
   4410   4411   4423   4425     1  0.0000000  0.6508444  3
   4410   4414   4426   4427     1  0.0000000  0.6508444  3
   4410   4414   4426   4428     1  0.0000000  0.6508444  3
   4410   4417   4420   4421     1  0.0000000  0.6508444  3
   4410   4417   4420   4422     1  0.0000000  0.6508444  3
   4411   4410   4414   4415     1  0.0000000  0.6508444  3
   4411   4410   4414   4416     1  0.0000000  0.6508444  3
   4411   4410   4417   4418     1  0.0000000  0.6508444  3
   4411   4410   4417   4419     1  0.0000000  0.6508444  3
   4411   4423   4435   4436     1  0.0000000  0.6508444  3
   4411   4423   4435   4437     1  0.0000000  0.6508444  3
   4412   4411   4410   4414     1  0.0000000  0.6508444  3
   4412   4411   4410   4417     1  0.0000000  0.6508444  3
   4412   4411   4410   4439     1  0.0000000  0.6508444  3
   4412   4411   4423   4435     1  0.0000000  0.6508444  3
   4412   4411   4423   4424     1  0.0000000  0.6508444  3
   4412   4411   4423   4425     1  0.0000000  0.6508444  3
   4413   4411   4410   4414     1  0.0000000  0.6508444  3
   4413   4411   4410   4417     1  0.0000000  0.6508444  3
   4413   4411   4410   4439     1  0.0000000  0.6508444  3
   4413   4411   4423   4435     1  0.0000000  0.6508444  3
   4413   4411   4423   4424     1  0.0000000  0.6508444  3
   4413   4411   4423   4425     1  0.0000000  0.6508444  3
   4414   4410   4417   4418     1  0.0000000  0.6508444  3
   4414   4410   4417   4419     1  0.0000000  0.6508444  3
   4414   4426   4432   4433     1  0.0000000  0.6508444  3
   4414   4426   4432   4434     1  0.0000000  0.6508444  3
   4415   4414   4410   4417     1  0.0000000  0.6508444  3
   4415   4414   4410   4439     1  0.0000000  0.6508444  3
   4415   4414   4426   4432     1  0.0000000  0.6508444  3
   4415   4414   4426   4427     1  0.0000000  0.6508444  3
   4415   4414   4426   4428     1  0.0000000  0.6508444  3
   4416   4414   4410   4417     1  0.0000000  0.6508444  3
   4416   4414   4410   4439     1  0.0000000  0.6508444  3
   4416   4414   4426   4432     1  0.0000000  0.6508444  3
   4416   4414   4426   4427     1  0.0000000  0.6508444  3
   4416   4414   4426   4428     1  0.0000000  0.6508444  3
   4417   4420   4429   4430     1  0.0000000  0.6508444  3
   4417   4420   4429   4431     1  0.0000000  0.6508444  3
   4418   4417   4410   4439     1  0.0000000  0.6508444  3
   4418   4417   4420   4429     1  0.0000000  0.6508444  3
   4418   4417   4420   4421     1  0.0000000  0.6508444  3
   4418   4417   4420   4422     1  0.0000000  0.6508444  3
   4419   4417   4410   4439     1  0.0000000  0.6508444  3
   4419   4417   4420   4429     1  0.0000000  0.6508444  3
   4419   4417   4420   4421     1  0.0000000  0.6508444  3
   4419   4417   4420   4422     1  0.0000000  0.6508444  3
   4420   4417   4410   4439     1  0.0000000  0.6508444  3
   4421   4420   4429   4438     1  0.0000000  1.0460000  1
   4421   4420   4429   4438     1  0.0000000  0.0000000  3
   4421   4420   4429   4430     1  0.0000000  0.6508444  3
   4421   4420   4429   4431     1  0.0000000  0.6508444  3
   4422   4420   4429   4438     1  0.0000000  1.0460000  1
   4422   4420   4429   4438     1  0.0000000  0.0000000  3
   4422   4420   4429   4430     1  0.0000000  0.6508444  3
   4422   4420   4429   4431     1  0.0000000  0.6508444  3
   4423   4411   4410   4439     1  0.0000000  0.6508444  3
   4424   4423   4435   7210     1  0.0000000  1.0460000  1
   4424   4423   4435   7210     1  0.0000000  0.0000000  3
   4424   4423   4435   4436     1  0.0000000  0.6508444  3
   4424   4423   4435   4437     1  0.0000000  0.6508444  3
   4425   4423   4435   7210     1  0.0000000  1.0460000  1
   4425   4423   4435   7210     1  0.0000000  0.0000000  3
   4425   4423   4435   4436     1  0.0000000  0.6508444  3
   4425   4423   4435   4437     1  0.0000000  0.6508444  3
   4426   4414   4410   4439     1  0.0000000  0.6508444  3
   4427   4426   4432   7196     1  0.0000000  1.0460000  1
   4427   4426   4432   7196     1  0.0000000  0.0000000  3
   4427   4426   4432   4433     1  0.0000000  0.6508444  3
   4427   4426   4432   4434     1  0.0000000  0.6508444  3
   4428   4426   4432   7196     1  0.0000000  1.0460000  1
   4428   4426   4432   7196     1  0.0000000  0.0000000  3
   4428   4426   4432   4433     1  0.0000000  0.6508444  3
   4428   4426   4432   4434     1  0.0000000  0.6508444  3
   4432   7196   7190   7191     1  0.0000000  1.6038667  3
   4432   7196   7190   7192     1  0.0000000  1.6038667  3
   4433   4432   7196   7190     1  0.0000000  1.6038667  3
   4434   4432   7196   7190     1  0.0000000  1.6038667  3
   4435   7210   7204   7205     1  0.0000000  1.6038667  3
   4435   7210   7204   7206     1  0.0000000  1.6038667  3
   4436   4435   7210   7204     1  0.0000000  1.6038667  3
   4437   4435   7210   7204     1  0.0000000  1.6038667  3
   4440   4441   4453   4454     1  0.0000000  0.6508444  3
   4440   4441   4453   4455     1  0.0000000  0.6508444  3
   4440   4444   4456   4457     1  0.0000000  0.6508444  3
   4440   4444   4456   4458     1  0.0000000  0.6508444  3
   4440   4447   4450   4451     1  0.0000000  0.6508444  3
   4440   4447   4450   4452     1  0.0000000  0.6508444  3
   4441   4440   4444   4445     1  0.0000000  0.6508444  3
   4441   4440   4444   4446     1  0.0000000  0.6508444  3
   4441   4440   4447   4448     1  0.0000000  0.6508444  3
   4441   4440   4447   4449     1  0.0000000  0.6508444  3
   4441   4453   4465   4466     1  0.0000000  0.6508444  3
   4441   4453   4465   4467     1  0.0000000  0.6508444  3
   4442   4441   4440   4444     1  0.0000000  0.6508444  3
   4442   4441   4440   4447     1  0.0000000  0.6508444  3
   4442   4441   4440   4469     1  0.0000000  0.6508444  3
   4442   4441   4453   4465     1  0.0000000  0.6508444  3
   4442   4441   4453   4454     1  0.0000000  0.6508444  3
   4442   4441   4453   4455     1  0.0000000  0.6508444  3
   4443   4441   4440   4444     1  0.0000000  0.6508444  3
   4443   4441   4440   4447     1  0.0000000  0.6508444  3
   4443   4441   4440   4469     1  0.0000000  0.6508444  3
   4443   4441   4453   4465     1  0.0000000  0.6508444  3
   4443   4441   4453   4454     1  0.0000000  0.6508444  3
   4443   4441   4453   4455     1  0.0000000  0.6508444  3
   4444   4440   4447   4448     1  0.0000000  0.6508444  3
   4444   4440   4447   4449     1  0.0000000  0.6508444  3
   4444   4456   4462   4463     1  0.0000000  0.6508444  3
   4444   4456   4462   4464     1  0.0000000  0.6508444  3
   4445   4444   4440   4447     1  0.0000000  0.6508444  3
   4445   4444   4440   4469     1  0.0000000  0.6508444  3
   4445   4444   4456   4462     1  0.0000000  0.6508444  3
   4445   4444   4456   4457     1  0.0000000  0.6508444  3
   4445   4444   4456   4458     1  0.0000000  0.6508444  3
   4446   4444   4440   4447     1  0.0000000  0.6508444  3
   4446   4444   4440   4469     1  0.0000000  0.6508444  3
   4446   4444   4456   4462     1  0.0000000  0.6508444  3
   4446   4444   4456   4457     1  0.0000000  0.6508444  3
   4446   4444   4456   4458     1  0.0000000  0.6508444  3
   4447   4450   4459   4460     1  0.0000000  0.6508444  3
   4447   4450   4459   4461     1  0.0000000  0.6508444  3
   4448   4447   4440   4469     1  0.0000000  0.6508444  3
   4448   4447   4450   4459     1  0.0000000  0.6508444  3
   4448   4447   4450   4451     1  0.0000000  0.6508444  3
   4448   4447   4450   4452     1  0.0000000  0.6508444  3
   4449   4447   4440   4469     1  0.0000000  0.6508444  3
   4449   4447   4450   4459     1  0.0000000  0.6508444  3
   4449   4447   4450   4451     1  0.0000000  0.6508444  3
   4449   4447   4450   4452     1  0.0000000  0.6508444  3
   4450   4447   4440   4469     1  0.0000000  0.6508444  3
   4451   4450   4459   4468     1  0.0000000  1.0460000  1
   4451   4450   4459   4468     1  0.0000000  0.0000000  3
   4451   4450   4459   4460     1  0.0000000  0.6508444  3
   4451   4450   4459   4461     1  0.0000000  0.6508444  3
   4452   4450   4459   4468     1  0.0000000  1.0460000  1
   4452   4450   4459   4468     1  0.0000000  0.0000000  3
   4452   4450   4459   4460     1  0.0000000  0.6508444  3
   4452   4450   4459   4461     1  0.0000000  0.6508444  3
   4453   4441   4440   4469     1  0.0000000  0.6508444  3
   4454   4453   4465   7238     1  0.0000000  1.0460000  1
   4454   4453   4465   7238     1  0.0000000  0.0000000  3
   4454   4453   4465   4466     1  0.0000000  0.6508444  3
   4454   4453   4465   4467     1  0.0000000  0.6508444  3
   4455   4453   4465   7238     1  0.0000000  1.0460000  1
   4455   4453   4465   7238     1  0.0000000  0.0000000  3
   4455   4453   4465   4466     1  0.0000000  0.6508444  3
   4455   4453   4465   4467     1  0.0000000  0.6508444  3
   4456   4444   4440   4469     1  0.0000000  0.6508444  3
   4457   4456   4462   7224     1  0.0000000  1.0460000  1
   4457   4456   4462   7224     1  0.0000000  0.0000000  3
   4457   4456   4462   4463     1  0.0000000  0.6508444  3
   4457   4456   4462   4464     1  0.0000000  0.6508444  3
   4458   4456   4462   7224     1  0.0000000  1.0460000  1
   4458   4456   4462   7224     1  0.0000000  0.0000000  3
   4458   4456   4462   4463     1  0.0000000  0.6508444  3
   4458   4456   4462   4464     1  0.0000000  0.6508444  3
   4462   7224   7218   7219     1  0.0000000  1.6038667  3
   4462   7224   7218   7220     1  0.0000000  1.6038667  3
   4463   4462   7224   7218     1  0.0000000  1.6038667  3
   4464   4462   7224   7218     1  0.0000000  1.6038667  3
   4465   7238   7232   7233     1  0.0000000  1.6038667  3
   4465   7238   7232   7234     1  0.0000000  1.6038667  3
   4466   4465   7238   7232     1  0.0000000  1.6038667  3
   4467   4465   7238   7232     1  0.0000000  1.6038667  3
   4470   4471   4483   4484     1  0.0000000  0.6508444  3
   4470   4471   4483   4485     1  0.0000000  0.6508444  3
   4470   4474   4486   4487     1  0.0000000  0.6508444  3
   4470   4474   4486   4488     1  0.0000000  0.6508444  3
   4470   4477   4480   4481     1  0.0000000  0.6508444  3
   4470   4477   4480   4482     1  0.0000000  0.6508444  3
   4471   4470   4474   4475     1  0.0000000  0.6508444  3
   4471   4470   4474   4476     1  0.0000000  0.6508444  3
   4471   4470   4477   4478     1  0.0000000  0.6508444  3
   4471   4470   4477   4479     1  0.0000000  0.6508444  3
   4471   4483   4495   4496     1  0.0000000  0.6508444  3
   4471   4483   4495   4497     1  0.0000000  0.6508444  3
   4472   4471   4470   4474     1  0.0000000  0.6508444  3
   4472   4471   4470   4477     1  0.0000000  0.6508444  3
   4472   4471   4470   4499     1  0.0000000  0.6508444  3
   4472   4471   4483   4495     1  0.0000000  0.6508444  3
   4472   4471   4483   4484     1  0.0000000  0.6508444  3
   4472   4471   4483   4485     1  0.0000000  0.6508444  3
   4473   4471   4470   4474     1  0.0000000  0.6508444  3
   4473   4471   4470   4477     1  0.0000000  0.6508444  3
   4473   4471   4470   4499     1  0.0000000  0.6508444  3
   4473   4471   4483   4495     1  0.0000000  0.6508444  3
   4473   4471   4483   4484     1  0.0000000  0.6508444  3
   4473   4471   4483   4485     1  0.0000000  0.6508444  3
   4474   4470   4477   4478     1  0.0000000  0.6508444  3
   4474   4470   4477   4479     1  0.0000000  0.6508444  3
   4474   4486   4492   4493     1  0.0000000  0.6508444  3
   4474   4486   4492   4494     1  0.0000000  0.6508444  3
   4475   4474   4470   4477     1  0.0000000  0.6508444  3
   4475   4474   4470   4499     1  0.0000000  0.6508444  3
   4475   4474   4486   4492     1  0.0000000  0.6508444  3
   4475   4474   4486   4487     1  0.0000000  0.6508444  3
   4475   4474   4486   4488     1  0.0000000  0.6508444  3
   4476   4474   4470   4477     1  0.0000000  0.6508444  3
   4476   4474   4470   4499     1  0.0000000  0.6508444  3
   4476   4474   4486   4492     1  0.0000000  0.6508444  3
   4476   4474   4486   4487     1  0.0000000  0.6508444  3
   4476   4474   4486   4488     1  0.0000000  0.6508444  3
   4477   4480   4489   4490     1  0.0000000  0.6508444  3
   4477   4480   4489   4491     1  0.0000000  0.6508444  3
   4478   4477   4470   4499     1  0.0000000  0.6508444  3
   4478   4477   4480   4489     1  0.0000000  0.6508444  3
   4478   4477   4480   4481     1  0.0000000  0.6508444  3
   4478   4477   4480   4482     1  0.0000000  0.6508444  3
   4479   4477   4470   4499     1  0.0000000  0.6508444  3
   4479   4477   4480   4489     1  0.0000000  0.6508444  3
   4479   4477   4480   4481     1  0.0000000  0.6508444  3
   4479   4477   4480   4482     1  0.0000000  0.6508444  3
   4480   4477   4470   4499     1  0.0000000  0.6508444  3
   4481   4480   4489   4498     1  0.0000000  1.0460000  1
   4481   4480   4489   4498     1  0.0000000  0.0000000  3
   4481   4480   4489   4490     1  0.0000000  0.6508444  3
   4481   4480   4489   4491     1  0.0000000  0.6508444  3
   4482   4480   4489   4498     1  0.0000000  1.0460000  1
   4482   4480   4489   4498     1  0.0000000  0.0000000  3
   4482   4480   4489   4490     1  0.0000000  0.6508444  3
   4482   4480   4489   4491     1  0.0000000  0.6508444  3
   4483   4471   4470   4499     1  0.0000000  0.6508444  3
   4484   4483   4495   7266     1  0.0000000  1.0460000  1
   4484   4483   4495   7266     1  0.0000000  0.0000000  3
   4484   4483   4495   4496     1  0.0000000  0.6508444  3
   4484   4483   4495   4497     1  0.0000000  0.6508444  3
   4485   4483   4495   7266     1  0.0000000  1.0460000  1
   4485   4483   4495   7266     1  0.0000000  0.0000000  3
   4485   4483   4495   4496     1  0.0000000  0.6508444  3
   4485   4483   4495   4497     1  0.0000000  0.6508444  3
   4486   4474   4470   4499     1  0.0000000  0.6508444  3
   4487   4486   4492   7252     1  0.0000000  1.0460000  1
   4487   4486   4492   7252     1  0.0000000  0.0000000  3
   4487   4486   4492   4493     1  0.0000000  0.6508444  3
   4487   4486   4492   4494     1  0.0000000  0.6508444  3
   4488   4486   4492   7252     1  0.0000000  1.0460000  1
   4488   4486   4492   7252     1  0.0000000  0.0000000  3
   4488   4486   4492   4493     1  0.0000000  0.6508444  3
   4488   4486   4492   4494     1  0.0000000  0.6508444  3
   4492   7252   7246   7247     1  0.0000000  1.6038667  3
   4492   7252   7246   7248     1  0.0000000  1.6038667  3
   4493   4492   7252   7246     1  0.0000000  1.6038667  3
   4494   4492   7252   7246     1  0.0000000  1.6038667  3
   4495   7266   7260   7261     1  0.0000000  1.6038667  3
   4495   7266   7260   7262     1  0.0000000  1.6038667  3
   4496   4495   7266   7260     1  0.0000000  1.6038667  3
   4497   4495   7266   7260     1  0.0000000  1.6038667  3
   4500   4501   4513   4514     1  0.0000000  0.6508444  3
   4500   4501   4513   4515     1  0.0000000  0.6508444  3
   4500   4504   4516   4517     1  0.0000000  0.6508444  3
   4500   4504   4516   4518     1  0.0000000  0.6508444  3
   4500   4507   4510   4511     1  0.0000000  0.6508444  3
   4500   4507   4510   4512     1  0.0000000  0.6508444  3
   4501   4500   4504   4505     1  0.0000000  0.6508444  3
   4501   4500   4504   4506     1  0.0000000  0.6508444  3
   4501   4500   4507   4508     1  0.0000000  0.6508444  3
   4501   4500   4507   4509     1  0.0000000  0.6508444  3
   4501   4513   4525   4526     1  0.0000000  0.6508444  3
   4501   4513   4525   4527     1  0.0000000  0.6508444  3
   4502   4501   4500   4504     1  0.0000000  0.6508444  3
   4502   4501   4500   4507     1  0.0000000  0.6508444  3
   4502   4501   4500   4529     1  0.0000000  0.6508444  3
   4502   4501   4513   4525     1  0.0000000  0.6508444  3
   4502   4501   4513   4514     1  0.0000000  0.6508444  3
   4502   4501   4513   4515     1  0.0000000  0.6508444  3
   4503   4501   4500   4504     1  0.0000000  0.6508444  3
   4503   4501   4500   4507     1  0.0000000  0.6508444  3
   4503   4501   4500   4529     1  0.0000000  0.6508444  3
   4503   4501   4513   4525     1  0.0000000  0.6508444  3
   4503   4501   4513   4514     1  0.0000000  0.6508444  3
   4503   4501   4513   4515     1  0.0000000  0.6508444  3
   4504   4500   4507   4508     1  0.0000000  0.6508444  3
   4504   4500   4507   4509     1  0.0000000  0.6508444  3
   4504   4516   4522   4523     1  0.0000000  0.6508444  3
   4504   4516   4522   4524     1  0.0000000  0.6508444  3
   4505   4504   4500   4507     1  0.0000000  0.6508444  3
   4505   4504   4500   4529     1  0.0000000  0.6508444  3
   4505   4504   4516   4522     1  0.0000000  0.6508444  3
   4505   4504   4516   4517     1  0.0000000  0.6508444  3
   4505   4504   4516   4518     1  0.0000000  0.6508444  3
   4506   4504   4500   4507     1  0.0000000  0.6508444  3
   4506   4504   4500   4529     1  0.0000000  0.6508444  3
   4506   4504   4516   4522     1  0.0000000  0.6508444  3
   4506   4504   4516   4517     1  0.0000000  0.6508444  3
   4506   4504   4516   4518     1  0.0000000  0.6508444  3
   4507   4510   4519   4520     1  0.0000000  0.6508444  3
   4507   4510   4519   4521     1  0.0000000  0.6508444  3
   4508   4507   4500   4529     1  0.0000000  0.6508444  3
   4508   4507   4510   4519     1  0.0000000  0.6508444  3
   4508   4507   4510   4511     1  0.0000000  0.6508444  3
   4508   4507   4510   4512     1  0.0000000  0.6508444  3
   4509   4507   4500   4529     1  0.0000000  0.6508444  3
   4509   4507   4510   4519     1  0.0000000  0.6508444  3
   4509   4507   4510   4511     1  0.0000000  0.6508444  3
   4509   4507   4510   4512     1  0.0000000  0.6508444  3
   4510   4507   4500   4529     1  0.0000000  0.6508444  3
   4511   4510   4519   4528     1  0.0000000  1.0460000  1
   4511   4510   4519   4528     1  0.0000000  0.0000000  3
   4511   4510   4519   4520     1  0.0000000  0.6508444  3
   4511   4510   4519   4521     1  0.0000000  0.6508444  3
   4512   4510   4519   4528     1  0.0000000  1.0460000  1
   4512   4510   4519   4528     1  0.0000000  0.0000000  3
   4512   4510   4519   4520     1  0.0000000  0.6508444  3
   4512   4510   4519   4521     1  0.0000000  0.6508444  3
   4513   4501   4500   4529     1  0.0000000  0.6508444  3
   4514   4513   4525   7294     1  0.0000000  1.0460000  1
   4514   4513   4525   7294     1  0.0000000  0.0000000  3
   4514   4513   4525   4526     1  0.0000000  0.6508444  3
   4514   4513   4525   4527     1  0.0000000  0.6508444  3
   4515   4513   4525   7294     1  0.0000000  1.0460000  1
   4515   4513   4525   7294     1  0.0000000  0.0000000  3
   4515   4513   4525   4526     1  0.0000000  0.6508444  3
   4515   4513   4525   4527     1  0.0000000  0.6508444  3
   4516   4504   4500   4529     1  0.0000000  0.6508444  3
   4517   4516   4522   7280     1  0.0000000  1.0460000  1
   4517   4516   4522   7280     1  0.0000000  0.0000000  3
   4517   4516   4522   4523     1  0.0000000  0.6508444  3
   4517   4516   4522   4524     1  0.0000000  0.6508444  3
   4518   4516   4522   7280     1  0.0000000  1.0460000  1
   4518   4516   4522   7280     1  0.0000000  0.0000000  3
   4518   4516   4522   4523     1  0.0000000  0.6508444  3
   4518   4516   4522   4524     1  0.0000000  0.6508444  3
   4522   7280   7274   7275     1  0.0000000  1.6038667  3
   4522   7280   7274   7276     1  0.0000000  1.6038667  3
   4523   4522   7280   7274     1  0.0000000  1.6038667  3
   4524   4522   7280   7274     1  0.0000000  1.6038667  3
   4525   7294   7288   7289     1  0.0000000  1.6038667  3
   4525   7294   7288   7290     1  0.0000000  1.6038667  3
   4526   4525   7294   7288     1  0.0000000  1.6038667  3
   4527   4525   7294   7288     1  0.0000000  1.6038667  3
   4530   4531   4543   4544     1  0.0000000  0.6508444  3
   4530   4531   4543   4545     1  0.0000000  0.6508444  3
   4530   4534   4546   4547     1  0.0000000  0.6508444  3
   4530   4534   4546   4548     1  0.0000000  0.6508444  3
   4530   4537   4540   4541     1  0.0000000  0.6508444  3
   4530   4537   4540   4542     1  0.0000000  0.6508444  3
   4531   4530   4534   4535     1  0.0000000  0.6508444  3
   4531   4530   4534   4536     1  0.0000000  0.6508444  3
   4531   4530   4537   4538     1  0.0000000  0.6508444  3
   4531   4530   4537   4539     1  0.0000000  0.6508444  3
   4531   4543   4555   4556     1  0.0000000  0.6508444  3
   4531   4543   4555   4557     1  0.0000000  0.6508444  3
   4532   4531   4530   4534     1  0.0000000  0.6508444  3
   4532   4531   4530   4537     1  0.0000000  0.6508444  3
   4532   4531   4530   4559     1  0.0000000  0.6508444  3
   4532   4531   4543   4555     1  0.0000000  0.6508444  3
   4532   4531   4543   4544     1  0.0000000  0.6508444  3
   4532   4531   4543   4545     1  0.0000000  0.6508444  3
   4533   4531   4530   4534     1  0.0000000  0.6508444  3
   4533   4531   4530   4537     1  0.0000000  0.6508444  3
   4533   4531   4530   4559     1  0.0000000  0.6508444  3
   4533   4531   4543   4555     1  0.0000000  0.6508444  3
   4533   4531   4543   4544     1  0.0000000  0.6508444  3
   4533   4531   4543   4545     1  0.0000000  0.6508444  3
   4534   4530   4537   4538     1  0.0000000  0.6508444  3
   4534   4530   4537   4539     1  0.0000000  0.6508444  3
   4534   4546   4552   4553     1  0.0000000  0.6508444  3
   4534   4546   4552   4554     1  0.0000000  0.6508444  3
   4535   4534   4530   4537     1  0.0000000  0.6508444  3
   4535   4534   4530   4559     1  0.0000000  0.6508444  3
   4535   4534   4546   4552     1  0.0000000  0.6508444  3
   4535   4534   4546   4547     1  0.0000000  0.6508444  3
   4535   4534   4546   4548     1  0.0000000  0.6508444  3
   4536   4534   4530   4537     1  0.0000000  0.6508444  3
   4536   4534   4530   4559     1  0.0000000  0.6508444  3
   4536   4534   4546   4552     1  0.0000000  0.6508444  3
   4536   4534   4546   4547     1  0.0000000  0.6508444  3
   4536   4534   4546   4548     1  0.0000000  0.6508444  3
   4537   4540   4549   4550     1  0.0000000  0.6508444  3
   4537   4540   4549   4551     1  0.0000000  0.6508444  3
   4538   4537   4530   4559     1  0.0000000  0.6508444  3
   4538   4537   4540   4549     1  0.0000000  0.6508444  3
   4538   4537   4540   4541     1  0.0000000  0.6508444  3
   4538   4537   4540   4542     1  0.0000000  0.6508444  3
   4539   4537   4530   4559     1  0.0000000  0.6508444  3
   4539   4537   4540   4549     1  0.0000000  0.6508444  3
   4539   4537   4540   4541     1  0.0000000  0.6508444  3
   4539   4537   4540   4542     1  0.0000000  0.6508444  3
   4540   4537   4530   4559     1  0.0000000  0.6508444  3
   4541   4540   4549   4558     1  0.0000000  1.0460000  1
   4541   4540   4549   4558     1  0.0000000  0.0000000  3
   4541   4540   4549   4550     1  0.0000000  0.6508444  3
   4541   4540   4549   4551     1  0.0000000  0.6508444  3
   4542   4540   4549   4558     1  0.0000000  1.0460000  1
   4542   4540   4549   4558     1  0.0000000  0.0000000  3
   4542   4540   4549   4550     1  0.0000000  0.6508444  3
   4542   4540   4549   4551     1  0.0000000  0.6508444  3
   4543   4531   4530   4559     1  0.0000000  0.6508444  3
   4544   4543   4555   7322     1  0.0000000  1.0460000  1
   4544   4543   4555   7322     1  0.0000000  0.0000000  3
   4544   4543   4555   4556     1  0.0000000  0.6508444  3
   4544   4543   4555   4557     1  0.0000000  0.6508444  3
   4545   4543   4555   7322     1  0.0000000  1.0460000  1
   4545   4543   4555   7322     1  0.0000000  0.0000000  3
   4545   4543   4555   4556     1  0.0000000  0.6508444  3
   4545   4543   4555   4557     1  0.0000000  0.6508444  3
   4546   4534   4530   4559     1  0.0000000  0.6508444  3
   4547   4546   4552   7308     1  0.0000000  1.0460000  1
   4547   4546   4552   7308     1  0.0000000  0.0000000  3
   4547   4546   4552   4553     1  0.0000000  0.6508444  3
   4547   4546   4552   4554     1  0.0000000  0.6508444  3
   4548   4546   4552   7308     1  0.0000000  1.0460000  1
   4548   4546   4552   7308     1  0.0000000  0.0000000  3
   4548   4546   4552   4553     1  0.0000000  0.6508444  3
   4548   4546   4552   4554     1  0.0000000  0.6508444  3
   4552   7308   7302   7303     1  0.0000000  1.6038667  3
   4552   7308   7302   7304     1  0.0000000  1.6038667  3
   4553   4552   7308   7302     1  0.0000000  1.6038667  3
   4554   4552   7308   7302     1  0.0000000  1.6038667  3
   4555   7322   7316   7317     1  0.0000000  1.6038667  3
   4555   7322   7316   7318     1  0.0000000  1.6038667  3
   4556   4555   7322   7316     1  0.0000000  1.6038667  3
   4557   4555   7322   7316     1  0.0000000  1.6038667  3
   4560   4561   4573   4574     1  0.0000000  0.6508444  3
   4560   4561   4573   4575     1  0.0000000  0.6508444  3
   4560   4564   4576   4577     1  0.0000000  0.6508444  3
   4560   4564   4576   4578     1  0.0000000  0.6508444  3
   4560   4567   4570   4571     1  0.0000000  0.6508444  3
   4560   4567   4570   4572     1  0.0000000  0.6508444  3
   4561   4560   4564   4565     1  0.0000000  0.6508444  3
   4561   4560   4564   4566     1  0.0000000  0.6508444  3
   4561   4560   4567   4568     1  0.0000000  0.6508444  3
   4561   4560   4567   4569     1  0.0000000  0.6508444  3
   4561   4573   4585   4586     1  0.0000000  0.6508444  3
   4561   4573   4585   4587     1  0.0000000  0.6508444  3
   4562   4561   4560   4564     1  0.0000000  0.6508444  3
   4562   4561   4560   4567     1  0.0000000  0.6508444  3
   4562   4561   4560   4589     1  0.0000000  0.6508444  3
   4562   4561   4573   4585     1  0.0000000  0.6508444  3
   4562   4561   4573   4574     1  0.0000000  0.6508444  3
   4562   4561   4573   4575     1  0.0000000  0.6508444  3
   4563   4561   4560   4564     1  0.0000000  0.6508444  3
   4563   4561   4560   4567     1  0.0000000  0.6508444  3
   4563   4561   4560   4589     1  0.0000000  0.6508444  3
   4563   4561   4573   4585     1  0.0000000  0.6508444  3
   4563   4561   4573   4574     1  0.0000000  0.6508444  3
   4563   4561   4573   4575     1  0.0000000  0.6508444  3
   4564   4560   4567   4568     1  0.0000000  0.6508444  3
   4564   4560   4567   4569     1  0.0000000  0.6508444  3
   4564   4576   4582   4583     1  0.0000000  0.6508444  3
   4564   4576   4582   4584     1  0.0000000  0.6508444  3
   4565   4564   4560   4567     1  0.0000000  0.6508444  3
   4565   4564   4560   4589     1  0.0000000  0.6508444  3
   4565   4564   4576   4582     1  0.0000000  0.6508444  3
   4565   4564   4576   4577     1  0.0000000  0.6508444  3
   4565   4564   4576   4578     1  0.0000000  0.6508444  3
   4566   4564   4560   4567     1  0.0000000  0.6508444  3
   4566   4564   4560   4589     1  0.0000000  0.6508444  3
   4566   4564   4576   4582     1  0.0000000  0.6508444  3
   4566   4564   4576   4577     1  0.0000000  0.6508444  3
   4566   4564   4576   4578     1  0.0000000  0.6508444  3
   4567   4570   4579   4580     1  0.0000000  0.6508444  3
   4567   4570   4579   4581     1  0.0000000  0.6508444  3
   4568   4567   4560   4589     1  0.0000000  0.6508444  3
   4568   4567   4570   4579     1  0.0000000  0.6508444  3
   4568   4567   4570   4571     1  0.0000000  0.6508444  3
   4568   4567   4570   4572     1  0.0000000  0.6508444  3
   4569   4567   4560   4589     1  0.0000000  0.6508444  3
   4569   4567   4570   4579     1  0.0000000  0.6508444  3
   4569   4567   4570   4571     1  0.0000000  0.6508444  3
   4569   4567   4570   4572     1  0.0000000  0.6508444  3
   4570   4567   4560   4589     1  0.0000000  0.6508444  3
   4571   4570   4579   4588     1  0.0000000  1.0460000  1
   4571   4570   4579   4588     1  0.0000000  0.0000000  3
   4571   4570   4579   4580     1  0.0000000  0.6508444  3
   4571   4570   4579   4581     1  0.0000000  0.6508444  3
   4572   4570   4579   4588     1  0.0000000  1.0460000  1
   4572   4570   4579   4588     1  0.0000000  0.0000000  3
   4572   4570   4579   4580     1  0.0000000  0.6508444  3
   4572   4570   4579   4581     1  0.0000000  0.6508444  3
   4573   4561   4560   4589     1  0.0000000  0.6508444  3
   4574   4573   4585   7350     1  0.0000000  1.0460000  1
   4574   4573   4585   7350     1  0.0000000  0.0000000  3
   4574   4573   4585   4586     1  0.0000000  0.6508444  3
   4574   4573   4585   4587     1  0.0000000  0.6508444  3
   4575   4573   4585   7350     1  0.0000000  1.0460000  1
   4575   4573   4585   7350     1  0.0000000  0.0000000  3
   4575   4573   4585   4586     1  0.0000000  0.6508444  3
   4575   4573   4585   4587     1  0.0000000  0.6508444  3
   4576   4564   4560   4589     1  0.0000000  0.6508444  3
   4577   4576   4582   7336     1  0.0000000  1.0460000  1
   4577   4576   4582   7336     1  0.0000000  0.0000000  3
   4577   4576   4582   4583     1  0.0000000  0.6508444  3
   4577   4576   4582   4584     1  0.0000000  0.6508444  3
   4578   4576   4582   7336     1  0.0000000  1.0460000  1
   4578   4576   4582   7336     1  0.0000000  0.0000000  3
   4578   4576   4582   4583     1  0.0000000  0.6508444  3
   4578   4576   4582   4584     1  0.0000000  0.6508444  3
   4582   7336   7330   7331     1  0.0000000  1.6038667  3
   4582   7336   7330   7332     1  0.0000000  1.6038667  3
   4583   4582   7336   7330     1  0.0000000  1.6038667  3
   4584   4582   7336   7330     1  0.0000000  1.6038667  3
   4585   7350   7344   7345     1  0.0000000  1.6038667  3
   4585   7350   7344   7346     1  0.0000000  1.6038667  3
   4586   4585   7350   7344     1  0.0000000  1.6038667  3
   4587   4585   7350   7344     1  0.0000000  1.6038667  3
   4590   4591   4603   4604     1  0.0000000  0.6508444  3
   4590   4591   4603   4605     1  0.0000000  0.6508444  3
   4590   4594   4606   4607     1  0.0000000  0.6508444  3
   4590   4594   4606   4608     1  0.0000000  0.6508444  3
   4590   4597   4600   4601     1  0.0000000  0.6508444  3
   4590   4597   4600   4602     1  0.0000000  0.6508444  3
   4591   4590   4594   4595     1  0.0000000  0.6508444  3
   4591   4590   4594   4596     1  0.0000000  0.6508444  3
   4591   4590   4597   4598     1  0.0000000  0.6508444  3
   4591   4590   4597   4599     1  0.0000000  0.6508444  3
   4591   4603   4615   4616     1  0.0000000  0.6508444  3
   4591   4603   4615   4617     1  0.0000000  0.6508444  3
   4592   4591   4590   4594     1  0.0000000  0.6508444  3
   4592   4591   4590   4597     1  0.0000000  0.6508444  3
   4592   4591   4590   4619     1  0.0000000  0.6508444  3
   4592   4591   4603   4615     1  0.0000000  0.6508444  3
   4592   4591   4603   4604     1  0.0000000  0.6508444  3
   4592   4591   4603   4605     1  0.0000000  0.6508444  3
   4593   4591   4590   4594     1  0.0000000  0.6508444  3
   4593   4591   4590   4597     1  0.0000000  0.6508444  3
   4593   4591   4590   4619     1  0.0000000  0.6508444  3
   4593   4591   4603   4615     1  0.0000000  0.6508444  3
   4593   4591   4603   4604     1  0.0000000  0.6508444  3
   4593   4591   4603   4605     1  0.0000000  0.6508444  3
   4594   4590   4597   4598     1  0.0000000  0.6508444  3
   4594   4590   4597   4599     1  0.0000000  0.6508444  3
   4594   4606   4612   4613     1  0.0000000  0.6508444  3
   4594   4606   4612   4614     1  0.0000000  0.6508444  3
   4595   4594   4590   4597     1  0.0000000  0.6508444  3
   4595   4594   4590   4619     1  0.0000000  0.6508444  3
   4595   4594   4606   4612     1  0.0000000  0.6508444  3
   4595   4594   4606   4607     1  0.0000000  0.6508444  3
   4595   4594   4606   4608     1  0.0000000  0.6508444  3
   4596   4594   4590   4597     1  0.0000000  0.6508444  3
   4596   4594   4590   4619     1  0.0000000  0.6508444  3
   4596   4594   4606   4612     1  0.0000000  0.6508444  3
   4596   4594   4606   4607     1  0.0000000  0.6508444  3
   4596   4594   4606   4608     1  0.0000000  0.6508444  3
   4597   4600   4609   4610     1  0.0000000  0.6508444  3
   4597   4600   4609   4611     1  0.0000000  0.6508444  3
   4598   4597   4590   4619     1  0.0000000  0.6508444  3
   4598   4597   4600   4609     1  0.0000000  0.6508444  3
   4598   4597   4600   4601     1  0.0000000  0.6508444  3
   4598   4597   4600   4602     1  0.0000000  0.6508444  3
   4599   4597   4590   4619     1  0.0000000  0.6508444  3
   4599   4597   4600   4609     1  0.0000000  0.6508444  3
   4599   4597   4600   4601     1  0.0000000  0.6508444  3
   4599   4597   4600   4602     1  0.0000000  0.6508444  3
   4600   4597   4590   4619     1  0.0000000  0.6508444  3
   4601   4600   4609   4618     1  0.0000000  1.0460000  1
   4601   4600   4609   4618     1  0.0000000  0.0000000  3
   4601   4600   4609   4610     1  0.0000000  0.6508444  3
   4601   4600   4609   4611     1  0.0000000  0.6508444  3
   4602   4600   4609   4618     1  0.0000000  1.0460000  1
   4602   4600   4609   4618     1  0.0000000  0.0000000  3
   4602   4600   4609   4610     1  0.0000000  0.6508444  3
   4602   4600   4609   4611     1  0.0000000  0.6508444  3
   4603   4591   4590   4619     1  0.0000000  0.6508444  3
   4604   4603   4615   7378     1  0.0000000  1.0460000  1
   4604   4603   4615   7378     1  0.0000000  0.0000000  3
   4604   4603   4615   4616     1  0.0000000  0.6508444  3
   4604   4603   4615   4617     1  0.0000000  0.6508444  3
   4605   4603   4615   7378     1  0.0000000  1.0460000  1
   4605   4603   4615   7378     1  0.0000000  0.0000000  3
   4605   4603   4615   4616     1  0.0000000  0.6508444  3
   4605   4603   4615   4617     1  0.0000000  0.6508444  3
   4606   4594   4590   4619     1  0.0000000  0.6508444  3
   4607   4606   4612   7364     1  0.0000000  1.0460000  1
   4607   4606   4612   7364     1  0.0000000  0.0000000  3
   4607   4606   4612   4613     1  0.0000000  0.6508444  3
   4607   4606   4612   4614     1  0.0000000  0.6508444  3
   4608   4606   4612   7364     1  0.0000000  1.0460000  1
   4608   4606   4612   7364     1  0.0000000  0.0000000  3
   4608   4606   4612   4613     1  0.0000000  0.6508444  3
   4608   4606   4612   4614     1  0.0000000  0.6508444  3
   4612   7364   7358   7359     1  0.0000000  1.6038667  3
   4612   7364   7358   7360     1  0.0000000  1.6038667  3
   4613   4612   7364   7358     1  0.0000000  1.6038667  3
   4614   4612   7364   7358     1  0.0000000  1.6038667  3
   4615   7378   7372   7373     1  0.0000000  1.6038667  3
   4615   7378   7372   7374     1  0.0000000  1.6038667  3
   4616   4615   7378   7372     1  0.0000000  1.6038667  3
   4617   4615   7378   7372     1  0.0000000  1.6038667  3
   4620   4621   4633   4634     1  0.0000000  0.6508444  3
   4620   4621   4633   4635     1  0.0000000  0.6508444  3
   4620   4624   4636   4637     1  0.0000000  0.6508444  3
   4620   4624   4636   4638     1  0.0000000  0.6508444  3
   4620   4627   4630   4631     1  0.0000000  0.6508444  3
   4620   4627   4630   4632     1  0.0000000  0.6508444  3
   4621   4620   4624   4625     1  0.0000000  0.6508444  3
   4621   4620   4624   4626     1  0.0000000  0.6508444  3
   4621   4620   4627   4628     1  0.0000000  0.6508444  3
   4621   4620   4627   4629     1  0.0000000  0.6508444  3
   4621   4633   4645   4646     1  0.0000000  0.6508444  3
   4621   4633   4645   4647     1  0.0000000  0.6508444  3
   4622   4621   4620   4624     1  0.0000000  0.6508444  3
   4622   4621   4620   4627     1  0.0000000  0.6508444  3
   4622   4621   4620   4649     1  0.0000000  0.6508444  3
   4622   4621   4633   4645     1  0.0000000  0.6508444  3
   4622   4621   4633   4634     1  0.0000000  0.6508444  3
   4622   4621   4633   4635     1  0.0000000  0.6508444  3
   4623   4621   4620   4624     1  0.0000000  0.6508444  3
   4623   4621   4620   4627     1  0.0000000  0.6508444  3
   4623   4621   4620   4649     1  0.0000000  0.6508444  3
   4623   4621   4633   4645     1  0.0000000  0.6508444  3
   4623   4621   4633   4634     1  0.0000000  0.6508444  3
   4623   4621   4633   4635     1  0.0000000  0.6508444  3
   4624   4620   4627   4628     1  0.0000000  0.6508444  3
   4624   4620   4627   4629     1  0.0000000  0.6508444  3
   4624   4636   4642   4643     1  0.0000000  0.6508444  3
   4624   4636   4642   4644     1  0.0000000  0.6508444  3
   4625   4624   4620   4627     1  0.0000000  0.6508444  3
   4625   4624   4620   4649     1  0.0000000  0.6508444  3
   4625   4624   4636   4642     1  0.0000000  0.6508444  3
   4625   4624   4636   4637     1  0.0000000  0.6508444  3
   4625   4624   4636   4638     1  0.0000000  0.6508444  3
   4626   4624   4620   4627     1  0.0000000  0.6508444  3
   4626   4624   4620   4649     1  0.0000000  0.6508444  3
   4626   4624   4636   4642     1  0.0000000  0.6508444  3
   4626   4624   4636   4637     1  0.0000000  0.6508444  3
   4626   4624   4636   4638     1  0.0000000  0.6508444  3
   4627   4630   4639   4640     1  0.0000000  0.6508444  3
   4627   4630   4639   4641     1  0.0000000  0.6508444  3
   4628   4627   4620   4649     1  0.0000000  0.6508444  3
   4628   4627   4630   4639     1  0.0000000  0.6508444  3
   4628   4627   4630   4631     1  0.0000000  0.6508444  3
   4628   4627   4630   4632     1  0.0000000  0.6508444  3
   4629   4627   4620   4649     1  0.0000000  0.6508444  3
   4629   4627   4630   4639     1  0.0000000  0.6508444  3
   4629   4627   4630   4631     1  0.0000000  0.6508444  3
   4629   4627   4630   4632     1  0.0000000  0.6508444  3
   4630   4627   4620   4649     1  0.0000000  0.6508444  3
   4631   4630   4639   4648     1  0.0000000  1.0460000  1
   4631   4630   4639   4648     1  0.0000000  0.0000000  3
   4631   4630   4639   4640     1  0.0000000  0.6508444  3
   4631   4630   4639   4641     1  0.0000000  0.6508444  3
   4632   4630   4639   4648     1  0.0000000  1.0460000  1
   4632   4630   4639   4648     1  0.0000000  0.0000000  3
   4632   4630   4639   4640     1  0.0000000  0.6508444  3
   4632   4630   4639   4641     1  0.0000000  0.6508444  3
   4633   4621   4620   4649     1  0.0000000  0.6508444  3
   4634   4633   4645   7406     1  0.0000000  1.0460000  1
   4634   4633   4645   7406     1  0.0000000  0.0000000  3
   4634   4633   4645   4646     1  0.0000000  0.6508444  3
   4634   4633   4645   4647     1  0.0000000  0.6508444  3
   4635   4633   4645   7406     1  0.0000000  1.0460000  1
   4635   4633   4645   7406     1  0.0000000  0.0000000  3
   4635   4633   4645   4646     1  0.0000000  0.6508444  3
   4635   4633   4645   4647     1  0.0000000  0.6508444  3
   4636   4624   4620   4649     1  0.0000000  0.6508444  3
   4637   4636   4642   7392     1  0.0000000  1.0460000  1
   4637   4636   4642   7392     1  0.0000000  0.0000000  3
   4637   4636   4642   4643     1  0.0000000  0.6508444  3
   4637   4636   4642   4644     1  0.0000000  0.6508444  3
   4638   4636   4642   7392     1  0.0000000  1.0460000  1
   4638   4636   4642   7392     1  0.0000000  0.0000000  3
   4638   4636   4642   4643     1  0.0000000  0.6508444  3
   4638   4636   4642   4644     1  0.0000000  0.6508444  3
   4642   7392   7386   7387     1  0.0000000  1.6038667  3
   4642   7392   7386   7388     1  0.0000000  1.6038667  3
   4643   4642   7392   7386     1  0.0000000  1.6038667  3
   4644   4642   7392   7386     1  0.0000000  1.6038667  3
   4645   7406   7400   7401     1  0.0000000  1.6038667  3
   4645   7406   7400   7402     1  0.0000000  1.6038667  3
   4646   4645   7406   7400     1  0.0000000  1.6038667  3
   4647   4645   7406   7400     1  0.0000000  1.6038667  3
   4650   4651   4663   4664     1  0.0000000  0.6508444  3
   4650   4651   4663   4665     1  0.0000000  0.6508444  3
   4650   4654   4666   4667     1  0.0000000  0.6508444  3
   4650   4654   4666   4668     1  0.0000000  0.6508444  3
   4650   4657   4660   4661     1  0.0000000  0.6508444  3
   4650   4657   4660   4662     1  0.0000000  0.6508444  3
   4651   4650   4654   4655     1  0.0000000  0.6508444  3
   4651   4650   4654   4656     1  0.0000000  0.6508444  3
   4651   4650   4657   4658     1  0.0000000  0.6508444  3
   4651   4650   4657   4659     1  0.0000000  0.6508444  3
   4651   4663   4675   4676     1  0.0000000  0.6508444  3
   4651   4663   4675   4677     1  0.0000000  0.6508444  3
   4652   4651   4650   4654     1  0.0000000  0.6508444  3
   4652   4651   4650   4657     1  0.0000000  0.6508444  3
   4652   4651   4650   4679     1  0.0000000  0.6508444  3
   4652   4651   4663   4675     1  0.0000000  0.6508444  3
   4652   4651   4663   4664     1  0.0000000  0.6508444  3
   4652   4651   4663   4665     1  0.0000000  0.6508444  3
   4653   4651   4650   4654     1  0.0000000  0.6508444  3
   4653   4651   4650   4657     1  0.0000000  0.6508444  3
   4653   4651   4650   4679     1  0.0000000  0.6508444  3
   4653   4651   4663   4675     1  0.0000000  0.6508444  3
   4653   4651   4663   4664     1  0.0000000  0.6508444  3
   4653   4651   4663   4665     1  0.0000000  0.6508444  3
   4654   4650   4657   4658     1  0.0000000  0.6508444  3
   4654   4650   4657   4659     1  0.0000000  0.6508444  3
   4654   4666   4672   4673     1  0.0000000  0.6508444  3
   4654   4666   4672   4674     1  0.0000000  0.6508444  3
   4655   4654   4650   4657     1  0.0000000  0.6508444  3
   4655   4654   4650   4679     1  0.0000000  0.6508444  3
   4655   4654   4666   4672     1  0.0000000  0.6508444  3
   4655   4654   4666   4667     1  0.0000000  0.6508444  3
   4655   4654   4666   4668     1  0.0000000  0.6508444  3
   4656   4654   4650   4657     1  0.0000000  0.6508444  3
   4656   4654   4650   4679     1  0.0000000  0.6508444  3
   4656   4654   4666   4672     1  0.0000000  0.6508444  3
   4656   4654   4666   4667     1  0.0000000  0.6508444  3
   4656   4654   4666   4668     1  0.0000000  0.6508444  3
   4657   4660   4669   4670     1  0.0000000  0.6508444  3
   4657   4660   4669   4671     1  0.0000000  0.6508444  3
   4658   4657   4650   4679     1  0.0000000  0.6508444  3
   4658   4657   4660   4669     1  0.0000000  0.6508444  3
   4658   4657   4660   4661     1  0.0000000  0.6508444  3
   4658   4657   4660   4662     1  0.0000000  0.6508444  3
   4659   4657   4650   4679     1  0.0000000  0.6508444  3
   4659   4657   4660   4669     1  0.0000000  0.6508444  3
   4659   4657   4660   4661     1  0.0000000  0.6508444  3
   4659   4657   4660   4662     1  0.0000000  0.6508444  3
   4660   4657   4650   4679     1  0.0000000  0.6508444  3
   4661   4660   4669   4678     1  0.0000000  1.0460000  1
   4661   4660   4669   4678     1  0.0000000  0.0000000  3
   4661   4660   4669   4670     1  0.0000000  0.6508444  3
   4661   4660   4669   4671     1  0.0000000  0.6508444  3
   4662   4660   4669   4678     1  0.0000000  1.0460000  1
   4662   4660   4669   4678     1  0.0000000  0.0000000  3
   4662   4660   4669   4670     1  0.0000000  0.6508444  3
   4662   4660   4669   4671     1  0.0000000  0.6508444  3
   4663   4651   4650   4679     1  0.0000000  0.6508444  3
   4664   4663   4675   7434     1  0.0000000  1.0460000  1
   4664   4663   4675   7434     1  0.0000000  0.0000000  3
   4664   4663   4675   4676     1  0.0000000  0.6508444  3
   4664   4663   4675   4677     1  0.0000000  0.6508444  3
   4665   4663   4675   7434     1  0.0000000  1.0460000  1
   4665   4663   4675   7434     1  0.0000000  0.0000000  3
   4665   4663   4675   4676     1  0.0000000  0.6508444  3
   4665   4663   4675   4677     1  0.0000000  0.6508444  3
   4666   4654   4650   4679     1  0.0000000  0.6508444  3
   4667   4666   4672   7420     1  0.0000000  1.0460000  1
   4667   4666   4672   7420     1  0.0000000  0.0000000  3
   4667   4666   4672   4673     1  0.0000000  0.6508444  3
   4667   4666   4672   4674     1  0.0000000  0.6508444  3
   4668   4666   4672   7420     1  0.0000000  1.0460000  1
   4668   4666   4672   7420     1  0.0000000  0.0000000  3
   4668   4666   4672   4673     1  0.0000000  0.6508444  3
   4668   4666   4672   4674     1  0.0000000  0.6508444  3
   4672   7420   7414   7415     1  0.0000000  1.6038667  3
   4672   7420   7414   7416     1  0.0000000  1.6038667  3
   4673   4672   7420   7414     1  0.0000000  1.6038667  3
   4674   4672   7420   7414     1  0.0000000  1.6038667  3
   4675   7434   7428   7429     1  0.0000000  1.6038667  3
   4675   7434   7428   7430     1  0.0000000  1.6038667  3
   4676   4675   7434   7428     1  0.0000000  1.6038667  3
   4677   4675   7434   7428     1  0.0000000  1.6038667  3
   4680   4681   4693   4694     1  0.0000000  0.6508444  3
   4680   4681   4693   4695     1  0.0000000  0.6508444  3
   4680   4684   4696   4697     1  0.0000000  0.6508444  3
   4680   4684   4696   4698     1  0.0000000  0.6508444  3
   4680   4687   4690   4691     1  0.0000000  0.6508444  3
   4680   4687   4690   4692     1  0.0000000  0.6508444  3
   4681   4680   4684   4685     1  0.0000000  0.6508444  3
   4681   4680   4684   4686     1  0.0000000  0.6508444  3
   4681   4680   4687   4688     1  0.0000000  0.6508444  3
   4681   4680   4687   4689     1  0.0000000  0.6508444  3
   4681   4693   4705   4706     1  0.0000000  0.6508444  3
   4681   4693   4705   4707     1  0.0000000  0.6508444  3
   4682   4681   4680   4684     1  0.0000000  0.6508444  3
   4682   4681   4680   4687     1  0.0000000  0.6508444  3
   4682   4681   4680   4709     1  0.0000000  0.6508444  3
   4682   4681   4693   4705     1  0.0000000  0.6508444  3
   4682   4681   4693   4694     1  0.0000000  0.6508444  3
   4682   4681   4693   4695     1  0.0000000  0.6508444  3
   4683   4681   4680   4684     1  0.0000000  0.6508444  3
   4683   4681   4680   4687     1  0.0000000  0.6508444  3
   4683   4681   4680   4709     1  0.0000000  0.6508444  3
   4683   4681   4693   4705     1  0.0000000  0.6508444  3
   4683   4681   4693   4694     1  0.0000000  0.6508444  3
   4683   4681   4693   4695     1  0.0000000  0.6508444  3
   4684   4680   4687   4688     1  0.0000000  0.6508444  3
   4684   4680   4687   4689     1  0.0000000  0.6508444  3
   4684   4696   4702   4703     1  0.0000000  0.6508444  3
   4684   4696   4702   4704     1  0.0000000  0.6508444  3
   4685   4684   4680   4687     1  0.0000000  0.6508444  3
   4685   4684   4680   4709     1  0.0000000  0.6508444  3
   4685   4684   4696   4702     1  0.0000000  0.6508444  3
   4685   4684   4696   4697     1  0.0000000  0.6508444  3
   4685   4684   4696   4698     1  0.0000000  0.6508444  3
   4686   4684   4680   4687     1  0.0000000  0.6508444  3
   4686   4684   4680   4709     1  0.0000000  0.6508444  3
   4686   4684   4696   4702     1  0.0000000  0.6508444  3
   4686   4684   4696   4697     1  0.0000000  0.6508444  3
   4686   4684   4696   4698     1  0.0000000  0.6508444  3
   4687   4690   4699   4700     1  0.0000000  0.6508444  3
   4687   4690   4699   4701     1  0.0000000  0.6508444  3
   4688   4687   4680   4709     1  0.0000000  0.6508444  3
   4688   4687   4690   4699     1  0.0000000  0.6508444  3
   4688   4687   4690   4691     1  0.0000000  0.6508444  3
   4688   4687   4690   4692     1  0.0000000  0.6508444  3
   4689   4687   4680   4709     1  0.0000000  0.6508444  3
   4689   4687   4690   4699     1  0.0000000  0.6508444  3
   4689   4687   4690   4691     1  0.0000000  0.6508444  3
   4689   4687   4690   4692     1  0.0000000  0.6508444  3
   4690   4687   4680   4709     1  0.0000000  0.6508444  3
   4691   4690   4699   4708     1  0.0000000  1.0460000  1
   4691   4690   4699   4708     1  0.0000000  0.0000000  3
   4691   4690   4699   4700     1  0.0000000  0.6508444  3
   4691   4690   4699   4701     1  0.0000000  0.6508444  3
   4692   4690   4699   4708     1  0.0000000  1.0460000  1
   4692   4690   4699   4708     1  0.0000000  0.0000000  3
   4692   4690   4699   4700     1  0.0000000  0.6508444  3
   4692   4690   4699   4701     1  0.0000000  0.6508444  3
   4693   4681   4680   4709     1  0.0000000  0.6508444  3
   4694   4693   4705   7462     1  0.0000000  1.0460000  1
   4694   4693   4705   7462     1  0.0000000  0.0000000  3
   4694   4693   4705   4706     1  0.0000000  0.6508444  3
   4694   4693   4705   4707     1  0.0000000  0.6508444  3
   4695   4693   4705   7462     1  0.0000000  1.0460000  1
   4695   4693   4705   7462     1  0.0000000  0.0000000  3
   4695   4693   4705   4706     1  0.0000000  0.6508444  3
   4695   4693   4705   4707     1  0.0000000  0.6508444  3
   4696   4684   4680   4709     1  0.0000000  0.6508444  3
   4697   4696   4702   7448     1  0.0000000  1.0460000  1
   4697   4696   4702   7448     1  0.0000000  0.0000000  3
   4697   4696   4702   4703     1  0.0000000  0.6508444  3
   4697   4696   4702   4704     1  0.0000000  0.6508444  3
   4698   4696   4702   7448     1  0.0000000  1.0460000  1
   4698   4696   4702   7448     1  0.0000000  0.0000000  3
   4698   4696   4702   4703     1  0.0000000  0.6508444  3
   4698   4696   4702   4704     1  0.0000000  0.6508444  3
   4702   7448   7442   7443     1  0.0000000  1.6038667  3
   4702   7448   7442   7444     1  0.0000000  1.6038667  3
   4703   4702   7448   7442     1  0.0000000  1.6038667  3
   4704   4702   7448   7442     1  0.0000000  1.6038667  3
   4705   7462   7456   7457     1  0.0000000  1.6038667  3
   4705   7462   7456   7458     1  0.0000000  1.6038667  3
   4706   4705   7462   7456     1  0.0000000  1.6038667  3
   4707   4705   7462   7456     1  0.0000000  1.6038667  3
   4710   4711   4723   4724     1  0.0000000  0.6508444  3
   4710   4711   4723   4725     1  0.0000000  0.6508444  3
   4710   4714   4726   4727     1  0.0000000  0.6508444  3
   4710   4714   4726   4728     1  0.0000000  0.6508444  3
   4710   4717   4720   4721     1  0.0000000  0.6508444  3
   4710   4717   4720   4722     1  0.0000000  0.6508444  3
   4711   4710   4714   4715     1  0.0000000  0.6508444  3
   4711   4710   4714   4716     1  0.0000000  0.6508444  3
   4711   4710   4717   4718     1  0.0000000  0.6508444  3
   4711   4710   4717   4719     1  0.0000000  0.6508444  3
   4711   4723   4735   4736     1  0.0000000  0.6508444  3
   4711   4723   4735   4737     1  0.0000000  0.6508444  3
   4712   4711   4710   4714     1  0.0000000  0.6508444  3
   4712   4711   4710   4717     1  0.0000000  0.6508444  3
   4712   4711   4710   4739     1  0.0000000  0.6508444  3
   4712   4711   4723   4735     1  0.0000000  0.6508444  3
   4712   4711   4723   4724     1  0.0000000  0.6508444  3
   4712   4711   4723   4725     1  0.0000000  0.6508444  3
   4713   4711   4710   4714     1  0.0000000  0.6508444  3
   4713   4711   4710   4717     1  0.0000000  0.6508444  3
   4713   4711   4710   4739     1  0.0000000  0.6508444  3
   4713   4711   4723   4735     1  0.0000000  0.6508444  3
   4713   4711   4723   4724     1  0.0000000  0.6508444  3
   4713   4711   4723   4725     1  0.0000000  0.6508444  3
   4714   4710   4717   4718     1  0.0000000  0.6508444  3
   4714   4710   4717   4719     1  0.0000000  0.6508444  3
   4714   4726   4732   4733     1  0.0000000  0.6508444  3
   4714   4726   4732   4734     1  0.0000000  0.6508444  3
   4715   4714   4710   4717     1  0.0000000  0.6508444  3
   4715   4714   4710   4739     1  0.0000000  0.6508444  3
   4715   4714   4726   4732     1  0.0000000  0.6508444  3
   4715   4714   4726   4727     1  0.0000000  0.6508444  3
   4715   4714   4726   4728     1  0.0000000  0.6508444  3
   4716   4714   4710   4717     1  0.0000000  0.6508444  3
   4716   4714   4710   4739     1  0.0000000  0.6508444  3
   4716   4714   4726   4732     1  0.0000000  0.6508444  3
   4716   4714   4726   4727     1  0.0000000  0.6508444  3
   4716   4714   4726   4728     1  0.0000000  0.6508444  3
   4717   4720   4729   4730     1  0.0000000  0.6508444  3
   4717   4720   4729   4731     1  0.0000000  0.6508444  3
   4718   4717   4710   4739     1  0.0000000  0.6508444  3
   4718   4717   4720   4729     1  0.0000000  0.6508444  3
   4718   4717   4720   4721     1  0.0000000  0.6508444  3
   4718   4717   4720   4722     1  0.0000000  0.6508444  3
   4719   4717   4710   4739     1  0.0000000  0.6508444  3
   4719   4717   4720   4729     1  0.0000000  0.6508444  3
   4719   4717   4720   4721     1  0.0000000  0.6508444  3
   4719   4717   4720   4722     1  0.0000000  0.6508444  3
   4720   4717   4710   4739     1  0.0000000  0.6508444  3
   4721   4720   4729   4738     1  0.0000000  1.0460000  1
   4721   4720   4729   4738     1  0.0000000  0.0000000  3
   4721   4720   4729   4730     1  0.0000000  0.6508444  3
   4721   4720   4729   4731     1  0.0000000  0.6508444  3
   4722   4720   4729   4738     1  0.0000000  1.0460000  1
   4722   4720   4729   4738     1  0.0000000  0.0000000  3
   4722   4720   4729   4730     1  0.0000000  0.6508444  3
   4722   4720   4729   4731     1  0.0000000  0.6508444  3
   4723   4711   4710   4739     1  0.0000000  0.6508444  3
   4724   4723   4735   7490     1  0.0000000  1.0460000  1
   4724   4723   4735   7490     1  0.0000000  0.0000000  3
   4724   4723   4735   4736     1  0.0000000  0.6508444  3
   4724   4723   4735   4737     1  0.0000000  0.6508444  3
   4725   4723   4735   7490     1  0.0000000  1.0460000  1
   4725   4723   4735   7490     1  0.0000000  0.0000000  3
   4725   4723   4735   4736     1  0.0000000  0.6508444  3
   4725   4723   4735   4737     1  0.0000000  0.6508444  3
   4726   4714   4710   4739     1  0.0000000  0.6508444  3
   4727   4726   4732   7476     1  0.0000000  1.0460000  1
   4727   4726   4732   7476     1  0.0000000  0.0000000  3
   4727   4726   4732   4733     1  0.0000000  0.6508444  3
   4727   4726   4732   4734     1  0.0000000  0.6508444  3
   4728   4726   4732   7476     1  0.0000000  1.0460000  1
   4728   4726   4732   7476     1  0.0000000  0.0000000  3
   4728   4726   4732   4733     1  0.0000000  0.6508444  3
   4728   4726   4732   4734     1  0.0000000  0.6508444  3
   4732   7476   7470   7471     1  0.0000000  1.6038667  3
   4732   7476   7470   7472     1  0.0000000  1.6038667  3
   4733   4732   7476   7470     1  0.0000000  1.6038667  3
   4734   4732   7476   7470     1  0.0000000  1.6038667  3
   4735   7490   7484   7485     1  0.0000000  1.6038667  3
   4735   7490   7484   7486     1  0.0000000  1.6038667  3
   4736   4735   7490   7484     1  0.0000000  1.6038667  3
   4737   4735   7490   7484     1  0.0000000  1.6038667  3
   4740   4741   4753   4754     1  0.0000000  0.6508444  3
   4740   4741   4753   4755     1  0.0000000  0.6508444  3
   4740   4744   4756   4757     1  0.0000000  0.6508444  3
   4740   4744   4756   4758     1  0.0000000  0.6508444  3
   4740   4747   4750   4751     1  0.0000000  0.6508444  3
   4740   4747   4750   4752     1  0.0000000  0.6508444  3
   4741   4740   4744   4745     1  0.0000000  0.6508444  3
   4741   4740   4744   4746     1  0.0000000  0.6508444  3
   4741   4740   4747   4748     1  0.0000000  0.6508444  3
   4741   4740   4747   4749     1  0.0000000  0.6508444  3
   4741   4753   4765   4766     1  0.0000000  0.6508444  3
   4741   4753   4765   4767     1  0.0000000  0.6508444  3
   4742   4741   4740   4744     1  0.0000000  0.6508444  3
   4742   4741   4740   4747     1  0.0000000  0.6508444  3
   4742   4741   4740   4769     1  0.0000000  0.6508444  3
   4742   4741   4753   4765     1  0.0000000  0.6508444  3
   4742   4741   4753   4754     1  0.0000000  0.6508444  3
   4742   4741   4753   4755     1  0.0000000  0.6508444  3
   4743   4741   4740   4744     1  0.0000000  0.6508444  3
   4743   4741   4740   4747     1  0.0000000  0.6508444  3
   4743   4741   4740   4769     1  0.0000000  0.6508444  3
   4743   4741   4753   4765     1  0.0000000  0.6508444  3
   4743   4741   4753   4754     1  0.0000000  0.6508444  3
   4743   4741   4753   4755     1  0.0000000  0.6508444  3
   4744   4740   4747   4748     1  0.0000000  0.6508444  3
   4744   4740   4747   4749     1  0.0000000  0.6508444  3
   4744   4756   4762   4763     1  0.0000000  0.6508444  3
   4744   4756   4762   4764     1  0.0000000  0.6508444  3
   4745   4744   4740   4747     1  0.0000000  0.6508444  3
   4745   4744   4740   4769     1  0.0000000  0.6508444  3
   4745   4744   4756   4762     1  0.0000000  0.6508444  3
   4745   4744   4756   4757     1  0.0000000  0.6508444  3
   4745   4744   4756   4758     1  0.0000000  0.6508444  3
   4746   4744   4740   4747     1  0.0000000  0.6508444  3
   4746   4744   4740   4769     1  0.0000000  0.6508444  3
   4746   4744   4756   4762     1  0.0000000  0.6508444  3
   4746   4744   4756   4757     1  0.0000000  0.6508444  3
   4746   4744   4756   4758     1  0.0000000  0.6508444  3
   4747   4750   4759   4760     1  0.0000000  0.6508444  3
   4747   4750   4759   4761     1  0.0000000  0.6508444  3
   4748   4747   4740   4769     1  0.0000000  0.6508444  3
   4748   4747   4750   4759     1  0.0000000  0.6508444  3
   4748   4747   4750   4751     1  0.0000000  0.6508444  3
   4748   4747   4750   4752     1  0.0000000  0.6508444  3
   4749   4747   4740   4769     1  0.0000000  0.6508444  3
   4749   4747   4750   4759     1  0.0000000  0.6508444  3
   4749   4747   4750   4751     1  0.0000000  0.6508444  3
   4749   4747   4750   4752     1  0.0000000  0.6508444  3
   4750   4747   4740   4769     1  0.0000000  0.6508444  3
   4751   4750   4759   4768     1  0.0000000  1.0460000  1
   4751   4750   4759   4768     1  0.0000000  0.0000000  3
   4751   4750   4759   4760     1  0.0000000  0.6508444  3
   4751   4750   4759   4761     1  0.0000000  0.6508444  3
   4752   4750   4759   4768     1  0.0000000  1.0460000  1
   4752   4750   4759   4768     1  0.0000000  0.0000000  3
   4752   4750   4759   4760     1  0.0000000  0.6508444  3
   4752   4750   4759   4761     1  0.0000000  0.6508444  3
   4753   4741   4740   4769     1  0.0000000  0.6508444  3
   4754   4753   4765   7518     1  0.0000000  1.0460000  1
   4754   4753   4765   7518     1  0.0000000  0.0000000  3
   4754   4753   4765   4766     1  0.0000000  0.6508444  3
   4754   4753   4765   4767     1  0.0000000  0.6508444  3
   4755   4753   4765   7518     1  0.0000000  1.0460000  1
   4755   4753   4765   7518     1  0.0000000  0.0000000  3
   4755   4753   4765   4766     1  0.0000000  0.6508444  3
   4755   4753   4765   4767     1  0.0000000  0.6508444  3
   4756   4744   4740   4769     1  0.0000000  0.6508444  3
   4757   4756   4762   7504     1  0.0000000  1.0460000  1
   4757   4756   4762   7504     1  0.0000000  0.0000000  3
   4757   4756   4762   4763     1  0.0000000  0.6508444  3
   4757   4756   4762   4764     1  0.0000000  0.6508444  3
   4758   4756   4762   7504     1  0.0000000  1.0460000  1
   4758   4756   4762   7504     1  0.0000000  0.0000000  3
   4758   4756   4762   4763     1  0.0000000  0.6508444  3
   4758   4756   4762   4764     1  0.0000000  0.6508444  3
   4762   7504   7498   7499     1  0.0000000  1.6038667  3
   4762   7504   7498   7500     1  0.0000000  1.6038667  3
   4763   4762   7504   7498     1  0.0000000  1.6038667  3
   4764   4762   7504   7498     1  0.0000000  1.6038667  3
   4765   7518   7512   7513     1  0.0000000  1.6038667  3
   4765   7518   7512   7514     1  0.0000000  1.6038667  3
   4766   4765   7518   7512     1  0.0000000  1.6038667  3
   4767   4765   7518   7512     1  0.0000000  1.6038667  3
   4770   4771   4783   4784     1  0.0000000  0.6508444  3
   4770   4771   4783   4785     1  0.0000000  0.6508444  3
   4770   4774   4786   4787     1  0.0000000  0.6508444  3
   4770   4774   4786   4788     1  0.0000000  0.6508444  3
   4770   4777   4780   4781     1  0.0000000  0.6508444  3
   4770   4777   4780   4782     1  0.0000000  0.6508444  3
   4771   4770   4774   4775     1  0.0000000  0.6508444  3
   4771   4770   4774   4776     1  0.0000000  0.6508444  3
   4771   4770   4777   4778     1  0.0000000  0.6508444  3
   4771   4770   4777   4779     1  0.0000000  0.6508444  3
   4771   4783   4795   4796     1  0.0000000  0.6508444  3
   4771   4783   4795   4797     1  0.0000000  0.6508444  3
   4772   4771   4770   4774     1  0.0000000  0.6508444  3
   4772   4771   4770   4777     1  0.0000000  0.6508444  3
   4772   4771   4770   4799     1  0.0000000  0.6508444  3
   4772   4771   4783   4795     1  0.0000000  0.6508444  3
   4772   4771   4783   4784     1  0.0000000  0.6508444  3
   4772   4771   4783   4785     1  0.0000000  0.6508444  3
   4773   4771   4770   4774     1  0.0000000  0.6508444  3
   4773   4771   4770   4777     1  0.0000000  0.6508444  3
   4773   4771   4770   4799     1  0.0000000  0.6508444  3
   4773   4771   4783   4795     1  0.0000000  0.6508444  3
   4773   4771   4783   4784     1  0.0000000  0.6508444  3
   4773   4771   4783   4785     1  0.0000000  0.6508444  3
   4774   4770   4777   4778     1  0.0000000  0.6508444  3
   4774   4770   4777   4779     1  0.0000000  0.6508444  3
   4774   4786   4792   4793     1  0.0000000  0.6508444  3
   4774   4786   4792   4794     1  0.0000000  0.6508444  3
   4775   4774   4770   4777     1  0.0000000  0.6508444  3
   4775   4774   4770   4799     1  0.0000000  0.6508444  3
   4775   4774   4786   4792     1  0.0000000  0.6508444  3
   4775   4774   4786   4787     1  0.0000000  0.6508444  3
   4775   4774   4786   4788     1  0.0000000  0.6508444  3
   4776   4774   4770   4777     1  0.0000000  0.6508444  3
   4776   4774   4770   4799     1  0.0000000  0.6508444  3
   4776   4774   4786   4792     1  0.0000000  0.6508444  3
   4776   4774   4786   4787     1  0.0000000  0.6508444  3
   4776   4774   4786   4788     1  0.0000000  0.6508444  3
   4777   4780   4789   4790     1  0.0000000  0.6508444  3
   4777   4780   4789   4791     1  0.0000000  0.6508444  3
   4778   4777   4770   4799     1  0.0000000  0.6508444  3
   4778   4777   4780   4789     1  0.0000000  0.6508444  3
   4778   4777   4780   4781     1  0.0000000  0.6508444  3
   4778   4777   4780   4782     1  0.0000000  0.6508444  3
   4779   4777   4770   4799     1  0.0000000  0.6508444  3
   4779   4777   4780   4789     1  0.0000000  0.6508444  3
   4779   4777   4780   4781     1  0.0000000  0.6508444  3
   4779   4777   4780   4782     1  0.0000000  0.6508444  3
   4780   4777   4770   4799     1  0.0000000  0.6508444  3
   4781   4780   4789   4798     1  0.0000000  1.0460000  1
   4781   4780   4789   4798     1  0.0000000  0.0000000  3
   4781   4780   4789   4790     1  0.0000000  0.6508444  3
   4781   4780   4789   4791     1  0.0000000  0.6508444  3
   4782   4780   4789   4798     1  0.0000000  1.0460000  1
   4782   4780   4789   4798     1  0.0000000  0.0000000  3
   4782   4780   4789   4790     1  0.0000000  0.6508444  3
   4782   4780   4789   4791     1  0.0000000  0.6508444  3
   4783   4771   4770   4799     1  0.0000000  0.6508444  3
   4784   4783   4795   7546     1  0.0000000  1.0460000  1
   4784   4783   4795   7546     1  0.0000000  0.0000000  3
   4784   4783   4795   4796     1  0.0000000  0.6508444  3
   4784   4783   4795   4797     1  0.0000000  0.6508444  3
   4785   4783   4795   7546     1  0.0000000  1.0460000  1
   4785   4783   4795   7546     1  0.0000000  0.0000000  3
   4785   4783   4795   4796     1  0.0000000  0.6508444  3
   4785   4783   4795   4797     1  0.0000000  0.6508444  3
   4786   4774   4770   4799     1  0.0000000  0.6508444  3
   4787   4786   4792   7532     1  0.0000000  1.0460000  1
   4787   4786   4792   7532     1  0.0000000  0.0000000  3
   4787   4786   4792   4793     1  0.0000000  0.6508444  3
   4787   4786   4792   4794     1  0.0000000  0.6508444  3
   4788   4786   4792   7532     1  0.0000000  1.0460000  1
   4788   4786   4792   7532     1  0.0000000  0.0000000  3
   4788   4786   4792   4793     1  0.0000000  0.6508444  3
   4788   4786   4792   4794     1  0.0000000  0.6508444  3
   4792   7532   7526   7527     1  0.0000000  1.6038667  3
   4792   7532   7526   7528     1  0.0000000  1.6038667  3
   4793   4792   7532   7526     1  0.0000000  1.6038667  3
   4794   4792   7532   7526     1  0.0000000  1.6038667  3
   4795   7546   7540   7541     1  0.0000000  1.6038667  3
   4795   7546   7540   7542     1  0.0000000  1.6038667  3
   4796   4795   7546   7540     1  0.0000000  1.6038667  3
   4797   4795   7546   7540     1  0.0000000  1.6038667  3
   4800   4801   4813   4814     1  0.0000000  0.6508444  3
   4800   4801   4813   4815     1  0.0000000  0.6508444  3
   4800   4804   4816   4817     1  0.0000000  0.6508444  3
   4800   4804   4816   4818     1  0.0000000  0.6508444  3
   4800   4807   4810   4811     1  0.0000000  0.6508444  3
   4800   4807   4810   4812     1  0.0000000  0.6508444  3
   4801   4800   4804   4805     1  0.0000000  0.6508444  3
   4801   4800   4804   4806     1  0.0000000  0.6508444  3
   4801   4800   4807   4808     1  0.0000000  0.6508444  3
   4801   4800   4807   4809     1  0.0000000  0.6508444  3
   4801   4813   4825   4826     1  0.0000000  0.6508444  3
   4801   4813   4825   4827     1  0.0000000  0.6508444  3
   4802   4801   4800   4804     1  0.0000000  0.6508444  3
   4802   4801   4800   4807     1  0.0000000  0.6508444  3
   4802   4801   4800   4829     1  0.0000000  0.6508444  3
   4802   4801   4813   4825     1  0.0000000  0.6508444  3
   4802   4801   4813   4814     1  0.0000000  0.6508444  3
   4802   4801   4813   4815     1  0.0000000  0.6508444  3
   4803   4801   4800   4804     1  0.0000000  0.6508444  3
   4803   4801   4800   4807     1  0.0000000  0.6508444  3
   4803   4801   4800   4829     1  0.0000000  0.6508444  3
   4803   4801   4813   4825     1  0.0000000  0.6508444  3
   4803   4801   4813   4814     1  0.0000000  0.6508444  3
   4803   4801   4813   4815     1  0.0000000  0.6508444  3
   4804   4800   4807   4808     1  0.0000000  0.6508444  3
   4804   4800   4807   4809     1  0.0000000  0.6508444  3
   4804   4816   4822   4823     1  0.0000000  0.6508444  3
   4804   4816   4822   4824     1  0.0000000  0.6508444  3
   4805   4804   4800   4807     1  0.0000000  0.6508444  3
   4805   4804   4800   4829     1  0.0000000  0.6508444  3
   4805   4804   4816   4822     1  0.0000000  0.6508444  3
   4805   4804   4816   4817     1  0.0000000  0.6508444  3
   4805   4804   4816   4818     1  0.0000000  0.6508444  3
   4806   4804   4800   4807     1  0.0000000  0.6508444  3
   4806   4804   4800   4829     1  0.0000000  0.6508444  3
   4806   4804   4816   4822     1  0.0000000  0.6508444  3
   4806   4804   4816   4817     1  0.0000000  0.6508444  3
   4806   4804   4816   4818     1  0.0000000  0.6508444  3
   4807   4810   4819   4820     1  0.0000000  0.6508444  3
   4807   4810   4819   4821     1  0.0000000  0.6508444  3
   4808   4807   4800   4829     1  0.0000000  0.6508444  3
   4808   4807   4810   4819     1  0.0000000  0.6508444  3
   4808   4807   4810   4811     1  0.0000000  0.6508444  3
   4808   4807   4810   4812     1  0.0000000  0.6508444  3
   4809   4807   4800   4829     1  0.0000000  0.6508444  3
   4809   4807   4810   4819     1  0.0000000  0.6508444  3
   4809   4807   4810   4811     1  0.0000000  0.6508444  3
   4809   4807   4810   4812     1  0.0000000  0.6508444  3
   4810   4807   4800   4829     1  0.0000000  0.6508444  3
   4811   4810   4819   4828     1  0.0000000  1.0460000  1
   4811   4810   4819   4828     1  0.0000000  0.0000000  3
   4811   4810   4819   4820     1  0.0000000  0.6508444  3
   4811   4810   4819   4821     1  0.0000000  0.6508444  3
   4812   4810   4819   4828     1  0.0000000  1.0460000  1
   4812   4810   4819   4828     1  0.0000000  0.0000000  3
   4812   4810   4819   4820     1  0.0000000  0.6508444  3
   4812   4810   4819   4821     1  0.0000000  0.6508444  3
   4813   4801   4800   4829     1  0.0000000  0.6508444  3
   4814   4813   4825   7574     1  0.0000000  1.0460000  1
   4814   4813   4825   7574     1  0.0000000  0.0000000  3
   4814   4813   4825   4826     1  0.0000000  0.6508444  3
   4814   4813   4825   4827     1  0.0000000  0.6508444  3
   4815   4813   4825   7574     1  0.0000000  1.0460000  1
   4815   4813   4825   7574     1  0.0000000  0.0000000  3
   4815   4813   4825   4826     1  0.0000000  0.6508444  3
   4815   4813   4825   4827     1  0.0000000  0.6508444  3
   4816   4804   4800   4829     1  0.0000000  0.6508444  3
   4817   4816   4822   7560     1  0.0000000  1.0460000  1
   4817   4816   4822   7560     1  0.0000000  0.0000000  3
   4817   4816   4822   4823     1  0.0000000  0.6508444  3
   4817   4816   4822   4824     1  0.0000000  0.6508444  3
   4818   4816   4822   7560     1  0.0000000  1.0460000  1
   4818   4816   4822   7560     1  0.0000000  0.0000000  3
   4818   4816   4822   4823     1  0.0000000  0.6508444  3
   4818   4816   4822   4824     1  0.0000000  0.6508444  3
   4822   7560   7554   7555     1  0.0000000  1.6038667  3
   4822   7560   7554   7556     1  0.0000000  1.6038667  3
   4823   4822   7560   7554     1  0.0000000  1.6038667  3
   4824   4822   7560   7554     1  0.0000000  1.6038667  3
   4825   7574   7568   7569     1  0.0000000  1.6038667  3
   4825   7574   7568   7570     1  0.0000000  1.6038667  3
   4826   4825   7574   7568     1  0.0000000  1.6038667  3
   4827   4825   7574   7568     1  0.0000000  1.6038667  3
   4830   4831   4843   4844     1  0.0000000  0.6508444  3
   4830   4831   4843   4845     1  0.0000000  0.6508444  3
   4830   4834   4846   4847     1  0.0000000  0.6508444  3
   4830   4834   4846   4848     1  0.0000000  0.6508444  3
   4830   4837   4840   4841     1  0.0000000  0.6508444  3
   4830   4837   4840   4842     1  0.0000000  0.6508444  3
   4831   4830   4834   4835     1  0.0000000  0.6508444  3
   4831   4830   4834   4836     1  0.0000000  0.6508444  3
   4831   4830   4837   4838     1  0.0000000  0.6508444  3
   4831   4830   4837   4839     1  0.0000000  0.6508444  3
   4831   4843   4855   4856     1  0.0000000  0.6508444  3
   4831   4843   4855   4857     1  0.0000000  0.6508444  3
   4832   4831   4830   4834     1  0.0000000  0.6508444  3
   4832   4831   4830   4837     1  0.0000000  0.6508444  3
   4832   4831   4830   4859     1  0.0000000  0.6508444  3
   4832   4831   4843   4855     1  0.0000000  0.6508444  3
   4832   4831   4843   4844     1  0.0000000  0.6508444  3
   4832   4831   4843   4845     1  0.0000000  0.6508444  3
   4833   4831   4830   4834     1  0.0000000  0.6508444  3
   4833   4831   4830   4837     1  0.0000000  0.6508444  3
   4833   4831   4830   4859     1  0.0000000  0.6508444  3
   4833   4831   4843   4855     1  0.0000000  0.6508444  3
   4833   4831   4843   4844     1  0.0000000  0.6508444  3
   4833   4831   4843   4845     1  0.0000000  0.6508444  3
   4834   4830   4837   4838     1  0.0000000  0.6508444  3
   4834   4830   4837   4839     1  0.0000000  0.6508444  3
   4834   4846   4852   4853     1  0.0000000  0.6508444  3
   4834   4846   4852   4854     1  0.0000000  0.6508444  3
   4835   4834   4830   4837     1  0.0000000  0.6508444  3
   4835   4834   4830   4859     1  0.0000000  0.6508444  3
   4835   4834   4846   4852     1  0.0000000  0.6508444  3
   4835   4834   4846   4847     1  0.0000000  0.6508444  3
   4835   4834   4846   4848     1  0.0000000  0.6508444  3
   4836   4834   4830   4837     1  0.0000000  0.6508444  3
   4836   4834   4830   4859     1  0.0000000  0.6508444  3
   4836   4834   4846   4852     1  0.0000000  0.6508444  3
   4836   4834   4846   4847     1  0.0000000  0.6508444  3
   4836   4834   4846   4848     1  0.0000000  0.6508444  3
   4837   4840   4849   4850     1  0.0000000  0.6508444  3
   4837   4840   4849   4851     1  0.0000000  0.6508444  3
   4838   4837   4830   4859     1  0.0000000  0.6508444  3
   4838   4837   4840   4849     1  0.0000000  0.6508444  3
   4838   4837   4840   4841     1  0.0000000  0.6508444  3
   4838   4837   4840   4842     1  0.0000000  0.6508444  3
   4839   4837   4830   4859     1  0.0000000  0.6508444  3
   4839   4837   4840   4849     1  0.0000000  0.6508444  3
   4839   4837   4840   4841     1  0.0000000  0.6508444  3
   4839   4837   4840   4842     1  0.0000000  0.6508444  3
   4840   4837   4830   4859     1  0.0000000  0.6508444  3
   4841   4840   4849   4858     1  0.0000000  1.0460000  1
   4841   4840   4849   4858     1  0.0000000  0.0000000  3
   4841   4840   4849   4850     1  0.0000000  0.6508444  3
   4841   4840   4849   4851     1  0.0000000  0.6508444  3
   4842   4840   4849   4858     1  0.0000000  1.0460000  1
   4842   4840   4849   4858     1  0.0000000  0.0000000  3
   4842   4840   4849   4850     1  0.0000000  0.6508444  3
   4842   4840   4849   4851     1  0.0000000  0.6508444  3
   4843   4831   4830   4859     1  0.0000000  0.6508444  3
   4844   4843   4855   7602     1  0.0000000  1.0460000  1
   4844   4843   4855   7602     1  0.0000000  0.0000000  3
   4844   4843   4855   4856     1  0.0000000  0.6508444  3
   4844   4843   4855   4857     1  0.0000000  0.6508444  3
   4845   4843   4855   7602     1  0.0000000  1.0460000  1
   4845   4843   4855   7602     1  0.0000000  0.0000000  3
   4845   4843   4855   4856     1  0.0000000  0.6508444  3
   4845   4843   4855   4857     1  0.0000000  0.6508444  3
   4846   4834   4830   4859     1  0.0000000  0.6508444  3
   4847   4846   4852   7588     1  0.0000000  1.0460000  1
   4847   4846   4852   7588     1  0.0000000  0.0000000  3
   4847   4846   4852   4853     1  0.0000000  0.6508444  3
   4847   4846   4852   4854     1  0.0000000  0.6508444  3
   4848   4846   4852   7588     1  0.0000000  1.0460000  1
   4848   4846   4852   7588     1  0.0000000  0.0000000  3
   4848   4846   4852   4853     1  0.0000000  0.6508444  3
   4848   4846   4852   4854     1  0.0000000  0.6508444  3
   4852   7588   7582   7583     1  0.0000000  1.6038667  3
   4852   7588   7582   7584     1  0.0000000  1.6038667  3
   4853   4852   7588   7582     1  0.0000000  1.6038667  3
   4854   4852   7588   7582     1  0.0000000  1.6038667  3
   4855   7602   7596   7597     1  0.0000000  1.6038667  3
   4855   7602   7596   7598     1  0.0000000  1.6038667  3
   4856   4855   7602   7596     1  0.0000000  1.6038667  3
   4857   4855   7602   7596     1  0.0000000  1.6038667  3
   4860   4861   4873   4874     1  0.0000000  0.6508444  3
   4860   4861   4873   4875     1  0.0000000  0.6508444  3
   4860   4864   4876   4877     1  0.0000000  0.6508444  3
   4860   4864   4876   4878     1  0.0000000  0.6508444  3
   4860   4867   4870   4871     1  0.0000000  0.6508444  3
   4860   4867   4870   4872     1  0.0000000  0.6508444  3
   4861   4860   4864   4865     1  0.0000000  0.6508444  3
   4861   4860   4864   4866     1  0.0000000  0.6508444  3
   4861   4860   4867   4868     1  0.0000000  0.6508444  3
   4861   4860   4867   4869     1  0.0000000  0.6508444  3
   4861   4873   4885   4886     1  0.0000000  0.6508444  3
   4861   4873   4885   4887     1  0.0000000  0.6508444  3
   4862   4861   4860   4864     1  0.0000000  0.6508444  3
   4862   4861   4860   4867     1  0.0000000  0.6508444  3
   4862   4861   4860   4889     1  0.0000000  0.6508444  3
   4862   4861   4873   4885     1  0.0000000  0.6508444  3
   4862   4861   4873   4874     1  0.0000000  0.6508444  3
   4862   4861   4873   4875     1  0.0000000  0.6508444  3
   4863   4861   4860   4864     1  0.0000000  0.6508444  3
   4863   4861   4860   4867     1  0.0000000  0.6508444  3
   4863   4861   4860   4889     1  0.0000000  0.6508444  3
   4863   4861   4873   4885     1  0.0000000  0.6508444  3
   4863   4861   4873   4874     1  0.0000000  0.6508444  3
   4863   4861   4873   4875     1  0.0000000  0.6508444  3
   4864   4860   4867   4868     1  0.0000000  0.6508444  3
   4864   4860   4867   4869     1  0.0000000  0.6508444  3
   4864   4876   4882   4883     1  0.0000000  0.6508444  3
   4864   4876   4882   4884     1  0.0000000  0.6508444  3
   4865   4864   4860   4867     1  0.0000000  0.6508444  3
   4865   4864   4860   4889     1  0.0000000  0.6508444  3
   4865   4864   4876   4882     1  0.0000000  0.6508444  3
   4865   4864   4876   4877     1  0.0000000  0.6508444  3
   4865   4864   4876   4878     1  0.0000000  0.6508444  3
   4866   4864   4860   4867     1  0.0000000  0.6508444  3
   4866   4864   4860   4889     1  0.0000000  0.6508444  3
   4866   4864   4876   4882     1  0.0000000  0.6508444  3
   4866   4864   4876   4877     1  0.0000000  0.6508444  3
   4866   4864   4876   4878     1  0.0000000  0.6508444  3
   4867   4870   4879   4880     1  0.0000000  0.6508444  3
   4867   4870   4879   4881     1  0.0000000  0.6508444  3
   4868   4867   4860   4889     1  0.0000000  0.6508444  3
   4868   4867   4870   4879     1  0.0000000  0.6508444  3
   4868   4867   4870   4871     1  0.0000000  0.6508444  3
   4868   4867   4870   4872     1  0.0000000  0.6508444  3
   4869   4867   4860   4889     1  0.0000000  0.6508444  3
   4869   4867   4870   4879     1  0.0000000  0.6508444  3
   4869   4867   4870   4871     1  0.0000000  0.6508444  3
   4869   4867   4870   4872     1  0.0000000  0.6508444  3
   4870   4867   4860   4889     1  0.0000000  0.6508444  3
   4871   4870   4879   4888     1  0.0000000  1.0460000  1
   4871   4870   4879   4888     1  0.0000000  0.0000000  3
   4871   4870   4879   4880     1  0.0000000  0.6508444  3
   4871   4870   4879   4881     1  0.0000000  0.6508444  3
   4872   4870   4879   4888     1  0.0000000  1.0460000  1
   4872   4870   4879   4888     1  0.0000000  0.0000000  3
   4872   4870   4879   4880     1  0.0000000  0.6508444  3
   4872   4870   4879   4881     1  0.0000000  0.6508444  3
   4873   4861   4860   4889     1  0.0000000  0.6508444  3
   4874   4873   4885   7630     1  0.0000000  1.0460000  1
   4874   4873   4885   7630     1  0.0000000  0.0000000  3
   4874   4873   4885   4886     1  0.0000000  0.6508444  3
   4874   4873   4885   4887     1  0.0000000  0.6508444  3
   4875   4873   4885   7630     1  0.0000000  1.0460000  1
   4875   4873   4885   7630     1  0.0000000  0.0000000  3
   4875   4873   4885   4886     1  0.0000000  0.6508444  3
   4875   4873   4885   4887     1  0.0000000  0.6508444  3
   4876   4864   4860   4889     1  0.0000000  0.6508444  3
   4877   4876   4882   7616     1  0.0000000  1.0460000  1
   4877   4876   4882   7616     1  0.0000000  0.0000000  3
   4877   4876   4882   4883     1  0.0000000  0.6508444  3
   4877   4876   4882   4884     1  0.0000000  0.6508444  3
   4878   4876   4882   7616     1  0.0000000  1.0460000  1
   4878   4876   4882   7616     1  0.0000000  0.0000000  3
   4878   4876   4882   4883     1  0.0000000  0.6508444  3
   4878   4876   4882   4884     1  0.0000000  0.6508444  3
   4882   7616   7610   7611     1  0.0000000  1.6038667  3
   4882   7616   7610   7612     1  0.0000000  1.6038667  3
   4883   4882   7616   7610     1  0.0000000  1.6038667  3
   4884   4882   7616   7610     1  0.0000000  1.6038667  3
   4885   7630   7624   7625     1  0.0000000  1.6038667  3
   4885   7630   7624   7626     1  0.0000000  1.6038667  3
   4886   4885   7630   7624     1  0.0000000  1.6038667  3
   4887   4885   7630   7624     1  0.0000000  1.6038667  3
   4890   4891   4903   4904     1  0.0000000  0.6508444  3
   4890   4891   4903   4905     1  0.0000000  0.6508444  3
   4890   4894   4906   4907     1  0.0000000  0.6508444  3
   4890   4894   4906   4908     1  0.0000000  0.6508444  3
   4890   4897   4900   4901     1  0.0000000  0.6508444  3
   4890   4897   4900   4902     1  0.0000000  0.6508444  3
   4891   4890   4894   4895     1  0.0000000  0.6508444  3
   4891   4890   4894   4896     1  0.0000000  0.6508444  3
   4891   4890   4897   4898     1  0.0000000  0.6508444  3
   4891   4890   4897   4899     1  0.0000000  0.6508444  3
   4891   4903   4915   4916     1  0.0000000  0.6508444  3
   4891   4903   4915   4917     1  0.0000000  0.6508444  3
   4892   4891   4890   4894     1  0.0000000  0.6508444  3
   4892   4891   4890   4897     1  0.0000000  0.6508444  3
   4892   4891   4890   4919     1  0.0000000  0.6508444  3
   4892   4891   4903   4915     1  0.0000000  0.6508444  3
   4892   4891   4903   4904     1  0.0000000  0.6508444  3
   4892   4891   4903   4905     1  0.0000000  0.6508444  3
   4893   4891   4890   4894     1  0.0000000  0.6508444  3
   4893   4891   4890   4897     1  0.0000000  0.6508444  3
   4893   4891   4890   4919     1  0.0000000  0.6508444  3
   4893   4891   4903   4915     1  0.0000000  0.6508444  3
   4893   4891   4903   4904     1  0.0000000  0.6508444  3
   4893   4891   4903   4905     1  0.0000000  0.6508444  3
   4894   4890   4897   4898     1  0.0000000  0.6508444  3
   4894   4890   4897   4899     1  0.0000000  0.6508444  3
   4894   4906   4912   4913     1  0.0000000  0.6508444  3
   4894   4906   4912   4914     1  0.0000000  0.6508444  3
   4895   4894   4890   4897     1  0.0000000  0.6508444  3
   4895   4894   4890   4919     1  0.0000000  0.6508444  3
   4895   4894   4906   4912     1  0.0000000  0.6508444  3
   4895   4894   4906   4907     1  0.0000000  0.6508444  3
   4895   4894   4906   4908     1  0.0000000  0.6508444  3
   4896   4894   4890   4897     1  0.0000000  0.6508444  3
   4896   4894   4890   4919     1  0.0000000  0.6508444  3
   4896   4894   4906   4912     1  0.0000000  0.6508444  3
   4896   4894   4906   4907     1  0.0000000  0.6508444  3
   4896   4894   4906   4908     1  0.0000000  0.6508444  3
   4897   4900   4909   4910     1  0.0000000  0.6508444  3
   4897   4900   4909   4911     1  0.0000000  0.6508444  3
   4898   4897   4890   4919     1  0.0000000  0.6508444  3
   4898   4897   4900   4909     1  0.0000000  0.6508444  3
   4898   4897   4900   4901     1  0.0000000  0.6508444  3
   4898   4897   4900   4902     1  0.0000000  0.6508444  3
   4899   4897   4890   4919     1  0.0000000  0.6508444  3
   4899   4897   4900   4909     1  0.0000000  0.6508444  3
   4899   4897   4900   4901     1  0.0000000  0.6508444  3
   4899   4897   4900   4902     1  0.0000000  0.6508444  3
   4900   4897   4890   4919     1  0.0000000  0.6508444  3
   4901   4900   4909   4918     1  0.0000000  1.0460000  1
   4901   4900   4909   4918     1  0.0000000  0.0000000  3
   4901   4900   4909   4910     1  0.0000000  0.6508444  3
   4901   4900   4909   4911     1  0.0000000  0.6508444  3
   4902   4900   4909   4918     1  0.0000000  1.0460000  1
   4902   4900   4909   4918     1  0.0000000  0.0000000  3
   4902   4900   4909   4910     1  0.0000000  0.6508444  3
   4902   4900   4909   4911     1  0.0000000  0.6508444  3
   4903   4891   4890   4919     1  0.0000000  0.6508444  3
   4904   4903   4915   7658     1  0.0000000  1.0460000  1
   4904   4903   4915   7658     1  0.0000000  0.0000000  3
   4904   4903   4915   4916     1  0.0000000  0.6508444  3
   4904   4903   4915   4917     1  0.0000000  0.6508444  3
   4905   4903   4915   7658     1  0.0000000  1.0460000  1
   4905   4903   4915   7658     1  0.0000000  0.0000000  3
   4905   4903   4915   4916     1  0.0000000  0.6508444  3
   4905   4903   4915   4917     1  0.0000000  0.6508444  3
   4906   4894   4890   4919     1  0.0000000  0.6508444  3
   4907   4906   4912   7644     1  0.0000000  1.0460000  1
   4907   4906   4912   7644     1  0.0000000  0.0000000  3
   4907   4906   4912   4913     1  0.0000000  0.6508444  3
   4907   4906   4912   4914     1  0.0000000  0.6508444  3
   4908   4906   4912   7644     1  0.0000000  1.0460000  1
   4908   4906   4912   7644     1  0.0000000  0.0000000  3
   4908   4906   4912   4913     1  0.0000000  0.6508444  3
   4908   4906   4912   4914     1  0.0000000  0.6508444  3
   4912   7644   7638   7639     1  0.0000000  1.6038667  3
   4912   7644   7638   7640     1  0.0000000  1.6038667  3
   4913   4912   7644   7638     1  0.0000000  1.6038667  3
   4914   4912   7644   7638     1  0.0000000  1.6038667  3
   4915   7658   7652   7653     1  0.0000000  1.6038667  3
   4915   7658   7652   7654     1  0.0000000  1.6038667  3
   4916   4915   7658   7652     1  0.0000000  1.6038667  3
   4917   4915   7658   7652     1  0.0000000  1.6038667  3
   4920   4921   4933   4934     1  0.0000000  0.6508444  3
   4920   4921   4933   4935     1  0.0000000  0.6508444  3
   4920   4924   4936   4937     1  0.0000000  0.6508444  3
   4920   4924   4936   4938     1  0.0000000  0.6508444  3
   4920   4927   4930   4931     1  0.0000000  0.6508444  3
   4920   4927   4930   4932     1  0.0000000  0.6508444  3
   4921   4920   4924   4925     1  0.0000000  0.6508444  3
   4921   4920   4924   4926     1  0.0000000  0.6508444  3
   4921   4920   4927   4928     1  0.0000000  0.6508444  3
   4921   4920   4927   4929     1  0.0000000  0.6508444  3
   4921   4933   4945   4946     1  0.0000000  0.6508444  3
   4921   4933   4945   4947     1  0.0000000  0.6508444  3
   4922   4921   4920   4924     1  0.0000000  0.6508444  3
   4922   4921   4920   4927     1  0.0000000  0.6508444  3
   4922   4921   4920   4949     1  0.0000000  0.6508444  3
   4922   4921   4933   4945     1  0.0000000  0.6508444  3
   4922   4921   4933   4934     1  0.0000000  0.6508444  3
   4922   4921   4933   4935     1  0.0000000  0.6508444  3
   4923   4921   4920   4924     1  0.0000000  0.6508444  3
   4923   4921   4920   4927     1  0.0000000  0.6508444  3
   4923   4921   4920   4949     1  0.0000000  0.6508444  3
   4923   4921   4933   4945     1  0.0000000  0.6508444  3
   4923   4921   4933   4934     1  0.0000000  0.6508444  3
   4923   4921   4933   4935     1  0.0000000  0.6508444  3
   4924   4920   4927   4928     1  0.0000000  0.6508444  3
   4924   4920   4927   4929     1  0.0000000  0.6508444  3
   4924   4936   4942   4943     1  0.0000000  0.6508444  3
   4924   4936   4942   4944     1  0.0000000  0.6508444  3
   4925   4924   4920   4927     1  0.0000000  0.6508444  3
   4925   4924   4920   4949     1  0.0000000  0.6508444  3
   4925   4924   4936   4942     1  0.0000000  0.6508444  3
   4925   4924   4936   4937     1  0.0000000  0.6508444  3
   4925   4924   4936   4938     1  0.0000000  0.6508444  3
   4926   4924   4920   4927     1  0.0000000  0.6508444  3
   4926   4924   4920   4949     1  0.0000000  0.6508444  3
   4926   4924   4936   4942     1  0.0000000  0.6508444  3
   4926   4924   4936   4937     1  0.0000000  0.6508444  3
   4926   4924   4936   4938     1  0.0000000  0.6508444  3
   4927   4930   4939   4940     1  0.0000000  0.6508444  3
   4927   4930   4939   4941     1  0.0000000  0.6508444  3
   4928   4927   4920   4949     1  0.0000000  0.6508444  3
   4928   4927   4930   4939     1  0.0000000  0.6508444  3
   4928   4927   4930   4931     1  0.0000000  0.6508444  3
   4928   4927   4930   4932     1  0.0000000  0.6508444  3
   4929   4927   4920   4949     1  0.0000000  0.6508444  3
   4929   4927   4930   4939     1  0.0000000  0.6508444  3
   4929   4927   4930   4931     1  0.0000000  0.6508444  3
   4929   4927   4930   4932     1  0.0000000  0.6508444  3
   4930   4927   4920   4949     1  0.0000000  0.6508444  3
   4931   4930   4939   4948     1  0.0000000  1.0460000  1
   4931   4930   4939   4948     1  0.0000000  0.0000000  3
   4931   4930   4939   4940     1  0.0000000  0.6508444  3
   4931   4930   4939   4941     1  0.0000000  0.6508444  3
   4932   4930   4939   4948     1  0.0000000  1.0460000  1
   4932   4930   4939   4948     1  0.0000000  0.0000000  3
   4932   4930   4939   4940     1  0.0000000  0.6508444  3
   4932   4930   4939   4941     1  0.0000000  0.6508444  3
   4933   4921   4920   4949     1  0.0000000  0.6508444  3
   4934   4933   4945   7686     1  0.0000000  1.0460000  1
   4934   4933   4945   7686     1  0.0000000  0.0000000  3
   4934   4933   4945   4946     1  0.0000000  0.6508444  3
   4934   4933   4945   4947     1  0.0000000  0.6508444  3
   4935   4933   4945   7686     1  0.0000000  1.0460000  1
   4935   4933   4945   7686     1  0.0000000  0.0000000  3
   4935   4933   4945   4946     1  0.0000000  0.6508444  3
   4935   4933   4945   4947     1  0.0000000  0.6508444  3
   4936   4924   4920   4949     1  0.0000000  0.6508444  3
   4937   4936   4942   7672     1  0.0000000  1.0460000  1
   4937   4936   4942   7672     1  0.0000000  0.0000000  3
   4937   4936   4942   4943     1  0.0000000  0.6508444  3
   4937   4936   4942   4944     1  0.0000000  0.6508444  3
   4938   4936   4942   7672     1  0.0000000  1.0460000  1
   4938   4936   4942   7672     1  0.0000000  0.0000000  3
   4938   4936   4942   4943     1  0.0000000  0.6508444  3
   4938   4936   4942   4944     1  0.0000000  0.6508444  3
   4942   7672   7666   7667     1  0.0000000  1.6038667  3
   4942   7672   7666   7668     1  0.0000000  1.6038667  3
   4943   4942   7672   7666     1  0.0000000  1.6038667  3
   4944   4942   7672   7666     1  0.0000000  1.6038667  3
   4945   7686   7680   7681     1  0.0000000  1.6038667  3
   4945   7686   7680   7682     1  0.0000000  1.6038667  3
   4946   4945   7686   7680     1  0.0000000  1.6038667  3
   4947   4945   7686   7680     1  0.0000000  1.6038667  3
   4950   4951   4963   4964     1  0.0000000  0.6508444  3
   4950   4951   4963   4965     1  0.0000000  0.6508444  3
   4950   4954   4966   4967     1  0.0000000  0.6508444  3
   4950   4954   4966   4968     1  0.0000000  0.6508444  3
   4950   4957   4960   4961     1  0.0000000  0.6508444  3
   4950   4957   4960   4962     1  0.0000000  0.6508444  3
   4951   4950   4954   4955     1  0.0000000  0.6508444  3
   4951   4950   4954   4956     1  0.0000000  0.6508444  3
   4951   4950   4957   4958     1  0.0000000  0.6508444  3
   4951   4950   4957   4959     1  0.0000000  0.6508444  3
   4951   4963   4975   4976     1  0.0000000  0.6508444  3
   4951   4963   4975   4977     1  0.0000000  0.6508444  3
   4952   4951   4950   4954     1  0.0000000  0.6508444  3
   4952   4951   4950   4957     1  0.0000000  0.6508444  3
   4952   4951   4950   4979     1  0.0000000  0.6508444  3
   4952   4951   4963   4975     1  0.0000000  0.6508444  3
   4952   4951   4963   4964     1  0.0000000  0.6508444  3
   4952   4951   4963   4965     1  0.0000000  0.6508444  3
   4953   4951   4950   4954     1  0.0000000  0.6508444  3
   4953   4951   4950   4957     1  0.0000000  0.6508444  3
   4953   4951   4950   4979     1  0.0000000  0.6508444  3
   4953   4951   4963   4975     1  0.0000000  0.6508444  3
   4953   4951   4963   4964     1  0.0000000  0.6508444  3
   4953   4951   4963   4965     1  0.0000000  0.6508444  3
   4954   4950   4957   4958     1  0.0000000  0.6508444  3
   4954   4950   4957   4959     1  0.0000000  0.6508444  3
   4954   4966   4972   4973     1  0.0000000  0.6508444  3
   4954   4966   4972   4974     1  0.0000000  0.6508444  3
   4955   4954   4950   4957     1  0.0000000  0.6508444  3
   4955   4954   4950   4979     1  0.0000000  0.6508444  3
   4955   4954   4966   4972     1  0.0000000  0.6508444  3
   4955   4954   4966   4967     1  0.0000000  0.6508444  3
   4955   4954   4966   4968     1  0.0000000  0.6508444  3
   4956   4954   4950   4957     1  0.0000000  0.6508444  3
   4956   4954   4950   4979     1  0.0000000  0.6508444  3
   4956   4954   4966   4972     1  0.0000000  0.6508444  3
   4956   4954   4966   4967     1  0.0000000  0.6508444  3
   4956   4954   4966   4968     1  0.0000000  0.6508444  3
   4957   4960   4969   4970     1  0.0000000  0.6508444  3
   4957   4960   4969   4971     1  0.0000000  0.6508444  3
   4958   4957   4950   4979     1  0.0000000  0.6508444  3
   4958   4957   4960   4969     1  0.0000000  0.6508444  3
   4958   4957   4960   4961     1  0.0000000  0.6508444  3
   4958   4957   4960   4962     1  0.0000000  0.6508444  3
   4959   4957   4950   4979     1  0.0000000  0.6508444  3
   4959   4957   4960   4969     1  0.0000000  0.6508444  3
   4959   4957   4960   4961     1  0.0000000  0.6508444  3
   4959   4957   4960   4962     1  0.0000000  0.6508444  3
   4960   4957   4950   4979     1  0.0000000  0.6508444  3
   4961   4960   4969   4978     1  0.0000000  1.0460000  1
   4961   4960   4969   4978     1  0.0000000  0.0000000  3
   4961   4960   4969   4970     1  0.0000000  0.6508444  3
   4961   4960   4969   4971     1  0.0000000  0.6508444  3
   4962   4960   4969   4978     1  0.0000000  1.0460000  1
   4962   4960   4969   4978     1  0.0000000  0.0000000  3
   4962   4960   4969   4970     1  0.0000000  0.6508444  3
   4962   4960   4969   4971     1  0.0000000  0.6508444  3
   4963   4951   4950   4979     1  0.0000000  0.6508444  3
   4964   4963   4975   7714     1  0.0000000  1.0460000  1
   4964   4963   4975   7714     1  0.0000000  0.0000000  3
   4964   4963   4975   4976     1  0.0000000  0.6508444  3
   4964   4963   4975   4977     1  0.0000000  0.6508444  3
   4965   4963   4975   7714     1  0.0000000  1.0460000  1
   4965   4963   4975   7714     1  0.0000000  0.0000000  3
   4965   4963   4975   4976     1  0.0000000  0.6508444  3
   4965   4963   4975   4977     1  0.0000000  0.6508444  3
   4966   4954   4950   4979     1  0.0000000  0.6508444  3
   4967   4966   4972   7700     1  0.0000000  1.0460000  1
   4967   4966   4972   7700     1  0.0000000  0.0000000  3
   4967   4966   4972   4973     1  0.0000000  0.6508444  3
   4967   4966   4972   4974     1  0.0000000  0.6508444  3
   4968   4966   4972   7700     1  0.0000000  1.0460000  1
   4968   4966   4972   7700     1  0.0000000  0.0000000  3
   4968   4966   4972   4973     1  0.0000000  0.6508444  3
   4968   4966   4972   4974     1  0.0000000  0.6508444  3
   4972   7700   7694   7695     1  0.0000000  1.6038667  3
   4972   7700   7694   7696     1  0.0000000  1.6038667  3
   4973   4972   7700   7694     1  0.0000000  1.6038667  3
   4974   4972   7700   7694     1  0.0000000  1.6038667  3
   4975   7714   7708   7709     1  0.0000000  1.6038667  3
   4975   7714   7708   7710     1  0.0000000  1.6038667  3
   4976   4975   7714   7708     1  0.0000000  1.6038667  3
   4977   4975   7714   7708     1  0.0000000  1.6038667  3
   4980   4981   4993   4994     1  0.0000000  0.6508444  3
   4980   4981   4993   4995     1  0.0000000  0.6508444  3
   4980   4984   4996   4997     1  0.0000000  0.6508444  3
   4980   4984   4996   4998     1  0.0000000  0.6508444  3
   4980   4987   4990   4991     1  0.0000000  0.6508444  3
   4980   4987   4990   4992     1  0.0000000  0.6508444  3
   4981   4980   4984   4985     1  0.0000000  0.6508444  3
   4981   4980   4984   4986     1  0.0000000  0.6508444  3
   4981   4980   4987   4988     1  0.0000000  0.6508444  3
   4981   4980   4987   4989     1  0.0000000  0.6508444  3
   4981   4993   5005   5006     1  0.0000000  0.6508444  3
   4981   4993   5005   5007     1  0.0000000  0.6508444  3
   4982   4981   4980   4984     1  0.0000000  0.6508444  3
   4982   4981   4980   4987     1  0.0000000  0.6508444  3
   4982   4981   4980   5009     1  0.0000000  0.6508444  3
   4982   4981   4993   5005     1  0.0000000  0.6508444  3
   4982   4981   4993   4994     1  0.0000000  0.6508444  3
   4982   4981   4993   4995     1  0.0000000  0.6508444  3
   4983   4981   4980   4984     1  0.0000000  0.6508444  3
   4983   4981   4980   4987     1  0.0000000  0.6508444  3
   4983   4981   4980   5009     1  0.0000000  0.6508444  3
   4983   4981   4993   5005     1  0.0000000  0.6508444  3
   4983   4981   4993   4994     1  0.0000000  0.6508444  3
   4983   4981   4993   4995     1  0.0000000  0.6508444  3
   4984   4980   4987   4988     1  0.0000000  0.6508444  3
   4984   4980   4987   4989     1  0.0000000  0.6508444  3
   4984   4996   5002   5003     1  0.0000000  0.6508444  3
   4984   4996   5002   5004     1  0.0000000  0.6508444  3
   4985   4984   4980   4987     1  0.0000000  0.6508444  3
   4985   4984   4980   5009     1  0.0000000  0.6508444  3
   4985   4984   4996   5002     1  0.0000000  0.6508444  3
   4985   4984   4996   4997     1  0.0000000  0.6508444  3
   4985   4984   4996   4998     1  0.0000000  0.6508444  3
   4986   4984   4980   4987     1  0.0000000  0.6508444  3
   4986   4984   4980   5009     1  0.0000000  0.6508444  3
   4986   4984   4996   5002     1  0.0000000  0.6508444  3
   4986   4984   4996   4997     1  0.0000000  0.6508444  3
   4986   4984   4996   4998     1  0.0000000  0.6508444  3
   4987   4990   4999   5000     1  0.0000000  0.6508444  3
   4987   4990   4999   5001     1  0.0000000  0.6508444  3
   4988   4987   4980   5009     1  0.0000000  0.6508444  3
   4988   4987   4990   4999     1  0.0000000  0.6508444  3
   4988   4987   4990   4991     1  0.0000000  0.6508444  3
   4988   4987   4990   4992     1  0.0000000  0.6508444  3
   4989   4987   4980   5009     1  0.0000000  0.6508444  3
   4989   4987   4990   4999     1  0.0000000  0.6508444  3
   4989   4987   4990   4991     1  0.0000000  0.6508444  3
   4989   4987   4990   4992     1  0.0000000  0.6508444  3
   4990   4987   4980   5009     1  0.0000000  0.6508444  3
   4991   4990   4999   5008     1  0.0000000  1.0460000  1
   4991   4990   4999   5008     1  0.0000000  0.0000000  3
   4991   4990   4999   5000     1  0.0000000  0.6508444  3
   4991   4990   4999   5001     1  0.0000000  0.6508444  3
   4992   4990   4999   5008     1  0.0000000  1.0460000  1
   4992   4990   4999   5008     1  0.0000000  0.0000000  3
   4992   4990   4999   5000     1  0.0000000  0.6508444  3
   4992   4990   4999   5001     1  0.0000000  0.6508444  3
   4993   4981   4980   5009     1  0.0000000  0.6508444  3
   4994   4993   5005   7742     1  0.0000000  1.0460000  1
   4994   4993   5005   7742     1  0.0000000  0.0000000  3
   4994   4993   5005   5006     1  0.0000000  0.6508444  3
   4994   4993   5005   5007     1  0.0000000  0.6508444  3
   4995   4993   5005   7742     1  0.0000000  1.0460000  1
   4995   4993   5005   7742     1  0.0000000  0.0000000  3
   4995   4993   5005   5006     1  0.0000000  0.6508444  3
   4995   4993   5005   5007     1  0.0000000  0.6508444  3
   4996   4984   4980   5009     1  0.0000000  0.6508444  3
   4997   4996   5002   7728     1  0.0000000  1.0460000  1
   4997   4996   5002   7728     1  0.0000000  0.0000000  3
   4997   4996   5002   5003     1  0.0000000  0.6508444  3
   4997   4996   5002   5004     1  0.0000000  0.6508444  3
   4998   4996   5002   7728     1  0.0000000  1.0460000  1
   4998   4996   5002   7728     1  0.0000000  0.0000000  3
   4998   4996   5002   5003     1  0.0000000  0.6508444  3
   4998   4996   5002   5004     1  0.0000000  0.6508444  3
   5002   7728   7722   7723     1  0.0000000  1.6038667  3
   5002   7728   7722   7724     1  0.0000000  1.6038667  3
   5003   5002   7728   7722     1  0.0000000  1.6038667  3
   5004   5002   7728   7722     1  0.0000000  1.6038667  3
   5005   7742   7736   7737     1  0.0000000  1.6038667  3
   5005   7742   7736   7738     1  0.0000000  1.6038667  3
   5006   5005   7742   7736     1  0.0000000  1.6038667  3
   5007   5005   7742   7736     1  0.0000000  1.6038667  3
   5010   5011   5023   5024     1  0.0000000  0.6508444  3
   5010   5011   5023   5025     1  0.0000000  0.6508444  3
   5010   5014   5026   5027     1  0.0000000  0.6508444  3
   5010   5014   5026   5028     1  0.0000000  0.6508444  3
   5010   5017   5020   5021     1  0.0000000  0.6508444  3
   5010   5017   5020   5022     1  0.0000000  0.6508444  3
   5011   5010   5014   5015     1  0.0000000  0.6508444  3
   5011   5010   5014   5016     1  0.0000000  0.6508444  3
   5011   5010   5017   5018     1  0.0000000  0.6508444  3
   5011   5010   5017   5019     1  0.0000000  0.6508444  3
   5011   5023   5035   5036     1  0.0000000  0.6508444  3
   5011   5023   5035   5037     1  0.0000000  0.6508444  3
   5012   5011   5010   5014     1  0.0000000  0.6508444  3
   5012   5011   5010   5017     1  0.0000000  0.6508444  3
   5012   5011   5010   5039     1  0.0000000  0.6508444  3
   5012   5011   5023   5035     1  0.0000000  0.6508444  3
   5012   5011   5023   5024     1  0.0000000  0.6508444  3
   5012   5011   5023   5025     1  0.0000000  0.6508444  3
   5013   5011   5010   5014     1  0.0000000  0.6508444  3
   5013   5011   5010   5017     1  0.0000000  0.6508444  3
   5013   5011   5010   5039     1  0.0000000  0.6508444  3
   5013   5011   5023   5035     1  0.0000000  0.6508444  3
   5013   5011   5023   5024     1  0.0000000  0.6508444  3
   5013   5011   5023   5025     1  0.0000000  0.6508444  3
   5014   5010   5017   5018     1  0.0000000  0.6508444  3
   5014   5010   5017   5019     1  0.0000000  0.6508444  3
   5014   5026   5032   5033     1  0.0000000  0.6508444  3
   5014   5026   5032   5034     1  0.0000000  0.6508444  3
   5015   5014   5010   5017     1  0.0000000  0.6508444  3
   5015   5014   5010   5039     1  0.0000000  0.6508444  3
   5015   5014   5026   5032     1  0.0000000  0.6508444  3
   5015   5014   5026   5027     1  0.0000000  0.6508444  3
   5015   5014   5026   5028     1  0.0000000  0.6508444  3
   5016   5014   5010   5017     1  0.0000000  0.6508444  3
   5016   5014   5010   5039     1  0.0000000  0.6508444  3
   5016   5014   5026   5032     1  0.0000000  0.6508444  3
   5016   5014   5026   5027     1  0.0000000  0.6508444  3
   5016   5014   5026   5028     1  0.0000000  0.6508444  3
   5017   5020   5029   5030     1  0.0000000  0.6508444  3
   5017   5020   5029   5031     1  0.0000000  0.6508444  3
   5018   5017   5010   5039     1  0.0000000  0.6508444  3
   5018   5017   5020   5029     1  0.0000000  0.6508444  3
   5018   5017   5020   5021     1  0.0000000  0.6508444  3
   5018   5017   5020   5022     1  0.0000000  0.6508444  3
   5019   5017   5010   5039     1  0.0000000  0.6508444  3
   5019   5017   5020   5029     1  0.0000000  0.6508444  3
   5019   5017   5020   5021     1  0.0000000  0.6508444  3
   5019   5017   5020   5022     1  0.0000000  0.6508444  3
   5020   5017   5010   5039     1  0.0000000  0.6508444  3
   5021   5020   5029   5038     1  0.0000000  1.0460000  1
   5021   5020   5029   5038     1  0.0000000  0.0000000  3
   5021   5020   5029   5030     1  0.0000000  0.6508444  3
   5021   5020   5029   5031     1  0.0000000  0.6508444  3
   5022   5020   5029   5038     1  0.0000000  1.0460000  1
   5022   5020   5029   5038     1  0.0000000  0.0000000  3
   5022   5020   5029   5030     1  0.0000000  0.6508444  3
   5022   5020   5029   5031     1  0.0000000  0.6508444  3
   5023   5011   5010   5039     1  0.0000000  0.6508444  3
   5024   5023   5035   7770     1  0.0000000  1.0460000  1
   5024   5023   5035   7770     1  0.0000000  0.0000000  3
   5024   5023   5035   5036     1  0.0000000  0.6508444  3
   5024   5023   5035   5037     1  0.0000000  0.6508444  3
   5025   5023   5035   7770     1  0.0000000  1.0460000  1
   5025   5023   5035   7770     1  0.0000000  0.0000000  3
   5025   5023   5035   5036     1  0.0000000  0.6508444  3
   5025   5023   5035   5037     1  0.0000000  0.6508444  3
   5026   5014   5010   5039     1  0.0000000  0.6508444  3
   5027   5026   5032   7756     1  0.0000000  1.0460000  1
   5027   5026   5032   7756     1  0.0000000  0.0000000  3
   5027   5026   5032   5033     1  0.0000000  0.6508444  3
   5027   5026   5032   5034     1  0.0000000  0.6508444  3
   5028   5026   5032   7756     1  0.0000000  1.0460000  1
   5028   5026   5032   7756     1  0.0000000  0.0000000  3
   5028   5026   5032   5033     1  0.0000000  0.6508444  3
   5028   5026   5032   5034     1  0.0000000  0.6508444  3
   5032   7756   7750   7751     1  0.0000000  1.6038667  3
   5032   7756   7750   7752     1  0.0000000  1.6038667  3
   5033   5032   7756   7750     1  0.0000000  1.6038667  3
   5034   5032   7756   7750     1  0.0000000  1.6038667  3
   5035   7770   7764   7765     1  0.0000000  1.6038667  3
   5035   7770   7764   7766     1  0.0000000  1.6038667  3
   5036   5035   7770   7764     1  0.0000000  1.6038667  3
   5037   5035   7770   7764     1  0.0000000  1.6038667  3
   5040   5041   5053   5054     1  0.0000000  0.6508444  3
   5040   5041   5053   5055     1  0.0000000  0.6508444  3
   5040   5044   5056   5057     1  0.0000000  0.6508444  3
   5040   5044   5056   5058     1  0.0000000  0.6508444  3
   5040   5047   5050   5051     1  0.0000000  0.6508444  3
   5040   5047   5050   5052     1  0.0000000  0.6508444  3
   5041   5040   5044   5045     1  0.0000000  0.6508444  3
   5041   5040   5044   5046     1  0.0000000  0.6508444  3
   5041   5040   5047   5048     1  0.0000000  0.6508444  3
   5041   5040   5047   5049     1  0.0000000  0.6508444  3
   5041   5053   5065   5066     1  0.0000000  0.6508444  3
   5041   5053   5065   5067     1  0.0000000  0.6508444  3
   5042   5041   5040   5044     1  0.0000000  0.6508444  3
   5042   5041   5040   5047     1  0.0000000  0.6508444  3
   5042   5041   5040   5069     1  0.0000000  0.6508444  3
   5042   5041   5053   5065     1  0.0000000  0.6508444  3
   5042   5041   5053   5054     1  0.0000000  0.6508444  3
   5042   5041   5053   5055     1  0.0000000  0.6508444  3
   5043   5041   5040   5044     1  0.0000000  0.6508444  3
   5043   5041   5040   5047     1  0.0000000  0.6508444  3
   5043   5041   5040   5069     1  0.0000000  0.6508444  3
   5043   5041   5053   5065     1  0.0000000  0.6508444  3
   5043   5041   5053   5054     1  0.0000000  0.6508444  3
   5043   5041   5053   5055     1  0.0000000  0.6508444  3
   5044   5040   5047   5048     1  0.0000000  0.6508444  3
   5044   5040   5047   5049     1  0.0000000  0.6508444  3
   5044   5056   5062   5063     1  0.0000000  0.6508444  3
   5044   5056   5062   5064     1  0.0000000  0.6508444  3
   5045   5044   5040   5047     1  0.0000000  0.6508444  3
   5045   5044   5040   5069     1  0.0000000  0.6508444  3
   5045   5044   5056   5062     1  0.0000000  0.6508444  3
   5045   5044   5056   5057     1  0.0000000  0.6508444  3
   5045   5044   5056   5058     1  0.0000000  0.6508444  3
   5046   5044   5040   5047     1  0.0000000  0.6508444  3
   5046   5044   5040   5069     1  0.0000000  0.6508444  3
   5046   5044   5056   5062     1  0.0000000  0.6508444  3
   5046   5044   5056   5057     1  0.0000000  0.6508444  3
   5046   5044   5056   5058     1  0.0000000  0.6508444  3
   5047   5050   5059   5060     1  0.0000000  0.6508444  3
   5047   5050   5059   5061     1  0.0000000  0.6508444  3
   5048   5047   5040   5069     1  0.0000000  0.6508444  3
   5048   5047   5050   5059     1  0.0000000  0.6508444  3
   5048   5047   5050   5051     1  0.0000000  0.6508444  3
   5048   5047   5050   5052     1  0.0000000  0.6508444  3
   5049   5047   5040   5069     1  0.0000000  0.6508444  3
   5049   5047   5050   5059     1  0.0000000  0.6508444  3
   5049   5047   5050   5051     1  0.0000000  0.6508444  3
   5049   5047   5050   5052     1  0.0000000  0.6508444  3
   5050   5047   5040   5069     1  0.0000000  0.6508444  3
   5051   5050   5059   5068     1  0.0000000  1.0460000  1
   5051   5050   5059   5068     1  0.0000000  0.0000000  3
   5051   5050   5059   5060     1  0.0000000  0.6508444  3
   5051   5050   5059   5061     1  0.0000000  0.6508444  3
   5052   5050   5059   5068     1  0.0000000  1.0460000  1
   5052   5050   5059   5068     1  0.0000000  0.0000000  3
   5052   5050   5059   5060     1  0.0000000  0.6508444  3
   5052   5050   5059   5061     1  0.0000000  0.6508444  3
   5053   5041   5040   5069     1  0.0000000  0.6508444  3
   5054   5053   5065   7798     1  0.0000000  1.0460000  1
   5054   5053   5065   7798     1  0.0000000  0.0000000  3
   5054   5053   5065   5066     1  0.0000000  0.6508444  3
   5054   5053   5065   5067     1  0.0000000  0.6508444  3
   5055   5053   5065   7798     1  0.0000000  1.0460000  1
   5055   5053   5065   7798     1  0.0000000  0.0000000  3
   5055   5053   5065   5066     1  0.0000000  0.6508444  3
   5055   5053   5065   5067     1  0.0000000  0.6508444  3
   5056   5044   5040   5069     1  0.0000000  0.6508444  3
   5057   5056   5062   7784     1  0.0000000  1.0460000  1
   5057   5056   5062   7784     1  0.0000000  0.0000000  3
   5057   5056   5062   5063     1  0.0000000  0.6508444  3
   5057   5056   5062   5064     1  0.0000000  0.6508444  3
   5058   5056   5062   7784     1  0.0000000  1.0460000  1
   5058   5056   5062   7784     1  0.0000000  0.0000000  3
   5058   5056   5062   5063     1  0.0000000  0.6508444  3
   5058   5056   5062   5064     1  0.0000000  0.6508444  3
   5062   7784   7778   7779     1  0.0000000  1.6038667  3
   5062   7784   7778   7780     1  0.0000000  1.6038667  3
   5063   5062   7784   7778     1  0.0000000  1.6038667  3
   5064   5062   7784   7778     1  0.0000000  1.6038667  3
   5065   7798   7792   7793     1  0.0000000  1.6038667  3
   5065   7798   7792   7794     1  0.0000000  1.6038667  3
   5066   5065   7798   7792     1  0.0000000  1.6038667  3
   5067   5065   7798   7792     1  0.0000000  1.6038667  3
   5070   5071   5083   5084     1  0.0000000  0.6508444  3
   5070   5071   5083   5085     1  0.0000000  0.6508444  3
   5070   5074   5086   5087     1  0.0000000  0.6508444  3
   5070   5074   5086   5088     1  0.0000000  0.6508444  3
   5070   5077   5080   5081     1  0.0000000  0.6508444  3
   5070   5077   5080   5082     1  0.0000000  0.6508444  3
   5071   5070   5074   5075     1  0.0000000  0.6508444  3
   5071   5070   5074   5076     1  0.0000000  0.6508444  3
   5071   5070   5077   5078     1  0.0000000  0.6508444  3
   5071   5070   5077   5079     1  0.0000000  0.6508444  3
   5071   5083   5095   5096     1  0.0000000  0.6508444  3
   5071   5083   5095   5097     1  0.0000000  0.6508444  3
   5072   5071   5070   5074     1  0.0000000  0.6508444  3
   5072   5071   5070   5077     1  0.0000000  0.6508444  3
   5072   5071   5070   5099     1  0.0000000  0.6508444  3
   5072   5071   5083   5095     1  0.0000000  0.6508444  3
   5072   5071   5083   5084     1  0.0000000  0.6508444  3
   5072   5071   5083   5085     1  0.0000000  0.6508444  3
   5073   5071   5070   5074     1  0.0000000  0.6508444  3
   5073   5071   5070   5077     1  0.0000000  0.6508444  3
   5073   5071   5070   5099     1  0.0000000  0.6508444  3
   5073   5071   5083   5095     1  0.0000000  0.6508444  3
   5073   5071   5083   5084     1  0.0000000  0.6508444  3
   5073   5071   5083   5085     1  0.0000000  0.6508444  3
   5074   5070   5077   5078     1  0.0000000  0.6508444  3
   5074   5070   5077   5079     1  0.0000000  0.6508444  3
   5074   5086   5092   5093     1  0.0000000  0.6508444  3
   5074   5086   5092   5094     1  0.0000000  0.6508444  3
   5075   5074   5070   5077     1  0.0000000  0.6508444  3
   5075   5074   5070   5099     1  0.0000000  0.6508444  3
   5075   5074   5086   5092     1  0.0000000  0.6508444  3
   5075   5074   5086   5087     1  0.0000000  0.6508444  3
   5075   5074   5086   5088     1  0.0000000  0.6508444  3
   5076   5074   5070   5077     1  0.0000000  0.6508444  3
   5076   5074   5070   5099     1  0.0000000  0.6508444  3
   5076   5074   5086   5092     1  0.0000000  0.6508444  3
   5076   5074   5086   5087     1  0.0000000  0.6508444  3
   5076   5074   5086   5088     1  0.0000000  0.6508444  3
   5077   5080   5089   5090     1  0.0000000  0.6508444  3
   5077   5080   5089   5091     1  0.0000000  0.6508444  3
   5078   5077   5070   5099     1  0.0000000  0.6508444  3
   5078   5077   5080   5089     1  0.0000000  0.6508444  3
   5078   5077   5080   5081     1  0.0000000  0.6508444  3
   5078   5077   5080   5082     1  0.0000000  0.6508444  3
   5079   5077   5070   5099     1  0.0000000  0.6508444  3
   5079   5077   5080   5089     1  0.0000000  0.6508444  3
   5079   5077   5080   5081     1  0.0000000  0.6508444  3
   5079   5077   5080   5082     1  0.0000000  0.6508444  3
   5080   5077   5070   5099     1  0.0000000  0.6508444  3
   5081   5080   5089   5098     1  0.0000000  1.0460000  1
   5081   5080   5089   5098     1  0.0000000  0.0000000  3
   5081   5080   5089   5090     1  0.0000000  0.6508444  3
   5081   5080   5089   5091     1  0.0000000  0.6508444  3
   5082   5080   5089   5098     1  0.0000000  1.0460000  1
   5082   5080   5089   5098     1  0.0000000  0.0000000  3
   5082   5080   5089   5090     1  0.0000000  0.6508444  3
   5082   5080   5089   5091     1  0.0000000  0.6508444  3
   5083   5071   5070   5099     1  0.0000000  0.6508444  3
   5084   5083   5095   7826     1  0.0000000  1.0460000  1
   5084   5083   5095   7826     1  0.0000000  0.0000000  3
   5084   5083   5095   5096     1  0.0000000  0.6508444  3
   5084   5083   5095   5097     1  0.0000000  0.6508444  3
   5085   5083   5095   7826     1  0.0000000  1.0460000  1
   5085   5083   5095   7826     1  0.0000000  0.0000000  3
   5085   5083   5095   5096     1  0.0000000  0.6508444  3
   5085   5083   5095   5097     1  0.0000000  0.6508444  3
   5086   5074   5070   5099     1  0.0000000  0.6508444  3
   5087   5086   5092   7812     1  0.0000000  1.0460000  1
   5087   5086   5092   7812     1  0.0000000  0.0000000  3
   5087   5086   5092   5093     1  0.0000000  0.6508444  3
   5087   5086   5092   5094     1  0.0000000  0.6508444  3
   5088   5086   5092   7812     1  0.0000000  1.0460000  1
   5088   5086   5092   7812     1  0.0000000  0.0000000  3
   5088   5086   5092   5093     1  0.0000000  0.6508444  3
   5088   5086   5092   5094     1  0.0000000  0.6508444  3
   5092   7812   7806   7807     1  0.0000000  1.6038667  3
   5092   7812   7806   7808     1  0.0000000  1.6038667  3
   5093   5092   7812   7806     1  0.0000000  1.6038667  3
   5094   5092   7812   7806     1  0.0000000  1.6038667  3
   5095   7826   7820   7821     1  0.0000000  1.6038667  3
   5095   7826   7820   7822     1  0.0000000  1.6038667  3
   5096   5095   7826   7820     1  0.0000000  1.6038667  3
   5097   5095   7826   7820     1  0.0000000  1.6038667  3
   5100   5101   5113   5114     1  0.0000000  0.6508444  3
   5100   5101   5113   5115     1  0.0000000  0.6508444  3
   5100   5104   5116   5117     1  0.0000000  0.6508444  3
   5100   5104   5116   5118     1  0.0000000  0.6508444  3
   5100   5107   5110   5111     1  0.0000000  0.6508444  3
   5100   5107   5110   5112     1  0.0000000  0.6508444  3
   5101   5100   5104   5105     1  0.0000000  0.6508444  3
   5101   5100   5104   5106     1  0.0000000  0.6508444  3
   5101   5100   5107   5108     1  0.0000000  0.6508444  3
   5101   5100   5107   5109     1  0.0000000  0.6508444  3
   5101   5113   5125   5126     1  0.0000000  0.6508444  3
   5101   5113   5125   5127     1  0.0000000  0.6508444  3
   5102   5101   5100   5104     1  0.0000000  0.6508444  3
   5102   5101   5100   5107     1  0.0000000  0.6508444  3
   5102   5101   5100   5129     1  0.0000000  0.6508444  3
   5102   5101   5113   5125     1  0.0000000  0.6508444  3
   5102   5101   5113   5114     1  0.0000000  0.6508444  3
   5102   5101   5113   5115     1  0.0000000  0.6508444  3
   5103   5101   5100   5104     1  0.0000000  0.6508444  3
   5103   5101   5100   5107     1  0.0000000  0.6508444  3
   5103   5101   5100   5129     1  0.0000000  0.6508444  3
   5103   5101   5113   5125     1  0.0000000  0.6508444  3
   5103   5101   5113   5114     1  0.0000000  0.6508444  3
   5103   5101   5113   5115     1  0.0000000  0.6508444  3
   5104   5100   5107   5108     1  0.0000000  0.6508444  3
   5104   5100   5107   5109     1  0.0000000  0.6508444  3
   5104   5116   5122   5123     1  0.0000000  0.6508444  3
   5104   5116   5122   5124     1  0.0000000  0.6508444  3
   5105   5104   5100   5107     1  0.0000000  0.6508444  3
   5105   5104   5100   5129     1  0.0000000  0.6508444  3
   5105   5104   5116   5122     1  0.0000000  0.6508444  3
   5105   5104   5116   5117     1  0.0000000  0.6508444  3
   5105   5104   5116   5118     1  0.0000000  0.6508444  3
   5106   5104   5100   5107     1  0.0000000  0.6508444  3
   5106   5104   5100   5129     1  0.0000000  0.6508444  3
   5106   5104   5116   5122     1  0.0000000  0.6508444  3
   5106   5104   5116   5117     1  0.0000000  0.6508444  3
   5106   5104   5116   5118     1  0.0000000  0.6508444  3
   5107   5110   5119   5120     1  0.0000000  0.6508444  3
   5107   5110   5119   5121     1  0.0000000  0.6508444  3
   5108   5107   5100   5129     1  0.0000000  0.6508444  3
   5108   5107   5110   5119     1  0.0000000  0.6508444  3
   5108   5107   5110   5111     1  0.0000000  0.6508444  3
   5108   5107   5110   5112     1  0.0000000  0.6508444  3
   5109   5107   5100   5129     1  0.0000000  0.6508444  3
   5109   5107   5110   5119     1  0.0000000  0.6508444  3
   5109   5107   5110   5111     1  0.0000000  0.6508444  3
   5109   5107   5110   5112     1  0.0000000  0.6508444  3
   5110   5107   5100   5129     1  0.0000000  0.6508444  3
   5111   5110   5119   5128     1  0.0000000  1.0460000  1
   5111   5110   5119   5128     1  0.0000000  0.0000000  3
   5111   5110   5119   5120     1  0.0000000  0.6508444  3
   5111   5110   5119   5121     1  0.0000000  0.6508444  3
   5112   5110   5119   5128     1  0.0000000  1.0460000  1
   5112   5110   5119   5128     1  0.0000000  0.0000000  3
   5112   5110   5119   5120     1  0.0000000  0.6508444  3
   5112   5110   5119   5121     1  0.0000000  0.6508444  3
   5113   5101   5100   5129     1  0.0000000  0.6508444  3
   5114   5113   5125   7854     1  0.0000000  1.0460000  1
   5114   5113   5125   7854     1  0.0000000  0.0000000  3
   5114   5113   5125   5126     1  0.0000000  0.6508444  3
   5114   5113   5125   5127     1  0.0000000  0.6508444  3
   5115   5113   5125   7854     1  0.0000000  1.0460000  1
   5115   5113   5125   7854     1  0.0000000  0.0000000  3
   5115   5113   5125   5126     1  0.0000000  0.6508444  3
   5115   5113   5125   5127     1  0.0000000  0.6508444  3
   5116   5104   5100   5129     1  0.0000000  0.6508444  3
   5117   5116   5122   7840     1  0.0000000  1.0460000  1
   5117   5116   5122   7840     1  0.0000000  0.0000000  3
   5117   5116   5122   5123     1  0.0000000  0.6508444  3
   5117   5116   5122   5124     1  0.0000000  0.6508444  3
   5118   5116   5122   7840     1  0.0000000  1.0460000  1
   5118   5116   5122   7840     1  0.0000000  0.0000000  3
   5118   5116   5122   5123     1  0.0000000  0.6508444  3
   5118   5116   5122   5124     1  0.0000000  0.6508444  3
   5122   7840   7834   7835     1  0.0000000  1.6038667  3
   5122   7840   7834   7836     1  0.0000000  1.6038667  3
   5123   5122   7840   7834     1  0.0000000  1.6038667  3
   5124   5122   7840   7834     1  0.0000000  1.6038667  3
   5125   7854   7848   7849     1  0.0000000  1.6038667  3
   5125   7854   7848   7850     1  0.0000000  1.6038667  3
   5126   5125   7854   7848     1  0.0000000  1.6038667  3
   5127   5125   7854   7848     1  0.0000000  1.6038667  3
   5130   5131   5143   5144     1  0.0000000  0.6508444  3
   5130   5131   5143   5145     1  0.0000000  0.6508444  3
   5130   5134   5146   5147     1  0.0000000  0.6508444  3
   5130   5134   5146   5148     1  0.0000000  0.6508444  3
   5130   5137   5140   5141     1  0.0000000  0.6508444  3
   5130   5137   5140   5142     1  0.0000000  0.6508444  3
   5131   5130   5134   5135     1  0.0000000  0.6508444  3
   5131   5130   5134   5136     1  0.0000000  0.6508444  3
   5131   5130   5137   5138     1  0.0000000  0.6508444  3
   5131   5130   5137   5139     1  0.0000000  0.6508444  3
   5131   5143   5155   5156     1  0.0000000  0.6508444  3
   5131   5143   5155   5157     1  0.0000000  0.6508444  3
   5132   5131   5130   5134     1  0.0000000  0.6508444  3
   5132   5131   5130   5137     1  0.0000000  0.6508444  3
   5132   5131   5130   5159     1  0.0000000  0.6508444  3
   5132   5131   5143   5155     1  0.0000000  0.6508444  3
   5132   5131   5143   5144     1  0.0000000  0.6508444  3
   5132   5131   5143   5145     1  0.0000000  0.6508444  3
   5133   5131   5130   5134     1  0.0000000  0.6508444  3
   5133   5131   5130   5137     1  0.0000000  0.6508444  3
   5133   5131   5130   5159     1  0.0000000  0.6508444  3
   5133   5131   5143   5155     1  0.0000000  0.6508444  3
   5133   5131   5143   5144     1  0.0000000  0.6508444  3
   5133   5131   5143   5145     1  0.0000000  0.6508444  3
   5134   5130   5137   5138     1  0.0000000  0.6508444  3
   5134   5130   5137   5139     1  0.0000000  0.6508444  3
   5134   5146   5152   5153     1  0.0000000  0.6508444  3
   5134   5146   5152   5154     1  0.0000000  0.6508444  3
   5135   5134   5130   5137     1  0.0000000  0.6508444  3
   5135   5134   5130   5159     1  0.0000000  0.6508444  3
   5135   5134   5146   5152     1  0.0000000  0.6508444  3
   5135   5134   5146   5147     1  0.0000000  0.6508444  3
   5135   5134   5146   5148     1  0.0000000  0.6508444  3
   5136   5134   5130   5137     1  0.0000000  0.6508444  3
   5136   5134   5130   5159     1  0.0000000  0.6508444  3
   5136   5134   5146   5152     1  0.0000000  0.6508444  3
   5136   5134   5146   5147     1  0.0000000  0.6508444  3
   5136   5134   5146   5148     1  0.0000000  0.6508444  3
   5137   5140   5149   5150     1  0.0000000  0.6508444  3
   5137   5140   5149   5151     1  0.0000000  0.6508444  3
   5138   5137   5130   5159     1  0.0000000  0.6508444  3
   5138   5137   5140   5149     1  0.0000000  0.6508444  3
   5138   5137   5140   5141     1  0.0000000  0.6508444  3
   5138   5137   5140   5142     1  0.0000000  0.6508444  3
   5139   5137   5130   5159     1  0.0000000  0.6508444  3
   5139   5137   5140   5149     1  0.0000000  0.6508444  3
   5139   5137   5140   5141     1  0.0000000  0.6508444  3
   5139   5137   5140   5142     1  0.0000000  0.6508444  3
   5140   5137   5130   5159     1  0.0000000  0.6508444  3
   5141   5140   5149   5158     1  0.0000000  1.0460000  1
   5141   5140   5149   5158     1  0.0000000  0.0000000  3
   5141   5140   5149   5150     1  0.0000000  0.6508444  3
   5141   5140   5149   5151     1  0.0000000  0.6508444  3
   5142   5140   5149   5158     1  0.0000000  1.0460000  1
   5142   5140   5149   5158     1  0.0000000  0.0000000  3
   5142   5140   5149   5150     1  0.0000000  0.6508444  3
   5142   5140   5149   5151     1  0.0000000  0.6508444  3
   5143   5131   5130   5159     1  0.0000000  0.6508444  3
   5144   5143   5155   7882     1  0.0000000  1.0460000  1
   5144   5143   5155   7882     1  0.0000000  0.0000000  3
   5144   5143   5155   5156     1  0.0000000  0.6508444  3
   5144   5143   5155   5157     1  0.0000000  0.6508444  3
   5145   5143   5155   7882     1  0.0000000  1.0460000  1
   5145   5143   5155   7882     1  0.0000000  0.0000000  3
   5145   5143   5155   5156     1  0.0000000  0.6508444  3
   5145   5143   5155   5157     1  0.0000000  0.6508444  3
   5146   5134   5130   5159     1  0.0000000  0.6508444  3
   5147   5146   5152   7868     1  0.0000000  1.0460000  1
   5147   5146   5152   7868     1  0.0000000  0.0000000  3
   5147   5146   5152   5153     1  0.0000000  0.6508444  3
   5147   5146   5152   5154     1  0.0000000  0.6508444  3
   5148   5146   5152   7868     1  0.0000000  1.0460000  1
   5148   5146   5152   7868     1  0.0000000  0.0000000  3
   5148   5146   5152   5153     1  0.0000000  0.6508444  3
   5148   5146   5152   5154     1  0.0000000  0.6508444  3
   5152   7868   7862   7863     1  0.0000000  1.6038667  3
   5152   7868   7862   7864     1  0.0000000  1.6038667  3
   5153   5152   7868   7862     1  0.0000000  1.6038667  3
   5154   5152   7868   7862     1  0.0000000  1.6038667  3
   5155   7882   7876   7877     1  0.0000000  1.6038667  3
   5155   7882   7876   7878     1  0.0000000  1.6038667  3
   5156   5155   7882   7876     1  0.0000000  1.6038667  3
   5157   5155   7882   7876     1  0.0000000  1.6038667  3
   5160   5161   5173   5174     1  0.0000000  0.6508444  3
   5160   5161   5173   5175     1  0.0000000  0.6508444  3
   5160   5164   5176   5177     1  0.0000000  0.6508444  3
   5160   5164   5176   5178     1  0.0000000  0.6508444  3
   5160   5167   5170   5171     1  0.0000000  0.6508444  3
   5160   5167   5170   5172     1  0.0000000  0.6508444  3
   5161   5160   5164   5165     1  0.0000000  0.6508444  3
   5161   5160   5164   5166     1  0.0000000  0.6508444  3
   5161   5160   5167   5168     1  0.0000000  0.6508444  3
   5161   5160   5167   5169     1  0.0000000  0.6508444  3
   5161   5173   5185   5186     1  0.0000000  0.6508444  3
   5161   5173   5185   5187     1  0.0000000  0.6508444  3
   5162   5161   5160   5164     1  0.0000000  0.6508444  3
   5162   5161   5160   5167     1  0.0000000  0.6508444  3
   5162   5161   5160   5189     1  0.0000000  0.6508444  3
   5162   5161   5173   5185     1  0.0000000  0.6508444  3
   5162   5161   5173   5174     1  0.0000000  0.6508444  3
   5162   5161   5173   5175     1  0.0000000  0.6508444  3
   5163   5161   5160   5164     1  0.0000000  0.6508444  3
   5163   5161   5160   5167     1  0.0000000  0.6508444  3
   5163   5161   5160   5189     1  0.0000000  0.6508444  3
   5163   5161   5173   5185     1  0.0000000  0.6508444  3
   5163   5161   5173   5174     1  0.0000000  0.6508444  3
   5163   5161   5173   5175     1  0.0000000  0.6508444  3
   5164   5160   5167   5168     1  0.0000000  0.6508444  3
   5164   5160   5167   5169     1  0.0000000  0.6508444  3
   5164   5176   5182   5183     1  0.0000000  0.6508444  3
   5164   5176   5182   5184     1  0.0000000  0.6508444  3
   5165   5164   5160   5167     1  0.0000000  0.6508444  3
   5165   5164   5160   5189     1  0.0000000  0.6508444  3
   5165   5164   5176   5182     1  0.0000000  0.6508444  3
   5165   5164   5176   5177     1  0.0000000  0.6508444  3
   5165   5164   5176   5178     1  0.0000000  0.6508444  3
   5166   5164   5160   5167     1  0.0000000  0.6508444  3
   5166   5164   5160   5189     1  0.0000000  0.6508444  3
   5166   5164   5176   5182     1  0.0000000  0.6508444  3
   5166   5164   5176   5177     1  0.0000000  0.6508444  3
   5166   5164   5176   5178     1  0.0000000  0.6508444  3
   5167   5170   5179   5180     1  0.0000000  0.6508444  3
   5167   5170   5179   5181     1  0.0000000  0.6508444  3
   5168   5167   5160   5189     1  0.0000000  0.6508444  3
   5168   5167   5170   5179     1  0.0000000  0.6508444  3
   5168   5167   5170   5171     1  0.0000000  0.6508444  3
   5168   5167   5170   5172     1  0.0000000  0.6508444  3
   5169   5167   5160   5189     1  0.0000000  0.6508444  3
   5169   5167   5170   5179     1  0.0000000  0.6508444  3
   5169   5167   5170   5171     1  0.0000000  0.6508444  3
   5169   5167   5170   5172     1  0.0000000  0.6508444  3
   5170   5167   5160   5189     1  0.0000000  0.6508444  3
   5171   5170   5179   5188     1  0.0000000  1.0460000  1
   5171   5170   5179   5188     1  0.0000000  0.0000000  3
   5171   5170   5179   5180     1  0.0000000  0.6508444  3
   5171   5170   5179   5181     1  0.0000000  0.6508444  3
   5172   5170   5179   5188     1  0.0000000  1.0460000  1
   5172   5170   5179   5188     1  0.0000000  0.0000000  3
   5172   5170   5179   5180     1  0.0000000  0.6508444  3
   5172   5170   5179   5181     1  0.0000000  0.6508444  3
   5173   5161   5160   5189     1  0.0000000  0.6508444  3
   5174   5173   5185   7910     1  0.0000000  1.0460000  1
   5174   5173   5185   7910     1  0.0000000  0.0000000  3
   5174   5173   5185   5186     1  0.0000000  0.6508444  3
   5174   5173   5185   5187     1  0.0000000  0.6508444  3
   5175   5173   5185   7910     1  0.0000000  1.0460000  1
   5175   5173   5185   7910     1  0.0000000  0.0000000  3
   5175   5173   5185   5186     1  0.0000000  0.6508444  3
   5175   5173   5185   5187     1  0.0000000  0.6508444  3
   5176   5164   5160   5189     1  0.0000000  0.6508444  3
   5177   5176   5182   7896     1  0.0000000  1.0460000  1
   5177   5176   5182   7896     1  0.0000000  0.0000000  3
   5177   5176   5182   5183     1  0.0000000  0.6508444  3
   5177   5176   5182   5184     1  0.0000000  0.6508444  3
   5178   5176   5182   7896     1  0.0000000  1.0460000  1
   5178   5176   5182   7896     1  0.0000000  0.0000000  3
   5178   5176   5182   5183     1  0.0000000  0.6508444  3
   5178   5176   5182   5184     1  0.0000000  0.6508444  3
   5182   7896   7890   7891     1  0.0000000  1.6038667  3
   5182   7896   7890   7892     1  0.0000000  1.6038667  3
   5183   5182   7896   7890     1  0.0000000  1.6038667  3
   5184   5182   7896   7890     1  0.0000000  1.6038667  3
   5185   7910   7904   7905     1  0.0000000  1.6038667  3
   5185   7910   7904   7906     1  0.0000000  1.6038667  3
   5186   5185   7910   7904     1  0.0000000  1.6038667  3
   5187   5185   7910   7904     1  0.0000000  1.6038667  3
   5190   5191   5203   5204     1  0.0000000  0.6508444  3
   5190   5191   5203   5205     1  0.0000000  0.6508444  3
   5190   5194   5206   5207     1  0.0000000  0.6508444  3
   5190   5194   5206   5208     1  0.0000000  0.6508444  3
   5190   5197   5200   5201     1  0.0000000  0.6508444  3
   5190   5197   5200   5202     1  0.0000000  0.6508444  3
   5191   5190   5194   5195     1  0.0000000  0.6508444  3
   5191   5190   5194   5196     1  0.0000000  0.6508444  3
   5191   5190   5197   5198     1  0.0000000  0.6508444  3
   5191   5190   5197   5199     1  0.0000000  0.6508444  3
   5191   5203   5215   5216     1  0.0000000  0.6508444  3
   5191   5203   5215   5217     1  0.0000000  0.6508444  3
   5192   5191   5190   5194     1  0.0000000  0.6508444  3
   5192   5191   5190   5197     1  0.0000000  0.6508444  3
   5192   5191   5190   5219     1  0.0000000  0.6508444  3
   5192   5191   5203   5215     1  0.0000000  0.6508444  3
   5192   5191   5203   5204     1  0.0000000  0.6508444  3
   5192   5191   5203   5205     1  0.0000000  0.6508444  3
   5193   5191   5190   5194     1  0.0000000  0.6508444  3
   5193   5191   5190   5197     1  0.0000000  0.6508444  3
   5193   5191   5190   5219     1  0.0000000  0.6508444  3
   5193   5191   5203   5215     1  0.0000000  0.6508444  3
   5193   5191   5203   5204     1  0.0000000  0.6508444  3
   5193   5191   5203   5205     1  0.0000000  0.6508444  3
   5194   5190   5197   5198     1  0.0000000  0.6508444  3
   5194   5190   5197   5199     1  0.0000000  0.6508444  3
   5194   5206   5212   5213     1  0.0000000  0.6508444  3
   5194   5206   5212   5214     1  0.0000000  0.6508444  3
   5195   5194   5190   5197     1  0.0000000  0.6508444  3
   5195   5194   5190   5219     1  0.0000000  0.6508444  3
   5195   5194   5206   5212     1  0.0000000  0.6508444  3
   5195   5194   5206   5207     1  0.0000000  0.6508444  3
   5195   5194   5206   5208     1  0.0000000  0.6508444  3
   5196   5194   5190   5197     1  0.0000000  0.6508444  3
   5196   5194   5190   5219     1  0.0000000  0.6508444  3
   5196   5194   5206   5212     1  0.0000000  0.6508444  3
   5196   5194   5206   5207     1  0.0000000  0.6508444  3
   5196   5194   5206   5208     1  0.0000000  0.6508444  3
   5197   5200   5209   5210     1  0.0000000  0.6508444  3
   5197   5200   5209   5211     1  0.0000000  0.6508444  3
   5198   5197   5190   5219     1  0.0000000  0.6508444  3
   5198   5197   5200   5209     1  0.0000000  0.6508444  3
   5198   5197   5200   5201     1  0.0000000  0.6508444  3
   5198   5197   5200   5202     1  0.0000000  0.6508444  3
   5199   5197   5190   5219     1  0.0000000  0.6508444  3
   5199   5197   5200   5209     1  0.0000000  0.6508444  3
   5199   5197   5200   5201     1  0.0000000  0.6508444  3
   5199   5197   5200   5202     1  0.0000000  0.6508444  3
   5200   5197   5190   5219     1  0.0000000  0.6508444  3
   5201   5200   5209   5218     1  0.0000000  1.0460000  1
   5201   5200   5209   5218     1  0.0000000  0.0000000  3
   5201   5200   5209   5210     1  0.0000000  0.6508444  3
   5201   5200   5209   5211     1  0.0000000  0.6508444  3
   5202   5200   5209   5218     1  0.0000000  1.0460000  1
   5202   5200   5209   5218     1  0.0000000  0.0000000  3
   5202   5200   5209   5210     1  0.0000000  0.6508444  3
   5202   5200   5209   5211     1  0.0000000  0.6508444  3
   5203   5191   5190   5219     1  0.0000000  0.6508444  3
   5204   5203   5215   7938     1  0.0000000  1.0460000  1
   5204   5203   5215   7938     1  0.0000000  0.0000000  3
   5204   5203   5215   5216     1  0.0000000  0.6508444  3
   5204   5203   5215   5217     1  0.0000000  0.6508444  3
   5205   5203   5215   7938     1  0.0000000  1.0460000  1
   5205   5203   5215   7938     1  0.0000000  0.0000000  3
   5205   5203   5215   5216     1  0.0000000  0.6508444  3
   5205   5203   5215   5217     1  0.0000000  0.6508444  3
   5206   5194   5190   5219     1  0.0000000  0.6508444  3
   5207   5206   5212   7924     1  0.0000000  1.0460000  1
   5207   5206   5212   7924     1  0.0000000  0.0000000  3
   5207   5206   5212   5213     1  0.0000000  0.6508444  3
   5207   5206   5212   5214     1  0.0000000  0.6508444  3
   5208   5206   5212   7924     1  0.0000000  1.0460000  1
   5208   5206   5212   7924     1  0.0000000  0.0000000  3
   5208   5206   5212   5213     1  0.0000000  0.6508444  3
   5208   5206   5212   5214     1  0.0000000  0.6508444  3
   5212   7924   7918   7919     1  0.0000000  1.6038667  3
   5212   7924   7918   7920     1  0.0000000  1.6038667  3
   5213   5212   7924   7918     1  0.0000000  1.6038667  3
   5214   5212   7924   7918     1  0.0000000  1.6038667  3
   5215   7938   7932   7933     1  0.0000000  1.6038667  3
   5215   7938   7932   7934     1  0.0000000  1.6038667  3
   5216   5215   7938   7932     1  0.0000000  1.6038667  3
   5217   5215   7938   7932     1  0.0000000  1.6038667  3
   5220   5221   5233   5234     1  0.0000000  0.6508444  3
   5220   5221   5233   5235     1  0.0000000  0.6508444  3
   5220   5224   5236   5237     1  0.0000000  0.6508444  3
   5220   5224   5236   5238     1  0.0000000  0.6508444  3
   5220   5227   5230   5231     1  0.0000000  0.6508444  3
   5220   5227   5230   5232     1  0.0000000  0.6508444  3
   5221   5220   5224   5225     1  0.0000000  0.6508444  3
   5221   5220   5224   5226     1  0.0000000  0.6508444  3
   5221   5220   5227   5228     1  0.0000000  0.6508444  3
   5221   5220   5227   5229     1  0.0000000  0.6508444  3
   5221   5233   5245   5246     1  0.0000000  0.6508444  3
   5221   5233   5245   5247     1  0.0000000  0.6508444  3
   5222   5221   5220   5224     1  0.0000000  0.6508444  3
   5222   5221   5220   5227     1  0.0000000  0.6508444  3
   5222   5221   5220   5249     1  0.0000000  0.6508444  3
   5222   5221   5233   5245     1  0.0000000  0.6508444  3
   5222   5221   5233   5234     1  0.0000000  0.6508444  3
   5222   5221   5233   5235     1  0.0000000  0.6508444  3
   5223   5221   5220   5224     1  0.0000000  0.6508444  3
   5223   5221   5220   5227     1  0.0000000  0.6508444  3
   5223   5221   5220   5249     1  0.0000000  0.6508444  3
   5223   5221   5233   5245     1  0.0000000  0.6508444  3
   5223   5221   5233   5234     1  0.0000000  0.6508444  3
   5223   5221   5233   5235     1  0.0000000  0.6508444  3
   5224   5220   5227   5228     1  0.0000000  0.6508444  3
   5224   5220   5227   5229     1  0.0000000  0.6508444  3
   5224   5236   5242   5243     1  0.0000000  0.6508444  3
   5224   5236   5242   5244     1  0.0000000  0.6508444  3
   5225   5224   5220   5227     1  0.0000000  0.6508444  3
   5225   5224   5220   5249     1  0.0000000  0.6508444  3
   5225   5224   5236   5242     1  0.0000000  0.6508444  3
   5225   5224   5236   5237     1  0.0000000  0.6508444  3
   5225   5224   5236   5238     1  0.0000000  0.6508444  3
   5226   5224   5220   5227     1  0.0000000  0.6508444  3
   5226   5224   5220   5249     1  0.0000000  0.6508444  3
   5226   5224   5236   5242     1  0.0000000  0.6508444  3
   5226   5224   5236   5237     1  0.0000000  0.6508444  3
   5226   5224   5236   5238     1  0.0000000  0.6508444  3
   5227   5230   5239   5240     1  0.0000000  0.6508444  3
   5227   5230   5239   5241     1  0.0000000  0.6508444  3
   5228   5227   5220   5249     1  0.0000000  0.6508444  3
   5228   5227   5230   5239     1  0.0000000  0.6508444  3
   5228   5227   5230   5231     1  0.0000000  0.6508444  3
   5228   5227   5230   5232     1  0.0000000  0.6508444  3
   5229   5227   5220   5249     1  0.0000000  0.6508444  3
   5229   5227   5230   5239     1  0.0000000  0.6508444  3
   5229   5227   5230   5231     1  0.0000000  0.6508444  3
   5229   5227   5230   5232     1  0.0000000  0.6508444  3
   5230   5227   5220   5249     1  0.0000000  0.6508444  3
   5231   5230   5239   5248     1  0.0000000  1.0460000  1
   5231   5230   5239   5248     1  0.0000000  0.0000000  3
   5231   5230   5239   5240     1  0.0000000  0.6508444  3
   5231   5230   5239   5241     1  0.0000000  0.6508444  3
   5232   5230   5239   5248     1  0.0000000  1.0460000  1
   5232   5230   5239   5248     1  0.0000000  0.0000000  3
   5232   5230   5239   5240     1  0.0000000  0.6508444  3
   5232   5230   5239   5241     1  0.0000000  0.6508444  3
   5233   5221   5220   5249     1  0.0000000  0.6508444  3
   5234   5233   5245   7966     1  0.0000000  1.0460000  1
   5234   5233   5245   7966     1  0.0000000  0.0000000  3
   5234   5233   5245   5246     1  0.0000000  0.6508444  3
   5234   5233   5245   5247     1  0.0000000  0.6508444  3
   5235   5233   5245   7966     1  0.0000000  1.0460000  1
   5235   5233   5245   7966     1  0.0000000  0.0000000  3
   5235   5233   5245   5246     1  0.0000000  0.6508444  3
   5235   5233   5245   5247     1  0.0000000  0.6508444  3
   5236   5224   5220   5249     1  0.0000000  0.6508444  3
   5237   5236   5242   7952     1  0.0000000  1.0460000  1
   5237   5236   5242   7952     1  0.0000000  0.0000000  3
   5237   5236   5242   5243     1  0.0000000  0.6508444  3
   5237   5236   5242   5244     1  0.0000000  0.6508444  3
   5238   5236   5242   7952     1  0.0000000  1.0460000  1
   5238   5236   5242   7952     1  0.0000000  0.0000000  3
   5238   5236   5242   5243     1  0.0000000  0.6508444  3
   5238   5236   5242   5244     1  0.0000000  0.6508444  3
   5242   7952   7946   7947     1  0.0000000  1.6038667  3
   5242   7952   7946   7948     1  0.0000000  1.6038667  3
   5243   5242   7952   7946     1  0.0000000  1.6038667  3
   5244   5242   7952   7946     1  0.0000000  1.6038667  3
   5245   7966   7960   7961     1  0.0000000  1.6038667  3
   5245   7966   7960   7962     1  0.0000000  1.6038667  3
   5246   5245   7966   7960     1  0.0000000  1.6038667  3
   5247   5245   7966   7960     1  0.0000000  1.6038667  3
   5250   5251   5263   5264     1  0.0000000  0.6508444  3
   5250   5251   5263   5265     1  0.0000000  0.6508444  3
   5250   5254   5266   5267     1  0.0000000  0.6508444  3
   5250   5254   5266   5268     1  0.0000000  0.6508444  3
   5250   5257   5260   5261     1  0.0000000  0.6508444  3
   5250   5257   5260   5262     1  0.0000000  0.6508444  3
   5251   5250   5254   5255     1  0.0000000  0.6508444  3
   5251   5250   5254   5256     1  0.0000000  0.6508444  3
   5251   5250   5257   5258     1  0.0000000  0.6508444  3
   5251   5250   5257   5259     1  0.0000000  0.6508444  3
   5251   5263   5275   5276     1  0.0000000  0.6508444  3
   5251   5263   5275   5277     1  0.0000000  0.6508444  3
   5252   5251   5250   5254     1  0.0000000  0.6508444  3
   5252   5251   5250   5257     1  0.0000000  0.6508444  3
   5252   5251   5250   5279     1  0.0000000  0.6508444  3
   5252   5251   5263   5275     1  0.0000000  0.6508444  3
   5252   5251   5263   5264     1  0.0000000  0.6508444  3
   5252   5251   5263   5265     1  0.0000000  0.6508444  3
   5253   5251   5250   5254     1  0.0000000  0.6508444  3
   5253   5251   5250   5257     1  0.0000000  0.6508444  3
   5253   5251   5250   5279     1  0.0000000  0.6508444  3
   5253   5251   5263   5275     1  0.0000000  0.6508444  3
   5253   5251   5263   5264     1  0.0000000  0.6508444  3
   5253   5251   5263   5265     1  0.0000000  0.6508444  3
   5254   5250   5257   5258     1  0.0000000  0.6508444  3
   5254   5250   5257   5259     1  0.0000000  0.6508444  3
   5254   5266   5272   5273     1  0.0000000  0.6508444  3
   5254   5266   5272   5274     1  0.0000000  0.6508444  3
   5255   5254   5250   5257     1  0.0000000  0.6508444  3
   5255   5254   5250   5279     1  0.0000000  0.6508444  3
   5255   5254   5266   5272     1  0.0000000  0.6508444  3
   5255   5254   5266   5267     1  0.0000000  0.6508444  3
   5255   5254   5266   5268     1  0.0000000  0.6508444  3
   5256   5254   5250   5257     1  0.0000000  0.6508444  3
   5256   5254   5250   5279     1  0.0000000  0.6508444  3
   5256   5254   5266   5272     1  0.0000000  0.6508444  3
   5256   5254   5266   5267     1  0.0000000  0.6508444  3
   5256   5254   5266   5268     1  0.0000000  0.6508444  3
   5257   5260   5269   5270     1  0.0000000  0.6508444  3
   5257   5260   5269   5271     1  0.0000000  0.6508444  3
   5258   5257   5250   5279     1  0.0000000  0.6508444  3
   5258   5257   5260   5269     1  0.0000000  0.6508444  3
   5258   5257   5260   5261     1  0.0000000  0.6508444  3
   5258   5257   5260   5262     1  0.0000000  0.6508444  3
   5259   5257   5250   5279     1  0.0000000  0.6508444  3
   5259   5257   5260   5269     1  0.0000000  0.6508444  3
   5259   5257   5260   5261     1  0.0000000  0.6508444  3
   5259   5257   5260   5262     1  0.0000000  0.6508444  3
   5260   5257   5250   5279     1  0.0000000  0.6508444  3
   5261   5260   5269   5278     1  0.0000000  1.0460000  1
   5261   5260   5269   5278     1  0.0000000  0.0000000  3
   5261   5260   5269   5270     1  0.0000000  0.6508444  3
   5261   5260   5269   5271     1  0.0000000  0.6508444  3
   5262   5260   5269   5278     1  0.0000000  1.0460000  1
   5262   5260   5269   5278     1  0.0000000  0.0000000  3
   5262   5260   5269   5270     1  0.0000000  0.6508444  3
   5262   5260   5269   5271     1  0.0000000  0.6508444  3
   5263   5251   5250   5279     1  0.0000000  0.6508444  3
   5264   5263   5275   7994     1  0.0000000  1.0460000  1
   5264   5263   5275   7994     1  0.0000000  0.0000000  3
   5264   5263   5275   5276     1  0.0000000  0.6508444  3
   5264   5263   5275   5277     1  0.0000000  0.6508444  3
   5265   5263   5275   7994     1  0.0000000  1.0460000  1
   5265   5263   5275   7994     1  0.0000000  0.0000000  3
   5265   5263   5275   5276     1  0.0000000  0.6508444  3
   5265   5263   5275   5277     1  0.0000000  0.6508444  3
   5266   5254   5250   5279     1  0.0000000  0.6508444  3
   5267   5266   5272   7980     1  0.0000000  1.0460000  1
   5267   5266   5272   7980     1  0.0000000  0.0000000  3
   5267   5266   5272   5273     1  0.0000000  0.6508444  3
   5267   5266   5272   5274     1  0.0000000  0.6508444  3
   5268   5266   5272   7980     1  0.0000000  1.0460000  1
   5268   5266   5272   7980     1  0.0000000  0.0000000  3
   5268   5266   5272   5273     1  0.0000000  0.6508444  3
   5268   5266   5272   5274     1  0.0000000  0.6508444  3
   5272   7980   7974   7975     1  0.0000000  1.6038667  3
   5272   7980   7974   7976     1  0.0000000  1.6038667  3
   5273   5272   7980   7974     1  0.0000000  1.6038667  3
   5274   5272   7980   7974     1  0.0000000  1.6038667  3
   5275   7994   7988   7989     1  0.0000000  1.6038667  3
   5275   7994   7988   7990     1  0.0000000  1.6038667  3
   5276   5275   7994   7988     1  0.0000000  1.6038667  3
   5277   5275   7994   7988     1  0.0000000  1.6038667  3
   5280   5281   5293   5294     1  0.0000000  0.6508444  3
   5280   5281   5293   5295     1  0.0000000  0.6508444  3
   5280   5284   5296   5297     1  0.0000000  0.6508444  3
   5280   5284   5296   5298     1  0.0000000  0.6508444  3
   5280   5287   5290   5291     1  0.0000000  0.6508444  3
   5280   5287   5290   5292     1  0.0000000  0.6508444  3
   5281   5280   5284   5285     1  0.0000000  0.6508444  3
   5281   5280   5284   5286     1  0.0000000  0.6508444  3
   5281   5280   5287   5288     1  0.0000000  0.6508444  3
   5281   5280   5287   5289     1  0.0000000  0.6508444  3
   5281   5293   5305   5306     1  0.0000000  0.6508444  3
   5281   5293   5305   5307     1  0.0000000  0.6508444  3
   5282   5281   5280   5284     1  0.0000000  0.6508444  3
   5282   5281   5280   5287     1  0.0000000  0.6508444  3
   5282   5281   5280   5309     1  0.0000000  0.6508444  3
   5282   5281   5293   5305     1  0.0000000  0.6508444  3
   5282   5281   5293   5294     1  0.0000000  0.6508444  3
   5282   5281   5293   5295     1  0.0000000  0.6508444  3
   5283   5281   5280   5284     1  0.0000000  0.6508444  3
   5283   5281   5280   5287     1  0.0000000  0.6508444  3
   5283   5281   5280   5309     1  0.0000000  0.6508444  3
   5283   5281   5293   5305     1  0.0000000  0.6508444  3
   5283   5281   5293   5294     1  0.0000000  0.6508444  3
   5283   5281   5293   5295     1  0.0000000  0.6508444  3
   5284   5280   5287   5288     1  0.0000000  0.6508444  3
   5284   5280   5287   5289     1  0.0000000  0.6508444  3
   5284   5296   5302   5303     1  0.0000000  0.6508444  3
   5284   5296   5302   5304     1  0.0000000  0.6508444  3
   5285   5284   5280   5287     1  0.0000000  0.6508444  3
   5285   5284   5280   5309     1  0.0000000  0.6508444  3
   5285   5284   5296   5302     1  0.0000000  0.6508444  3
   5285   5284   5296   5297     1  0.0000000  0.6508444  3
   5285   5284   5296   5298     1  0.0000000  0.6508444  3
   5286   5284   5280   5287     1  0.0000000  0.6508444  3
   5286   5284   5280   5309     1  0.0000000  0.6508444  3
   5286   5284   5296   5302     1  0.0000000  0.6508444  3
   5286   5284   5296   5297     1  0.0000000  0.6508444  3
   5286   5284   5296   5298     1  0.0000000  0.6508444  3
   5287   5290   5299   5300     1  0.0000000  0.6508444  3
   5287   5290   5299   5301     1  0.0000000  0.6508444  3
   5288   5287   5280   5309     1  0.0000000  0.6508444  3
   5288   5287   5290   5299     1  0.0000000  0.6508444  3
   5288   5287   5290   5291     1  0.0000000  0.6508444  3
   5288   5287   5290   5292     1  0.0000000  0.6508444  3
   5289   5287   5280   5309     1  0.0000000  0.6508444  3
   5289   5287   5290   5299     1  0.0000000  0.6508444  3
   5289   5287   5290   5291     1  0.0000000  0.6508444  3
   5289   5287   5290   5292     1  0.0000000  0.6508444  3
   5290   5287   5280   5309     1  0.0000000  0.6508444  3
   5291   5290   5299   5308     1  0.0000000  1.0460000  1
   5291   5290   5299   5308     1  0.0000000  0.0000000  3
   5291   5290   5299   5300     1  0.0000000  0.6508444  3
   5291   5290   5299   5301     1  0.0000000  0.6508444  3
   5292   5290   5299   5308     1  0.0000000  1.0460000  1
   5292   5290   5299   5308     1  0.0000000  0.0000000  3
   5292   5290   5299   5300     1  0.0000000  0.6508444  3
   5292   5290   5299   5301     1  0.0000000  0.6508444  3
   5293   5281   5280   5309     1  0.0000000  0.6508444  3
   5294   5293   5305   8022     1  0.0000000  1.0460000  1
   5294   5293   5305   8022     1  0.0000000  0.0000000  3
   5294   5293   5305   5306     1  0.0000000  0.6508444  3
   5294   5293   5305   5307     1  0.0000000  0.6508444  3
   5295   5293   5305   8022     1  0.0000000  1.0460000  1
   5295   5293   5305   8022     1  0.0000000  0.0000000  3
   5295   5293   5305   5306     1  0.0000000  0.6508444  3
   5295   5293   5305   5307     1  0.0000000  0.6508444  3
   5296   5284   5280   5309     1  0.0000000  0.6508444  3
   5297   5296   5302   8008     1  0.0000000  1.0460000  1
   5297   5296   5302   8008     1  0.0000000  0.0000000  3
   5297   5296   5302   5303     1  0.0000000  0.6508444  3
   5297   5296   5302   5304     1  0.0000000  0.6508444  3
   5298   5296   5302   8008     1  0.0000000  1.0460000  1
   5298   5296   5302   8008     1  0.0000000  0.0000000  3
   5298   5296   5302   5303     1  0.0000000  0.6508444  3
   5298   5296   5302   5304     1  0.0000000  0.6508444  3
   5302   8008   8002   8003     1  0.0000000  1.6038667  3
   5302   8008   8002   8004     1  0.0000000  1.6038667  3
   5303   5302   8008   8002     1  0.0000000  1.6038667  3
   5304   5302   8008   8002     1  0.0000000  1.6038667  3
   5305   8022   8016   8017     1  0.0000000  1.6038667  3
   5305   8022   8016   8018     1  0.0000000  1.6038667  3
   5306   5305   8022   8016     1  0.0000000  1.6038667  3
   5307   5305   8022   8016     1  0.0000000  1.6038667  3
   5310   5311   5323   5324     1  0.0000000  0.6508444  3
   5310   5311   5323   5325     1  0.0000000  0.6508444  3
   5310   5314   5326   5327     1  0.0000000  0.6508444  3
   5310   5314   5326   5328     1  0.0000000  0.6508444  3
   5310   5317   5320   5321     1  0.0000000  0.6508444  3
   5310   5317   5320   5322     1  0.0000000  0.6508444  3
   5311   5310   5314   5315     1  0.0000000  0.6508444  3
   5311   5310   5314   5316     1  0.0000000  0.6508444  3
   5311   5310   5317   5318     1  0.0000000  0.6508444  3
   5311   5310   5317   5319     1  0.0000000  0.6508444  3
   5311   5323   5335   5336     1  0.0000000  0.6508444  3
   5311   5323   5335   5337     1  0.0000000  0.6508444  3
   5312   5311   5310   5314     1  0.0000000  0.6508444  3
   5312   5311   5310   5317     1  0.0000000  0.6508444  3
   5312   5311   5310   5339     1  0.0000000  0.6508444  3
   5312   5311   5323   5335     1  0.0000000  0.6508444  3
   5312   5311   5323   5324     1  0.0000000  0.6508444  3
   5312   5311   5323   5325     1  0.0000000  0.6508444  3
   5313   5311   5310   5314     1  0.0000000  0.6508444  3
   5313   5311   5310   5317     1  0.0000000  0.6508444  3
   5313   5311   5310   5339     1  0.0000000  0.6508444  3
   5313   5311   5323   5335     1  0.0000000  0.6508444  3
   5313   5311   5323   5324     1  0.0000000  0.6508444  3
   5313   5311   5323   5325     1  0.0000000  0.6508444  3
   5314   5310   5317   5318     1  0.0000000  0.6508444  3
   5314   5310   5317   5319     1  0.0000000  0.6508444  3
   5314   5326   5332   5333     1  0.0000000  0.6508444  3
   5314   5326   5332   5334     1  0.0000000  0.6508444  3
   5315   5314   5310   5317     1  0.0000000  0.6508444  3
   5315   5314   5310   5339     1  0.0000000  0.6508444  3
   5315   5314   5326   5332     1  0.0000000  0.6508444  3
   5315   5314   5326   5327     1  0.0000000  0.6508444  3
   5315   5314   5326   5328     1  0.0000000  0.6508444  3
   5316   5314   5310   5317     1  0.0000000  0.6508444  3
   5316   5314   5310   5339     1  0.0000000  0.6508444  3
   5316   5314   5326   5332     1  0.0000000  0.6508444  3
   5316   5314   5326   5327     1  0.0000000  0.6508444  3
   5316   5314   5326   5328     1  0.0000000  0.6508444  3
   5317   5320   5329   5330     1  0.0000000  0.6508444  3
   5317   5320   5329   5331     1  0.0000000  0.6508444  3
   5318   5317   5310   5339     1  0.0000000  0.6508444  3
   5318   5317   5320   5329     1  0.0000000  0.6508444  3
   5318   5317   5320   5321     1  0.0000000  0.6508444  3
   5318   5317   5320   5322     1  0.0000000  0.6508444  3
   5319   5317   5310   5339     1  0.0000000  0.6508444  3
   5319   5317   5320   5329     1  0.0000000  0.6508444  3
   5319   5317   5320   5321     1  0.0000000  0.6508444  3
   5319   5317   5320   5322     1  0.0000000  0.6508444  3
   5320   5317   5310   5339     1  0.0000000  0.6508444  3
   5321   5320   5329   5338     1  0.0000000  1.0460000  1
   5321   5320   5329   5338     1  0.0000000  0.0000000  3
   5321   5320   5329   5330     1  0.0000000  0.6508444  3
   5321   5320   5329   5331     1  0.0000000  0.6508444  3
   5322   5320   5329   5338     1  0.0000000  1.0460000  1
   5322   5320   5329   5338     1  0.0000000  0.0000000  3
   5322   5320   5329   5330     1  0.0000000  0.6508444  3
   5322   5320   5329   5331     1  0.0000000  0.6508444  3
   5323   5311   5310   5339     1  0.0000000  0.6508444  3
   5324   5323   5335   8050     1  0.0000000  1.0460000  1
   5324   5323   5335   8050     1  0.0000000  0.0000000  3
   5324   5323   5335   5336     1  0.0000000  0.6508444  3
   5324   5323   5335   5337     1  0.0000000  0.6508444  3
   5325   5323   5335   8050     1  0.0000000  1.0460000  1
   5325   5323   5335   8050     1  0.0000000  0.0000000  3
   5325   5323   5335   5336     1  0.0000000  0.6508444  3
   5325   5323   5335   5337     1  0.0000000  0.6508444  3
   5326   5314   5310   5339     1  0.0000000  0.6508444  3
   5327   5326   5332   8036     1  0.0000000  1.0460000  1
   5327   5326   5332   8036     1  0.0000000  0.0000000  3
   5327   5326   5332   5333     1  0.0000000  0.6508444  3
   5327   5326   5332   5334     1  0.0000000  0.6508444  3
   5328   5326   5332   8036     1  0.0000000  1.0460000  1
   5328   5326   5332   8036     1  0.0000000  0.0000000  3
   5328   5326   5332   5333     1  0.0000000  0.6508444  3
   5328   5326   5332   5334     1  0.0000000  0.6508444  3
   5332   8036   8030   8031     1  0.0000000  1.6038667  3
   5332   8036   8030   8032     1  0.0000000  1.6038667  3
   5333   5332   8036   8030     1  0.0000000  1.6038667  3
   5334   5332   8036   8030     1  0.0000000  1.6038667  3
   5335   8050   8044   8045     1  0.0000000  1.6038667  3
   5335   8050   8044   8046     1  0.0000000  1.6038667  3
   5336   5335   8050   8044     1  0.0000000  1.6038667  3
   5337   5335   8050   8044     1  0.0000000  1.6038667  3
   5340   5341   5353   5354     1  0.0000000  0.6508444  3
   5340   5341   5353   5355     1  0.0000000  0.6508444  3
   5340   5344   5356   5357     1  0.0000000  0.6508444  3
   5340   5344   5356   5358     1  0.0000000  0.6508444  3
   5340   5347   5350   5351     1  0.0000000  0.6508444  3
   5340   5347   5350   5352     1  0.0000000  0.6508444  3
   5341   5340   5344   5345     1  0.0000000  0.6508444  3
   5341   5340   5344   5346     1  0.0000000  0.6508444  3
   5341   5340   5347   5348     1  0.0000000  0.6508444  3
   5341   5340   5347   5349     1  0.0000000  0.6508444  3
   5341   5353   5365   5366     1  0.0000000  0.6508444  3
   5341   5353   5365   5367     1  0.0000000  0.6508444  3
   5342   5341   5340   5344     1  0.0000000  0.6508444  3
   5342   5341   5340   5347     1  0.0000000  0.6508444  3
   5342   5341   5340   5369     1  0.0000000  0.6508444  3
   5342   5341   5353   5365     1  0.0000000  0.6508444  3
   5342   5341   5353   5354     1  0.0000000  0.6508444  3
   5342   5341   5353   5355     1  0.0000000  0.6508444  3
   5343   5341   5340   5344     1  0.0000000  0.6508444  3
   5343   5341   5340   5347     1  0.0000000  0.6508444  3
   5343   5341   5340   5369     1  0.0000000  0.6508444  3
   5343   5341   5353   5365     1  0.0000000  0.6508444  3
   5343   5341   5353   5354     1  0.0000000  0.6508444  3
   5343   5341   5353   5355     1  0.0000000  0.6508444  3
   5344   5340   5347   5348     1  0.0000000  0.6508444  3
   5344   5340   5347   5349     1  0.0000000  0.6508444  3
   5344   5356   5362   5363     1  0.0000000  0.6508444  3
   5344   5356   5362   5364     1  0.0000000  0.6508444  3
   5345   5344   5340   5347     1  0.0000000  0.6508444  3
   5345   5344   5340   5369     1  0.0000000  0.6508444  3
   5345   5344   5356   5362     1  0.0000000  0.6508444  3
   5345   5344   5356   5357     1  0.0000000  0.6508444  3
   5345   5344   5356   5358     1  0.0000000  0.6508444  3
   5346   5344   5340   5347     1  0.0000000  0.6508444  3
   5346   5344   5340   5369     1  0.0000000  0.6508444  3
   5346   5344   5356   5362     1  0.0000000  0.6508444  3
   5346   5344   5356   5357     1  0.0000000  0.6508444  3
   5346   5344   5356   5358     1  0.0000000  0.6508444  3
   5347   5350   5359   5360     1  0.0000000  0.6508444  3
   5347   5350   5359   5361     1  0.0000000  0.6508444  3
   5348   5347   5340   5369     1  0.0000000  0.6508444  3
   5348   5347   5350   5359     1  0.0000000  0.6508444  3
   5348   5347   5350   5351     1  0.0000000  0.6508444  3
   5348   5347   5350   5352     1  0.0000000  0.6508444  3
   5349   5347   5340   5369     1  0.0000000  0.6508444  3
   5349   5347   5350   5359     1  0.0000000  0.6508444  3
   5349   5347   5350   5351     1  0.0000000  0.6508444  3
   5349   5347   5350   5352     1  0.0000000  0.6508444  3
   5350   5347   5340   5369     1  0.0000000  0.6508444  3
   5351   5350   5359   5368     1  0.0000000  1.0460000  1
   5351   5350   5359   5368     1  0.0000000  0.0000000  3
   5351   5350   5359   5360     1  0.0000000  0.6508444  3
   5351   5350   5359   5361     1  0.0000000  0.6508444  3
   5352   5350   5359   5368     1  0.0000000  1.0460000  1
   5352   5350   5359   5368     1  0.0000000  0.0000000  3
   5352   5350   5359   5360     1  0.0000000  0.6508444  3
   5352   5350   5359   5361     1  0.0000000  0.6508444  3
   5353   5341   5340   5369     1  0.0000000  0.6508444  3
   5354   5353   5365   8078     1  0.0000000  1.0460000  1
   5354   5353   5365   8078     1  0.0000000  0.0000000  3
   5354   5353   5365   5366     1  0.0000000  0.6508444  3
   5354   5353   5365   5367     1  0.0000000  0.6508444  3
   5355   5353   5365   8078     1  0.0000000  1.0460000  1
   5355   5353   5365   8078     1  0.0000000  0.0000000  3
   5355   5353   5365   5366     1  0.0000000  0.6508444  3
   5355   5353   5365   5367     1  0.0000000  0.6508444  3
   5356   5344   5340   5369     1  0.0000000  0.6508444  3
   5357   5356   5362   8064     1  0.0000000  1.0460000  1
   5357   5356   5362   8064     1  0.0000000  0.0000000  3
   5357   5356   5362   5363     1  0.0000000  0.6508444  3
   5357   5356   5362   5364     1  0.0000000  0.6508444  3
   5358   5356   5362   8064     1  0.0000000  1.0460000  1
   5358   5356   5362   8064     1  0.0000000  0.0000000  3
   5358   5356   5362   5363     1  0.0000000  0.6508444  3
   5358   5356   5362   5364     1  0.0000000  0.6508444  3
   5362   8064   8058   8059     1  0.0000000  1.6038667  3
   5362   8064   8058   8060     1  0.0000000  1.6038667  3
   5363   5362   8064   8058     1  0.0000000  1.6038667  3
   5364   5362   8064   8058     1  0.0000000  1.6038667  3
   5365   8078   8072   8073     1  0.0000000  1.6038667  3
   5365   8078   8072   8074     1  0.0000000  1.6038667  3
   5366   5365   8078   8072     1  0.0000000  1.6038667  3
   5367   5365   8078   8072     1  0.0000000  1.6038667  3
   5370   5371   5383   5384     1  0.0000000  0.6508444  3
   5370   5371   5383   5385     1  0.0000000  0.6508444  3
   5370   5374   5386   5387     1  0.0000000  0.6508444  3
   5370   5374   5386   5388     1  0.0000000  0.6508444  3
   5370   5377   5380   5381     1  0.0000000  0.6508444  3
   5370   5377   5380   5382     1  0.0000000  0.6508444  3
   5371   5370   5374   5375     1  0.0000000  0.6508444  3
   5371   5370   5374   5376     1  0.0000000  0.6508444  3
   5371   5370   5377   5378     1  0.0000000  0.6508444  3
   5371   5370   5377   5379     1  0.0000000  0.6508444  3
   5371   5383   5395   5396     1  0.0000000  0.6508444  3
   5371   5383   5395   5397     1  0.0000000  0.6508444  3
   5372   5371   5370   5374     1  0.0000000  0.6508444  3
   5372   5371   5370   5377     1  0.0000000  0.6508444  3
   5372   5371   5370   5399     1  0.0000000  0.6508444  3
   5372   5371   5383   5395     1  0.0000000  0.6508444  3
   5372   5371   5383   5384     1  0.0000000  0.6508444  3
   5372   5371   5383   5385     1  0.0000000  0.6508444  3
   5373   5371   5370   5374     1  0.0000000  0.6508444  3
   5373   5371   5370   5377     1  0.0000000  0.6508444  3
   5373   5371   5370   5399     1  0.0000000  0.6508444  3
   5373   5371   5383   5395     1  0.0000000  0.6508444  3
   5373   5371   5383   5384     1  0.0000000  0.6508444  3
   5373   5371   5383   5385     1  0.0000000  0.6508444  3
   5374   5370   5377   5378     1  0.0000000  0.6508444  3
   5374   5370   5377   5379     1  0.0000000  0.6508444  3
   5374   5386   5392   5393     1  0.0000000  0.6508444  3
   5374   5386   5392   5394     1  0.0000000  0.6508444  3
   5375   5374   5370   5377     1  0.0000000  0.6508444  3
   5375   5374   5370   5399     1  0.0000000  0.6508444  3
   5375   5374   5386   5392     1  0.0000000  0.6508444  3
   5375   5374   5386   5387     1  0.0000000  0.6508444  3
   5375   5374   5386   5388     1  0.0000000  0.6508444  3
   5376   5374   5370   5377     1  0.0000000  0.6508444  3
   5376   5374   5370   5399     1  0.0000000  0.6508444  3
   5376   5374   5386   5392     1  0.0000000  0.6508444  3
   5376   5374   5386   5387     1  0.0000000  0.6508444  3
   5376   5374   5386   5388     1  0.0000000  0.6508444  3
   5377   5380   5389   5390     1  0.0000000  0.6508444  3
   5377   5380   5389   5391     1  0.0000000  0.6508444  3
   5378   5377   5370   5399     1  0.0000000  0.6508444  3
   5378   5377   5380   5389     1  0.0000000  0.6508444  3
   5378   5377   5380   5381     1  0.0000000  0.6508444  3
   5378   5377   5380   5382     1  0.0000000  0.6508444  3
   5379   5377   5370   5399     1  0.0000000  0.6508444  3
   5379   5377   5380   5389     1  0.0000000  0.6508444  3
   5379   5377   5380   5381     1  0.0000000  0.6508444  3
   5379   5377   5380   5382     1  0.0000000  0.6508444  3
   5380   5377   5370   5399     1  0.0000000  0.6508444  3
   5381   5380   5389   5398     1  0.0000000  1.0460000  1
   5381   5380   5389   5398     1  0.0000000  0.0000000  3
   5381   5380   5389   5390     1  0.0000000  0.6508444  3
   5381   5380   5389   5391     1  0.0000000  0.6508444  3
   5382   5380   5389   5398     1  0.0000000  1.0460000  1
   5382   5380   5389   5398     1  0.0000000  0.0000000  3
   5382   5380   5389   5390     1  0.0000000  0.6508444  3
   5382   5380   5389   5391     1  0.0000000  0.6508444  3
   5383   5371   5370   5399     1  0.0000000  0.6508444  3
   5384   5383   5395   8106     1  0.0000000  1.0460000  1
   5384   5383   5395   8106     1  0.0000000  0.0000000  3
   5384   5383   5395   5396     1  0.0000000  0.6508444  3
   5384   5383   5395   5397     1  0.0000000  0.6508444  3
   5385   5383   5395   8106     1  0.0000000  1.0460000  1
   5385   5383   5395   8106     1  0.0000000  0.0000000  3
   5385   5383   5395   5396     1  0.0000000  0.6508444  3
   5385   5383   5395   5397     1  0.0000000  0.6508444  3
   5386   5374   5370   5399     1  0.0000000  0.6508444  3
   5387   5386   5392   8092     1  0.0000000  1.0460000  1
   5387   5386   5392   8092     1  0.0000000  0.0000000  3
   5387   5386   5392   5393     1  0.0000000  0.6508444  3
   5387   5386   5392   5394     1  0.0000000  0.6508444  3
   5388   5386   5392   8092     1  0.0000000  1.0460000  1
   5388   5386   5392   8092     1  0.0000000  0.0000000  3
   5388   5386   5392   5393     1  0.0000000  0.6508444  3
   5388   5386   5392   5394     1  0.0000000  0.6508444  3
   5392   8092   8086   8087     1  0.0000000  1.6038667  3
   5392   8092   8086   8088     1  0.0000000  1.6038667  3
   5393   5392   8092   8086     1  0.0000000  1.6038667  3
   5394   5392   8092   8086     1  0.0000000  1.6038667  3
   5395   8106   8100   8101     1  0.0000000  1.6038667  3
   5395   8106   8100   8102     1  0.0000000  1.6038667  3
   5396   5395   8106   8100     1  0.0000000  1.6038667  3
   5397   5395   8106   8100     1  0.0000000  1.6038667  3
   5400   5401   5413   5414     1  0.0000000  0.6508444  3
   5400   5401   5413   5415     1  0.0000000  0.6508444  3
   5400   5404   5416   5417     1  0.0000000  0.6508444  3
   5400   5404   5416   5418     1  0.0000000  0.6508444  3
   5400   5407   5410   5411     1  0.0000000  0.6508444  3
   5400   5407   5410   5412     1  0.0000000  0.6508444  3
   5401   5400   5404   5405     1  0.0000000  0.6508444  3
   5401   5400   5404   5406     1  0.0000000  0.6508444  3
   5401   5400   5407   5408     1  0.0000000  0.6508444  3
   5401   5400   5407   5409     1  0.0000000  0.6508444  3
   5401   5413   5425   5426     1  0.0000000  0.6508444  3
   5401   5413   5425   5427     1  0.0000000  0.6508444  3
   5402   5401   5400   5404     1  0.0000000  0.6508444  3
   5402   5401   5400   5407     1  0.0000000  0.6508444  3
   5402   5401   5400   5429     1  0.0000000  0.6508444  3
   5402   5401   5413   5425     1  0.0000000  0.6508444  3
   5402   5401   5413   5414     1  0.0000000  0.6508444  3
   5402   5401   5413   5415     1  0.0000000  0.6508444  3
   5403   5401   5400   5404     1  0.0000000  0.6508444  3
   5403   5401   5400   5407     1  0.0000000  0.6508444  3
   5403   5401   5400   5429     1  0.0000000  0.6508444  3
   5403   5401   5413   5425     1  0.0000000  0.6508444  3
   5403   5401   5413   5414     1  0.0000000  0.6508444  3
   5403   5401   5413   5415     1  0.0000000  0.6508444  3
   5404   5400   5407   5408     1  0.0000000  0.6508444  3
   5404   5400   5407   5409     1  0.0000000  0.6508444  3
   5404   5416   5422   5423     1  0.0000000  0.6508444  3
   5404   5416   5422   5424     1  0.0000000  0.6508444  3
   5405   5404   5400   5407     1  0.0000000  0.6508444  3
   5405   5404   5400   5429     1  0.0000000  0.6508444  3
   5405   5404   5416   5422     1  0.0000000  0.6508444  3
   5405   5404   5416   5417     1  0.0000000  0.6508444  3
   5405   5404   5416   5418     1  0.0000000  0.6508444  3
   5406   5404   5400   5407     1  0.0000000  0.6508444  3
   5406   5404   5400   5429     1  0.0000000  0.6508444  3
   5406   5404   5416   5422     1  0.0000000  0.6508444  3
   5406   5404   5416   5417     1  0.0000000  0.6508444  3
   5406   5404   5416   5418     1  0.0000000  0.6508444  3
   5407   5410   5419   5420     1  0.0000000  0.6508444  3
   5407   5410   5419   5421     1  0.0000000  0.6508444  3
   5408   5407   5400   5429     1  0.0000000  0.6508444  3
   5408   5407   5410   5419     1  0.0000000  0.6508444  3
   5408   5407   5410   5411     1  0.0000000  0.6508444  3
   5408   5407   5410   5412     1  0.0000000  0.6508444  3
   5409   5407   5400   5429     1  0.0000000  0.6508444  3
   5409   5407   5410   5419     1  0.0000000  0.6508444  3
   5409   5407   5410   5411     1  0.0000000  0.6508444  3
   5409   5407   5410   5412     1  0.0000000  0.6508444  3
   5410   5407   5400   5429     1  0.0000000  0.6508444  3
   5411   5410   5419   5428     1  0.0000000  1.0460000  1
   5411   5410   5419   5428     1  0.0000000  0.0000000  3
   5411   5410   5419   5420     1  0.0000000  0.6508444  3
   5411   5410   5419   5421     1  0.0000000  0.6508444  3
   5412   5410   5419   5428     1  0.0000000  1.0460000  1
   5412   5410   5419   5428     1  0.0000000  0.0000000  3
   5412   5410   5419   5420     1  0.0000000  0.6508444  3
   5412   5410   5419   5421     1  0.0000000  0.6508444  3
   5413   5401   5400   5429     1  0.0000000  0.6508444  3
   5414   5413   5425   8134     1  0.0000000  1.0460000  1
   5414   5413   5425   8134     1  0.0000000  0.0000000  3
   5414   5413   5425   5426     1  0.0000000  0.6508444  3
   5414   5413   5425   5427     1  0.0000000  0.6508444  3
   5415   5413   5425   8134     1  0.0000000  1.0460000  1
   5415   5413   5425   8134     1  0.0000000  0.0000000  3
   5415   5413   5425   5426     1  0.0000000  0.6508444  3
   5415   5413   5425   5427     1  0.0000000  0.6508444  3
   5416   5404   5400   5429     1  0.0000000  0.6508444  3
   5417   5416   5422   8120     1  0.0000000  1.0460000  1
   5417   5416   5422   8120     1  0.0000000  0.0000000  3
   5417   5416   5422   5423     1  0.0000000  0.6508444  3
   5417   5416   5422   5424     1  0.0000000  0.6508444  3
   5418   5416   5422   8120     1  0.0000000  1.0460000  1
   5418   5416   5422   8120     1  0.0000000  0.0000000  3
   5418   5416   5422   5423     1  0.0000000  0.6508444  3
   5418   5416   5422   5424     1  0.0000000  0.6508444  3
   5422   8120   8114   8115     1  0.0000000  1.6038667  3
   5422   8120   8114   8116     1  0.0000000  1.6038667  3
   5423   5422   8120   8114     1  0.0000000  1.6038667  3
   5424   5422   8120   8114     1  0.0000000  1.6038667  3
   5425   8134   8128   8129     1  0.0000000  1.6038667  3
   5425   8134   8128   8130     1  0.0000000  1.6038667  3
   5426   5425   8134   8128     1  0.0000000  1.6038667  3
   5427   5425   8134   8128     1  0.0000000  1.6038667  3
   5430   5431   5443   5444     1  0.0000000  0.6508444  3
   5430   5431   5443   5445     1  0.0000000  0.6508444  3
   5430   5434   5446   5447     1  0.0000000  0.6508444  3
   5430   5434   5446   5448     1  0.0000000  0.6508444  3
   5430   5437   5440   5441     1  0.0000000  0.6508444  3
   5430   5437   5440   5442     1  0.0000000  0.6508444  3
   5431   5430   5434   5435     1  0.0000000  0.6508444  3
   5431   5430   5434   5436     1  0.0000000  0.6508444  3
   5431   5430   5437   5438     1  0.0000000  0.6508444  3
   5431   5430   5437   5439     1  0.0000000  0.6508444  3
   5431   5443   5455   5456     1  0.0000000  0.6508444  3
   5431   5443   5455   5457     1  0.0000000  0.6508444  3
   5432   5431   5430   5434     1  0.0000000  0.6508444  3
   5432   5431   5430   5437     1  0.0000000  0.6508444  3
   5432   5431   5430   5459     1  0.0000000  0.6508444  3
   5432   5431   5443   5455     1  0.0000000  0.6508444  3
   5432   5431   5443   5444     1  0.0000000  0.6508444  3
   5432   5431   5443   5445     1  0.0000000  0.6508444  3
   5433   5431   5430   5434     1  0.0000000  0.6508444  3
   5433   5431   5430   5437     1  0.0000000  0.6508444  3
   5433   5431   5430   5459     1  0.0000000  0.6508444  3
   5433   5431   5443   5455     1  0.0000000  0.6508444  3
   5433   5431   5443   5444     1  0.0000000  0.6508444  3
   5433   5431   5443   5445     1  0.0000000  0.6508444  3
   5434   5430   5437   5438     1  0.0000000  0.6508444  3
   5434   5430   5437   5439     1  0.0000000  0.6508444  3
   5434   5446   5452   5453     1  0.0000000  0.6508444  3
   5434   5446   5452   5454     1  0.0000000  0.6508444  3
   5435   5434   5430   5437     1  0.0000000  0.6508444  3
   5435   5434   5430   5459     1  0.0000000  0.6508444  3
   5435   5434   5446   5452     1  0.0000000  0.6508444  3
   5435   5434   5446   5447     1  0.0000000  0.6508444  3
   5435   5434   5446   5448     1  0.0000000  0.6508444  3
   5436   5434   5430   5437     1  0.0000000  0.6508444  3
   5436   5434   5430   5459     1  0.0000000  0.6508444  3
   5436   5434   5446   5452     1  0.0000000  0.6508444  3
   5436   5434   5446   5447     1  0.0000000  0.6508444  3
   5436   5434   5446   5448     1  0.0000000  0.6508444  3
   5437   5440   5449   5450     1  0.0000000  0.6508444  3
   5437   5440   5449   5451     1  0.0000000  0.6508444  3
   5438   5437   5430   5459     1  0.0000000  0.6508444  3
   5438   5437   5440   5449     1  0.0000000  0.6508444  3
   5438   5437   5440   5441     1  0.0000000  0.6508444  3
   5438   5437   5440   5442     1  0.0000000  0.6508444  3
   5439   5437   5430   5459     1  0.0000000  0.6508444  3
   5439   5437   5440   5449     1  0.0000000  0.6508444  3
   5439   5437   5440   5441     1  0.0000000  0.6508444  3
   5439   5437   5440   5442     1  0.0000000  0.6508444  3
   5440   5437   5430   5459     1  0.0000000  0.6508444  3
   5441   5440   5449   5458     1  0.0000000  1.0460000  1
   5441   5440   5449   5458     1  0.0000000  0.0000000  3
   5441   5440   5449   5450     1  0.0000000  0.6508444  3
   5441   5440   5449   5451     1  0.0000000  0.6508444  3
   5442   5440   5449   5458     1  0.0000000  1.0460000  1
   5442   5440   5449   5458     1  0.0000000  0.0000000  3
   5442   5440   5449   5450     1  0.0000000  0.6508444  3
   5442   5440   5449   5451     1  0.0000000  0.6508444  3
   5443   5431   5430   5459     1  0.0000000  0.6508444  3
   5444   5443   5455   8162     1  0.0000000  1.0460000  1
   5444   5443   5455   8162     1  0.0000000  0.0000000  3
   5444   5443   5455   5456     1  0.0000000  0.6508444  3
   5444   5443   5455   5457     1  0.0000000  0.6508444  3
   5445   5443   5455   8162     1  0.0000000  1.0460000  1
   5445   5443   5455   8162     1  0.0000000  0.0000000  3
   5445   5443   5455   5456     1  0.0000000  0.6508444  3
   5445   5443   5455   5457     1  0.0000000  0.6508444  3
   5446   5434   5430   5459     1  0.0000000  0.6508444  3
   5447   5446   5452   8148     1  0.0000000  1.0460000  1
   5447   5446   5452   8148     1  0.0000000  0.0000000  3
   5447   5446   5452   5453     1  0.0000000  0.6508444  3
   5447   5446   5452   5454     1  0.0000000  0.6508444  3
   5448   5446   5452   8148     1  0.0000000  1.0460000  1
   5448   5446   5452   8148     1  0.0000000  0.0000000  3
   5448   5446   5452   5453     1  0.0000000  0.6508444  3
   5448   5446   5452   5454     1  0.0000000  0.6508444  3
   5452   8148   8142   8143     1  0.0000000  1.6038667  3
   5452   8148   8142   8144     1  0.0000000  1.6038667  3
   5453   5452   8148   8142     1  0.0000000  1.6038667  3
   5454   5452   8148   8142     1  0.0000000  1.6038667  3
   5455   8162   8156   8157     1  0.0000000  1.6038667  3
   5455   8162   8156   8158     1  0.0000000  1.6038667  3
   5456   5455   8162   8156     1  0.0000000  1.6038667  3
   5457   5455   8162   8156     1  0.0000000  1.6038667  3
   5460   5461   5473   5474     1  0.0000000  0.6508444  3
   5460   5461   5473   5475     1  0.0000000  0.6508444  3
   5460   5464   5476   5477     1  0.0000000  0.6508444  3
   5460   5464   5476   5478     1  0.0000000  0.6508444  3
   5460   5467   5470   5471     1  0.0000000  0.6508444  3
   5460   5467   5470   5472     1  0.0000000  0.6508444  3
   5461   5460   5464   5465     1  0.0000000  0.6508444  3
   5461   5460   5464   5466     1  0.0000000  0.6508444  3
   5461   5460   5467   5468     1  0.0000000  0.6508444  3
   5461   5460   5467   5469     1  0.0000000  0.6508444  3
   5461   5473   5485   5486     1  0.0000000  0.6508444  3
   5461   5473   5485   5487     1  0.0000000  0.6508444  3
   5462   5461   5460   5464     1  0.0000000  0.6508444  3
   5462   5461   5460   5467     1  0.0000000  0.6508444  3
   5462   5461   5460   5489     1  0.0000000  0.6508444  3
   5462   5461   5473   5485     1  0.0000000  0.6508444  3
   5462   5461   5473   5474     1  0.0000000  0.6508444  3
   5462   5461   5473   5475     1  0.0000000  0.6508444  3
   5463   5461   5460   5464     1  0.0000000  0.6508444  3
   5463   5461   5460   5467     1  0.0000000  0.6508444  3
   5463   5461   5460   5489     1  0.0000000  0.6508444  3
   5463   5461   5473   5485     1  0.0000000  0.6508444  3
   5463   5461   5473   5474     1  0.0000000  0.6508444  3
   5463   5461   5473   5475     1  0.0000000  0.6508444  3
   5464   5460   5467   5468     1  0.0000000  0.6508444  3
   5464   5460   5467   5469     1  0.0000000  0.6508444  3
   5464   5476   5482   5483     1  0.0000000  0.6508444  3
   5464   5476   5482   5484     1  0.0000000  0.6508444  3
   5465   5464   5460   5467     1  0.0000000  0.6508444  3
   5465   5464   5460   5489     1  0.0000000  0.6508444  3
   5465   5464   5476   5482     1  0.0000000  0.6508444  3
   5465   5464   5476   5477     1  0.0000000  0.6508444  3
   5465   5464   5476   5478     1  0.0000000  0.6508444  3
   5466   5464   5460   5467     1  0.0000000  0.6508444  3
   5466   5464   5460   5489     1  0.0000000  0.6508444  3
   5466   5464   5476   5482     1  0.0000000  0.6508444  3
   5466   5464   5476   5477     1  0.0000000  0.6508444  3
   5466   5464   5476   5478     1  0.0000000  0.6508444  3
   5467   5470   5479   5480     1  0.0000000  0.6508444  3
   5467   5470   5479   5481     1  0.0000000  0.6508444  3
   5468   5467   5460   5489     1  0.0000000  0.6508444  3
   5468   5467   5470   5479     1  0.0000000  0.6508444  3
   5468   5467   5470   5471     1  0.0000000  0.6508444  3
   5468   5467   5470   5472     1  0.0000000  0.6508444  3
   5469   5467   5460   5489     1  0.0000000  0.6508444  3
   5469   5467   5470   5479     1  0.0000000  0.6508444  3
   5469   5467   5470   5471     1  0.0000000  0.6508444  3
   5469   5467   5470   5472     1  0.0000000  0.6508444  3
   5470   5467   5460   5489     1  0.0000000  0.6508444  3
   5471   5470   5479   5488     1  0.0000000  1.0460000  1
   5471   5470   5479   5488     1  0.0000000  0.0000000  3
   5471   5470   5479   5480     1  0.0000000  0.6508444  3
   5471   5470   5479   5481     1  0.0000000  0.6508444  3
   5472   5470   5479   5488     1  0.0000000  1.0460000  1
   5472   5470   5479   5488     1  0.0000000  0.0000000  3
   5472   5470   5479   5480     1  0.0000000  0.6508444  3
   5472   5470   5479   5481     1  0.0000000  0.6508444  3
   5473   5461   5460   5489     1  0.0000000  0.6508444  3
   5474   5473   5485   8190     1  0.0000000  1.0460000  1
   5474   5473   5485   8190     1  0.0000000  0.0000000  3
   5474   5473   5485   5486     1  0.0000000  0.6508444  3
   5474   5473   5485   5487     1  0.0000000  0.6508444  3
   5475   5473   5485   8190     1  0.0000000  1.0460000  1
   5475   5473   5485   8190     1  0.0000000  0.0000000  3
   5475   5473   5485   5486     1  0.0000000  0.6508444  3
   5475   5473   5485   5487     1  0.0000000  0.6508444  3
   5476   5464   5460   5489     1  0.0000000  0.6508444  3
   5477   5476   5482   8176     1  0.0000000  1.0460000  1
   5477   5476   5482   8176     1  0.0000000  0.0000000  3
   5477   5476   5482   5483     1  0.0000000  0.6508444  3
   5477   5476   5482   5484     1  0.0000000  0.6508444  3
   5478   5476   5482   8176     1  0.0000000  1.0460000  1
   5478   5476   5482   8176     1  0.0000000  0.0000000  3
   5478   5476   5482   5483     1  0.0000000  0.6508444  3
   5478   5476   5482   5484     1  0.0000000  0.6508444  3
   5482   8176   8170   8171     1  0.0000000  1.6038667  3
   5482   8176   8170   8172     1  0.0000000  1.6038667  3
   5483   5482   8176   8170     1  0.0000000  1.6038667  3
   5484   5482   8176   8170     1  0.0000000  1.6038667  3
   5485   8190   8184   8185     1  0.0000000  1.6038667  3
   5485   8190   8184   8186     1  0.0000000  1.6038667  3
   5486   5485   8190   8184     1  0.0000000  1.6038667  3
   5487   5485   8190   8184     1  0.0000000  1.6038667  3
   5490   5491   5503   5504     1  0.0000000  0.6508444  3
   5490   5491   5503   5505     1  0.0000000  0.6508444  3
   5490   5494   5506   5507     1  0.0000000  0.6508444  3
   5490   5494   5506   5508     1  0.0000000  0.6508444  3
   5490   5497   5500   5501     1  0.0000000  0.6508444  3
   5490   5497   5500   5502     1  0.0000000  0.6508444  3
   5491   5490   5494   5495     1  0.0000000  0.6508444  3
   5491   5490   5494   5496     1  0.0000000  0.6508444  3
   5491   5490   5497   5498     1  0.0000000  0.6508444  3
   5491   5490   5497   5499     1  0.0000000  0.6508444  3
   5491   5503   5515   5516     1  0.0000000  0.6508444  3
   5491   5503   5515   5517     1  0.0000000  0.6508444  3
   5492   5491   5490   5494     1  0.0000000  0.6508444  3
   5492   5491   5490   5497     1  0.0000000  0.6508444  3
   5492   5491   5490   5519     1  0.0000000  0.6508444  3
   5492   5491   5503   5515     1  0.0000000  0.6508444  3
   5492   5491   5503   5504     1  0.0000000  0.6508444  3
   5492   5491   5503   5505     1  0.0000000  0.6508444  3
   5493   5491   5490   5494     1  0.0000000  0.6508444  3
   5493   5491   5490   5497     1  0.0000000  0.6508444  3
   5493   5491   5490   5519     1  0.0000000  0.6508444  3
   5493   5491   5503   5515     1  0.0000000  0.6508444  3
   5493   5491   5503   5504     1  0.0000000  0.6508444  3
   5493   5491   5503   5505     1  0.0000000  0.6508444  3
   5494   5490   5497   5498     1  0.0000000  0.6508444  3
   5494   5490   5497   5499     1  0.0000000  0.6508444  3
   5494   5506   5512   5513     1  0.0000000  0.6508444  3
   5494   5506   5512   5514     1  0.0000000  0.6508444  3
   5495   5494   5490   5497     1  0.0000000  0.6508444  3
   5495   5494   5490   5519     1  0.0000000  0.6508444  3
   5495   5494   5506   5512     1  0.0000000  0.6508444  3
   5495   5494   5506   5507     1  0.0000000  0.6508444  3
   5495   5494   5506   5508     1  0.0000000  0.6508444  3
   5496   5494   5490   5497     1  0.0000000  0.6508444  3
   5496   5494   5490   5519     1  0.0000000  0.6508444  3
   5496   5494   5506   5512     1  0.0000000  0.6508444  3
   5496   5494   5506   5507     1  0.0000000  0.6508444  3
   5496   5494   5506   5508     1  0.0000000  0.6508444  3
   5497   5500   5509   5510     1  0.0000000  0.6508444  3
   5497   5500   5509   5511     1  0.0000000  0.6508444  3
   5498   5497   5490   5519     1  0.0000000  0.6508444  3
   5498   5497   5500   5509     1  0.0000000  0.6508444  3
   5498   5497   5500   5501     1  0.0000000  0.6508444  3
   5498   5497   5500   5502     1  0.0000000  0.6508444  3
   5499   5497   5490   5519     1  0.0000000  0.6508444  3
   5499   5497   5500   5509     1  0.0000000  0.6508444  3
   5499   5497   5500   5501     1  0.0000000  0.6508444  3
   5499   5497   5500   5502     1  0.0000000  0.6508444  3
   5500   5497   5490   5519     1  0.0000000  0.6508444  3
   5501   5500   5509   5518     1  0.0000000  1.0460000  1
   5501   5500   5509   5518     1  0.0000000  0.0000000  3
   5501   5500   5509   5510     1  0.0000000  0.6508444  3
   5501   5500   5509   5511     1  0.0000000  0.6508444  3
   5502   5500   5509   5518     1  0.0000000  1.0460000  1
   5502   5500   5509   5518     1  0.0000000  0.0000000  3
   5502   5500   5509   5510     1  0.0000000  0.6508444  3
   5502   5500   5509   5511     1  0.0000000  0.6508444  3
   5503   5491   5490   5519     1  0.0000000  0.6508444  3
   5504   5503   5515   8218     1  0.0000000  1.0460000  1
   5504   5503   5515   8218     1  0.0000000  0.0000000  3
   5504   5503   5515   5516     1  0.0000000  0.6508444  3
   5504   5503   5515   5517     1  0.0000000  0.6508444  3
   5505   5503   5515   8218     1  0.0000000  1.0460000  1
   5505   5503   5515   8218     1  0.0000000  0.0000000  3
   5505   5503   5515   5516     1  0.0000000  0.6508444  3
   5505   5503   5515   5517     1  0.0000000  0.6508444  3
   5506   5494   5490   5519     1  0.0000000  0.6508444  3
   5507   5506   5512   8204     1  0.0000000  1.0460000  1
   5507   5506   5512   8204     1  0.0000000  0.0000000  3
   5507   5506   5512   5513     1  0.0000000  0.6508444  3
   5507   5506   5512   5514     1  0.0000000  0.6508444  3
   5508   5506   5512   8204     1  0.0000000  1.0460000  1
   5508   5506   5512   8204     1  0.0000000  0.0000000  3
   5508   5506   5512   5513     1  0.0000000  0.6508444  3
   5508   5506   5512   5514     1  0.0000000  0.6508444  3
   5512   8204   8198   8199     1  0.0000000  1.6038667  3
   5512   8204   8198   8200     1  0.0000000  1.6038667  3
   5513   5512   8204   8198     1  0.0000000  1.6038667  3
   5514   5512   8204   8198     1  0.0000000  1.6038667  3
   5515   8218   8212   8213     1  0.0000000  1.6038667  3
   5515   8218   8212   8214     1  0.0000000  1.6038667  3
   5516   5515   8218   8212     1  0.0000000  1.6038667  3
   5517   5515   8218   8212     1  0.0000000  1.6038667  3
   5520   5521   5533   5534     1  0.0000000  0.6508444  3
   5520   5521   5533   5535     1  0.0000000  0.6508444  3
   5520   5524   5536   5537     1  0.0000000  0.6508444  3
   5520   5524   5536   5538     1  0.0000000  0.6508444  3
   5520   5527   5530   5531     1  0.0000000  0.6508444  3
   5520   5527   5530   5532     1  0.0000000  0.6508444  3
   5521   5520   5524   5525     1  0.0000000  0.6508444  3
   5521   5520   5524   5526     1  0.0000000  0.6508444  3
   5521   5520   5527   5528     1  0.0000000  0.6508444  3
   5521   5520   5527   5529     1  0.0000000  0.6508444  3
   5521   5533   5545   5546     1  0.0000000  0.6508444  3
   5521   5533   5545   5547     1  0.0000000  0.6508444  3
   5522   5521   5520   5524     1  0.0000000  0.6508444  3
   5522   5521   5520   5527     1  0.0000000  0.6508444  3
   5522   5521   5520   5549     1  0.0000000  0.6508444  3
   5522   5521   5533   5545     1  0.0000000  0.6508444  3
   5522   5521   5533   5534     1  0.0000000  0.6508444  3
   5522   5521   5533   5535     1  0.0000000  0.6508444  3
   5523   5521   5520   5524     1  0.0000000  0.6508444  3
   5523   5521   5520   5527     1  0.0000000  0.6508444  3
   5523   5521   5520   5549     1  0.0000000  0.6508444  3
   5523   5521   5533   5545     1  0.0000000  0.6508444  3
   5523   5521   5533   5534     1  0.0000000  0.6508444  3
   5523   5521   5533   5535     1  0.0000000  0.6508444  3
   5524   5520   5527   5528     1  0.0000000  0.6508444  3
   5524   5520   5527   5529     1  0.0000000  0.6508444  3
   5524   5536   5542   5543     1  0.0000000  0.6508444  3
   5524   5536   5542   5544     1  0.0000000  0.6508444  3
   5525   5524   5520   5527     1  0.0000000  0.6508444  3
   5525   5524   5520   5549     1  0.0000000  0.6508444  3
   5525   5524   5536   5542     1  0.0000000  0.6508444  3
   5525   5524   5536   5537     1  0.0000000  0.6508444  3
   5525   5524   5536   5538     1  0.0000000  0.6508444  3
   5526   5524   5520   5527     1  0.0000000  0.6508444  3
   5526   5524   5520   5549     1  0.0000000  0.6508444  3
   5526   5524   5536   5542     1  0.0000000  0.6508444  3
   5526   5524   5536   5537     1  0.0000000  0.6508444  3
   5526   5524   5536   5538     1  0.0000000  0.6508444  3
   5527   5530   5539   5540     1  0.0000000  0.6508444  3
   5527   5530   5539   5541     1  0.0000000  0.6508444  3
   5528   5527   5520   5549     1  0.0000000  0.6508444  3
   5528   5527   5530   5539     1  0.0000000  0.6508444  3
   5528   5527   5530   5531     1  0.0000000  0.6508444  3
   5528   5527   5530   5532     1  0.0000000  0.6508444  3
   5529   5527   5520   5549     1  0.0000000  0.6508444  3
   5529   5527   5530   5539     1  0.0000000  0.6508444  3
   5529   5527   5530   5531     1  0.0000000  0.6508444  3
   5529   5527   5530   5532     1  0.0000000  0.6508444  3
   5530   5527   5520   5549     1  0.0000000  0.6508444  3
   5531   5530   5539   5548     1  0.0000000  1.0460000  1
   5531   5530   5539   5548     1  0.0000000  0.0000000  3
   5531   5530   5539   5540     1  0.0000000  0.6508444  3
   5531   5530   5539   5541     1  0.0000000  0.6508444  3
   5532   5530   5539   5548     1  0.0000000  1.0460000  1
   5532   5530   5539   5548     1  0.0000000  0.0000000  3
   5532   5530   5539   5540     1  0.0000000  0.6508444  3
   5532   5530   5539   5541     1  0.0000000  0.6508444  3
   5533   5521   5520   5549     1  0.0000000  0.6508444  3
   5534   5533   5545   8246     1  0.0000000  1.0460000  1
   5534   5533   5545   8246     1  0.0000000  0.0000000  3
   5534   5533   5545   5546     1  0.0000000  0.6508444  3
   5534   5533   5545   5547     1  0.0000000  0.6508444  3
   5535   5533   5545   8246     1  0.0000000  1.0460000  1
   5535   5533   5545   8246     1  0.0000000  0.0000000  3
   5535   5533   5545   5546     1  0.0000000  0.6508444  3
   5535   5533   5545   5547     1  0.0000000  0.6508444  3
   5536   5524   5520   5549     1  0.0000000  0.6508444  3
   5537   5536   5542   8232     1  0.0000000  1.0460000  1
   5537   5536   5542   8232     1  0.0000000  0.0000000  3
   5537   5536   5542   5543     1  0.0000000  0.6508444  3
   5537   5536   5542   5544     1  0.0000000  0.6508444  3
   5538   5536   5542   8232     1  0.0000000  1.0460000  1
   5538   5536   5542   8232     1  0.0000000  0.0000000  3
   5538   5536   5542   5543     1  0.0000000  0.6508444  3
   5538   5536   5542   5544     1  0.0000000  0.6508444  3
   5542   8232   8226   8227     1  0.0000000  1.6038667  3
   5542   8232   8226   8228     1  0.0000000  1.6038667  3
   5543   5542   8232   8226     1  0.0000000  1.6038667  3
   5544   5542   8232   8226     1  0.0000000  1.6038667  3
   5545   8246   8240   8241     1  0.0000000  1.6038667  3
   5545   8246   8240   8242     1  0.0000000  1.6038667  3
   5546   5545   8246   8240     1  0.0000000  1.6038667  3
   5547   5545   8246   8240     1  0.0000000  1.6038667  3
   5550   5551   5563   5564     1  0.0000000  0.6508444  3
   5550   5551   5563   5565     1  0.0000000  0.6508444  3
   5550   5554   5566   5567     1  0.0000000  0.6508444  3
   5550   5554   5566   5568     1  0.0000000  0.6508444  3
   5550   5557   5560   5561     1  0.0000000  0.6508444  3
   5550   5557   5560   5562     1  0.0000000  0.6508444  3
   5551   5550   5554   5555     1  0.0000000  0.6508444  3
   5551   5550   5554   5556     1  0.0000000  0.6508444  3
   5551   5550   5557   5558     1  0.0000000  0.6508444  3
   5551   5550   5557   5559     1  0.0000000  0.6508444  3
   5551   5563   5575   5576     1  0.0000000  0.6508444  3
   5551   5563   5575   5577     1  0.0000000  0.6508444  3
   5552   5551   5550   5554     1  0.0000000  0.6508444  3
   5552   5551   5550   5557     1  0.0000000  0.6508444  3
   5552   5551   5550   5579     1  0.0000000  0.6508444  3
   5552   5551   5563   5575     1  0.0000000  0.6508444  3
   5552   5551   5563   5564     1  0.0000000  0.6508444  3
   5552   5551   5563   5565     1  0.0000000  0.6508444  3
   5553   5551   5550   5554     1  0.0000000  0.6508444  3
   5553   5551   5550   5557     1  0.0000000  0.6508444  3
   5553   5551   5550   5579     1  0.0000000  0.6508444  3
   5553   5551   5563   5575     1  0.0000000  0.6508444  3
   5553   5551   5563   5564     1  0.0000000  0.6508444  3
   5553   5551   5563   5565     1  0.0000000  0.6508444  3
   5554   5550   5557   5558     1  0.0000000  0.6508444  3
   5554   5550   5557   5559     1  0.0000000  0.6508444  3
   5554   5566   5572   5573     1  0.0000000  0.6508444  3
   5554   5566   5572   5574     1  0.0000000  0.6508444  3
   5555   5554   5550   5557     1  0.0000000  0.6508444  3
   5555   5554   5550   5579     1  0.0000000  0.6508444  3
   5555   5554   5566   5572     1  0.0000000  0.6508444  3
   5555   5554   5566   5567     1  0.0000000  0.6508444  3
   5555   5554   5566   5568     1  0.0000000  0.6508444  3
   5556   5554   5550   5557     1  0.0000000  0.6508444  3
   5556   5554   5550   5579     1  0.0000000  0.6508444  3
   5556   5554   5566   5572     1  0.0000000  0.6508444  3
   5556   5554   5566   5567     1  0.0000000  0.6508444  3
   5556   5554   5566   5568     1  0.0000000  0.6508444  3
   5557   5560   5569   5570     1  0.0000000  0.6508444  3
   5557   5560   5569   5571     1  0.0000000  0.6508444  3
   5558   5557   5550   5579     1  0.0000000  0.6508444  3
   5558   5557   5560   5569     1  0.0000000  0.6508444  3
   5558   5557   5560   5561     1  0.0000000  0.6508444  3
   5558   5557   5560   5562     1  0.0000000  0.6508444  3
   5559   5557   5550   5579     1  0.0000000  0.6508444  3
   5559   5557   5560   5569     1  0.0000000  0.6508444  3
   5559   5557   5560   5561     1  0.0000000  0.6508444  3
   5559   5557   5560   5562     1  0.0000000  0.6508444  3
   5560   5557   5550   5579     1  0.0000000  0.6508444  3
   5561   5560   5569   5578     1  0.0000000  1.0460000  1
   5561   5560   5569   5578     1  0.0000000  0.0000000  3
   5561   5560   5569   5570     1  0.0000000  0.6508444  3
   5561   5560   5569   5571     1  0.0000000  0.6508444  3
   5562   5560   5569   5578     1  0.0000000  1.0460000  1
   5562   5560   5569   5578     1  0.0000000  0.0000000  3
   5562   5560   5569   5570     1  0.0000000  0.6508444  3
   5562   5560   5569   5571     1  0.0000000  0.6508444  3
   5563   5551   5550   5579     1  0.0000000  0.6508444  3
   5564   5563   5575   8274     1  0.0000000  1.0460000  1
   5564   5563   5575   8274     1  0.0000000  0.0000000  3
   5564   5563   5575   5576     1  0.0000000  0.6508444  3
   5564   5563   5575   5577     1  0.0000000  0.6508444  3
   5565   5563   5575   8274     1  0.0000000  1.0460000  1
   5565   5563   5575   8274     1  0.0000000  0.0000000  3
   5565   5563   5575   5576     1  0.0000000  0.6508444  3
   5565   5563   5575   5577     1  0.0000000  0.6508444  3
   5566   5554   5550   5579     1  0.0000000  0.6508444  3
   5567   5566   5572   8260     1  0.0000000  1.0460000  1
   5567   5566   5572   8260     1  0.0000000  0.0000000  3
   5567   5566   5572   5573     1  0.0000000  0.6508444  3
   5567   5566   5572   5574     1  0.0000000  0.6508444  3
   5568   5566   5572   8260     1  0.0000000  1.0460000  1
   5568   5566   5572   8260     1  0.0000000  0.0000000  3
   5568   5566   5572   5573     1  0.0000000  0.6508444  3
   5568   5566   5572   5574     1  0.0000000  0.6508444  3
   5572   8260   8254   8255     1  0.0000000  1.6038667  3
   5572   8260   8254   8256     1  0.0000000  1.6038667  3
   5573   5572   8260   8254     1  0.0000000  1.6038667  3
   5574   5572   8260   8254     1  0.0000000  1.6038667  3
   5575   8274   8268   8269     1  0.0000000  1.6038667  3
   5575   8274   8268   8270     1  0.0000000  1.6038667  3
   5576   5575   8274   8268     1  0.0000000  1.6038667  3
   5577   5575   8274   8268     1  0.0000000  1.6038667  3
   5580   5581   5593   5594     1  0.0000000  0.6508444  3
   5580   5581   5593   5595     1  0.0000000  0.6508444  3
   5580   5584   5596   5597     1  0.0000000  0.6508444  3
   5580   5584   5596   5598     1  0.0000000  0.6508444  3
   5580   5587   5590   5591     1  0.0000000  0.6508444  3
   5580   5587   5590   5592     1  0.0000000  0.6508444  3
   5581   5580   5584   5585     1  0.0000000  0.6508444  3
   5581   5580   5584   5586     1  0.0000000  0.6508444  3
   5581   5580   5587   5588     1  0.0000000  0.6508444  3
   5581   5580   5587   5589     1  0.0000000  0.6508444  3
   5581   5593   5605   5606     1  0.0000000  0.6508444  3
   5581   5593   5605   5607     1  0.0000000  0.6508444  3
   5582   5581   5580   5584     1  0.0000000  0.6508444  3
   5582   5581   5580   5587     1  0.0000000  0.6508444  3
   5582   5581   5580   5609     1  0.0000000  0.6508444  3
   5582   5581   5593   5605     1  0.0000000  0.6508444  3
   5582   5581   5593   5594     1  0.0000000  0.6508444  3
   5582   5581   5593   5595     1  0.0000000  0.6508444  3
   5583   5581   5580   5584     1  0.0000000  0.6508444  3
   5583   5581   5580   5587     1  0.0000000  0.6508444  3
   5583   5581   5580   5609     1  0.0000000  0.6508444  3
   5583   5581   5593   5605     1  0.0000000  0.6508444  3
   5583   5581   5593   5594     1  0.0000000  0.6508444  3
   5583   5581   5593   5595     1  0.0000000  0.6508444  3
   5584   5580   5587   5588     1  0.0000000  0.6508444  3
   5584   5580   5587   5589     1  0.0000000  0.6508444  3
   5584   5596   5602   5603     1  0.0000000  0.6508444  3
   5584   5596   5602   5604     1  0.0000000  0.6508444  3
   5585   5584   5580   5587     1  0.0000000  0.6508444  3
   5585   5584   5580   5609     1  0.0000000  0.6508444  3
   5585   5584   5596   5602     1  0.0000000  0.6508444  3
   5585   5584   5596   5597     1  0.0000000  0.6508444  3
   5585   5584   5596   5598     1  0.0000000  0.6508444  3
   5586   5584   5580   5587     1  0.0000000  0.6508444  3
   5586   5584   5580   5609     1  0.0000000  0.6508444  3
   5586   5584   5596   5602     1  0.0000000  0.6508444  3
   5586   5584   5596   5597     1  0.0000000  0.6508444  3
   5586   5584   5596   5598     1  0.0000000  0.6508444  3
   5587   5590   5599   5600     1  0.0000000  0.6508444  3
   5587   5590   5599   5601     1  0.0000000  0.6508444  3
   5588   5587   5580   5609     1  0.0000000  0.6508444  3
   5588   5587   5590   5599     1  0.0000000  0.6508444  3
   5588   5587   5590   5591     1  0.0000000  0.6508444  3
   5588   5587   5590   5592     1  0.0000000  0.6508444  3
   5589   5587   5580   5609     1  0.0000000  0.6508444  3
   5589   5587   5590   5599     1  0.0000000  0.6508444  3
   5589   5587   5590   5591     1  0.0000000  0.6508444  3
   5589   5587   5590   5592     1  0.0000000  0.6508444  3
   5590   5587   5580   5609     1  0.0000000  0.6508444  3
   5591   5590   5599   5608     1  0.0000000  1.0460000  1
   5591   5590   5599   5608     1  0.0000000  0.0000000  3
   5591   5590   5599   5600     1  0.0000000  0.6508444  3
   5591   5590   5599   5601     1  0.0000000  0.6508444  3
   5592   5590   5599   5608     1  0.0000000  1.0460000  1
   5592   5590   5599   5608     1  0.0000000  0.0000000  3
   5592   5590   5599   5600     1  0.0000000  0.6508444  3
   5592   5590   5599   5601     1  0.0000000  0.6508444  3
   5593   5581   5580   5609     1  0.0000000  0.6508444  3
   5594   5593   5605   8302     1  0.0000000  1.0460000  1
   5594   5593   5605   8302     1  0.0000000  0.0000000  3
   5594   5593   5605   5606     1  0.0000000  0.6508444  3
   5594   5593   5605   5607     1  0.0000000  0.6508444  3
   5595   5593   5605   8302     1  0.0000000  1.0460000  1
   5595   5593   5605   8302     1  0.0000000  0.0000000  3
   5595   5593   5605   5606     1  0.0000000  0.6508444  3
   5595   5593   5605   5607     1  0.0000000  0.6508444  3
   5596   5584   5580   5609     1  0.0000000  0.6508444  3
   5597   5596   5602   8288     1  0.0000000  1.0460000  1
   5597   5596   5602   8288     1  0.0000000  0.0000000  3
   5597   5596   5602   5603     1  0.0000000  0.6508444  3
   5597   5596   5602   5604     1  0.0000000  0.6508444  3
   5598   5596   5602   8288     1  0.0000000  1.0460000  1
   5598   5596   5602   8288     1  0.0000000  0.0000000  3
   5598   5596   5602   5603     1  0.0000000  0.6508444  3
   5598   5596   5602   5604     1  0.0000000  0.6508444  3
   5602   8288   8282   8283     1  0.0000000  1.6038667  3
   5602   8288   8282   8284     1  0.0000000  1.6038667  3
   5603   5602   8288   8282     1  0.0000000  1.6038667  3
   5604   5602   8288   8282     1  0.0000000  1.6038667  3
   5605   8302   8296   8297     1  0.0000000  1.6038667  3
   5605   8302   8296   8298     1  0.0000000  1.6038667  3
   5606   5605   8302   8296     1  0.0000000  1.6038667  3
   5607   5605   8302   8296     1  0.0000000  1.6038667  3
   5610   5611   5623   5624     1  0.0000000  0.6508444  3
   5610   5611   5623   5625     1  0.0000000  0.6508444  3
   5610   5614   5626   5627     1  0.0000000  0.6508444  3
   5610   5614   5626   5628     1  0.0000000  0.6508444  3
   5610   5617   5620   5621     1  0.0000000  0.6508444  3
   5610   5617   5620   5622     1  0.0000000  0.6508444  3
   5611   5610   5614   5615     1  0.0000000  0.6508444  3
   5611   5610   5614   5616     1  0.0000000  0.6508444  3
   5611   5610   5617   5618     1  0.0000000  0.6508444  3
   5611   5610   5617   5619     1  0.0000000  0.6508444  3
   5611   5623   5635   5636     1  0.0000000  0.6508444  3
   5611   5623   5635   5637     1  0.0000000  0.6508444  3
   5612   5611   5610   5614     1  0.0000000  0.6508444  3
   5612   5611   5610   5617     1  0.0000000  0.6508444  3
   5612   5611   5610   5639     1  0.0000000  0.6508444  3
   5612   5611   5623   5635     1  0.0000000  0.6508444  3
   5612   5611   5623   5624     1  0.0000000  0.6508444  3
   5612   5611   5623   5625     1  0.0000000  0.6508444  3
   5613   5611   5610   5614     1  0.0000000  0.6508444  3
   5613   5611   5610   5617     1  0.0000000  0.6508444  3
   5613   5611   5610   5639     1  0.0000000  0.6508444  3
   5613   5611   5623   5635     1  0.0000000  0.6508444  3
   5613   5611   5623   5624     1  0.0000000  0.6508444  3
   5613   5611   5623   5625     1  0.0000000  0.6508444  3
   5614   5610   5617   5618     1  0.0000000  0.6508444  3
   5614   5610   5617   5619     1  0.0000000  0.6508444  3
   5614   5626   5632   5633     1  0.0000000  0.6508444  3
   5614   5626   5632   5634     1  0.0000000  0.6508444  3
   5615   5614   5610   5617     1  0.0000000  0.6508444  3
   5615   5614   5610   5639     1  0.0000000  0.6508444  3
   5615   5614   5626   5632     1  0.0000000  0.6508444  3
   5615   5614   5626   5627     1  0.0000000  0.6508444  3
   5615   5614   5626   5628     1  0.0000000  0.6508444  3
   5616   5614   5610   5617     1  0.0000000  0.6508444  3
   5616   5614   5610   5639     1  0.0000000  0.6508444  3
   5616   5614   5626   5632     1  0.0000000  0.6508444  3
   5616   5614   5626   5627     1  0.0000000  0.6508444  3
   5616   5614   5626   5628     1  0.0000000  0.6508444  3
   5617   5620   5629   5630     1  0.0000000  0.6508444  3
   5617   5620   5629   5631     1  0.0000000  0.6508444  3
   5618   5617   5610   5639     1  0.0000000  0.6508444  3
   5618   5617   5620   5629     1  0.0000000  0.6508444  3
   5618   5617   5620   5621     1  0.0000000  0.6508444  3
   5618   5617   5620   5622     1  0.0000000  0.6508444  3
   5619   5617   5610   5639     1  0.0000000  0.6508444  3
   5619   5617   5620   5629     1  0.0000000  0.6508444  3
   5619   5617   5620   5621     1  0.0000000  0.6508444  3
   5619   5617   5620   5622     1  0.0000000  0.6508444  3
   5620   5617   5610   5639     1  0.0000000  0.6508444  3
   5621   5620   5629   5638     1  0.0000000  1.0460000  1
   5621   5620   5629   5638     1  0.0000000  0.0000000  3
   5621   5620   5629   5630     1  0.0000000  0.6508444  3
   5621   5620   5629   5631     1  0.0000000  0.6508444  3
   5622   5620   5629   5638     1  0.0000000  1.0460000  1
   5622   5620   5629   5638     1  0.0000000  0.0000000  3
   5622   5620   5629   5630     1  0.0000000  0.6508444  3
   5622   5620   5629   5631     1  0.0000000  0.6508444  3
   5623   5611   5610   5639     1  0.0000000  0.6508444  3
   5624   5623   5635   8330     1  0.0000000  1.0460000  1
   5624   5623   5635   8330     1  0.0000000  0.0000000  3
   5624   5623   5635   5636     1  0.0000000  0.6508444  3
   5624   5623   5635   5637     1  0.0000000  0.6508444  3
   5625   5623   5635   8330     1  0.0000000  1.0460000  1
   5625   5623   5635   8330     1  0.0000000  0.0000000  3
   5625   5623   5635   5636     1  0.0000000  0.6508444  3
   5625   5623   5635   5637     1  0.0000000  0.6508444  3
   5626   5614   5610   5639     1  0.0000000  0.6508444  3
   5627   5626   5632   8316     1  0.0000000  1.0460000  1
   5627   5626   5632   8316     1  0.0000000  0.0000000  3
   5627   5626   5632   5633     1  0.0000000  0.6508444  3
   5627   5626   5632   5634     1  0.0000000  0.6508444  3
   5628   5626   5632   8316     1  0.0000000  1.0460000  1
   5628   5626   5632   8316     1  0.0000000  0.0000000  3
   5628   5626   5632   5633     1  0.0000000  0.6508444  3
   5628   5626   5632   5634     1  0.0000000  0.6508444  3
   5632   8316   8310   8311     1  0.0000000  1.6038667  3
   5632   8316   8310   8312     1  0.0000000  1.6038667  3
   5633   5632   8316   8310     1  0.0000000  1.6038667  3
   5634   5632   8316   8310     1  0.0000000  1.6038667  3
   5635   8330   8324   8325     1  0.0000000  1.6038667  3
   5635   8330   8324   8326     1  0.0000000  1.6038667  3
   5636   5635   8330   8324     1  0.0000000  1.6038667  3
   5637   5635   8330   8324     1  0.0000000  1.6038667  3
   5640   5641   5653   5654     1  0.0000000  0.6508444  3
   5640   5641   5653   5655     1  0.0000000  0.6508444  3
   5640   5644   5656   5657     1  0.0000000  0.6508444  3
   5640   5644   5656   5658     1  0.0000000  0.6508444  3
   5640   5647   5650   5651     1  0.0000000  0.6508444  3
   5640   5647   5650   5652     1  0.0000000  0.6508444  3
   5641   5640   5644   5645     1  0.0000000  0.6508444  3
   5641   5640   5644   5646     1  0.0000000  0.6508444  3
   5641   5640   5647   5648     1  0.0000000  0.6508444  3
   5641   5640   5647   5649     1  0.0000000  0.6508444  3
   5641   5653   5665   5666     1  0.0000000  0.6508444  3
   5641   5653   5665   5667     1  0.0000000  0.6508444  3
   5642   5641   5640   5644     1  0.0000000  0.6508444  3
   5642   5641   5640   5647     1  0.0000000  0.6508444  3
   5642   5641   5640   5669     1  0.0000000  0.6508444  3
   5642   5641   5653   5665     1  0.0000000  0.6508444  3
   5642   5641   5653   5654     1  0.0000000  0.6508444  3
   5642   5641   5653   5655     1  0.0000000  0.6508444  3
   5643   5641   5640   5644     1  0.0000000  0.6508444  3
   5643   5641   5640   5647     1  0.0000000  0.6508444  3
   5643   5641   5640   5669     1  0.0000000  0.6508444  3
   5643   5641   5653   5665     1  0.0000000  0.6508444  3
   5643   5641   5653   5654     1  0.0000000  0.6508444  3
   5643   5641   5653   5655     1  0.0000000  0.6508444  3
   5644   5640   5647   5648     1  0.0000000  0.6508444  3
   5644   5640   5647   5649     1  0.0000000  0.6508444  3
   5644   5656   5662   5663     1  0.0000000  0.6508444  3
   5644   5656   5662   5664     1  0.0000000  0.6508444  3
   5645   5644   5640   5647     1  0.0000000  0.6508444  3
   5645   5644   5640   5669     1  0.0000000  0.6508444  3
   5645   5644   5656   5662     1  0.0000000  0.6508444  3
   5645   5644   5656   5657     1  0.0000000  0.6508444  3
   5645   5644   5656   5658     1  0.0000000  0.6508444  3
   5646   5644   5640   5647     1  0.0000000  0.6508444  3
   5646   5644   5640   5669     1  0.0000000  0.6508444  3
   5646   5644   5656   5662     1  0.0000000  0.6508444  3
   5646   5644   5656   5657     1  0.0000000  0.6508444  3
   5646   5644   5656   5658     1  0.0000000  0.6508444  3
   5647   5650   5659   5660     1  0.0000000  0.6508444  3
   5647   5650   5659   5661     1  0.0000000  0.6508444  3
   5648   5647   5640   5669     1  0.0000000  0.6508444  3
   5648   5647   5650   5659     1  0.0000000  0.6508444  3
   5648   5647   5650   5651     1  0.0000000  0.6508444  3
   5648   5647   5650   5652     1  0.0000000  0.6508444  3
   5649   5647   5640   5669     1  0.0000000  0.6508444  3
   5649   5647   5650   5659     1  0.0000000  0.6508444  3
   5649   5647   5650   5651     1  0.0000000  0.6508444  3
   5649   5647   5650   5652     1  0.0000000  0.6508444  3
   5650   5647   5640   5669     1  0.0000000  0.6508444  3
   5651   5650   5659   5668     1  0.0000000  1.0460000  1
   5651   5650   5659   5668     1  0.0000000  0.0000000  3
   5651   5650   5659   5660     1  0.0000000  0.6508444  3
   5651   5650   5659   5661     1  0.0000000  0.6508444  3
   5652   5650   5659   5668     1  0.0000000  1.0460000  1
   5652   5650   5659   5668     1  0.0000000  0.0000000  3
   5652   5650   5659   5660     1  0.0000000  0.6508444  3
   5652   5650   5659   5661     1  0.0000000  0.6508444  3
   5653   5641   5640   5669     1  0.0000000  0.6508444  3
   5654   5653   5665   8358     1  0.0000000  1.0460000  1
   5654   5653   5665   8358     1  0.0000000  0.0000000  3
   5654   5653   5665   5666     1  0.0000000  0.6508444  3
   5654   5653   5665   5667     1  0.0000000  0.6508444  3
   5655   5653   5665   8358     1  0.0000000  1.0460000  1
   5655   5653   5665   8358     1  0.0000000  0.0000000  3
   5655   5653   5665   5666     1  0.0000000  0.6508444  3
   5655   5653   5665   5667     1  0.0000000  0.6508444  3
   5656   5644   5640   5669     1  0.0000000  0.6508444  3
   5657   5656   5662   8344     1  0.0000000  1.0460000  1
   5657   5656   5662   8344     1  0.0000000  0.0000000  3
   5657   5656   5662   5663     1  0.0000000  0.6508444  3
   5657   5656   5662   5664     1  0.0000000  0.6508444  3
   5658   5656   5662   8344     1  0.0000000  1.0460000  1
   5658   5656   5662   8344     1  0.0000000  0.0000000  3
   5658   5656   5662   5663     1  0.0000000  0.6508444  3
   5658   5656   5662   5664     1  0.0000000  0.6508444  3
   5662   8344   8338   8339     1  0.0000000  1.6038667  3
   5662   8344   8338   8340     1  0.0000000  1.6038667  3
   5663   5662   8344   8338     1  0.0000000  1.6038667  3
   5664   5662   8344   8338     1  0.0000000  1.6038667  3
   5665   8358   8352   8353     1  0.0000000  1.6038667  3
   5665   8358   8352   8354     1  0.0000000  1.6038667  3
   5666   5665   8358   8352     1  0.0000000  1.6038667  3
   5667   5665   8358   8352     1  0.0000000  1.6038667  3
   5670   5671   5683   5684     1  0.0000000  0.6508444  3
   5670   5671   5683   5685     1  0.0000000  0.6508444  3
   5670   5674   5686   5687     1  0.0000000  0.6508444  3
   5670   5674   5686   5688     1  0.0000000  0.6508444  3
   5670   5677   5680   5681     1  0.0000000  0.6508444  3
   5670   5677   5680   5682     1  0.0000000  0.6508444  3
   5671   5670   5674   5675     1  0.0000000  0.6508444  3
   5671   5670   5674   5676     1  0.0000000  0.6508444  3
   5671   5670   5677   5678     1  0.0000000  0.6508444  3
   5671   5670   5677   5679     1  0.0000000  0.6508444  3
   5671   5683   5695   5696     1  0.0000000  0.6508444  3
   5671   5683   5695   5697     1  0.0000000  0.6508444  3
   5672   5671   5670   5674     1  0.0000000  0.6508444  3
   5672   5671   5670   5677     1  0.0000000  0.6508444  3
   5672   5671   5670   5699     1  0.0000000  0.6508444  3
   5672   5671   5683   5695     1  0.0000000  0.6508444  3
   5672   5671   5683   5684     1  0.0000000  0.6508444  3
   5672   5671   5683   5685     1  0.0000000  0.6508444  3
   5673   5671   5670   5674     1  0.0000000  0.6508444  3
   5673   5671   5670   5677     1  0.0000000  0.6508444  3
   5673   5671   5670   5699     1  0.0000000  0.6508444  3
   5673   5671   5683   5695     1  0.0000000  0.6508444  3
   5673   5671   5683   5684     1  0.0000000  0.6508444  3
   5673   5671   5683   5685     1  0.0000000  0.6508444  3
   5674   5670   5677   5678     1  0.0000000  0.6508444  3
   5674   5670   5677   5679     1  0.0000000  0.6508444  3
   5674   5686   5692   5693     1  0.0000000  0.6508444  3
   5674   5686   5692   5694     1  0.0000000  0.6508444  3
   5675   5674   5670   5677     1  0.0000000  0.6508444  3
   5675   5674   5670   5699     1  0.0000000  0.6508444  3
   5675   5674   5686   5692     1  0.0000000  0.6508444  3
   5675   5674   5686   5687     1  0.0000000  0.6508444  3
   5675   5674   5686   5688     1  0.0000000  0.6508444  3
   5676   5674   5670   5677     1  0.0000000  0.6508444  3
   5676   5674   5670   5699     1  0.0000000  0.6508444  3
   5676   5674   5686   5692     1  0.0000000  0.6508444  3
   5676   5674   5686   5687     1  0.0000000  0.6508444  3
   5676   5674   5686   5688     1  0.0000000  0.6508444  3
   5677   5680   5689   5690     1  0.0000000  0.6508444  3
   5677   5680   5689   5691     1  0.0000000  0.6508444  3
   5678   5677   5670   5699     1  0.0000000  0.6508444  3
   5678   5677   5680   5689     1  0.0000000  0.6508444  3
   5678   5677   5680   5681     1  0.0000000  0.6508444  3
   5678   5677   5680   5682     1  0.0000000  0.6508444  3
   5679   5677   5670   5699     1  0.0000000  0.6508444  3
   5679   5677   5680   5689     1  0.0000000  0.6508444  3
   5679   5677   5680   5681     1  0.0000000  0.6508444  3
   5679   5677   5680   5682     1  0.0000000  0.6508444  3
   5680   5677   5670   5699     1  0.0000000  0.6508444  3
   5681   5680   5689   5698     1  0.0000000  1.0460000  1
   5681   5680   5689   5698     1  0.0000000  0.0000000  3
   5681   5680   5689   5690     1  0.0000000  0.6508444  3
   5681   5680   5689   5691     1  0.0000000  0.6508444  3
   5682   5680   5689   5698     1  0.0000000  1.0460000  1
   5682   5680   5689   5698     1  0.0000000  0.0000000  3
   5682   5680   5689   5690     1  0.0000000  0.6508444  3
   5682   5680   5689   5691     1  0.0000000  0.6508444  3
   5683   5671   5670   5699     1  0.0000000  0.6508444  3
   5684   5683   5695   8386     1  0.0000000  1.0460000  1
   5684   5683   5695   8386     1  0.0000000  0.0000000  3
   5684   5683   5695   5696     1  0.0000000  0.6508444  3
   5684   5683   5695   5697     1  0.0000000  0.6508444  3
   5685   5683   5695   8386     1  0.0000000  1.0460000  1
   5685   5683   5695   8386     1  0.0000000  0.0000000  3
   5685   5683   5695   5696     1  0.0000000  0.6508444  3
   5685   5683   5695   5697     1  0.0000000  0.6508444  3
   5686   5674   5670   5699     1  0.0000000  0.6508444  3
   5687   5686   5692   8372     1  0.0000000  1.0460000  1
   5687   5686   5692   8372     1  0.0000000  0.0000000  3
   5687   5686   5692   5693     1  0.0000000  0.6508444  3
   5687   5686   5692   5694     1  0.0000000  0.6508444  3
   5688   5686   5692   8372     1  0.0000000  1.0460000  1
   5688   5686   5692   8372     1  0.0000000  0.0000000  3
   5688   5686   5692   5693     1  0.0000000  0.6508444  3
   5688   5686   5692   5694     1  0.0000000  0.6508444  3
   5692   8372   8366   8367     1  0.0000000  1.6038667  3
   5692   8372   8366   8368     1  0.0000000  1.6038667  3
   5693   5692   8372   8366     1  0.0000000  1.6038667  3
   5694   5692   8372   8366     1  0.0000000  1.6038667  3
   5695   8386   8380   8381     1  0.0000000  1.6038667  3
   5695   8386   8380   8382     1  0.0000000  1.6038667  3
   5696   5695   8386   8380     1  0.0000000  1.6038667  3
   5697   5695   8386   8380     1  0.0000000  1.6038667  3
   5700   5703   5706   5707     1  0.0000000  0.6508444  3
   5700   5703   5706   5708     1  0.0000000  0.6508444  3
   5701   5700   5703   5706     1  0.0000000  0.6508444  3
   5701   5700   5703   5704     1  0.0000000  0.6508444  3
   5701   5700   5703   5705     1  0.0000000  0.6508444  3
   5701   5700   5709   5710     1  0.0000000  0.6508444  3
   5701   5700   5709   5711     1  0.0000000  0.6508444  3
   5701   5700   5709   5713     1  0.0000000  0.6508444  3
   5702   5700   5703   5706     1  0.0000000  0.6508444  3
   5702   5700   5703   5704     1  0.0000000  0.6508444  3
   5702   5700   5703   5705     1  0.0000000  0.6508444  3
   5702   5700   5709   5710     1  0.0000000  0.6508444  3
   5702   5700   5709   5711     1  0.0000000  0.6508444  3
   5702   5700   5709   5713     1  0.0000000  0.6508444  3
   5703   5700   5709   5710     1  0.0000000  0.6508444  3
   5703   5700   5709   5711     1  0.0000000  0.6508444  3
   5703   5700   5709   5713     1  0.0000000  0.6508444  3
   5704   5703   5700   5709     1  0.0000000  0.6508444  3
   5704   5703   5706   5712     1  0.0000000  1.0460000  1
   5704   5703   5706   5712     1  0.0000000  0.0000000  3
   5704   5703   5706   5707     1  0.0000000  0.6508444  3
   5704   5703   5706   5708     1  0.0000000  0.6508444  3
   5705   5703   5700   5709     1  0.0000000  0.6508444  3
   5705   5703   5706   5712     1  0.0000000  1.0460000  1
   5705   5703   5706   5712     1  0.0000000  0.0000000  3
   5705   5703   5706   5707     1  0.0000000  0.6508444  3
   5705   5703   5706   5708     1  0.0000000  0.6508444  3
   5714   5717   5720   5721     1  0.0000000  0.6508444  3
   5714   5717   5720   5722     1  0.0000000  0.6508444  3
   5715   5714   5717   5720     1  0.0000000  0.6508444  3
   5715   5714   5717   5718     1  0.0000000  0.6508444  3
   5715   5714   5717   5719     1  0.0000000  0.6508444  3
   5715   5714   5723   5724     1  0.0000000  0.6508444  3
   5715   5714   5723   5725     1  0.0000000  0.6508444  3
   5715   5714   5723   5727     1  0.0000000  0.6508444  3
   5716   5714   5717   5720     1  0.0000000  0.6508444  3
   5716   5714   5717   5718     1  0.0000000  0.6508444  3
   5716   5714   5717   5719     1  0.0000000  0.6508444  3
   5716   5714   5723   5724     1  0.0000000  0.6508444  3
   5716   5714   5723   5725     1  0.0000000  0.6508444  3
   5716   5714   5723   5727     1  0.0000000  0.6508444  3
   5717   5714   5723   5724     1  0.0000000  0.6508444  3
   5717   5714   5723   5725     1  0.0000000  0.6508444  3
   5717   5714   5723   5727     1  0.0000000  0.6508444  3
   5718   5717   5720   5726     1  0.0000000  1.0460000  1
   5718   5717   5720   5726     1  0.0000000  0.0000000  3
   5718   5717   5720   5721     1  0.0000000  0.6508444  3
   5718   5717   5720   5722     1  0.0000000  0.6508444  3
   5718   5717   5714   5723     1  0.0000000  0.6508444  3
   5719   5717   5720   5726     1  0.0000000  1.0460000  1
   5719   5717   5720   5726     1  0.0000000  0.0000000  3
   5719   5717   5720   5721     1  0.0000000  0.6508444  3
   5719   5717   5720   5722     1  0.0000000  0.6508444  3
   5719   5717   5714   5723     1  0.0000000  0.6508444  3
   5728   5731   5734   5735     1  0.0000000  0.6508444  3
   5728   5731   5734   5736     1  0.0000000  0.6508444  3
   5729   5728   5731   5734     1  0.0000000  0.6508444  3
   5729   5728   5731   5732     1  0.0000000  0.6508444  3
   5729   5728   5731   5733     1  0.0000000  0.6508444  3
   5729   5728   5737   5738     1  0.0000000  0.6508444  3
   5729   5728   5737   5739     1  0.0000000  0.6508444  3
   5729   5728   5737   5741     1  0.0000000  0.6508444  3
   5730   5728   5731   5734     1  0.0000000  0.6508444  3
   5730   5728   5731   5732     1  0.0000000  0.6508444  3
   5730   5728   5731   5733     1  0.0000000  0.6508444  3
   5730   5728   5737   5738     1  0.0000000  0.6508444  3
   5730   5728   5737   5739     1  0.0000000  0.6508444  3
   5730   5728   5737   5741     1  0.0000000  0.6508444  3
   5731   5728   5737   5738     1  0.0000000  0.6508444  3
   5731   5728   5737   5739     1  0.0000000  0.6508444  3
   5731   5728   5737   5741     1  0.0000000  0.6508444  3
   5732   5731   5728   5737     1  0.0000000  0.6508444  3
   5732   5731   5734   5740     1  0.0000000  1.0460000  1
   5732   5731   5734   5740     1  0.0000000  0.0000000  3
   5732   5731   5734   5735     1  0.0000000  0.6508444  3
   5732   5731   5734   5736     1  0.0000000  0.6508444  3
   5733   5731   5728   5737     1  0.0000000  0.6508444  3
   5733   5731   5734   5740     1  0.0000000  1.0460000  1
   5733   5731   5734   5740     1  0.0000000  0.0000000  3
   5733   5731   5734   5735     1  0.0000000  0.6508444  3
   5733   5731   5734   5736     1  0.0000000  0.6508444  3
   5742   5745   5748   5749     1  0.0000000  0.6508444  3
   5742   5745   5748   5750     1  0.0000000  0.6508444  3
   5743   5742   5745   5748     1  0.0000000  0.6508444  3
   5743   5742   5745   5746     1  0.0000000  0.6508444  3
   5743   5742   5745   5747     1  0.0000000  0.6508444  3
   5743   5742   5751   5752     1  0.0000000  0.6508444  3
   5743   5742   5751   5753     1  0.0000000  0.6508444  3
   5743   5742   5751   5755     1  0.0000000  0.6508444  3
   5744   5742   5745   5748     1  0.0000000  0.6508444  3
   5744   5742   5745   5746     1  0.0000000  0.6508444  3
   5744   5742   5745   5747     1  0.0000000  0.6508444  3
   5744   5742   5751   5752     1  0.0000000  0.6508444  3
   5744   5742   5751   5753     1  0.0000000  0.6508444  3
   5744   5742   5751   5755     1  0.0000000  0.6508444  3
   5745   5742   5751   5752     1  0.0000000  0.6508444  3
   5745   5742   5751   5753     1  0.0000000  0.6508444  3
   5745   5742   5751   5755     1  0.0000000  0.6508444  3
   5746   5745   5748   5754     1  0.0000000  1.0460000  1
   5746   5745   5748   5754     1  0.0000000  0.0000000  3
   5746   5745   5748   5749     1  0.0000000  0.6508444  3
   5746   5745   5748   5750     1  0.0000000  0.6508444  3
   5746   5745   5742   5751     1  0.0000000  0.6508444  3
   5747   5745   5748   5754     1  0.0000000  1.0460000  1
   5747   5745   5748   5754     1  0.0000000  0.0000000  3
   5747   5745   5748   5749     1  0.0000000  0.6508444  3
   5747   5745   5748   5750     1  0.0000000  0.6508444  3
   5747   5745   5742   5751     1  0.0000000  0.6508444  3
   5756   5759   5762   5763     1  0.0000000  0.6508444  3
   5756   5759   5762   5764     1  0.0000000  0.6508444  3
   5757   5756   5759   5762     1  0.0000000  0.6508444  3
   5757   5756   5759   5760     1  0.0000000  0.6508444  3
   5757   5756   5759   5761     1  0.0000000  0.6508444  3
   5757   5756   5765   5766     1  0.0000000  0.6508444  3
   5757   5756   5765   5767     1  0.0000000  0.6508444  3
   5757   5756   5765   5769     1  0.0000000  0.6508444  3
   5758   5756   5759   5762     1  0.0000000  0.6508444  3
   5758   5756   5759   5760     1  0.0000000  0.6508444  3
   5758   5756   5759   5761     1  0.0000000  0.6508444  3
   5758   5756   5765   5766     1  0.0000000  0.6508444  3
   5758   5756   5765   5767     1  0.0000000  0.6508444  3
   5758   5756   5765   5769     1  0.0000000  0.6508444  3
   5759   5756   5765   5766     1  0.0000000  0.6508444  3
   5759   5756   5765   5767     1  0.0000000  0.6508444  3
   5759   5756   5765   5769     1  0.0000000  0.6508444  3
   5760   5759   5756   5765     1  0.0000000  0.6508444  3
   5760   5759   5762   5768     1  0.0000000  1.0460000  1
   5760   5759   5762   5768     1  0.0000000  0.0000000  3
   5760   5759   5762   5763     1  0.0000000  0.6508444  3
   5760   5759   5762   5764     1  0.0000000  0.6508444  3
   5761   5759   5756   5765     1  0.0000000  0.6508444  3
   5761   5759   5762   5768     1  0.0000000  1.0460000  1
   5761   5759   5762   5768     1  0.0000000  0.0000000  3
   5761   5759   5762   5763     1  0.0000000  0.6508444  3
   5761   5759   5762   5764     1  0.0000000  0.6508444  3
   5770   5773   5776   5777     1  0.0000000  0.6508444  3
   5770   5773   5776   5778     1  0.0000000  0.6508444  3
   5771   5770   5773   5776     1  0.0000000  0.6508444  3
   5771   5770   5773   5774     1  0.0000000  0.6508444  3
   5771   5770   5773   5775     1  0.0000000  0.6508444  3
   5771   5770   5779   5780     1  0.0000000  0.6508444  3
   5771   5770   5779   5781     1  0.0000000  0.6508444  3
   5771   5770   5779   5783     1  0.0000000  0.6508444  3
   5772   5770   5773   5776     1  0.0000000  0.6508444  3
   5772   5770   5773   5774     1  0.0000000  0.6508444  3
   5772   5770   5773   5775     1  0.0000000  0.6508444  3
   5772   5770   5779   5780     1  0.0000000  0.6508444  3
   5772   5770   5779   5781     1  0.0000000  0.6508444  3
   5772   5770   5779   5783     1  0.0000000  0.6508444  3
   5773   5770   5779   5780     1  0.0000000  0.6508444  3
   5773   5770   5779   5781     1  0.0000000  0.6508444  3
   5773   5770   5779   5783     1  0.0000000  0.6508444  3
   5774   5773   5776   5782     1  0.0000000  1.0460000  1
   5774   5773   5776   5782     1  0.0000000  0.0000000  3
   5774   5773   5776   5777     1  0.0000000  0.6508444  3
   5774   5773   5776   5778     1  0.0000000  0.6508444  3
   5774   5773   5770   5779     1  0.0000000  0.6508444  3
   5775   5773   5776   5782     1  0.0000000  1.0460000  1
   5775   5773   5776   5782     1  0.0000000  0.0000000  3
   5775   5773   5776   5777     1  0.0000000  0.6508444  3
   5775   5773   5776   5778     1  0.0000000  0.6508444  3
   5775   5773   5770   5779     1  0.0000000  0.6508444  3
   5784   5787   5790   5791     1  0.0000000  0.6508444  3
   5784   5787   5790   5792     1  0.0000000  0.6508444  3
   5785   5784   5787   5790     1  0.0000000  0.6508444  3
   5785   5784   5787   5788     1  0.0000000  0.6508444  3
   5785   5784   5787   5789     1  0.0000000  0.6508444  3
   5785   5784   5793   5794     1  0.0000000  0.6508444  3
   5785   5784   5793   5795     1  0.0000000  0.6508444  3
   5785   5784   5793   5797     1  0.0000000  0.6508444  3
   5786   5784   5787   5790     1  0.0000000  0.6508444  3
   5786   5784   5787   5788     1  0.0000000  0.6508444  3
   5786   5784   5787   5789     1  0.0000000  0.6508444  3
   5786   5784   5793   5794     1  0.0000000  0.6508444  3
   5786   5784   5793   5795     1  0.0000000  0.6508444  3
   5786   5784   5793   5797     1  0.0000000  0.6508444  3
   5787   5784   5793   5794     1  0.0000000  0.6508444  3
   5787   5784   5793   5795     1  0.0000000  0.6508444  3
   5787   5784   5793   5797     1  0.0000000  0.6508444  3
   5788   5787   5784   5793     1  0.0000000  0.6508444  3
   5788   5787   5790   5796     1  0.0000000  1.0460000  1
   5788   5787   5790   5796     1  0.0000000  0.0000000  3
   5788   5787   5790   5791     1  0.0000000  0.6508444  3
   5788   5787   5790   5792     1  0.0000000  0.6508444  3
   5789   5787   5784   5793     1  0.0000000  0.6508444  3
   5789   5787   5790   5796     1  0.0000000  1.0460000  1
   5789   5787   5790   5796     1  0.0000000  0.0000000  3
   5789   5787   5790   5791     1  0.0000000  0.6508444  3
   5789   5787   5790   5792     1  0.0000000  0.6508444  3
   5798   5801   5804   5805     1  0.0000000  0.6508444  3
   5798   5801   5804   5806     1  0.0000000  0.6508444  3
   5799   5798   5801   5804     1  0.0000000  0.6508444  3
   5799   5798   5801   5802     1  0.0000000  0.6508444  3
   5799   5798   5801   5803     1  0.0000000  0.6508444  3
   5799   5798   5807   5808     1  0.0000000  0.6508444  3
   5799   5798   5807   5809     1  0.0000000  0.6508444  3
   5799   5798   5807   5811     1  0.0000000  0.6508444  3
   5800   5798   5801   5804     1  0.0000000  0.6508444  3
   5800   5798   5801   5802     1  0.0000000  0.6508444  3
   5800   5798   5801   5803     1  0.0000000  0.6508444  3
   5800   5798   5807   5808     1  0.0000000  0.6508444  3
   5800   5798   5807   5809     1  0.0000000  0.6508444  3
   5800   5798   5807   5811     1  0.0000000  0.6508444  3
   5801   5798   5807   5808     1  0.0000000  0.6508444  3
   5801   5798   5807   5809     1  0.0000000  0.6508444  3
   5801   5798   5807   5811     1  0.0000000  0.6508444  3
   5802   5801   5804   5810     1  0.0000000  1.0460000  1
   5802   5801   5804   5810     1  0.0000000  0.0000000  3
   5802   5801   5804   5805     1  0.0000000  0.6508444  3
   5802   5801   5804   5806     1  0.0000000  0.6508444  3
   5802   5801   5798   5807     1  0.0000000  0.6508444  3
   5803   5801   5804   5810     1  0.0000000  1.0460000  1
   5803   5801   5804   5810     1  0.0000000  0.0000000  3
   5803   5801   5804   5805     1  0.0000000  0.6508444  3
   5803   5801   5804   5806     1  0.0000000  0.6508444  3
   5803   5801   5798   5807     1  0.0000000  0.6508444  3
   5812   5815   5818   5819     1  0.0000000  0.6508444  3
   5812   5815   5818   5820     1  0.0000000  0.6508444  3
   5813   5812   5815   5818     1  0.0000000  0.6508444  3
   5813   5812   5815   5816     1  0.0000000  0.6508444  3
   5813   5812   5815   5817     1  0.0000000  0.6508444  3
   5813   5812   5821   5822     1  0.0000000  0.6508444  3
   5813   5812   5821   5823     1  0.0000000  0.6508444  3
   5813   5812   5821   5825     1  0.0000000  0.6508444  3
   5814   5812   5815   5818     1  0.0000000  0.6508444  3
   5814   5812   5815   5816     1  0.0000000  0.6508444  3
   5814   5812   5815   5817     1  0.0000000  0.6508444  3
   5814   5812   5821   5822     1  0.0000000  0.6508444  3
   5814   5812   5821   5823     1  0.0000000  0.6508444  3
   5814   5812   5821   5825     1  0.0000000  0.6508444  3
   5815   5812   5821   5822     1  0.0000000  0.6508444  3
   5815   5812   5821   5823     1  0.0000000  0.6508444  3
   5815   5812   5821   5825     1  0.0000000  0.6508444  3
   5816   5815   5812   5821     1  0.0000000  0.6508444  3
   5816   5815   5818   5824     1  0.0000000  1.0460000  1
   5816   5815   5818   5824     1  0.0000000  0.0000000  3
   5816   5815   5818   5819     1  0.0000000  0.6508444  3
   5816   5815   5818   5820     1  0.0000000  0.6508444  3
   5817   5815   5812   5821     1  0.0000000  0.6508444  3
   5817   5815   5818   5824     1  0.0000000  1.0460000  1
   5817   5815   5818   5824     1  0.0000000  0.0000000  3
   5817   5815   5818   5819     1  0.0000000  0.6508444  3
   5817   5815   5818   5820     1  0.0000000  0.6508444  3
   5826   5829   5832   5833     1  0.0000000  0.6508444  3
   5826   5829   5832   5834     1  0.0000000  0.6508444  3
   5827   5826   5829   5832     1  0.0000000  0.6508444  3
   5827   5826   5829   5830     1  0.0000000  0.6508444  3
   5827   5826   5829   5831     1  0.0000000  0.6508444  3
   5827   5826   5835   5836     1  0.0000000  0.6508444  3
   5827   5826   5835   5837     1  0.0000000  0.6508444  3
   5827   5826   5835   5839     1  0.0000000  0.6508444  3
   5828   5826   5829   5832     1  0.0000000  0.6508444  3
   5828   5826   5829   5830     1  0.0000000  0.6508444  3
   5828   5826   5829   5831     1  0.0000000  0.6508444  3
   5828   5826   5835   5836     1  0.0000000  0.6508444  3
   5828   5826   5835   5837     1  0.0000000  0.6508444  3
   5828   5826   5835   5839     1  0.0000000  0.6508444  3
   5829   5826   5835   5836     1  0.0000000  0.6508444  3
   5829   5826   5835   5837     1  0.0000000  0.6508444  3
   5829   5826   5835   5839     1  0.0000000  0.6508444  3
   5830   5829   5832   5838     1  0.0000000  1.0460000  1
   5830   5829   5832   5838     1  0.0000000  0.0000000  3
   5830   5829   5832   5833     1  0.0000000  0.6508444  3
   5830   5829   5832   5834     1  0.0000000  0.6508444  3
   5830   5829   5826   5835     1  0.0000000  0.6508444  3
   5831   5829   5832   5838     1  0.0000000  1.0460000  1
   5831   5829   5832   5838     1  0.0000000  0.0000000  3
   5831   5829   5832   5833     1  0.0000000  0.6508444  3
   5831   5829   5832   5834     1  0.0000000  0.6508444  3
   5831   5829   5826   5835     1  0.0000000  0.6508444  3
   5840   5843   5846   5847     1  0.0000000  0.6508444  3
   5840   5843   5846   5848     1  0.0000000  0.6508444  3
   5841   5840   5843   5846     1  0.0000000  0.6508444  3
   5841   5840   5843   5844     1  0.0000000  0.6508444  3
   5841   5840   5843   5845     1  0.0000000  0.6508444  3
   5841   5840   5849   5850     1  0.0000000  0.6508444  3
   5841   5840   5849   5851     1  0.0000000  0.6508444  3
   5841   5840   5849   5853     1  0.0000000  0.6508444  3
   5842   5840   5843   5846     1  0.0000000  0.6508444  3
   5842   5840   5843   5844     1  0.0000000  0.6508444  3
   5842   5840   5843   5845     1  0.0000000  0.6508444  3
   5842   5840   5849   5850     1  0.0000000  0.6508444  3
   5842   5840   5849   5851     1  0.0000000  0.6508444  3
   5842   5840   5849   5853     1  0.0000000  0.6508444  3
   5843   5840   5849   5850     1  0.0000000  0.6508444  3
   5843   5840   5849   5851     1  0.0000000  0.6508444  3
   5843   5840   5849   5853     1  0.0000000  0.6508444  3
   5844   5843   5840   5849     1  0.0000000  0.6508444  3
   5844   5843   5846   5852     1  0.0000000  1.0460000  1
   5844   5843   5846   5852     1  0.0000000  0.0000000  3
   5844   5843   5846   5847     1  0.0000000  0.6508444  3
   5844   5843   5846   5848     1  0.0000000  0.6508444  3
   5845   5843   5840   5849     1  0.0000000  0.6508444  3
   5845   5843   5846   5852     1  0.0000000  1.0460000  1
   5845   5843   5846   5852     1  0.0000000  0.0000000  3
   5845   5843   5846   5847     1  0.0000000  0.6508444  3
   5845   5843   5846   5848     1  0.0000000  0.6508444  3
   5854   5857   5860   5861     1  0.0000000  0.6508444  3
   5854   5857   5860   5862     1  0.0000000  0.6508444  3
   5855   5854   5857   5860     1  0.0000000  0.6508444  3
   5855   5854   5857   5858     1  0.0000000  0.6508444  3
   5855   5854   5857   5859     1  0.0000000  0.6508444  3
   5855   5854   5863   5864     1  0.0000000  0.6508444  3
   5855   5854   5863   5865     1  0.0000000  0.6508444  3
   5855   5854   5863   5867     1  0.0000000  0.6508444  3
   5856   5854   5857   5860     1  0.0000000  0.6508444  3
   5856   5854   5857   5858     1  0.0000000  0.6508444  3
   5856   5854   5857   5859     1  0.0000000  0.6508444  3
   5856   5854   5863   5864     1  0.0000000  0.6508444  3
   5856   5854   5863   5865     1  0.0000000  0.6508444  3
   5856   5854   5863   5867     1  0.0000000  0.6508444  3
   5857   5854   5863   5864     1  0.0000000  0.6508444  3
   5857   5854   5863   5865     1  0.0000000  0.6508444  3
   5857   5854   5863   5867     1  0.0000000  0.6508444  3
   5858   5857   5860   5866     1  0.0000000  1.0460000  1
   5858   5857   5860   5866     1  0.0000000  0.0000000  3
   5858   5857   5860   5861     1  0.0000000  0.6508444  3
   5858   5857   5860   5862     1  0.0000000  0.6508444  3
   5858   5857   5854   5863     1  0.0000000  0.6508444  3
   5859   5857   5860   5866     1  0.0000000  1.0460000  1
   5859   5857   5860   5866     1  0.0000000  0.0000000  3
   5859   5857   5860   5861     1  0.0000000  0.6508444  3
   5859   5857   5860   5862     1  0.0000000  0.6508444  3
   5859   5857   5854   5863     1  0.0000000  0.6508444  3
   5868   5871   5874   5875     1  0.0000000  0.6508444  3
   5868   5871   5874   5876     1  0.0000000  0.6508444  3
   5869   5868   5871   5874     1  0.0000000  0.6508444  3
   5869   5868   5871   5872     1  0.0000000  0.6508444  3
   5869   5868   5871   5873     1  0.0000000  0.6508444  3
   5869   5868   5877   5878     1  0.0000000  0.6508444  3
   5869   5868   5877   5879     1  0.0000000  0.6508444  3
   5869   5868   5877   5881     1  0.0000000  0.6508444  3
   5870   5868   5871   5874     1  0.0000000  0.6508444  3
   5870   5868   5871   5872     1  0.0000000  0.6508444  3
   5870   5868   5871   5873     1  0.0000000  0.6508444  3
   5870   5868   5877   5878     1  0.0000000  0.6508444  3
   5870   5868   5877   5879     1  0.0000000  0.6508444  3
   5870   5868   5877   5881     1  0.0000000  0.6508444  3
   5871   5868   5877   5878     1  0.0000000  0.6508444  3
   5871   5868   5877   5879     1  0.0000000  0.6508444  3
   5871   5868   5877   5881     1  0.0000000  0.6508444  3
   5872   5871   5868   5877     1  0.0000000  0.6508444  3
   5872   5871   5874   5880     1  0.0000000  1.0460000  1
   5872   5871   5874   5880     1  0.0000000  0.0000000  3
   5872   5871   5874   5875     1  0.0000000  0.6508444  3
   5872   5871   5874   5876     1  0.0000000  0.6508444  3
   5873   5871   5868   5877     1  0.0000000  0.6508444  3
   5873   5871   5874   5880     1  0.0000000  1.0460000  1
   5873   5871   5874   5880     1  0.0000000  0.0000000  3
   5873   5871   5874   5875     1  0.0000000  0.6508444  3
   5873   5871   5874   5876     1  0.0000000  0.6508444  3
   5882   5885   5888   5889     1  0.0000000  0.6508444  3
   5882   5885   5888   5890     1  0.0000000  0.6508444  3
   5883   5882   5885   5888     1  0.0000000  0.6508444  3
   5883   5882   5885   5886     1  0.0000000  0.6508444  3
   5883   5882   5885   5887     1  0.0000000  0.6508444  3
   5883   5882   5891   5892     1  0.0000000  0.6508444  3
   5883   5882   5891   5893     1  0.0000000  0.6508444  3
   5883   5882   5891   5895     1  0.0000000  0.6508444  3
   5884   5882   5885   5888     1  0.0000000  0.6508444  3
   5884   5882   5885   5886     1  0.0000000  0.6508444  3
   5884   5882   5885   5887     1  0.0000000  0.6508444  3
   5884   5882   5891   5892     1  0.0000000  0.6508444  3
   5884   5882   5891   5893     1  0.0000000  0.6508444  3
   5884   5882   5891   5895     1  0.0000000  0.6508444  3
   5885   5882   5891   5892     1  0.0000000  0.6508444  3
   5885   5882   5891   5893     1  0.0000000  0.6508444  3
   5885   5882   5891   5895     1  0.0000000  0.6508444  3
   5886   5885   5888   5894     1  0.0000000  1.0460000  1
   5886   5885   5888   5894     1  0.0000000  0.0000000  3
   5886   5885   5888   5889     1  0.0000000  0.6508444  3
   5886   5885   5888   5890     1  0.0000000  0.6508444  3
   5886   5885   5882   5891     1  0.0000000  0.6508444  3
   5887   5885   5888   5894     1  0.0000000  1.0460000  1
   5887   5885   5888   5894     1  0.0000000  0.0000000  3
   5887   5885   5888   5889     1  0.0000000  0.6508444  3
   5887   5885   5888   5890     1  0.0000000  0.6508444  3
   5887   5885   5882   5891     1  0.0000000  0.6508444  3
   5896   5899   5902   5903     1  0.0000000  0.6508444  3
   5896   5899   5902   5904     1  0.0000000  0.6508444  3
   5897   5896   5899   5902     1  0.0000000  0.6508444  3
   5897   5896   5899   5900     1  0.0000000  0.6508444  3
   5897   5896   5899   5901     1  0.0000000  0.6508444  3
   5897   5896   5905   5906     1  0.0000000  0.6508444  3
   5897   5896   5905   5907     1  0.0000000  0.6508444  3
   5897   5896   5905   5909     1  0.0000000  0.6508444  3
   5898   5896   5899   5902     1  0.0000000  0.6508444  3
   5898   5896   5899   5900     1  0.0000000  0.6508444  3
   5898   5896   5899   5901     1  0.0000000  0.6508444  3
   5898   5896   5905   5906     1  0.0000000  0.6508444  3
   5898   5896   5905   5907     1  0.0000000  0.6508444  3
   5898   5896   5905   5909     1  0.0000000  0.6508444  3
   5899   5896   5905   5906     1  0.0000000  0.6508444  3
   5899   5896   5905   5907     1  0.0000000  0.6508444  3
   5899   5896   5905   5909     1  0.0000000  0.6508444  3
   5900   5899   5896   5905     1  0.0000000  0.6508444  3
   5900   5899   5902   5908     1  0.0000000  1.0460000  1
   5900   5899   5902   5908     1  0.0000000  0.0000000  3
   5900   5899   5902   5903     1  0.0000000  0.6508444  3
   5900   5899   5902   5904     1  0.0000000  0.6508444  3
   5901   5899   5896   5905     1  0.0000000  0.6508444  3
   5901   5899   5902   5908     1  0.0000000  1.0460000  1
   5901   5899   5902   5908     1  0.0000000  0.0000000  3
   5901   5899   5902   5903     1  0.0000000  0.6508444  3
   5901   5899   5902   5904     1  0.0000000  0.6508444  3
   5910   5913   5916   5917     1  0.0000000  0.6508444  3
   5910   5913   5916   5918     1  0.0000000  0.6508444  3
   5911   5910   5913   5916     1  0.0000000  0.6508444  3
   5911   5910   5913   5914     1  0.0000000  0.6508444  3
   5911   5910   5913   5915     1  0.0000000  0.6508444  3
   5911   5910   5919   5920     1  0.0000000  0.6508444  3
   5911   5910   5919   5921     1  0.0000000  0.6508444  3
   5911   5910   5919   5923     1  0.0000000  0.6508444  3
   5912   5910   5913   5916     1  0.0000000  0.6508444  3
   5912   5910   5913   5914     1  0.0000000  0.6508444  3
   5912   5910   5913   5915     1  0.0000000  0.6508444  3
   5912   5910   5919   5920     1  0.0000000  0.6508444  3
   5912   5910   5919   5921     1  0.0000000  0.6508444  3
   5912   5910   5919   5923     1  0.0000000  0.6508444  3
   5913   5910   5919   5920     1  0.0000000  0.6508444  3
   5913   5910   5919   5921     1  0.0000000  0.6508444  3
   5913   5910   5919   5923     1  0.0000000  0.6508444  3
   5914   5913   5916   5922     1  0.0000000  1.0460000  1
   5914   5913   5916   5922     1  0.0000000  0.0000000  3
   5914   5913   5916   5917     1  0.0000000  0.6508444  3
   5914   5913   5916   5918     1  0.0000000  0.6508444  3
   5914   5913   5910   5919     1  0.0000000  0.6508444  3
   5915   5913   5916   5922     1  0.0000000  1.0460000  1
   5915   5913   5916   5922     1  0.0000000  0.0000000  3
   5915   5913   5916   5917     1  0.0000000  0.6508444  3
   5915   5913   5916   5918     1  0.0000000  0.6508444  3
   5915   5913   5910   5919     1  0.0000000  0.6508444  3
   5924   5927   5930   5931     1  0.0000000  0.6508444  3
   5924   5927   5930   5932     1  0.0000000  0.6508444  3
   5925   5924   5927   5930     1  0.0000000  0.6508444  3
   5925   5924   5927   5928     1  0.0000000  0.6508444  3
   5925   5924   5927   5929     1  0.0000000  0.6508444  3
   5925   5924   5933   5934     1  0.0000000  0.6508444  3
   5925   5924   5933   5935     1  0.0000000  0.6508444  3
   5925   5924   5933   5937     1  0.0000000  0.6508444  3
   5926   5924   5927   5930     1  0.0000000  0.6508444  3
   5926   5924   5927   5928     1  0.0000000  0.6508444  3
   5926   5924   5927   5929     1  0.0000000  0.6508444  3
   5926   5924   5933   5934     1  0.0000000  0.6508444  3
   5926   5924   5933   5935     1  0.0000000  0.6508444  3
   5926   5924   5933   5937     1  0.0000000  0.6508444  3
   5927   5924   5933   5934     1  0.0000000  0.6508444  3
   5927   5924   5933   5935     1  0.0000000  0.6508444  3
   5927   5924   5933   5937     1  0.0000000  0.6508444  3
   5928   5927   5924   5933     1  0.0000000  0.6508444  3
   5928   5927   5930   5936     1  0.0000000  1.0460000  1
   5928   5927   5930   5936     1  0.0000000  0.0000000  3
   5928   5927   5930   5931     1  0.0000000  0.6508444  3
   5928   5927   5930   5932     1  0.0000000  0.6508444  3
   5929   5927   5924   5933     1  0.0000000  0.6508444  3
   5929   5927   5930   5936     1  0.0000000  1.0460000  1
   5929   5927   5930   5936     1  0.0000000  0.0000000  3
   5929   5927   5930   5931     1  0.0000000  0.6508444  3
   5929   5927   5930   5932     1  0.0000000  0.6508444  3
   5938   5941   5944   5945     1  0.0000000  0.6508444  3
   5938   5941   5944   5946     1  0.0000000  0.6508444  3
   5939   5938   5941   5944     1  0.0000000  0.6508444  3
   5939   5938   5941   5942     1  0.0000000  0.6508444  3
   5939   5938   5941   5943     1  0.0000000  0.6508444  3
   5939   5938   5947   5948     1  0.0000000  0.6508444  3
   5939   5938   5947   5949     1  0.0000000  0.6508444  3
   5939   5938   5947   5951     1  0.0000000  0.6508444  3
   5940   5938   5941   5944     1  0.0000000  0.6508444  3
   5940   5938   5941   5942     1  0.0000000  0.6508444  3
   5940   5938   5941   5943     1  0.0000000  0.6508444  3
   5940   5938   5947   5948     1  0.0000000  0.6508444  3
   5940   5938   5947   5949     1  0.0000000  0.6508444  3
   5940   5938   5947   5951     1  0.0000000  0.6508444  3
   5941   5938   5947   5948     1  0.0000000  0.6508444  3
   5941   5938   5947   5949     1  0.0000000  0.6508444  3
   5941   5938   5947   5951     1  0.0000000  0.6508444  3
   5942   5941   5944   5950     1  0.0000000  1.0460000  1
   5942   5941   5944   5950     1  0.0000000  0.0000000  3
   5942   5941   5944   5945     1  0.0000000  0.6508444  3
   5942   5941   5944   5946     1  0.0000000  0.6508444  3
   5942   5941   5938   5947     1  0.0000000  0.6508444  3
   5943   5941   5944   5950     1  0.0000000  1.0460000  1
   5943   5941   5944   5950     1  0.0000000  0.0000000  3
   5943   5941   5944   5945     1  0.0000000  0.6508444  3
   5943   5941   5944   5946     1  0.0000000  0.6508444  3
   5943   5941   5938   5947     1  0.0000000  0.6508444  3
   5952   5955   5958   5959     1  0.0000000  0.6508444  3
   5952   5955   5958   5960     1  0.0000000  0.6508444  3
   5953   5952   5955   5958     1  0.0000000  0.6508444  3
   5953   5952   5955   5956     1  0.0000000  0.6508444  3
   5953   5952   5955   5957     1  0.0000000  0.6508444  3
   5953   5952   5961   5962     1  0.0000000  0.6508444  3
   5953   5952   5961   5963     1  0.0000000  0.6508444  3
   5953   5952   5961   5965     1  0.0000000  0.6508444  3
   5954   5952   5955   5958     1  0.0000000  0.6508444  3
   5954   5952   5955   5956     1  0.0000000  0.6508444  3
   5954   5952   5955   5957     1  0.0000000  0.6508444  3
   5954   5952   5961   5962     1  0.0000000  0.6508444  3
   5954   5952   5961   5963     1  0.0000000  0.6508444  3
   5954   5952   5961   5965     1  0.0000000  0.6508444  3
   5955   5952   5961   5962     1  0.0000000  0.6508444  3
   5955   5952   5961   5963     1  0.0000000  0.6508444  3
   5955   5952   5961   5965     1  0.0000000  0.6508444  3
   5956   5955   5952   5961     1  0.0000000  0.6508444  3
   5956   5955   5958   5964     1  0.0000000  1.0460000  1
   5956   5955   5958   5964     1  0.0000000  0.0000000  3
   5956   5955   5958   5959     1  0.0000000  0.6508444  3
   5956   5955   5958   5960     1  0.0000000  0.6508444  3
   5957   5955   5952   5961     1  0.0000000  0.6508444  3
   5957   5955   5958   5964     1  0.0000000  1.0460000  1
   5957   5955   5958   5964     1  0.0000000  0.0000000  3
   5957   5955   5958   5959     1  0.0000000  0.6508444  3
   5957   5955   5958   5960     1  0.0000000  0.6508444  3
   5966   5969   5972   5973     1  0.0000000  0.6508444  3
   5966   5969   5972   5974     1  0.0000000  0.6508444  3
   5967   5966   5969   5972     1  0.0000000  0.6508444  3
   5967   5966   5969   5970     1  0.0000000  0.6508444  3
   5967   5966   5969   5971     1  0.0000000  0.6508444  3
   5967   5966   5975   5976     1  0.0000000  0.6508444  3
   5967   5966   5975   5977     1  0.0000000  0.6508444  3
   5967   5966   5975   5979     1  0.0000000  0.6508444  3
   5968   5966   5969   5972     1  0.0000000  0.6508444  3
   5968   5966   5969   5970     1  0.0000000  0.6508444  3
   5968   5966   5969   5971     1  0.0000000  0.6508444  3
   5968   5966   5975   5976     1  0.0000000  0.6508444  3
   5968   5966   5975   5977     1  0.0000000  0.6508444  3
   5968   5966   5975   5979     1  0.0000000  0.6508444  3
   5969   5966   5975   5976     1  0.0000000  0.6508444  3
   5969   5966   5975   5977     1  0.0000000  0.6508444  3
   5969   5966   5975   5979     1  0.0000000  0.6508444  3
   5970   5969   5972   5978     1  0.0000000  1.0460000  1
   5970   5969   5972   5978     1  0.0000000  0.0000000  3
   5970   5969   5972   5973     1  0.0000000  0.6508444  3
   5970   5969   5972   5974     1  0.0000000  0.6508444  3
   5970   5969   5966   5975     1  0.0000000  0.6508444  3
   5971   5969   5972   5978     1  0.0000000  1.0460000  1
   5971   5969   5972   5978     1  0.0000000  0.0000000  3
   5971   5969   5972   5973     1  0.0000000  0.6508444  3
   5971   5969   5972   5974     1  0.0000000  0.6508444  3
   5971   5969   5966   5975     1  0.0000000  0.6508444  3
   5980   5983   5986   5987     1  0.0000000  0.6508444  3
   5980   5983   5986   5988     1  0.0000000  0.6508444  3
   5981   5980   5983   5986     1  0.0000000  0.6508444  3
   5981   5980   5983   5984     1  0.0000000  0.6508444  3
   5981   5980   5983   5985     1  0.0000000  0.6508444  3
   5981   5980   5989   5990     1  0.0000000  0.6508444  3
   5981   5980   5989   5991     1  0.0000000  0.6508444  3
   5981   5980   5989   5993     1  0.0000000  0.6508444  3
   5982   5980   5983   5986     1  0.0000000  0.6508444  3
   5982   5980   5983   5984     1  0.0000000  0.6508444  3
   5982   5980   5983   5985     1  0.0000000  0.6508444  3
   5982   5980   5989   5990     1  0.0000000  0.6508444  3
   5982   5980   5989   5991     1  0.0000000  0.6508444  3
   5982   5980   5989   5993     1  0.0000000  0.6508444  3
   5983   5980   5989   5990     1  0.0000000  0.6508444  3
   5983   5980   5989   5991     1  0.0000000  0.6508444  3
   5983   5980   5989   5993     1  0.0000000  0.6508444  3
   5984   5983   5980   5989     1  0.0000000  0.6508444  3
   5984   5983   5986   5992     1  0.0000000  1.0460000  1
   5984   5983   5986   5992     1  0.0000000  0.0000000  3
   5984   5983   5986   5987     1  0.0000000  0.6508444  3
   5984   5983   5986   5988     1  0.0000000  0.6508444  3
   5985   5983   5980   5989     1  0.0000000  0.6508444  3
   5985   5983   5986   5992     1  0.0000000  1.0460000  1
   5985   5983   5986   5992     1  0.0000000  0.0000000  3
   5985   5983   5986   5987     1  0.0000000  0.6508444  3
   5985   5983   5986   5988     1  0.0000000  0.6508444  3
   5994   5997   6000   6001     1  0.0000000  0.6508444  3
   5994   5997   6000   6002     1  0.0000000  0.6508444  3
   5995   5994   5997   6000     1  0.0000000  0.6508444  3
   5995   5994   5997   5998     1  0.0000000  0.6508444  3
   5995   5994   5997   5999     1  0.0000000  0.6508444  3
   5995   5994   6003   6004     1  0.0000000  0.6508444  3
   5995   5994   6003   6005     1  0.0000000  0.6508444  3
   5995   5994   6003   6007     1  0.0000000  0.6508444  3
   5996   5994   5997   6000     1  0.0000000  0.6508444  3
   5996   5994   5997   5998     1  0.0000000  0.6508444  3
   5996   5994   5997   5999     1  0.0000000  0.6508444  3
   5996   5994   6003   6004     1  0.0000000  0.6508444  3
   5996   5994   6003   6005     1  0.0000000  0.6508444  3
   5996   5994   6003   6007     1  0.0000000  0.6508444  3
   5997   5994   6003   6004     1  0.0000000  0.6508444  3
   5997   5994   6003   6005     1  0.0000000  0.6508444  3
   5997   5994   6003   6007     1  0.0000000  0.6508444  3
   5998   5997   6000   6006     1  0.0000000  1.0460000  1
   5998   5997   6000   6006     1  0.0000000  0.0000000  3
   5998   5997   6000   6001     1  0.0000000  0.6508444  3
   5998   5997   6000   6002     1  0.0000000  0.6508444  3
   5998   5997   5994   6003     1  0.0000000  0.6508444  3
   5999   5997   6000   6006     1  0.0000000  1.0460000  1
   5999   5997   6000   6006     1  0.0000000  0.0000000  3
   5999   5997   6000   6001     1  0.0000000  0.6508444  3
   5999   5997   6000   6002     1  0.0000000  0.6508444  3
   5999   5997   5994   6003     1  0.0000000  0.6508444  3
   6008   6011   6014   6015     1  0.0000000  0.6508444  3
   6008   6011   6014   6016     1  0.0000000  0.6508444  3
   6009   6008   6011   6014     1  0.0000000  0.6508444  3
   6009   6008   6011   6012     1  0.0000000  0.6508444  3
   6009   6008   6011   6013     1  0.0000000  0.6508444  3
   6009   6008   6017   6018     1  0.0000000  0.6508444  3
   6009   6008   6017   6019     1  0.0000000  0.6508444  3
   6009   6008   6017   6021     1  0.0000000  0.6508444  3
   6010   6008   6011   6014     1  0.0000000  0.6508444  3
   6010   6008   6011   6012     1  0.0000000  0.6508444  3
   6010   6008   6011   6013     1  0.0000000  0.6508444  3
   6010   6008   6017   6018     1  0.0000000  0.6508444  3
   6010   6008   6017   6019     1  0.0000000  0.6508444  3
   6010   6008   6017   6021     1  0.0000000  0.6508444  3
   6011   6008   6017   6018     1  0.0000000  0.6508444  3
   6011   6008   6017   6019     1  0.0000000  0.6508444  3
   6011   6008   6017   6021     1  0.0000000  0.6508444  3
   6012   6011   6008   6017     1  0.0000000  0.6508444  3
   6012   6011   6014   6020     1  0.0000000  1.0460000  1
   6012   6011   6014   6020     1  0.0000000  0.0000000  3
   6012   6011   6014   6015     1  0.0000000  0.6508444  3
   6012   6011   6014   6016     1  0.0000000  0.6508444  3
   6013   6011   6008   6017     1  0.0000000  0.6508444  3
   6013   6011   6014   6020     1  0.0000000  1.0460000  1
   6013   6011   6014   6020     1  0.0000000  0.0000000  3
   6013   6011   6014   6015     1  0.0000000  0.6508444  3
   6013   6011   6014   6016     1  0.0000000  0.6508444  3
   6022   6025   6028   6029     1  0.0000000  0.6508444  3
   6022   6025   6028   6030     1  0.0000000  0.6508444  3
   6023   6022   6025   6028     1  0.0000000  0.6508444  3
   6023   6022   6025   6026     1  0.0000000  0.6508444  3
   6023   6022   6025   6027     1  0.0000000  0.6508444  3
   6023   6022   6031   6032     1  0.0000000  0.6508444  3
   6023   6022   6031   6033     1  0.0000000  0.6508444  3
   6023   6022   6031   6035     1  0.0000000  0.6508444  3
   6024   6022   6025   6028     1  0.0000000  0.6508444  3
   6024   6022   6025   6026     1  0.0000000  0.6508444  3
   6024   6022   6025   6027     1  0.0000000  0.6508444  3
   6024   6022   6031   6032     1  0.0000000  0.6508444  3
   6024   6022   6031   6033     1  0.0000000  0.6508444  3
   6024   6022   6031   6035     1  0.0000000  0.6508444  3
   6025   6022   6031   6032     1  0.0000000  0.6508444  3
   6025   6022   6031   6033     1  0.0000000  0.6508444  3
   6025   6022   6031   6035     1  0.0000000  0.6508444  3
   6026   6025   6028   6034     1  0.0000000  1.0460000  1
   6026   6025   6028   6034     1  0.0000000  0.0000000  3
   6026   6025   6028   6029     1  0.0000000  0.6508444  3
   6026   6025   6028   6030     1  0.0000000  0.6508444  3
   6026   6025   6022   6031     1  0.0000000  0.6508444  3
   6027   6025   6028   6034     1  0.0000000  1.0460000  1
   6027   6025   6028   6034     1  0.0000000  0.0000000  3
   6027   6025   6028   6029     1  0.0000000  0.6508444  3
   6027   6025   6028   6030     1  0.0000000  0.6508444  3
   6027   6025   6022   6031     1  0.0000000  0.6508444  3
   6036   6039   6042   6043     1  0.0000000  0.6508444  3
   6036   6039   6042   6044     1  0.0000000  0.6508444  3
   6037   6036   6039   6042     1  0.0000000  0.6508444  3
   6037   6036   6039   6040     1  0.0000000  0.6508444  3
   6037   6036   6039   6041     1  0.0000000  0.6508444  3
   6037   6036   6045   6046     1  0.0000000  0.6508444  3
   6037   6036   6045   6047     1  0.0000000  0.6508444  3
   6037   6036   6045   6049     1  0.0000000  0.6508444  3
   6038   6036   6039   6042     1  0.0000000  0.6508444  3
   6038   6036   6039   6040     1  0.0000000  0.6508444  3
   6038   6036   6039   6041     1  0.0000000  0.6508444  3
   6038   6036   6045   6046     1  0.0000000  0.6508444  3
   6038   6036   6045   6047     1  0.0000000  0.6508444  3
   6038   6036   6045   6049     1  0.0000000  0.6508444  3
   6039   6036   6045   6046     1  0.0000000  0.6508444  3
   6039   6036   6045   6047     1  0.0000000  0.6508444  3
   6039   6036   6045   6049     1  0.0000000  0.6508444  3
   6040   6039   6036   6045     1  0.0000000  0.6508444  3
   6040   6039   6042   6048     1  0.0000000  1.0460000  1
   6040   6039   6042   6048     1  0.0000000  0.0000000  3
   6040   6039   6042   6043     1  0.0000000  0.6508444  3
   6040   6039   6042   6044     1  0.0000000  0.6508444  3
   6041   6039   6036   6045     1  0.0000000  0.6508444  3
   6041   6039   6042   6048     1  0.0000000  1.0460000  1
   6041   6039   6042   6048     1  0.0000000  0.0000000  3
   6041   6039   6042   6043     1  0.0000000  0.6508444  3
   6041   6039   6042   6044     1  0.0000000  0.6508444  3
   6050   6053   6056   6057     1  0.0000000  0.6508444  3
   6050   6053   6056   6058     1  0.0000000  0.6508444  3
   6051   6050   6053   6056     1  0.0000000  0.6508444  3
   6051   6050   6053   6054     1  0.0000000  0.6508444  3
   6051   6050   6053   6055     1  0.0000000  0.6508444  3
   6051   6050   6059   6060     1  0.0000000  0.6508444  3
   6051   6050   6059   6061     1  0.0000000  0.6508444  3
   6051   6050   6059   6063     1  0.0000000  0.6508444  3
   6052   6050   6053   6056     1  0.0000000  0.6508444  3
   6052   6050   6053   6054     1  0.0000000  0.6508444  3
   6052   6050   6053   6055     1  0.0000000  0.6508444  3
   6052   6050   6059   6060     1  0.0000000  0.6508444  3
   6052   6050   6059   6061     1  0.0000000  0.6508444  3
   6052   6050   6059   6063     1  0.0000000  0.6508444  3
   6053   6050   6059   6060     1  0.0000000  0.6508444  3
   6053   6050   6059   6061     1  0.0000000  0.6508444  3
   6053   6050   6059   6063     1  0.0000000  0.6508444  3
   6054   6053   6056   6062     1  0.0000000  1.0460000  1
   6054   6053   6056   6062     1  0.0000000  0.0000000  3
   6054   6053   6056   6057     1  0.0000000  0.6508444  3
   6054   6053   6056   6058     1  0.0000000  0.6508444  3
   6054   6053   6050   6059     1  0.0000000  0.6508444  3
   6055   6053   6056   6062     1  0.0000000  1.0460000  1
   6055   6053   6056   6062     1  0.0000000  0.0000000  3
   6055   6053   6056   6057     1  0.0000000  0.6508444  3
   6055   6053   6056   6058     1  0.0000000  0.6508444  3
   6055   6053   6050   6059     1  0.0000000  0.6508444  3
   6064   6067   6070   6071     1  0.0000000  0.6508444  3
   6064   6067   6070   6072     1  0.0000000  0.6508444  3
   6065   6064   6067   6070     1  0.0000000  0.6508444  3
   6065   6064   6067   6068     1  0.0000000  0.6508444  3
   6065   6064   6067   6069     1  0.0000000  0.6508444  3
   6065   6064   6073   6074     1  0.0000000  0.6508444  3
   6065   6064   6073   6075     1  0.0000000  0.6508444  3
   6065   6064   6073   6077     1  0.0000000  0.6508444  3
   6066   6064   6067   6070     1  0.0000000  0.6508444  3
   6066   6064   6067   6068     1  0.0000000  0.6508444  3
   6066   6064   6067   6069     1  0.0000000  0.6508444  3
   6066   6064   6073   6074     1  0.0000000  0.6508444  3
   6066   6064   6073   6075     1  0.0000000  0.6508444  3
   6066   6064   6073   6077     1  0.0000000  0.6508444  3
   6067   6064   6073   6074     1  0.0000000  0.6508444  3
   6067   6064   6073   6075     1  0.0000000  0.6508444  3
   6067   6064   6073   6077     1  0.0000000  0.6508444  3
   6068   6067   6064   6073     1  0.0000000  0.6508444  3
   6068   6067   6070   6076     1  0.0000000  1.0460000  1
   6068   6067   6070   6076     1  0.0000000  0.0000000  3
   6068   6067   6070   6071     1  0.0000000  0.6508444  3
   6068   6067   6070   6072     1  0.0000000  0.6508444  3
   6069   6067   6064   6073     1  0.0000000  0.6508444  3
   6069   6067   6070   6076     1  0.0000000  1.0460000  1
   6069   6067   6070   6076     1  0.0000000  0.0000000  3
   6069   6067   6070   6071     1  0.0000000  0.6508444  3
   6069   6067   6070   6072     1  0.0000000  0.6508444  3
   6078   6081   6084   6085     1  0.0000000  0.6508444  3
   6078   6081   6084   6086     1  0.0000000  0.6508444  3
   6079   6078   6081   6084     1  0.0000000  0.6508444  3
   6079   6078   6081   6082     1  0.0000000  0.6508444  3
   6079   6078   6081   6083     1  0.0000000  0.6508444  3
   6079   6078   6087   6088     1  0.0000000  0.6508444  3
   6079   6078   6087   6089     1  0.0000000  0.6508444  3
   6079   6078   6087   6091     1  0.0000000  0.6508444  3
   6080   6078   6081   6084     1  0.0000000  0.6508444  3
   6080   6078   6081   6082     1  0.0000000  0.6508444  3
   6080   6078   6081   6083     1  0.0000000  0.6508444  3
   6080   6078   6087   6088     1  0.0000000  0.6508444  3
   6080   6078   6087   6089     1  0.0000000  0.6508444  3
   6080   6078   6087   6091     1  0.0000000  0.6508444  3
   6081   6078   6087   6088     1  0.0000000  0.6508444  3
   6081   6078   6087   6089     1  0.0000000  0.6508444  3
   6081   6078   6087   6091     1  0.0000000  0.6508444  3
   6082   6081   6084   6090     1  0.0000000  1.0460000  1
   6082   6081   6084   6090     1  0.0000000  0.0000000  3
   6082   6081   6084   6085     1  0.0000000  0.6508444  3
   6082   6081   6084   6086     1  0.0000000  0.6508444  3
   6082   6081   6078   6087     1  0.0000000  0.6508444  3
   6083   6081   6084   6090     1  0.0000000  1.0460000  1
   6083   6081   6084   6090     1  0.0000000  0.0000000  3
   6083   6081   6084   6085     1  0.0000000  0.6508444  3
   6083   6081   6084   6086     1  0.0000000  0.6508444  3
   6083   6081   6078   6087     1  0.0000000  0.6508444  3
   6092   6095   6098   6099     1  0.0000000  0.6508444  3
   6092   6095   6098   6100     1  0.0000000  0.6508444  3
   6093   6092   6095   6098     1  0.0000000  0.6508444  3
   6093   6092   6095   6096     1  0.0000000  0.6508444  3
   6093   6092   6095   6097     1  0.0000000  0.6508444  3
   6093   6092   6101   6102     1  0.0000000  0.6508444  3
   6093   6092   6101   6103     1  0.0000000  0.6508444  3
   6093   6092   6101   6105     1  0.0000000  0.6508444  3
   6094   6092   6095   6098     1  0.0000000  0.6508444  3
   6094   6092   6095   6096     1  0.0000000  0.6508444  3
   6094   6092   6095   6097     1  0.0000000  0.6508444  3
   6094   6092   6101   6102     1  0.0000000  0.6508444  3
   6094   6092   6101   6103     1  0.0000000  0.6508444  3
   6094   6092   6101   6105     1  0.0000000  0.6508444  3
   6095   6092   6101   6102     1  0.0000000  0.6508444  3
   6095   6092   6101   6103     1  0.0000000  0.6508444  3
   6095   6092   6101   6105     1  0.0000000  0.6508444  3
   6096   6095   6092   6101     1  0.0000000  0.6508444  3
   6096   6095   6098   6104     1  0.0000000  1.0460000  1
   6096   6095   6098   6104     1  0.0000000  0.0000000  3
   6096   6095   6098   6099     1  0.0000000  0.6508444  3
   6096   6095   6098   6100     1  0.0000000  0.6508444  3
   6097   6095   6092   6101     1  0.0000000  0.6508444  3
   6097   6095   6098   6104     1  0.0000000  1.0460000  1
   6097   6095   6098   6104     1  0.0000000  0.0000000  3
   6097   6095   6098   6099     1  0.0000000  0.6508444  3
   6097   6095   6098   6100     1  0.0000000  0.6508444  3
   6106   6109   6112   6113     1  0.0000000  0.6508444  3
   6106   6109   6112   6114     1  0.0000000  0.6508444  3
   6107   6106   6109   6112     1  0.0000000  0.6508444  3
   6107   6106   6109   6110     1  0.0000000  0.6508444  3
   6107   6106   6109   6111     1  0.0000000  0.6508444  3
   6107   6106   6115   6116     1  0.0000000  0.6508444  3
   6107   6106   6115   6117     1  0.0000000  0.6508444  3
   6107   6106   6115   6119     1  0.0000000  0.6508444  3
   6108   6106   6109   6112     1  0.0000000  0.6508444  3
   6108   6106   6109   6110     1  0.0000000  0.6508444  3
   6108   6106   6109   6111     1  0.0000000  0.6508444  3
   6108   6106   6115   6116     1  0.0000000  0.6508444  3
   6108   6106   6115   6117     1  0.0000000  0.6508444  3
   6108   6106   6115   6119     1  0.0000000  0.6508444  3
   6109   6106   6115   6116     1  0.0000000  0.6508444  3
   6109   6106   6115   6117     1  0.0000000  0.6508444  3
   6109   6106   6115   6119     1  0.0000000  0.6508444  3
   6110   6109   6112   6118     1  0.0000000  1.0460000  1
   6110   6109   6112   6118     1  0.0000000  0.0000000  3
   6110   6109   6112   6113     1  0.0000000  0.6508444  3
   6110   6109   6112   6114     1  0.0000000  0.6508444  3
   6110   6109   6106   6115     1  0.0000000  0.6508444  3
   6111   6109   6112   6118     1  0.0000000  1.0460000  1
   6111   6109   6112   6118     1  0.0000000  0.0000000  3
   6111   6109   6112   6113     1  0.0000000  0.6508444  3
   6111   6109   6112   6114     1  0.0000000  0.6508444  3
   6111   6109   6106   6115     1  0.0000000  0.6508444  3
   6120   6123   6126   6127     1  0.0000000  0.6508444  3
   6120   6123   6126   6128     1  0.0000000  0.6508444  3
   6121   6120   6123   6126     1  0.0000000  0.6508444  3
   6121   6120   6123   6124     1  0.0000000  0.6508444  3
   6121   6120   6123   6125     1  0.0000000  0.6508444  3
   6121   6120   6129   6130     1  0.0000000  0.6508444  3
   6121   6120   6129   6131     1  0.0000000  0.6508444  3
   6121   6120   6129   6133     1  0.0000000  0.6508444  3
   6122   6120   6123   6126     1  0.0000000  0.6508444  3
   6122   6120   6123   6124     1  0.0000000  0.6508444  3
   6122   6120   6123   6125     1  0.0000000  0.6508444  3
   6122   6120   6129   6130     1  0.0000000  0.6508444  3
   6122   6120   6129   6131     1  0.0000000  0.6508444  3
   6122   6120   6129   6133     1  0.0000000  0.6508444  3
   6123   6120   6129   6130     1  0.0000000  0.6508444  3
   6123   6120   6129   6131     1  0.0000000  0.6508444  3
   6123   6120   6129   6133     1  0.0000000  0.6508444  3
   6124   6123   6120   6129     1  0.0000000  0.6508444  3
   6124   6123   6126   6132     1  0.0000000  1.0460000  1
   6124   6123   6126   6132     1  0.0000000  0.0000000  3
   6124   6123   6126   6127     1  0.0000000  0.6508444  3
   6124   6123   6126   6128     1  0.0000000  0.6508444  3
   6125   6123   6120   6129     1  0.0000000  0.6508444  3
   6125   6123   6126   6132     1  0.0000000  1.0460000  1
   6125   6123   6126   6132     1  0.0000000  0.0000000  3
   6125   6123   6126   6127     1  0.0000000  0.6508444  3
   6125   6123   6126   6128     1  0.0000000  0.6508444  3
   6134   6137   6140   6141     1  0.0000000  0.6508444  3
   6134   6137   6140   6142     1  0.0000000  0.6508444  3
   6135   6134   6137   6140     1  0.0000000  0.6508444  3
   6135   6134   6137   6138     1  0.0000000  0.6508444  3
   6135   6134   6137   6139     1  0.0000000  0.6508444  3
   6135   6134   6143   6144     1  0.0000000  0.6508444  3
   6135   6134   6143   6145     1  0.0000000  0.6508444  3
   6135   6134   6143   6147     1  0.0000000  0.6508444  3
   6136   6134   6137   6140     1  0.0000000  0.6508444  3
   6136   6134   6137   6138     1  0.0000000  0.6508444  3
   6136   6134   6137   6139     1  0.0000000  0.6508444  3
   6136   6134   6143   6144     1  0.0000000  0.6508444  3
   6136   6134   6143   6145     1  0.0000000  0.6508444  3
   6136   6134   6143   6147     1  0.0000000  0.6508444  3
   6137   6134   6143   6144     1  0.0000000  0.6508444  3
   6137   6134   6143   6145     1  0.0000000  0.6508444  3
   6137   6134   6143   6147     1  0.0000000  0.6508444  3
   6138   6137   6140   6146     1  0.0000000  1.0460000  1
   6138   6137   6140   6146     1  0.0000000  0.0000000  3
   6138   6137   6140   6141     1  0.0000000  0.6508444  3
   6138   6137   6140   6142     1  0.0000000  0.6508444  3
   6138   6137   6134   6143     1  0.0000000  0.6508444  3
   6139   6137   6140   6146     1  0.0000000  1.0460000  1
   6139   6137   6140   6146     1  0.0000000  0.0000000  3
   6139   6137   6140   6141     1  0.0000000  0.6508444  3
   6139   6137   6140   6142     1  0.0000000  0.6508444  3
   6139   6137   6134   6143     1  0.0000000  0.6508444  3
   6148   6151   6154   6155     1  0.0000000  0.6508444  3
   6148   6151   6154   6156     1  0.0000000  0.6508444  3
   6149   6148   6151   6154     1  0.0000000  0.6508444  3
   6149   6148   6151   6152     1  0.0000000  0.6508444  3
   6149   6148   6151   6153     1  0.0000000  0.6508444  3
   6149   6148   6157   6158     1  0.0000000  0.6508444  3
   6149   6148   6157   6159     1  0.0000000  0.6508444  3
   6149   6148   6157   6161     1  0.0000000  0.6508444  3
   6150   6148   6151   6154     1  0.0000000  0.6508444  3
   6150   6148   6151   6152     1  0.0000000  0.6508444  3
   6150   6148   6151   6153     1  0.0000000  0.6508444  3
   6150   6148   6157   6158     1  0.0000000  0.6508444  3
   6150   6148   6157   6159     1  0.0000000  0.6508444  3
   6150   6148   6157   6161     1  0.0000000  0.6508444  3
   6151   6148   6157   6158     1  0.0000000  0.6508444  3
   6151   6148   6157   6159     1  0.0000000  0.6508444  3
   6151   6148   6157   6161     1  0.0000000  0.6508444  3
   6152   6151   6148   6157     1  0.0000000  0.6508444  3
   6152   6151   6154   6160     1  0.0000000  1.0460000  1
   6152   6151   6154   6160     1  0.0000000  0.0000000  3
   6152   6151   6154   6155     1  0.0000000  0.6508444  3
   6152   6151   6154   6156     1  0.0000000  0.6508444  3
   6153   6151   6148   6157     1  0.0000000  0.6508444  3
   6153   6151   6154   6160     1  0.0000000  1.0460000  1
   6153   6151   6154   6160     1  0.0000000  0.0000000  3
   6153   6151   6154   6155     1  0.0000000  0.6508444  3
   6153   6151   6154   6156     1  0.0000000  0.6508444  3
   6162   6165   6168   6169     1  0.0000000  0.6508444  3
   6162   6165   6168   6170     1  0.0000000  0.6508444  3
   6163   6162   6165   6168     1  0.0000000  0.6508444  3
   6163   6162   6165   6166     1  0.0000000  0.6508444  3
   6163   6162   6165   6167     1  0.0000000  0.6508444  3
   6163   6162   6171   6172     1  0.0000000  0.6508444  3
   6163   6162   6171   6173     1  0.0000000  0.6508444  3
   6163   6162   6171   6175     1  0.0000000  0.6508444  3
   6164   6162   6165   6168     1  0.0000000  0.6508444  3
   6164   6162   6165   6166     1  0.0000000  0.6508444  3
   6164   6162   6165   6167     1  0.0000000  0.6508444  3
   6164   6162   6171   6172     1  0.0000000  0.6508444  3
   6164   6162   6171   6173     1  0.0000000  0.6508444  3
   6164   6162   6171   6175     1  0.0000000  0.6508444  3
   6165   6162   6171   6172     1  0.0000000  0.6508444  3
   6165   6162   6171   6173     1  0.0000000  0.6508444  3
   6165   6162   6171   6175     1  0.0000000  0.6508444  3
   6166   6165   6168   6174     1  0.0000000  1.0460000  1
   6166   6165   6168   6174     1  0.0000000  0.0000000  3
   6166   6165   6168   6169     1  0.0000000  0.6508444  3
   6166   6165   6168   6170     1  0.0000000  0.6508444  3
   6166   6165   6162   6171     1  0.0000000  0.6508444  3
   6167   6165   6168   6174     1  0.0000000  1.0460000  1
   6167   6165   6168   6174     1  0.0000000  0.0000000  3
   6167   6165   6168   6169     1  0.0000000  0.6508444  3
   6167   6165   6168   6170     1  0.0000000  0.6508444  3
   6167   6165   6162   6171     1  0.0000000  0.6508444  3
   6176   6179   6182   6183     1  0.0000000  0.6508444  3
   6176   6179   6182   6184     1  0.0000000  0.6508444  3
   6177   6176   6179   6182     1  0.0000000  0.6508444  3
   6177   6176   6179   6180     1  0.0000000  0.6508444  3
   6177   6176   6179   6181     1  0.0000000  0.6508444  3
   6177   6176   6185   6186     1  0.0000000  0.6508444  3
   6177   6176   6185   6187     1  0.0000000  0.6508444  3
   6177   6176   6185   6189     1  0.0000000  0.6508444  3
   6178   6176   6179   6182     1  0.0000000  0.6508444  3
   6178   6176   6179   6180     1  0.0000000  0.6508444  3
   6178   6176   6179   6181     1  0.0000000  0.6508444  3
   6178   6176   6185   6186     1  0.0000000  0.6508444  3
   6178   6176   6185   6187     1  0.0000000  0.6508444  3
   6178   6176   6185   6189     1  0.0000000  0.6508444  3
   6179   6176   6185   6186     1  0.0000000  0.6508444  3
   6179   6176   6185   6187     1  0.0000000  0.6508444  3
   6179   6176   6185   6189     1  0.0000000  0.6508444  3
   6180   6179   6176   6185     1  0.0000000  0.6508444  3
   6180   6179   6182   6188     1  0.0000000  1.0460000  1
   6180   6179   6182   6188     1  0.0000000  0.0000000  3
   6180   6179   6182   6183     1  0.0000000  0.6508444  3
   6180   6179   6182   6184     1  0.0000000  0.6508444  3
   6181   6179   6176   6185     1  0.0000000  0.6508444  3
   6181   6179   6182   6188     1  0.0000000  1.0460000  1
   6181   6179   6182   6188     1  0.0000000  0.0000000  3
   6181   6179   6182   6183     1  0.0000000  0.6508444  3
   6181   6179   6182   6184     1  0.0000000  0.6508444  3
   6190   6193   6196   6197     1  0.0000000  0.6508444  3
   6190   6193   6196   6198     1  0.0000000  0.6508444  3
   6191   6190   6193   6196     1  0.0000000  0.6508444  3
   6191   6190   6193   6194     1  0.0000000  0.6508444  3
   6191   6190   6193   6195     1  0.0000000  0.6508444  3
   6191   6190   6199   6200     1  0.0000000  0.6508444  3
   6191   6190   6199   6201     1  0.0000000  0.6508444  3
   6191   6190   6199   6203     1  0.0000000  0.6508444  3
   6192   6190   6193   6196     1  0.0000000  0.6508444  3
   6192   6190   6193   6194     1  0.0000000  0.6508444  3
   6192   6190   6193   6195     1  0.0000000  0.6508444  3
   6192   6190   6199   6200     1  0.0000000  0.6508444  3
   6192   6190   6199   6201     1  0.0000000  0.6508444  3
   6192   6190   6199   6203     1  0.0000000  0.6508444  3
   6193   6190   6199   6200     1  0.0000000  0.6508444  3
   6193   6190   6199   6201     1  0.0000000  0.6508444  3
   6193   6190   6199   6203     1  0.0000000  0.6508444  3
   6194   6193   6196   6202     1  0.0000000  1.0460000  1
   6194   6193   6196   6202     1  0.0000000  0.0000000  3
   6194   6193   6196   6197     1  0.0000000  0.6508444  3
   6194   6193   6196   6198     1  0.0000000  0.6508444  3
   6194   6193   6190   6199     1  0.0000000  0.6508444  3
   6195   6193   6196   6202     1  0.0000000  1.0460000  1
   6195   6193   6196   6202     1  0.0000000  0.0000000  3
   6195   6193   6196   6197     1  0.0000000  0.6508444  3
   6195   6193   6196   6198     1  0.0000000  0.6508444  3
   6195   6193   6190   6199     1  0.0000000  0.6508444  3
   6204   6207   6210   6211     1  0.0000000  0.6508444  3
   6204   6207   6210   6212     1  0.0000000  0.6508444  3
   6205   6204   6207   6210     1  0.0000000  0.6508444  3
   6205   6204   6207   6208     1  0.0000000  0.6508444  3
   6205   6204   6207   6209     1  0.0000000  0.6508444  3
   6205   6204   6213   6214     1  0.0000000  0.6508444  3
   6205   6204   6213   6215     1  0.0000000  0.6508444  3
   6205   6204   6213   6217     1  0.0000000  0.6508444  3
   6206   6204   6207   6210     1  0.0000000  0.6508444  3
   6206   6204   6207   6208     1  0.0000000  0.6508444  3
   6206   6204   6207   6209     1  0.0000000  0.6508444  3
   6206   6204   6213   6214     1  0.0000000  0.6508444  3
   6206   6204   6213   6215     1  0.0000000  0.6508444  3
   6206   6204   6213   6217     1  0.0000000  0.6508444  3
   6207   6204   6213   6214     1  0.0000000  0.6508444  3
   6207   6204   6213   6215     1  0.0000000  0.6508444  3
   6207   6204   6213   6217     1  0.0000000  0.6508444  3
   6208   6207   6204   6213     1  0.0000000  0.6508444  3
   6208   6207   6210   6216     1  0.0000000  1.0460000  1
   6208   6207   6210   6216     1  0.0000000  0.0000000  3
   6208   6207   6210   6211     1  0.0000000  0.6508444  3
   6208   6207   6210   6212     1  0.0000000  0.6508444  3
   6209   6207   6204   6213     1  0.0000000  0.6508444  3
   6209   6207   6210   6216     1  0.0000000  1.0460000  1
   6209   6207   6210   6216     1  0.0000000  0.0000000  3
   6209   6207   6210   6211     1  0.0000000  0.6508444  3
   6209   6207   6210   6212     1  0.0000000  0.6508444  3
   6218   6221   6224   6225     1  0.0000000  0.6508444  3
   6218   6221   6224   6226     1  0.0000000  0.6508444  3
   6219   6218   6221   6224     1  0.0000000  0.6508444  3
   6219   6218   6221   6222     1  0.0000000  0.6508444  3
   6219   6218   6221   6223     1  0.0000000  0.6508444  3
   6219   6218   6227   6228     1  0.0000000  0.6508444  3
   6219   6218   6227   6229     1  0.0000000  0.6508444  3
   6219   6218   6227   6231     1  0.0000000  0.6508444  3
   6220   6218   6221   6224     1  0.0000000  0.6508444  3
   6220   6218   6221   6222     1  0.0000000  0.6508444  3
   6220   6218   6221   6223     1  0.0000000  0.6508444  3
   6220   6218   6227   6228     1  0.0000000  0.6508444  3
   6220   6218   6227   6229     1  0.0000000  0.6508444  3
   6220   6218   6227   6231     1  0.0000000  0.6508444  3
   6221   6218   6227   6228     1  0.0000000  0.6508444  3
   6221   6218   6227   6229     1  0.0000000  0.6508444  3
   6221   6218   6227   6231     1  0.0000000  0.6508444  3
   6222   6221   6224   6230     1  0.0000000  1.0460000  1
   6222   6221   6224   6230     1  0.0000000  0.0000000  3
   6222   6221   6224   6225     1  0.0000000  0.6508444  3
   6222   6221   6224   6226     1  0.0000000  0.6508444  3
   6222   6221   6218   6227     1  0.0000000  0.6508444  3
   6223   6221   6224   6230     1  0.0000000  1.0460000  1
   6223   6221   6224   6230     1  0.0000000  0.0000000  3
   6223   6221   6224   6225     1  0.0000000  0.6508444  3
   6223   6221   6224   6226     1  0.0000000  0.6508444  3
   6223   6221   6218   6227     1  0.0000000  0.6508444  3
   6232   6235   6238   6239     1  0.0000000  0.6508444  3
   6232   6235   6238   6240     1  0.0000000  0.6508444  3
   6233   6232   6235   6238     1  0.0000000  0.6508444  3
   6233   6232   6235   6236     1  0.0000000  0.6508444  3
   6233   6232   6235   6237     1  0.0000000  0.6508444  3
   6233   6232   6241   6242     1  0.0000000  0.6508444  3
   6233   6232   6241   6243     1  0.0000000  0.6508444  3
   6233   6232   6241   6245     1  0.0000000  0.6508444  3
   6234   6232   6235   6238     1  0.0000000  0.6508444  3
   6234   6232   6235   6236     1  0.0000000  0.6508444  3
   6234   6232   6235   6237     1  0.0000000  0.6508444  3
   6234   6232   6241   6242     1  0.0000000  0.6508444  3
   6234   6232   6241   6243     1  0.0000000  0.6508444  3
   6234   6232   6241   6245     1  0.0000000  0.6508444  3
   6235   6232   6241   6242     1  0.0000000  0.6508444  3
   6235   6232   6241   6243     1  0.0000000  0.6508444  3
   6235   6232   6241   6245     1  0.0000000  0.6508444  3
   6236   6235   6232   6241     1  0.0000000  0.6508444  3
   6236   6235   6238   6244     1  0.0000000  1.0460000  1
   6236   6235   6238   6244     1  0.0000000  0.0000000  3
   6236   6235   6238   6239     1  0.0000000  0.6508444  3
   6236   6235   6238   6240     1  0.0000000  0.6508444  3
   6237   6235   6232   6241     1  0.0000000  0.6508444  3
   6237   6235   6238   6244     1  0.0000000  1.0460000  1
   6237   6235   6238   6244     1  0.0000000  0.0000000  3
   6237   6235   6238   6239     1  0.0000000  0.6508444  3
   6237   6235   6238   6240     1  0.0000000  0.6508444  3
   6246   6249   6252   6253     1  0.0000000  0.6508444  3
   6246   6249   6252   6254     1  0.0000000  0.6508444  3
   6247   6246   6249   6252     1  0.0000000  0.6508444  3
   6247   6246   6249   6250     1  0.0000000  0.6508444  3
   6247   6246   6249   6251     1  0.0000000  0.6508444  3
   6247   6246   6255   6256     1  0.0000000  0.6508444  3
   6247   6246   6255   6257     1  0.0000000  0.6508444  3
   6247   6246   6255   6259     1  0.0000000  0.6508444  3
   6248   6246   6249   6252     1  0.0000000  0.6508444  3
   6248   6246   6249   6250     1  0.0000000  0.6508444  3
   6248   6246   6249   6251     1  0.0000000  0.6508444  3
   6248   6246   6255   6256     1  0.0000000  0.6508444  3
   6248   6246   6255   6257     1  0.0000000  0.6508444  3
   6248   6246   6255   6259     1  0.0000000  0.6508444  3
   6249   6246   6255   6256     1  0.0000000  0.6508444  3
   6249   6246   6255   6257     1  0.0000000  0.6508444  3
   6249   6246   6255   6259     1  0.0000000  0.6508444  3
   6250   6249   6252   6258     1  0.0000000  1.0460000  1
   6250   6249   6252   6258     1  0.0000000  0.0000000  3
   6250   6249   6252   6253     1  0.0000000  0.6508444  3
   6250   6249   6252   6254     1  0.0000000  0.6508444  3
   6250   6249   6246   6255     1  0.0000000  0.6508444  3
   6251   6249   6252   6258     1  0.0000000  1.0460000  1
   6251   6249   6252   6258     1  0.0000000  0.0000000  3
   6251   6249   6252   6253     1  0.0000000  0.6508444  3
   6251   6249   6252   6254     1  0.0000000  0.6508444  3
   6251   6249   6246   6255     1  0.0000000  0.6508444  3
   6260   6263   6266   6267     1  0.0000000  0.6508444  3
   6260   6263   6266   6268     1  0.0000000  0.6508444  3
   6261   6260   6263   6266     1  0.0000000  0.6508444  3
   6261   6260   6263   6264     1  0.0000000  0.6508444  3
   6261   6260   6263   6265     1  0.0000000  0.6508444  3
   6261   6260   6269   6270     1  0.0000000  0.6508444  3
   6261   6260   6269   6271     1  0.0000000  0.6508444  3
   6261   6260   6269   6273     1  0.0000000  0.6508444  3
   6262   6260   6263   6266     1  0.0000000  0.6508444  3
   6262   6260   6263   6264     1  0.0000000  0.6508444  3
   6262   6260   6263   6265     1  0.0000000  0.6508444  3
   6262   6260   6269   6270     1  0.0000000  0.6508444  3
   6262   6260   6269   6271     1  0.0000000  0.6508444  3
   6262   6260   6269   6273     1  0.0000000  0.6508444  3
   6263   6260   6269   6270     1  0.0000000  0.6508444  3
   6263   6260   6269   6271     1  0.0000000  0.6508444  3
   6263   6260   6269   6273     1  0.0000000  0.6508444  3
   6264   6263   6260   6269     1  0.0000000  0.6508444  3
   6264   6263   6266   6272     1  0.0000000  1.0460000  1
   6264   6263   6266   6272     1  0.0000000  0.0000000  3
   6264   6263   6266   6267     1  0.0000000  0.6508444  3
   6264   6263   6266   6268     1  0.0000000  0.6508444  3
   6265   6263   6260   6269     1  0.0000000  0.6508444  3
   6265   6263   6266   6272     1  0.0000000  1.0460000  1
   6265   6263   6266   6272     1  0.0000000  0.0000000  3
   6265   6263   6266   6267     1  0.0000000  0.6508444  3
   6265   6263   6266   6268     1  0.0000000  0.6508444  3
   6274   6277   6280   6281     1  0.0000000  0.6508444  3
   6274   6277   6280   6282     1  0.0000000  0.6508444  3
   6275   6274   6277   6280     1  0.0000000  0.6508444  3
   6275   6274   6277   6278     1  0.0000000  0.6508444  3
   6275   6274   6277   6279     1  0.0000000  0.6508444  3
   6275   6274   6283   6284     1  0.0000000  0.6508444  3
   6275   6274   6283   6285     1  0.0000000  0.6508444  3
   6275   6274   6283   6287     1  0.0000000  0.6508444  3
   6276   6274   6277   6280     1  0.0000000  0.6508444  3
   6276   6274   6277   6278     1  0.0000000  0.6508444  3
   6276   6274   6277   6279     1  0.0000000  0.6508444  3
   6276   6274   6283   6284     1  0.0000000  0.6508444  3
   6276   6274   6283   6285     1  0.0000000  0.6508444  3
   6276   6274   6283   6287     1  0.0000000  0.6508444  3
   6277   6274   6283   6284     1  0.0000000  0.6508444  3
   6277   6274   6283   6285     1  0.0000000  0.6508444  3
   6277   6274   6283   6287     1  0.0000000  0.6508444  3
   6278   6277   6280   6286     1  0.0000000  1.0460000  1
   6278   6277   6280   6286     1  0.0000000  0.0000000  3
   6278   6277   6280   6281     1  0.0000000  0.6508444  3
   6278   6277   6280   6282     1  0.0000000  0.6508444  3
   6278   6277   6274   6283     1  0.0000000  0.6508444  3
   6279   6277   6280   6286     1  0.0000000  1.0460000  1
   6279   6277   6280   6286     1  0.0000000  0.0000000  3
   6279   6277   6280   6281     1  0.0000000  0.6508444  3
   6279   6277   6280   6282     1  0.0000000  0.6508444  3
   6279   6277   6274   6283     1  0.0000000  0.6508444  3
   6288   6291   6294   6295     1  0.0000000  0.6508444  3
   6288   6291   6294   6296     1  0.0000000  0.6508444  3
   6289   6288   6291   6294     1  0.0000000  0.6508444  3
   6289   6288   6291   6292     1  0.0000000  0.6508444  3
   6289   6288   6291   6293     1  0.0000000  0.6508444  3
   6289   6288   6297   6298     1  0.0000000  0.6508444  3
   6289   6288   6297   6299     1  0.0000000  0.6508444  3
   6289   6288   6297   6301     1  0.0000000  0.6508444  3
   6290   6288   6291   6294     1  0.0000000  0.6508444  3
   6290   6288   6291   6292     1  0.0000000  0.6508444  3
   6290   6288   6291   6293     1  0.0000000  0.6508444  3
   6290   6288   6297   6298     1  0.0000000  0.6508444  3
   6290   6288   6297   6299     1  0.0000000  0.6508444  3
   6290   6288   6297   6301     1  0.0000000  0.6508444  3
   6291   6288   6297   6298     1  0.0000000  0.6508444  3
   6291   6288   6297   6299     1  0.0000000  0.6508444  3
   6291   6288   6297   6301     1  0.0000000  0.6508444  3
   6292   6291   6288   6297     1  0.0000000  0.6508444  3
   6292   6291   6294   6300     1  0.0000000  1.0460000  1
   6292   6291   6294   6300     1  0.0000000  0.0000000  3
   6292   6291   6294   6295     1  0.0000000  0.6508444  3
   6292   6291   6294   6296     1  0.0000000  0.6508444  3
   6293   6291   6288   6297     1  0.0000000  0.6508444  3
   6293   6291   6294   6300     1  0.0000000  1.0460000  1
   6293   6291   6294   6300     1  0.0000000  0.0000000  3
   6293   6291   6294   6295     1  0.0000000  0.6508444  3
   6293   6291   6294   6296     1  0.0000000  0.6508444  3
   6302   6305   6308   6309     1  0.0000000  0.6508444  3
   6302   6305   6308   6310     1  0.0000000  0.6508444  3
   6303   6302   6305   6308     1  0.0000000  0.6508444  3
   6303   6302   6305   6306     1  0.0000000  0.6508444  3
   6303   6302   6305   6307     1  0.0000000  0.6508444  3
   6303   6302   6311   6312     1  0.0000000  0.6508444  3
   6303   6302   6311   6313     1  0.0000000  0.6508444  3
   6303   6302   6311   6315     1  0.0000000  0.6508444  3
   6304   6302   6305   6308     1  0.0000000  0.6508444  3
   6304   6302   6305   6306     1  0.0000000  0.6508444  3
   6304   6302   6305   6307     1  0.0000000  0.6508444  3
   6304   6302   6311   6312     1  0.0000000  0.6508444  3
   6304   6302   6311   6313     1  0.0000000  0.6508444  3
   6304   6302   6311   6315     1  0.0000000  0.6508444  3
   6305   6302   6311   6312     1  0.0000000  0.6508444  3
   6305   6302   6311   6313     1  0.0000000  0.6508444  3
   6305   6302   6311   6315     1  0.0000000  0.6508444  3
   6306   6305   6308   6314     1  0.0000000  1.0460000  1
   6306   6305   6308   6314     1  0.0000000  0.0000000  3
   6306   6305   6308   6309     1  0.0000000  0.6508444  3
   6306   6305   6308   6310     1  0.0000000  0.6508444  3
   6306   6305   6302   6311     1  0.0000000  0.6508444  3
   6307   6305   6308   6314     1  0.0000000  1.0460000  1
   6307   6305   6308   6314     1  0.0000000  0.0000000  3
   6307   6305   6308   6309     1  0.0000000  0.6508444  3
   6307   6305   6308   6310     1  0.0000000  0.6508444  3
   6307   6305   6302   6311     1  0.0000000  0.6508444  3
   6316   6319   6322   6323     1  0.0000000  0.6508444  3
   6316   6319   6322   6324     1  0.0000000  0.6508444  3
   6317   6316   6319   6322     1  0.0000000  0.6508444  3
   6317   6316   6319   6320     1  0.0000000  0.6508444  3
   6317   6316   6319   6321     1  0.0000000  0.6508444  3
   6317   6316   6325   6326     1  0.0000000  0.6508444  3
   6317   6316   6325   6327     1  0.0000000  0.6508444  3
   6317   6316   6325   6329     1  0.0000000  0.6508444  3
   6318   6316   6319   6322     1  0.0000000  0.6508444  3
   6318   6316   6319   6320     1  0.0000000  0.6508444  3
   6318   6316   6319   6321     1  0.0000000  0.6508444  3
   6318   6316   6325   6326     1  0.0000000  0.6508444  3
   6318   6316   6325   6327     1  0.0000000  0.6508444  3
   6318   6316   6325   6329     1  0.0000000  0.6508444  3
   6319   6316   6325   6326     1  0.0000000  0.6508444  3
   6319   6316   6325   6327     1  0.0000000  0.6508444  3
   6319   6316   6325   6329     1  0.0000000  0.6508444  3
   6320   6319   6316   6325     1  0.0000000  0.6508444  3
   6320   6319   6322   6328     1  0.0000000  1.0460000  1
   6320   6319   6322   6328     1  0.0000000  0.0000000  3
   6320   6319   6322   6323     1  0.0000000  0.6508444  3
   6320   6319   6322   6324     1  0.0000000  0.6508444  3
   6321   6319   6316   6325     1  0.0000000  0.6508444  3
   6321   6319   6322   6328     1  0.0000000  1.0460000  1
   6321   6319   6322   6328     1  0.0000000  0.0000000  3
   6321   6319   6322   6323     1  0.0000000  0.6508444  3
   6321   6319   6322   6324     1  0.0000000  0.6508444  3
   6330   6333   6336   6337     1  0.0000000  0.6508444  3
   6330   6333   6336   6338     1  0.0000000  0.6508444  3
   6331   6330   6333   6336     1  0.0000000  0.6508444  3
   6331   6330   6333   6334     1  0.0000000  0.6508444  3
   6331   6330   6333   6335     1  0.0000000  0.6508444  3
   6331   6330   6339   6340     1  0.0000000  0.6508444  3
   6331   6330   6339   6341     1  0.0000000  0.6508444  3
   6331   6330   6339   6343     1  0.0000000  0.6508444  3
   6332   6330   6333   6336     1  0.0000000  0.6508444  3
   6332   6330   6333   6334     1  0.0000000  0.6508444  3
   6332   6330   6333   6335     1  0.0000000  0.6508444  3
   6332   6330   6339   6340     1  0.0000000  0.6508444  3
   6332   6330   6339   6341     1  0.0000000  0.6508444  3
   6332   6330   6339   6343     1  0.0000000  0.6508444  3
   6333   6330   6339   6340     1  0.0000000  0.6508444  3
   6333   6330   6339   6341     1  0.0000000  0.6508444  3
   6333   6330   6339   6343     1  0.0000000  0.6508444  3
   6334   6333   6336   6342     1  0.0000000  1.0460000  1
   6334   6333   6336   6342     1  0.0000000  0.0000000  3
   6334   6333   6336   6337     1  0.0000000  0.6508444  3
   6334   6333   6336   6338     1  0.0000000  0.6508444  3
   6334   6333   6330   6339     1  0.0000000  0.6508444  3
   6335   6333   6336   6342     1  0.0000000  1.0460000  1
   6335   6333   6336   6342     1  0.0000000  0.0000000  3
   6335   6333   6336   6337     1  0.0000000  0.6508444  3
   6335   6333   6336   6338     1  0.0000000  0.6508444  3
   6335   6333   6330   6339     1  0.0000000  0.6508444  3
   6344   6347   6350   6351     1  0.0000000  0.6508444  3
   6344   6347   6350   6352     1  0.0000000  0.6508444  3
   6345   6344   6347   6350     1  0.0000000  0.6508444  3
   6345   6344   6347   6348     1  0.0000000  0.6508444  3
   6345   6344   6347   6349     1  0.0000000  0.6508444  3
   6345   6344   6353   6354     1  0.0000000  0.6508444  3
   6345   6344   6353   6355     1  0.0000000  0.6508444  3
   6345   6344   6353   6357     1  0.0000000  0.6508444  3
   6346   6344   6347   6350     1  0.0000000  0.6508444  3
   6346   6344   6347   6348     1  0.0000000  0.6508444  3
   6346   6344   6347   6349     1  0.0000000  0.6508444  3
   6346   6344   6353   6354     1  0.0000000  0.6508444  3
   6346   6344   6353   6355     1  0.0000000  0.6508444  3
   6346   6344   6353   6357     1  0.0000000  0.6508444  3
   6347   6344   6353   6354     1  0.0000000  0.6508444  3
   6347   6344   6353   6355     1  0.0000000  0.6508444  3
   6347   6344   6353   6357     1  0.0000000  0.6508444  3
   6348   6347   6344   6353     1  0.0000000  0.6508444  3
   6348   6347   6350   6356     1  0.0000000  1.0460000  1
   6348   6347   6350   6356     1  0.0000000  0.0000000  3
   6348   6347   6350   6351     1  0.0000000  0.6508444  3
   6348   6347   6350   6352     1  0.0000000  0.6508444  3
   6349   6347   6344   6353     1  0.0000000  0.6508444  3
   6349   6347   6350   6356     1  0.0000000  1.0460000  1
   6349   6347   6350   6356     1  0.0000000  0.0000000  3
   6349   6347   6350   6351     1  0.0000000  0.6508444  3
   6349   6347   6350   6352     1  0.0000000  0.6508444  3
   6358   6361   6364   6365     1  0.0000000  0.6508444  3
   6358   6361   6364   6366     1  0.0000000  0.6508444  3
   6359   6358   6361   6364     1  0.0000000  0.6508444  3
   6359   6358   6361   6362     1  0.0000000  0.6508444  3
   6359   6358   6361   6363     1  0.0000000  0.6508444  3
   6359   6358   6367   6368     1  0.0000000  0.6508444  3
   6359   6358   6367   6369     1  0.0000000  0.6508444  3
   6359   6358   6367   6371     1  0.0000000  0.6508444  3
   6360   6358   6361   6364     1  0.0000000  0.6508444  3
   6360   6358   6361   6362     1  0.0000000  0.6508444  3
   6360   6358   6361   6363     1  0.0000000  0.6508444  3
   6360   6358   6367   6368     1  0.0000000  0.6508444  3
   6360   6358   6367   6369     1  0.0000000  0.6508444  3
   6360   6358   6367   6371     1  0.0000000  0.6508444  3
   6361   6358   6367   6368     1  0.0000000  0.6508444  3
   6361   6358   6367   6369     1  0.0000000  0.6508444  3
   6361   6358   6367   6371     1  0.0000000  0.6508444  3
   6362   6361   6364   6370     1  0.0000000  1.0460000  1
   6362   6361   6364   6370     1  0.0000000  0.0000000  3
   6362   6361   6364   6365     1  0.0000000  0.6508444  3
   6362   6361   6364   6366     1  0.0000000  0.6508444  3
   6362   6361   6358   6367     1  0.0000000  0.6508444  3
   6363   6361   6364   6370     1  0.0000000  1.0460000  1
   6363   6361   6364   6370     1  0.0000000  0.0000000  3
   6363   6361   6364   6365     1  0.0000000  0.6508444  3
   6363   6361   6364   6366     1  0.0000000  0.6508444  3
   6363   6361   6358   6367     1  0.0000000  0.6508444  3
   6372   6375   6378   6379     1  0.0000000  0.6508444  3
   6372   6375   6378   6380     1  0.0000000  0.6508444  3
   6373   6372   6375   6378     1  0.0000000  0.6508444  3
   6373   6372   6375   6376     1  0.0000000  0.6508444  3
   6373   6372   6375   6377     1  0.0000000  0.6508444  3
   6373   6372   6381   6382     1  0.0000000  0.6508444  3
   6373   6372   6381   6383     1  0.0000000  0.6508444  3
   6373   6372   6381   6385     1  0.0000000  0.6508444  3
   6374   6372   6375   6378     1  0.0000000  0.6508444  3
   6374   6372   6375   6376     1  0.0000000  0.6508444  3
   6374   6372   6375   6377     1  0.0000000  0.6508444  3
   6374   6372   6381   6382     1  0.0000000  0.6508444  3
   6374   6372   6381   6383     1  0.0000000  0.6508444  3
   6374   6372   6381   6385     1  0.0000000  0.6508444  3
   6375   6372   6381   6382     1  0.0000000  0.6508444  3
   6375   6372   6381   6383     1  0.0000000  0.6508444  3
   6375   6372   6381   6385     1  0.0000000  0.6508444  3
   6376   6375   6372   6381     1  0.0000000  0.6508444  3
   6376   6375   6378   6384     1  0.0000000  1.0460000  1
   6376   6375   6378   6384     1  0.0000000  0.0000000  3
   6376   6375   6378   6379     1  0.0000000  0.6508444  3
   6376   6375   6378   6380     1  0.0000000  0.6508444  3
   6377   6375   6372   6381     1  0.0000000  0.6508444  3
   6377   6375   6378   6384     1  0.0000000  1.0460000  1
   6377   6375   6378   6384     1  0.0000000  0.0000000  3
   6377   6375   6378   6379     1  0.0000000  0.6508444  3
   6377   6375   6378   6380     1  0.0000000  0.6508444  3
   6386   6389   6392   6393     1  0.0000000  0.6508444  3
   6386   6389   6392   6394     1  0.0000000  0.6508444  3
   6387   6386   6389   6392     1  0.0000000  0.6508444  3
   6387   6386   6389   6390     1  0.0000000  0.6508444  3
   6387   6386   6389   6391     1  0.0000000  0.6508444  3
   6387   6386   6395   6396     1  0.0000000  0.6508444  3
   6387   6386   6395   6397     1  0.0000000  0.6508444  3
   6387   6386   6395   6399     1  0.0000000  0.6508444  3
   6388   6386   6389   6392     1  0.0000000  0.6508444  3
   6388   6386   6389   6390     1  0.0000000  0.6508444  3
   6388   6386   6389   6391     1  0.0000000  0.6508444  3
   6388   6386   6395   6396     1  0.0000000  0.6508444  3
   6388   6386   6395   6397     1  0.0000000  0.6508444  3
   6388   6386   6395   6399     1  0.0000000  0.6508444  3
   6389   6386   6395   6396     1  0.0000000  0.6508444  3
   6389   6386   6395   6397     1  0.0000000  0.6508444  3
   6389   6386   6395   6399     1  0.0000000  0.6508444  3
   6390   6389   6392   6398     1  0.0000000  1.0460000  1
   6390   6389   6392   6398     1  0.0000000  0.0000000  3
   6390   6389   6392   6393     1  0.0000000  0.6508444  3
   6390   6389   6392   6394     1  0.0000000  0.6508444  3
   6390   6389   6386   6395     1  0.0000000  0.6508444  3
   6391   6389   6392   6398     1  0.0000000  1.0460000  1
   6391   6389   6392   6398     1  0.0000000  0.0000000  3
   6391   6389   6392   6393     1  0.0000000  0.6508444  3
   6391   6389   6392   6394     1  0.0000000  0.6508444  3
   6391   6389   6386   6395     1  0.0000000  0.6508444  3
   6400   6403   6406   6407     1  0.0000000  0.6508444  3
   6400   6403   6406   6408     1  0.0000000  0.6508444  3
   6401   6400   6403   6406     1  0.0000000  0.6508444  3
   6401   6400   6403   6404     1  0.0000000  0.6508444  3
   6401   6400   6403   6405     1  0.0000000  0.6508444  3
   6401   6400   6409   6410     1  0.0000000  0.6508444  3
   6401   6400   6409   6411     1  0.0000000  0.6508444  3
   6401   6400   6409   6413     1  0.0000000  0.6508444  3
   6402   6400   6403   6406     1  0.0000000  0.6508444  3
   6402   6400   6403   6404     1  0.0000000  0.6508444  3
   6402   6400   6403   6405     1  0.0000000  0.6508444  3
   6402   6400   6409   6410     1  0.0000000  0.6508444  3
   6402   6400   6409   6411     1  0.0000000  0.6508444  3
   6402   6400   6409   6413     1  0.0000000  0.6508444  3
   6403   6400   6409   6410     1  0.0000000  0.6508444  3
   6403   6400   6409   6411     1  0.0000000  0.6508444  3
   6403   6400   6409   6413     1  0.0000000  0.6508444  3
   6404   6403   6400   6409     1  0.0000000  0.6508444  3
   6404   6403   6406   6412     1  0.0000000  1.0460000  1
   6404   6403   6406   6412     1  0.0000000  0.0000000  3
   6404   6403   6406   6407     1  0.0000000  0.6508444  3
   6404   6403   6406   6408     1  0.0000000  0.6508444  3
   6405   6403   6400   6409     1  0.0000000  0.6508444  3
   6405   6403   6406   6412     1  0.0000000  1.0460000  1
   6405   6403   6406   6412     1  0.0000000  0.0000000  3
   6405   6403   6406   6407     1  0.0000000  0.6508444  3
   6405   6403   6406   6408     1  0.0000000  0.6508444  3
   6414   6417   6420   6421     1  0.0000000  0.6508444  3
   6414   6417   6420   6422     1  0.0000000  0.6508444  3
   6415   6414   6417   6420     1  0.0000000  0.6508444  3
   6415   6414   6417   6418     1  0.0000000  0.6508444  3
   6415   6414   6417   6419     1  0.0000000  0.6508444  3
   6415   6414   6423   6424     1  0.0000000  0.6508444  3
   6415   6414   6423   6425     1  0.0000000  0.6508444  3
   6415   6414   6423   6427     1  0.0000000  0.6508444  3
   6416   6414   6417   6420     1  0.0000000  0.6508444  3
   6416   6414   6417   6418     1  0.0000000  0.6508444  3
   6416   6414   6417   6419     1  0.0000000  0.6508444  3
   6416   6414   6423   6424     1  0.0000000  0.6508444  3
   6416   6414   6423   6425     1  0.0000000  0.6508444  3
   6416   6414   6423   6427     1  0.0000000  0.6508444  3
   6417   6414   6423   6424     1  0.0000000  0.6508444  3
   6417   6414   6423   6425     1  0.0000000  0.6508444  3
   6417   6414   6423   6427     1  0.0000000  0.6508444  3
   6418   6417   6420   6426     1  0.0000000  1.0460000  1
   6418   6417   6420   6426     1  0.0000000  0.0000000  3
   6418   6417   6420   6421     1  0.0000000  0.6508444  3
   6418   6417   6420   6422     1  0.0000000  0.6508444  3
   6418   6417   6414   6423     1  0.0000000  0.6508444  3
   6419   6417   6420   6426     1  0.0000000  1.0460000  1
   6419   6417   6420   6426     1  0.0000000  0.0000000  3
   6419   6417   6420   6421     1  0.0000000  0.6508444  3
   6419   6417   6420   6422     1  0.0000000  0.6508444  3
   6419   6417   6414   6423     1  0.0000000  0.6508444  3
   6428   6431   6434   6435     1  0.0000000  0.6508444  3
   6428   6431   6434   6436     1  0.0000000  0.6508444  3
   6429   6428   6431   6434     1  0.0000000  0.6508444  3
   6429   6428   6431   6432     1  0.0000000  0.6508444  3
   6429   6428   6431   6433     1  0.0000000  0.6508444  3
   6429   6428   6437   6438     1  0.0000000  0.6508444  3
   6429   6428   6437   6439     1  0.0000000  0.6508444  3
   6429   6428   6437   6441     1  0.0000000  0.6508444  3
   6430   6428   6431   6434     1  0.0000000  0.6508444  3
   6430   6428   6431   6432     1  0.0000000  0.6508444  3
   6430   6428   6431   6433     1  0.0000000  0.6508444  3
   6430   6428   6437   6438     1  0.0000000  0.6508444  3
   6430   6428   6437   6439     1  0.0000000  0.6508444  3
   6430   6428   6437   6441     1  0.0000000  0.6508444  3
   6431   6428   6437   6438     1  0.0000000  0.6508444  3
   6431   6428   6437   6439     1  0.0000000  0.6508444  3
   6431   6428   6437   6441     1  0.0000000  0.6508444  3
   6432   6431   6428   6437     1  0.0000000  0.6508444  3
   6432   6431   6434   6440     1  0.0000000  1.0460000  1
   6432   6431   6434   6440     1  0.0000000  0.0000000  3
   6432   6431   6434   6435     1  0.0000000  0.6508444  3
   6432   6431   6434   6436     1  0.0000000  0.6508444  3
   6433   6431   6428   6437     1  0.0000000  0.6508444  3
   6433   6431   6434   6440     1  0.0000000  1.0460000  1
   6433   6431   6434   6440     1  0.0000000  0.0000000  3
   6433   6431   6434   6435     1  0.0000000  0.6508444  3
   6433   6431   6434   6436     1  0.0000000  0.6508444  3
   6442   6445   6448   6449     1  0.0000000  0.6508444  3
   6442   6445   6448   6450     1  0.0000000  0.6508444  3
   6443   6442   6445   6448     1  0.0000000  0.6508444  3
   6443   6442   6445   6446     1  0.0000000  0.6508444  3
   6443   6442   6445   6447     1  0.0000000  0.6508444  3
   6443   6442   6451   6452     1  0.0000000  0.6508444  3
   6443   6442   6451   6453     1  0.0000000  0.6508444  3
   6443   6442   6451   6455     1  0.0000000  0.6508444  3
   6444   6442   6445   6448     1  0.0000000  0.6508444  3
   6444   6442   6445   6446     1  0.0000000  0.6508444  3
   6444   6442   6445   6447     1  0.0000000  0.6508444  3
   6444   6442   6451   6452     1  0.0000000  0.6508444  3
   6444   6442   6451   6453     1  0.0000000  0.6508444  3
   6444   6442   6451   6455     1  0.0000000  0.6508444  3
   6445   6442   6451   6452     1  0.0000000  0.6508444  3
   6445   6442   6451   6453     1  0.0000000  0.6508444  3
   6445   6442   6451   6455     1  0.0000000  0.6508444  3
   6446   6445   6448   6454     1  0.0000000  1.0460000  1
   6446   6445   6448   6454     1  0.0000000  0.0000000  3
   6446   6445   6448   6449     1  0.0000000  0.6508444  3
   6446   6445   6448   6450     1  0.0000000  0.6508444  3
   6446   6445   6442   6451     1  0.0000000  0.6508444  3
   6447   6445   6448   6454     1  0.0000000  1.0460000  1
   6447   6445   6448   6454     1  0.0000000  0.0000000  3
   6447   6445   6448   6449     1  0.0000000  0.6508444  3
   6447   6445   6448   6450     1  0.0000000  0.6508444  3
   6447   6445   6442   6451     1  0.0000000  0.6508444  3
   6456   6459   6462   6463     1  0.0000000  0.6508444  3
   6456   6459   6462   6464     1  0.0000000  0.6508444  3
   6457   6456   6459   6462     1  0.0000000  0.6508444  3
   6457   6456   6459   6460     1  0.0000000  0.6508444  3
   6457   6456   6459   6461     1  0.0000000  0.6508444  3
   6457   6456   6465   6466     1  0.0000000  0.6508444  3
   6457   6456   6465   6467     1  0.0000000  0.6508444  3
   6457   6456   6465   6469     1  0.0000000  0.6508444  3
   6458   6456   6459   6462     1  0.0000000  0.6508444  3
   6458   6456   6459   6460     1  0.0000000  0.6508444  3
   6458   6456   6459   6461     1  0.0000000  0.6508444  3
   6458   6456   6465   6466     1  0.0000000  0.6508444  3
   6458   6456   6465   6467     1  0.0000000  0.6508444  3
   6458   6456   6465   6469     1  0.0000000  0.6508444  3
   6459   6456   6465   6466     1  0.0000000  0.6508444  3
   6459   6456   6465   6467     1  0.0000000  0.6508444  3
   6459   6456   6465   6469     1  0.0000000  0.6508444  3
   6460   6459   6456   6465     1  0.0000000  0.6508444  3
   6460   6459   6462   6468     1  0.0000000  1.0460000  1
   6460   6459   6462   6468     1  0.0000000  0.0000000  3
   6460   6459   6462   6463     1  0.0000000  0.6508444  3
   6460   6459   6462   6464     1  0.0000000  0.6508444  3
   6461   6459   6456   6465     1  0.0000000  0.6508444  3
   6461   6459   6462   6468     1  0.0000000  1.0460000  1
   6461   6459   6462   6468     1  0.0000000  0.0000000  3
   6461   6459   6462   6463     1  0.0000000  0.6508444  3
   6461   6459   6462   6464     1  0.0000000  0.6508444  3
   6470   6473   6476   6477     1  0.0000000  0.6508444  3
   6470   6473   6476   6478     1  0.0000000  0.6508444  3
   6471   6470   6473   6476     1  0.0000000  0.6508444  3
   6471   6470   6473   6474     1  0.0000000  0.6508444  3
   6471   6470   6473   6475     1  0.0000000  0.6508444  3
   6471   6470   6479   6480     1  0.0000000  0.6508444  3
   6471   6470   6479   6481     1  0.0000000  0.6508444  3
   6471   6470   6479   6483     1  0.0000000  0.6508444  3
   6472   6470   6473   6476     1  0.0000000  0.6508444  3
   6472   6470   6473   6474     1  0.0000000  0.6508444  3
   6472   6470   6473   6475     1  0.0000000  0.6508444  3
   6472   6470   6479   6480     1  0.0000000  0.6508444  3
   6472   6470   6479   6481     1  0.0000000  0.6508444  3
   6472   6470   6479   6483     1  0.0000000  0.6508444  3
   6473   6470   6479   6480     1  0.0000000  0.6508444  3
   6473   6470   6479   6481     1  0.0000000  0.6508444  3
   6473   6470   6479   6483     1  0.0000000  0.6508444  3
   6474   6473   6476   6482     1  0.0000000  1.0460000  1
   6474   6473   6476   6482     1  0.0000000  0.0000000  3
   6474   6473   6476   6477     1  0.0000000  0.6508444  3
   6474   6473   6476   6478     1  0.0000000  0.6508444  3
   6474   6473   6470   6479     1  0.0000000  0.6508444  3
   6475   6473   6476   6482     1  0.0000000  1.0460000  1
   6475   6473   6476   6482     1  0.0000000  0.0000000  3
   6475   6473   6476   6477     1  0.0000000  0.6508444  3
   6475   6473   6476   6478     1  0.0000000  0.6508444  3
   6475   6473   6470   6479     1  0.0000000  0.6508444  3
   6484   6487   6490   6491     1  0.0000000  0.6508444  3
   6484   6487   6490   6492     1  0.0000000  0.6508444  3
   6485   6484   6487   6490     1  0.0000000  0.6508444  3
   6485   6484   6487   6488     1  0.0000000  0.6508444  3
   6485   6484   6487   6489     1  0.0000000  0.6508444  3
   6485   6484   6493   6494     1  0.0000000  0.6508444  3
   6485   6484   6493   6495     1  0.0000000  0.6508444  3
   6485   6484   6493   6497     1  0.0000000  0.6508444  3
   6486   6484   6487   6490     1  0.0000000  0.6508444  3
   6486   6484   6487   6488     1  0.0000000  0.6508444  3
   6486   6484   6487   6489     1  0.0000000  0.6508444  3
   6486   6484   6493   6494     1  0.0000000  0.6508444  3
   6486   6484   6493   6495     1  0.0000000  0.6508444  3
   6486   6484   6493   6497     1  0.0000000  0.6508444  3
   6487   6484   6493   6494     1  0.0000000  0.6508444  3
   6487   6484   6493   6495     1  0.0000000  0.6508444  3
   6487   6484   6493   6497     1  0.0000000  0.6508444  3
   6488   6487   6484   6493     1  0.0000000  0.6508444  3
   6488   6487   6490   6496     1  0.0000000  1.0460000  1
   6488   6487   6490   6496     1  0.0000000  0.0000000  3
   6488   6487   6490   6491     1  0.0000000  0.6508444  3
   6488   6487   6490   6492     1  0.0000000  0.6508444  3
   6489   6487   6484   6493     1  0.0000000  0.6508444  3
   6489   6487   6490   6496     1  0.0000000  1.0460000  1
   6489   6487   6490   6496     1  0.0000000  0.0000000  3
   6489   6487   6490   6491     1  0.0000000  0.6508444  3
   6489   6487   6490   6492     1  0.0000000  0.6508444  3
   6498   6501   6504   6505     1  0.0000000  0.6508444  3
   6498   6501   6504   6506     1  0.0000000  0.6508444  3
   6499   6498   6501   6504     1  0.0000000  0.6508444  3
   6499   6498   6501   6502     1  0.0000000  0.6508444  3
   6499   6498   6501   6503     1  0.0000000  0.6508444  3
   6499   6498   6507   6508     1  0.0000000  0.6508444  3
   6499   6498   6507   6509     1  0.0000000  0.6508444  3
   6499   6498   6507   6511     1  0.0000000  0.6508444  3
   6500   6498   6501   6504     1  0.0000000  0.6508444  3
   6500   6498   6501   6502     1  0.0000000  0.6508444  3
   6500   6498   6501   6503     1  0.0000000  0.6508444  3
   6500   6498   6507   6508     1  0.0000000  0.6508444  3
   6500   6498   6507   6509     1  0.0000000  0.6508444  3
   6500   6498   6507   6511     1  0.0000000  0.6508444  3
   6501   6498   6507   6508     1  0.0000000  0.6508444  3
   6501   6498   6507   6509     1  0.0000000  0.6508444  3
   6501   6498   6507   6511     1  0.0000000  0.6508444  3
   6502   6501   6504   6510     1  0.0000000  1.0460000  1
   6502   6501   6504   6510     1  0.0000000  0.0000000  3
   6502   6501   6504   6505     1  0.0000000  0.6508444  3
   6502   6501   6504   6506     1  0.0000000  0.6508444  3
   6502   6501   6498   6507     1  0.0000000  0.6508444  3
   6503   6501   6504   6510     1  0.0000000  1.0460000  1
   6503   6501   6504   6510     1  0.0000000  0.0000000  3
   6503   6501   6504   6505     1  0.0000000  0.6508444  3
   6503   6501   6504   6506     1  0.0000000  0.6508444  3
   6503   6501   6498   6507     1  0.0000000  0.6508444  3
   6512   6515   6518   6519     1  0.0000000  0.6508444  3
   6512   6515   6518   6520     1  0.0000000  0.6508444  3
   6513   6512   6515   6518     1  0.0000000  0.6508444  3
   6513   6512   6515   6516     1  0.0000000  0.6508444  3
   6513   6512   6515   6517     1  0.0000000  0.6508444  3
   6513   6512   6521   6522     1  0.0000000  0.6508444  3
   6513   6512   6521   6523     1  0.0000000  0.6508444  3
   6513   6512   6521   6525     1  0.0000000  0.6508444  3
   6514   6512   6515   6518     1  0.0000000  0.6508444  3
   6514   6512   6515   6516     1  0.0000000  0.6508444  3
   6514   6512   6515   6517     1  0.0000000  0.6508444  3
   6514   6512   6521   6522     1  0.0000000  0.6508444  3
   6514   6512   6521   6523     1  0.0000000  0.6508444  3
   6514   6512   6521   6525     1  0.0000000  0.6508444  3
   6515   6512   6521   6522     1  0.0000000  0.6508444  3
   6515   6512   6521   6523     1  0.0000000  0.6508444  3
   6515   6512   6521   6525     1  0.0000000  0.6508444  3
   6516   6515   6512   6521     1  0.0000000  0.6508444  3
   6516   6515   6518   6524     1  0.0000000  1.0460000  1
   6516   6515   6518   6524     1  0.0000000  0.0000000  3
   6516   6515   6518   6519     1  0.0000000  0.6508444  3
   6516   6515   6518   6520     1  0.0000000  0.6508444  3
   6517   6515   6512   6521     1  0.0000000  0.6508444  3
   6517   6515   6518   6524     1  0.0000000  1.0460000  1
   6517   6515   6518   6524     1  0.0000000  0.0000000  3
   6517   6515   6518   6519     1  0.0000000  0.6508444  3
   6517   6515   6518   6520     1  0.0000000  0.6508444  3
   6526   6529   6532   6533     1  0.0000000  0.6508444  3
   6526   6529   6532   6534     1  0.0000000  0.6508444  3
   6527   6526   6529   6532     1  0.0000000  0.6508444  3
   6527   6526   6529   6530     1  0.0000000  0.6508444  3
   6527   6526   6529   6531     1  0.0000000  0.6508444  3
   6527   6526   6535   6536     1  0.0000000  0.6508444  3
   6527   6526   6535   6537     1  0.0000000  0.6508444  3
   6527   6526   6535   6539     1  0.0000000  0.6508444  3
   6528   6526   6529   6532     1  0.0000000  0.6508444  3
   6528   6526   6529   6530     1  0.0000000  0.6508444  3
   6528   6526   6529   6531     1  0.0000000  0.6508444  3
   6528   6526   6535   6536     1  0.0000000  0.6508444  3
   6528   6526   6535   6537     1  0.0000000  0.6508444  3
   6528   6526   6535   6539     1  0.0000000  0.6508444  3
   6529   6526   6535   6536     1  0.0000000  0.6508444  3
   6529   6526   6535   6537     1  0.0000000  0.6508444  3
   6529   6526   6535   6539     1  0.0000000  0.6508444  3
   6530   6529   6532   6538     1  0.0000000  1.0460000  1
   6530   6529   6532   6538     1  0.0000000  0.0000000  3
   6530   6529   6532   6533     1  0.0000000  0.6508444  3
   6530   6529   6532   6534     1  0.0000000  0.6508444  3
   6530   6529   6526   6535     1  0.0000000  0.6508444  3
   6531   6529   6532   6538     1  0.0000000  1.0460000  1
   6531   6529   6532   6538     1  0.0000000  0.0000000  3
   6531   6529   6532   6533     1  0.0000000  0.6508444  3
   6531   6529   6532   6534     1  0.0000000  0.6508444  3
   6531   6529   6526   6535     1  0.0000000  0.6508444  3
   6540   6543   6546   6547     1  0.0000000  0.6508444  3
   6540   6543   6546   6548     1  0.0000000  0.6508444  3
   6541   6540   6543   6546     1  0.0000000  0.6508444  3
   6541   6540   6543   6544     1  0.0000000  0.6508444  3
   6541   6540   6543   6545     1  0.0000000  0.6508444  3
   6541   6540   6549   6550     1  0.0000000  0.6508444  3
   6541   6540   6549   6551     1  0.0000000  0.6508444  3
   6541   6540   6549   6553     1  0.0000000  0.6508444  3
   6542   6540   6543   6546     1  0.0000000  0.6508444  3
   6542   6540   6543   6544     1  0.0000000  0.6508444  3
   6542   6540   6543   6545     1  0.0000000  0.6508444  3
   6542   6540   6549   6550     1  0.0000000  0.6508444  3
   6542   6540   6549   6551     1  0.0000000  0.6508444  3
   6542   6540   6549   6553     1  0.0000000  0.6508444  3
   6543   6540   6549   6550     1  0.0000000  0.6508444  3
   6543   6540   6549   6551     1  0.0000000  0.6508444  3
   6543   6540   6549   6553     1  0.0000000  0.6508444  3
   6544   6543   6540   6549     1  0.0000000  0.6508444  3
   6544   6543   6546   6552     1  0.0000000  1.0460000  1
   6544   6543   6546   6552     1  0.0000000  0.0000000  3
   6544   6543   6546   6547     1  0.0000000  0.6508444  3
   6544   6543   6546   6548     1  0.0000000  0.6508444  3
   6545   6543   6540   6549     1  0.0000000  0.6508444  3
   6545   6543   6546   6552     1  0.0000000  1.0460000  1
   6545   6543   6546   6552     1  0.0000000  0.0000000  3
   6545   6543   6546   6547     1  0.0000000  0.6508444  3
   6545   6543   6546   6548     1  0.0000000  0.6508444  3
   6554   6557   6560   6561     1  0.0000000  0.6508444  3
   6554   6557   6560   6562     1  0.0000000  0.6508444  3
   6555   6554   6557   6560     1  0.0000000  0.6508444  3
   6555   6554   6557   6558     1  0.0000000  0.6508444  3
   6555   6554   6557   6559     1  0.0000000  0.6508444  3
   6555   6554   6563   6564     1  0.0000000  0.6508444  3
   6555   6554   6563   6565     1  0.0000000  0.6508444  3
   6555   6554   6563   6567     1  0.0000000  0.6508444  3
   6556   6554   6557   6560     1  0.0000000  0.6508444  3
   6556   6554   6557   6558     1  0.0000000  0.6508444  3
   6556   6554   6557   6559     1  0.0000000  0.6508444  3
   6556   6554   6563   6564     1  0.0000000  0.6508444  3
   6556   6554   6563   6565     1  0.0000000  0.6508444  3
   6556   6554   6563   6567     1  0.0000000  0.6508444  3
   6557   6554   6563   6564     1  0.0000000  0.6508444  3
   6557   6554   6563   6565     1  0.0000000  0.6508444  3
   6557   6554   6563   6567     1  0.0000000  0.6508444  3
   6558   6557   6560   6566     1  0.0000000  1.0460000  1
   6558   6557   6560   6566     1  0.0000000  0.0000000  3
   6558   6557   6560   6561     1  0.0000000  0.6508444  3
   6558   6557   6560   6562     1  0.0000000  0.6508444  3
   6558   6557   6554   6563     1  0.0000000  0.6508444  3
   6559   6557   6560   6566     1  0.0000000  1.0460000  1
   6559   6557   6560   6566     1  0.0000000  0.0000000  3
   6559   6557   6560   6561     1  0.0000000  0.6508444  3
   6559   6557   6560   6562     1  0.0000000  0.6508444  3
   6559   6557   6554   6563     1  0.0000000  0.6508444  3
   6568   6571   6574   6575     1  0.0000000  0.6508444  3
   6568   6571   6574   6576     1  0.0000000  0.6508444  3
   6569   6568   6571   6574     1  0.0000000  0.6508444  3
   6569   6568   6571   6572     1  0.0000000  0.6508444  3
   6569   6568   6571   6573     1  0.0000000  0.6508444  3
   6569   6568   6577   6578     1  0.0000000  0.6508444  3
   6569   6568   6577   6579     1  0.0000000  0.6508444  3
   6569   6568   6577   6581     1  0.0000000  0.6508444  3
   6570   6568   6571   6574     1  0.0000000  0.6508444  3
   6570   6568   6571   6572     1  0.0000000  0.6508444  3
   6570   6568   6571   6573     1  0.0000000  0.6508444  3
   6570   6568   6577   6578     1  0.0000000  0.6508444  3
   6570   6568   6577   6579     1  0.0000000  0.6508444  3
   6570   6568   6577   6581     1  0.0000000  0.6508444  3
   6571   6568   6577   6578     1  0.0000000  0.6508444  3
   6571   6568   6577   6579     1  0.0000000  0.6508444  3
   6571   6568   6577   6581     1  0.0000000  0.6508444  3
   6572   6571   6568   6577     1  0.0000000  0.6508444  3
   6572   6571   6574   6580     1  0.0000000  1.0460000  1
   6572   6571   6574   6580     1  0.0000000  0.0000000  3
   6572   6571   6574   6575     1  0.0000000  0.6508444  3
   6572   6571   6574   6576     1  0.0000000  0.6508444  3
   6573   6571   6568   6577     1  0.0000000  0.6508444  3
   6573   6571   6574   6580     1  0.0000000  1.0460000  1
   6573   6571   6574   6580     1  0.0000000  0.0000000  3
   6573   6571   6574   6575     1  0.0000000  0.6508444  3
   6573   6571   6574   6576     1  0.0000000  0.6508444  3
   6582   6585   6588   6589     1  0.0000000  0.6508444  3
   6582   6585   6588   6590     1  0.0000000  0.6508444  3
   6583   6582   6585   6588     1  0.0000000  0.6508444  3
   6583   6582   6585   6586     1  0.0000000  0.6508444  3
   6583   6582   6585   6587     1  0.0000000  0.6508444  3
   6583   6582   6591   6592     1  0.0000000  0.6508444  3
   6583   6582   6591   6593     1  0.0000000  0.6508444  3
   6583   6582   6591   6595     1  0.0000000  0.6508444  3
   6584   6582   6585   6588     1  0.0000000  0.6508444  3
   6584   6582   6585   6586     1  0.0000000  0.6508444  3
   6584   6582   6585   6587     1  0.0000000  0.6508444  3
   6584   6582   6591   6592     1  0.0000000  0.6508444  3
   6584   6582   6591   6593     1  0.0000000  0.6508444  3
   6584   6582   6591   6595     1  0.0000000  0.6508444  3
   6585   6582   6591   6592     1  0.0000000  0.6508444  3
   6585   6582   6591   6593     1  0.0000000  0.6508444  3
   6585   6582   6591   6595     1  0.0000000  0.6508444  3
   6586   6585   6588   6594     1  0.0000000  1.0460000  1
   6586   6585   6588   6594     1  0.0000000  0.0000000  3
   6586   6585   6588   6589     1  0.0000000  0.6508444  3
   6586   6585   6588   6590     1  0.0000000  0.6508444  3
   6586   6585   6582   6591     1  0.0000000  0.6508444  3
   6587   6585   6588   6594     1  0.0000000  1.0460000  1
   6587   6585   6588   6594     1  0.0000000  0.0000000  3
   6587   6585   6588   6589     1  0.0000000  0.6508444  3
   6587   6585   6588   6590     1  0.0000000  0.6508444  3
   6587   6585   6582   6591     1  0.0000000  0.6508444  3
   6596   6599   6602   6603     1  0.0000000  0.6508444  3
   6596   6599   6602   6604     1  0.0000000  0.6508444  3
   6597   6596   6599   6602     1  0.0000000  0.6508444  3
   6597   6596   6599   6600     1  0.0000000  0.6508444  3
   6597   6596   6599   6601     1  0.0000000  0.6508444  3
   6597   6596   6605   6606     1  0.0000000  0.6508444  3
   6597   6596   6605   6607     1  0.0000000  0.6508444  3
   6597   6596   6605   6609     1  0.0000000  0.6508444  3
   6598   6596   6599   6602     1  0.0000000  0.6508444  3
   6598   6596   6599   6600     1  0.0000000  0.6508444  3
   6598   6596   6599   6601     1  0.0000000  0.6508444  3
   6598   6596   6605   6606     1  0.0000000  0.6508444  3
   6598   6596   6605   6607     1  0.0000000  0.6508444  3
   6598   6596   6605   6609     1  0.0000000  0.6508444  3
   6599   6596   6605   6606     1  0.0000000  0.6508444  3
   6599   6596   6605   6607     1  0.0000000  0.6508444  3
   6599   6596   6605   6609     1  0.0000000  0.6508444  3
   6600   6599   6596   6605     1  0.0000000  0.6508444  3
   6600   6599   6602   6608     1  0.0000000  1.0460000  1
   6600   6599   6602   6608     1  0.0000000  0.0000000  3
   6600   6599   6602   6603     1  0.0000000  0.6508444  3
   6600   6599   6602   6604     1  0.0000000  0.6508444  3
   6601   6599   6596   6605     1  0.0000000  0.6508444  3
   6601   6599   6602   6608     1  0.0000000  1.0460000  1
   6601   6599   6602   6608     1  0.0000000  0.0000000  3
   6601   6599   6602   6603     1  0.0000000  0.6508444  3
   6601   6599   6602   6604     1  0.0000000  0.6508444  3
   6610   6613   6616   6617     1  0.0000000  0.6508444  3
   6610   6613   6616   6618     1  0.0000000  0.6508444  3
   6611   6610   6613   6616     1  0.0000000  0.6508444  3
   6611   6610   6613   6614     1  0.0000000  0.6508444  3
   6611   6610   6613   6615     1  0.0000000  0.6508444  3
   6611   6610   6619   6620     1  0.0000000  0.6508444  3
   6611   6610   6619   6621     1  0.0000000  0.6508444  3
   6611   6610   6619   6623     1  0.0000000  0.6508444  3
   6612   6610   6613   6616     1  0.0000000  0.6508444  3
   6612   6610   6613   6614     1  0.0000000  0.6508444  3
   6612   6610   6613   6615     1  0.0000000  0.6508444  3
   6612   6610   6619   6620     1  0.0000000  0.6508444  3
   6612   6610   6619   6621     1  0.0000000  0.6508444  3
   6612   6610   6619   6623     1  0.0000000  0.6508444  3
   6613   6610   6619   6620     1  0.0000000  0.6508444  3
   6613   6610   6619   6621     1  0.0000000  0.6508444  3
   6613   6610   6619   6623     1  0.0000000  0.6508444  3
   6614   6613   6616   6622     1  0.0000000  1.0460000  1
   6614   6613   6616   6622     1  0.0000000  0.0000000  3
   6614   6613   6616   6617     1  0.0000000  0.6508444  3
   6614   6613   6616   6618     1  0.0000000  0.6508444  3
   6614   6613   6610   6619     1  0.0000000  0.6508444  3
   6615   6613   6616   6622     1  0.0000000  1.0460000  1
   6615   6613   6616   6622     1  0.0000000  0.0000000  3
   6615   6613   6616   6617     1  0.0000000  0.6508444  3
   6615   6613   6616   6618     1  0.0000000  0.6508444  3
   6615   6613   6610   6619     1  0.0000000  0.6508444  3
   6624   6627   6630   6631     1  0.0000000  0.6508444  3
   6624   6627   6630   6632     1  0.0000000  0.6508444  3
   6625   6624   6627   6630     1  0.0000000  0.6508444  3
   6625   6624   6627   6628     1  0.0000000  0.6508444  3
   6625   6624   6627   6629     1  0.0000000  0.6508444  3
   6625   6624   6633   6634     1  0.0000000  0.6508444  3
   6625   6624   6633   6635     1  0.0000000  0.6508444  3
   6625   6624   6633   6637     1  0.0000000  0.6508444  3
   6626   6624   6627   6630     1  0.0000000  0.6508444  3
   6626   6624   6627   6628     1  0.0000000  0.6508444  3
   6626   6624   6627   6629     1  0.0000000  0.6508444  3
   6626   6624   6633   6634     1  0.0000000  0.6508444  3
   6626   6624   6633   6635     1  0.0000000  0.6508444  3
   6626   6624   6633   6637     1  0.0000000  0.6508444  3
   6627   6624   6633   6634     1  0.0000000  0.6508444  3
   6627   6624   6633   6635     1  0.0000000  0.6508444  3
   6627   6624   6633   6637     1  0.0000000  0.6508444  3
   6628   6627   6624   6633     1  0.0000000  0.6508444  3
   6628   6627   6630   6636     1  0.0000000  1.0460000  1
   6628   6627   6630   6636     1  0.0000000  0.0000000  3
   6628   6627   6630   6631     1  0.0000000  0.6508444  3
   6628   6627   6630   6632     1  0.0000000  0.6508444  3
   6629   6627   6624   6633     1  0.0000000  0.6508444  3
   6629   6627   6630   6636     1  0.0000000  1.0460000  1
   6629   6627   6630   6636     1  0.0000000  0.0000000  3
   6629   6627   6630   6631     1  0.0000000  0.6508444  3
   6629   6627   6630   6632     1  0.0000000  0.6508444  3
   6638   6641   6644   6645     1  0.0000000  0.6508444  3
   6638   6641   6644   6646     1  0.0000000  0.6508444  3
   6639   6638   6641   6644     1  0.0000000  0.6508444  3
   6639   6638   6641   6642     1  0.0000000  0.6508444  3
   6639   6638   6641   6643     1  0.0000000  0.6508444  3
   6639   6638   6647   6648     1  0.0000000  0.6508444  3
   6639   6638   6647   6649     1  0.0000000  0.6508444  3
   6639   6638   6647   6651     1  0.0000000  0.6508444  3
   6640   6638   6641   6644     1  0.0000000  0.6508444  3
   6640   6638   6641   6642     1  0.0000000  0.6508444  3
   6640   6638   6641   6643     1  0.0000000  0.6508444  3
   6640   6638   6647   6648     1  0.0000000  0.6508444  3
   6640   6638   6647   6649     1  0.0000000  0.6508444  3
   6640   6638   6647   6651     1  0.0000000  0.6508444  3
   6641   6638   6647   6648     1  0.0000000  0.6508444  3
   6641   6638   6647   6649     1  0.0000000  0.6508444  3
   6641   6638   6647   6651     1  0.0000000  0.6508444  3
   6642   6641   6644   6650     1  0.0000000  1.0460000  1
   6642   6641   6644   6650     1  0.0000000  0.0000000  3
   6642   6641   6644   6645     1  0.0000000  0.6508444  3
   6642   6641   6644   6646     1  0.0000000  0.6508444  3
   6642   6641   6638   6647     1  0.0000000  0.6508444  3
   6643   6641   6644   6650     1  0.0000000  1.0460000  1
   6643   6641   6644   6650     1  0.0000000  0.0000000  3
   6643   6641   6644   6645     1  0.0000000  0.6508444  3
   6643   6641   6644   6646     1  0.0000000  0.6508444  3
   6643   6641   6638   6647     1  0.0000000  0.6508444  3
   6652   6655   6658   6659     1  0.0000000  0.6508444  3
   6652   6655   6658   6660     1  0.0000000  0.6508444  3
   6653   6652   6655   6658     1  0.0000000  0.6508444  3
   6653   6652   6655   6656     1  0.0000000  0.6508444  3
   6653   6652   6655   6657     1  0.0000000  0.6508444  3
   6653   6652   6661   6662     1  0.0000000  0.6508444  3
   6653   6652   6661   6663     1  0.0000000  0.6508444  3
   6653   6652   6661   6665     1  0.0000000  0.6508444  3
   6654   6652   6655   6658     1  0.0000000  0.6508444  3
   6654   6652   6655   6656     1  0.0000000  0.6508444  3
   6654   6652   6655   6657     1  0.0000000  0.6508444  3
   6654   6652   6661   6662     1  0.0000000  0.6508444  3
   6654   6652   6661   6663     1  0.0000000  0.6508444  3
   6654   6652   6661   6665     1  0.0000000  0.6508444  3
   6655   6652   6661   6662     1  0.0000000  0.6508444  3
   6655   6652   6661   6663     1  0.0000000  0.6508444  3
   6655   6652   6661   6665     1  0.0000000  0.6508444  3
   6656   6655   6652   6661     1  0.0000000  0.6508444  3
   6656   6655   6658   6664     1  0.0000000  1.0460000  1
   6656   6655   6658   6664     1  0.0000000  0.0000000  3
   6656   6655   6658   6659     1  0.0000000  0.6508444  3
   6656   6655   6658   6660     1  0.0000000  0.6508444  3
   6657   6655   6652   6661     1  0.0000000  0.6508444  3
   6657   6655   6658   6664     1  0.0000000  1.0460000  1
   6657   6655   6658   6664     1  0.0000000  0.0000000  3
   6657   6655   6658   6659     1  0.0000000  0.6508444  3
   6657   6655   6658   6660     1  0.0000000  0.6508444  3
   6666   6669   6672   6673     1  0.0000000  0.6508444  3
   6666   6669   6672   6674     1  0.0000000  0.6508444  3
   6667   6666   6669   6672     1  0.0000000  0.6508444  3
   6667   6666   6669   6670     1  0.0000000  0.6508444  3
   6667   6666   6669   6671     1  0.0000000  0.6508444  3
   6667   6666   6675   6676     1  0.0000000  0.6508444  3
   6667   6666   6675   6677     1  0.0000000  0.6508444  3
   6667   6666   6675   6679     1  0.0000000  0.6508444  3
   6668   6666   6669   6672     1  0.0000000  0.6508444  3
   6668   6666   6669   6670     1  0.0000000  0.6508444  3
   6668   6666   6669   6671     1  0.0000000  0.6508444  3
   6668   6666   6675   6676     1  0.0000000  0.6508444  3
   6668   6666   6675   6677     1  0.0000000  0.6508444  3
   6668   6666   6675   6679     1  0.0000000  0.6508444  3
   6669   6666   6675   6676     1  0.0000000  0.6508444  3
   6669   6666   6675   6677     1  0.0000000  0.6508444  3
   6669   6666   6675   6679     1  0.0000000  0.6508444  3
   6670   6669   6672   6678     1  0.0000000  1.0460000  1
   6670   6669   6672   6678     1  0.0000000  0.0000000  3
   6670   6669   6672   6673     1  0.0000000  0.6508444  3
   6670   6669   6672   6674     1  0.0000000  0.6508444  3
   6670   6669   6666   6675     1  0.0000000  0.6508444  3
   6671   6669   6672   6678     1  0.0000000  1.0460000  1
   6671   6669   6672   6678     1  0.0000000  0.0000000  3
   6671   6669   6672   6673     1  0.0000000  0.6508444  3
   6671   6669   6672   6674     1  0.0000000  0.6508444  3
   6671   6669   6666   6675     1  0.0000000  0.6508444  3
   6680   6683   6686   6687     1  0.0000000  0.6508444  3
   6680   6683   6686   6688     1  0.0000000  0.6508444  3
   6681   6680   6683   6686     1  0.0000000  0.6508444  3
   6681   6680   6683   6684     1  0.0000000  0.6508444  3
   6681   6680   6683   6685     1  0.0000000  0.6508444  3
   6681   6680   6689   6690     1  0.0000000  0.6508444  3
   6681   6680   6689   6691     1  0.0000000  0.6508444  3
   6681   6680   6689   6693     1  0.0000000  0.6508444  3
   6682   6680   6683   6686     1  0.0000000  0.6508444  3
   6682   6680   6683   6684     1  0.0000000  0.6508444  3
   6682   6680   6683   6685     1  0.0000000  0.6508444  3
   6682   6680   6689   6690     1  0.0000000  0.6508444  3
   6682   6680   6689   6691     1  0.0000000  0.6508444  3
   6682   6680   6689   6693     1  0.0000000  0.6508444  3
   6683   6680   6689   6690     1  0.0000000  0.6508444  3
   6683   6680   6689   6691     1  0.0000000  0.6508444  3
   6683   6680   6689   6693     1  0.0000000  0.6508444  3
   6684   6683   6680   6689     1  0.0000000  0.6508444  3
   6684   6683   6686   6692     1  0.0000000  1.0460000  1
   6684   6683   6686   6692     1  0.0000000  0.0000000  3
   6684   6683   6686   6687     1  0.0000000  0.6508444  3
   6684   6683   6686   6688     1  0.0000000  0.6508444  3
   6685   6683   6680   6689     1  0.0000000  0.6508444  3
   6685   6683   6686   6692     1  0.0000000  1.0460000  1
   6685   6683   6686   6692     1  0.0000000  0.0000000  3
   6685   6683   6686   6687     1  0.0000000  0.6508444  3
   6685   6683   6686   6688     1  0.0000000  0.6508444  3
   6694   6697   6700   6701     1  0.0000000  0.6508444  3
   6694   6697   6700   6702     1  0.0000000  0.6508444  3
   6695   6694   6697   6700     1  0.0000000  0.6508444  3
   6695   6694   6697   6698     1  0.0000000  0.6508444  3
   6695   6694   6697   6699     1  0.0000000  0.6508444  3
   6695   6694   6703   6704     1  0.0000000  0.6508444  3
   6695   6694   6703   6705     1  0.0000000  0.6508444  3
   6695   6694   6703   6707     1  0.0000000  0.6508444  3
   6696   6694   6697   6700     1  0.0000000  0.6508444  3
   6696   6694   6697   6698     1  0.0000000  0.6508444  3
   6696   6694   6697   6699     1  0.0000000  0.6508444  3
   6696   6694   6703   6704     1  0.0000000  0.6508444  3
   6696   6694   6703   6705     1  0.0000000  0.6508444  3
   6696   6694   6703   6707     1  0.0000000  0.6508444  3
   6697   6694   6703   6704     1  0.0000000  0.6508444  3
   6697   6694   6703   6705     1  0.0000000  0.6508444  3
   6697   6694   6703   6707     1  0.0000000  0.6508444  3
   6698   6697   6700   6706     1  0.0000000  1.0460000  1
   6698   6697   6700   6706     1  0.0000000  0.0000000  3
   6698   6697   6700   6701     1  0.0000000  0.6508444  3
   6698   6697   6700   6702     1  0.0000000  0.6508444  3
   6698   6697   6694   6703     1  0.0000000  0.6508444  3
   6699   6697   6700   6706     1  0.0000000  1.0460000  1
   6699   6697   6700   6706     1  0.0000000  0.0000000  3
   6699   6697   6700   6701     1  0.0000000  0.6508444  3
   6699   6697   6700   6702     1  0.0000000  0.6508444  3
   6699   6697   6694   6703     1  0.0000000  0.6508444  3
   6708   6711   6714   6715     1  0.0000000  0.6508444  3
   6708   6711   6714   6716     1  0.0000000  0.6508444  3
   6709   6708   6711   6714     1  0.0000000  0.6508444  3
   6709   6708   6711   6712     1  0.0000000  0.6508444  3
   6709   6708   6711   6713     1  0.0000000  0.6508444  3
   6709   6708   6717   6718     1  0.0000000  0.6508444  3
   6709   6708   6717   6719     1  0.0000000  0.6508444  3
   6709   6708   6717   6721     1  0.0000000  0.6508444  3
   6710   6708   6711   6714     1  0.0000000  0.6508444  3
   6710   6708   6711   6712     1  0.0000000  0.6508444  3
   6710   6708   6711   6713     1  0.0000000  0.6508444  3
   6710   6708   6717   6718     1  0.0000000  0.6508444  3
   6710   6708   6717   6719     1  0.0000000  0.6508444  3
   6710   6708   6717   6721     1  0.0000000  0.6508444  3
   6711   6708   6717   6718     1  0.0000000  0.6508444  3
   6711   6708   6717   6719     1  0.0000000  0.6508444  3
   6711   6708   6717   6721     1  0.0000000  0.6508444  3
   6712   6711   6708   6717     1  0.0000000  0.6508444  3
   6712   6711   6714   6720     1  0.0000000  1.0460000  1
   6712   6711   6714   6720     1  0.0000000  0.0000000  3
   6712   6711   6714   6715     1  0.0000000  0.6508444  3
   6712   6711   6714   6716     1  0.0000000  0.6508444  3
   6713   6711   6708   6717     1  0.0000000  0.6508444  3
   6713   6711   6714   6720     1  0.0000000  1.0460000  1
   6713   6711   6714   6720     1  0.0000000  0.0000000  3
   6713   6711   6714   6715     1  0.0000000  0.6508444  3
   6713   6711   6714   6716     1  0.0000000  0.6508444  3
   6722   6725   6728   6729     1  0.0000000  0.6508444  3
   6722   6725   6728   6730     1  0.0000000  0.6508444  3
   6723   6722   6725   6728     1  0.0000000  0.6508444  3
   6723   6722   6725   6726     1  0.0000000  0.6508444  3
   6723   6722   6725   6727     1  0.0000000  0.6508444  3
   6723   6722   6731   6732     1  0.0000000  0.6508444  3
   6723   6722   6731   6733     1  0.0000000  0.6508444  3
   6723   6722   6731   6735     1  0.0000000  0.6508444  3
   6724   6722   6725   6728     1  0.0000000  0.6508444  3
   6724   6722   6725   6726     1  0.0000000  0.6508444  3
   6724   6722   6725   6727     1  0.0000000  0.6508444  3
   6724   6722   6731   6732     1  0.0000000  0.6508444  3
   6724   6722   6731   6733     1  0.0000000  0.6508444  3
   6724   6722   6731   6735     1  0.0000000  0.6508444  3
   6725   6722   6731   6732     1  0.0000000  0.6508444  3
   6725   6722   6731   6733     1  0.0000000  0.6508444  3
   6725   6722   6731   6735     1  0.0000000  0.6508444  3
   6726   6725   6728   6734     1  0.0000000  1.0460000  1
   6726   6725   6728   6734     1  0.0000000  0.0000000  3
   6726   6725   6728   6729     1  0.0000000  0.6508444  3
   6726   6725   6728   6730     1  0.0000000  0.6508444  3
   6726   6725   6722   6731     1  0.0000000  0.6508444  3
   6727   6725   6728   6734     1  0.0000000  1.0460000  1
   6727   6725   6728   6734     1  0.0000000  0.0000000  3
   6727   6725   6728   6729     1  0.0000000  0.6508444  3
   6727   6725   6728   6730     1  0.0000000  0.6508444  3
   6727   6725   6722   6731     1  0.0000000  0.6508444  3
   6736   6739   6742   6743     1  0.0000000  0.6508444  3
   6736   6739   6742   6744     1  0.0000000  0.6508444  3
   6737   6736   6739   6742     1  0.0000000  0.6508444  3
   6737   6736   6739   6740     1  0.0000000  0.6508444  3
   6737   6736   6739   6741     1  0.0000000  0.6508444  3
   6737   6736   6745   6746     1  0.0000000  0.6508444  3
   6737   6736   6745   6747     1  0.0000000  0.6508444  3
   6737   6736   6745   6749     1  0.0000000  0.6508444  3
   6738   6736   6739   6742     1  0.0000000  0.6508444  3
   6738   6736   6739   6740     1  0.0000000  0.6508444  3
   6738   6736   6739   6741     1  0.0000000  0.6508444  3
   6738   6736   6745   6746     1  0.0000000  0.6508444  3
   6738   6736   6745   6747     1  0.0000000  0.6508444  3
   6738   6736   6745   6749     1  0.0000000  0.6508444  3
   6739   6736   6745   6746     1  0.0000000  0.6508444  3
   6739   6736   6745   6747     1  0.0000000  0.6508444  3
   6739   6736   6745   6749     1  0.0000000  0.6508444  3
   6740   6739   6736   6745     1  0.0000000  0.6508444  3
   6740   6739   6742   6748     1  0.0000000  1.0460000  1
   6740   6739   6742   6748     1  0.0000000  0.0000000  3
   6740   6739   6742   6743     1  0.0000000  0.6508444  3
   6740   6739   6742   6744     1  0.0000000  0.6508444  3
   6741   6739   6736   6745     1  0.0000000  0.6508444  3
   6741   6739   6742   6748     1  0.0000000  1.0460000  1
   6741   6739   6742   6748     1  0.0000000  0.0000000  3
   6741   6739   6742   6743     1  0.0000000  0.6508444  3
   6741   6739   6742   6744     1  0.0000000  0.6508444  3
   6750   6753   6756   6757     1  0.0000000  0.6508444  3
   6750   6753   6756   6758     1  0.0000000  0.6508444  3
   6751   6750   6753   6756     1  0.0000000  0.6508444  3
   6751   6750   6753   6754     1  0.0000000  0.6508444  3
   6751   6750   6753   6755     1  0.0000000  0.6508444  3
   6751   6750   6759   6760     1  0.0000000  0.6508444  3
   6751   6750   6759   6761     1  0.0000000  0.6508444  3
   6751   6750   6759   6763     1  0.0000000  0.6508444  3
   6752   6750   6753   6756     1  0.0000000  0.6508444  3
   6752   6750   6753   6754     1  0.0000000  0.6508444  3
   6752   6750   6753   6755     1  0.0000000  0.6508444  3
   6752   6750   6759   6760     1  0.0000000  0.6508444  3
   6752   6750   6759   6761     1  0.0000000  0.6508444  3
   6752   6750   6759   6763     1  0.0000000  0.6508444  3
   6753   6750   6759   6760     1  0.0000000  0.6508444  3
   6753   6750   6759   6761     1  0.0000000  0.6508444  3
   6753   6750   6759   6763     1  0.0000000  0.6508444  3
   6754   6753   6756   6762     1  0.0000000  1.0460000  1
   6754   6753   6756   6762     1  0.0000000  0.0000000  3
   6754   6753   6756   6757     1  0.0000000  0.6508444  3
   6754   6753   6756   6758     1  0.0000000  0.6508444  3
   6754   6753   6750   6759     1  0.0000000  0.6508444  3
   6755   6753   6756   6762     1  0.0000000  1.0460000  1
   6755   6753   6756   6762     1  0.0000000  0.0000000  3
   6755   6753   6756   6757     1  0.0000000  0.6508444  3
   6755   6753   6756   6758     1  0.0000000  0.6508444  3
   6755   6753   6750   6759     1  0.0000000  0.6508444  3
   6764   6767   6770   6771     1  0.0000000  0.6508444  3
   6764   6767   6770   6772     1  0.0000000  0.6508444  3
   6765   6764   6767   6770     1  0.0000000  0.6508444  3
   6765   6764   6767   6768     1  0.0000000  0.6508444  3
   6765   6764   6767   6769     1  0.0000000  0.6508444  3
   6765   6764   6773   6774     1  0.0000000  0.6508444  3
   6765   6764   6773   6775     1  0.0000000  0.6508444  3
   6765   6764   6773   6777     1  0.0000000  0.6508444  3
   6766   6764   6767   6770     1  0.0000000  0.6508444  3
   6766   6764   6767   6768     1  0.0000000  0.6508444  3
   6766   6764   6767   6769     1  0.0000000  0.6508444  3
   6766   6764   6773   6774     1  0.0000000  0.6508444  3
   6766   6764   6773   6775     1  0.0000000  0.6508444  3
   6766   6764   6773   6777     1  0.0000000  0.6508444  3
   6767   6764   6773   6774     1  0.0000000  0.6508444  3
   6767   6764   6773   6775     1  0.0000000  0.6508444  3
   6767   6764   6773   6777     1  0.0000000  0.6508444  3
   6768   6767   6764   6773     1  0.0000000  0.6508444  3
   6768   6767   6770   6776     1  0.0000000  1.0460000  1
   6768   6767   6770   6776     1  0.0000000  0.0000000  3
   6768   6767   6770   6771     1  0.0000000  0.6508444  3
   6768   6767   6770   6772     1  0.0000000  0.6508444  3
   6769   6767   6764   6773     1  0.0000000  0.6508444  3
   6769   6767   6770   6776     1  0.0000000  1.0460000  1
   6769   6767   6770   6776     1  0.0000000  0.0000000  3
   6769   6767   6770   6771     1  0.0000000  0.6508444  3
   6769   6767   6770   6772     1  0.0000000  0.6508444  3
   6778   6781   6784   6785     1  0.0000000  0.6508444  3
   6778   6781   6784   6786     1  0.0000000  0.6508444  3
   6779   6778   6781   6784     1  0.0000000  0.6508444  3
   6779   6778   6781   6782     1  0.0000000  0.6508444  3
   6779   6778   6781   6783     1  0.0000000  0.6508444  3
   6779   6778   6787   6788     1  0.0000000  0.6508444  3
   6779   6778   6787   6789     1  0.0000000  0.6508444  3
   6779   6778   6787   6791     1  0.0000000  0.6508444  3
   6780   6778   6781   6784     1  0.0000000  0.6508444  3
   6780   6778   6781   6782     1  0.0000000  0.6508444  3
   6780   6778   6781   6783     1  0.0000000  0.6508444  3
   6780   6778   6787   6788     1  0.0000000  0.6508444  3
   6780   6778   6787   6789     1  0.0000000  0.6508444  3
   6780   6778   6787   6791     1  0.0000000  0.6508444  3
   6781   6778   6787   6788     1  0.0000000  0.6508444  3
   6781   6778   6787   6789     1  0.0000000  0.6508444  3
   6781   6778   6787   6791     1  0.0000000  0.6508444  3
   6782   6781   6784   6790     1  0.0000000  1.0460000  1
   6782   6781   6784   6790     1  0.0000000  0.0000000  3
   6782   6781   6784   6785     1  0.0000000  0.6508444  3
   6782   6781   6784   6786     1  0.0000000  0.6508444  3
   6782   6781   6778   6787     1  0.0000000  0.6508444  3
   6783   6781   6784   6790     1  0.0000000  1.0460000  1
   6783   6781   6784   6790     1  0.0000000  0.0000000  3
   6783   6781   6784   6785     1  0.0000000  0.6508444  3
   6783   6781   6784   6786     1  0.0000000  0.6508444  3
   6783   6781   6778   6787     1  0.0000000  0.6508444  3
   6792   6795   6798   6799     1  0.0000000  0.6508444  3
   6792   6795   6798   6800     1  0.0000000  0.6508444  3
   6793   6792   6795   6798     1  0.0000000  0.6508444  3
   6793   6792   6795   6796     1  0.0000000  0.6508444  3
   6793   6792   6795   6797     1  0.0000000  0.6508444  3
   6793   6792   6801   6802     1  0.0000000  0.6508444  3
   6793   6792   6801   6803     1  0.0000000  0.6508444  3
   6793   6792   6801   6805     1  0.0000000  0.6508444  3
   6794   6792   6795   6798     1  0.0000000  0.6508444  3
   6794   6792   6795   6796     1  0.0000000  0.6508444  3
   6794   6792   6795   6797     1  0.0000000  0.6508444  3
   6794   6792   6801   6802     1  0.0000000  0.6508444  3
   6794   6792   6801   6803     1  0.0000000  0.6508444  3
   6794   6792   6801   6805     1  0.0000000  0.6508444  3
   6795   6792   6801   6802     1  0.0000000  0.6508444  3
   6795   6792   6801   6803     1  0.0000000  0.6508444  3
   6795   6792   6801   6805     1  0.0000000  0.6508444  3
   6796   6795   6792   6801     1  0.0000000  0.6508444  3
   6796   6795   6798   6804     1  0.0000000  1.0460000  1
   6796   6795   6798   6804     1  0.0000000  0.0000000  3
   6796   6795   6798   6799     1  0.0000000  0.6508444  3
   6796   6795   6798   6800     1  0.0000000  0.6508444  3
   6797   6795   6792   6801     1  0.0000000  0.6508444  3
   6797   6795   6798   6804     1  0.0000000  1.0460000  1
   6797   6795   6798   6804     1  0.0000000  0.0000000  3
   6797   6795   6798   6799     1  0.0000000  0.6508444  3
   6797   6795   6798   6800     1  0.0000000  0.6508444  3
   6806   6809   6812   6813     1  0.0000000  0.6508444  3
   6806   6809   6812   6814     1  0.0000000  0.6508444  3
   6807   6806   6809   6812     1  0.0000000  0.6508444  3
   6807   6806   6809   6810     1  0.0000000  0.6508444  3
   6807   6806   6809   6811     1  0.0000000  0.6508444  3
   6807   6806   6815   6816     1  0.0000000  0.6508444  3
   6807   6806   6815   6817     1  0.0000000  0.6508444  3
   6807   6806   6815   6819     1  0.0000000  0.6508444  3
   6808   6806   6809   6812     1  0.0000000  0.6508444  3
   6808   6806   6809   6810     1  0.0000000  0.6508444  3
   6808   6806   6809   6811     1  0.0000000  0.6508444  3
   6808   6806   6815   6816     1  0.0000000  0.6508444  3
   6808   6806   6815   6817     1  0.0000000  0.6508444  3
   6808   6806   6815   6819     1  0.0000000  0.6508444  3
   6809   6806   6815   6816     1  0.0000000  0.6508444  3
   6809   6806   6815   6817     1  0.0000000  0.6508444  3
   6809   6806   6815   6819     1  0.0000000  0.6508444  3
   6810   6809   6812   6818     1  0.0000000  1.0460000  1
   6810   6809   6812   6818     1  0.0000000  0.0000000  3
   6810   6809   6812   6813     1  0.0000000  0.6508444  3
   6810   6809   6812   6814     1  0.0000000  0.6508444  3
   6810   6809   6806   6815     1  0.0000000  0.6508444  3
   6811   6809   6812   6818     1  0.0000000  1.0460000  1
   6811   6809   6812   6818     1  0.0000000  0.0000000  3
   6811   6809   6812   6813     1  0.0000000  0.6508444  3
   6811   6809   6812   6814     1  0.0000000  0.6508444  3
   6811   6809   6806   6815     1  0.0000000  0.6508444  3
   6820   6823   6826   6827     1  0.0000000  0.6508444  3
   6820   6823   6826   6828     1  0.0000000  0.6508444  3
   6821   6820   6823   6826     1  0.0000000  0.6508444  3
   6821   6820   6823   6824     1  0.0000000  0.6508444  3
   6821   6820   6823   6825     1  0.0000000  0.6508444  3
   6821   6820   6829   6830     1  0.0000000  0.6508444  3
   6821   6820   6829   6831     1  0.0000000  0.6508444  3
   6821   6820   6829   6833     1  0.0000000  0.6508444  3
   6822   6820   6823   6826     1  0.0000000  0.6508444  3
   6822   6820   6823   6824     1  0.0000000  0.6508444  3
   6822   6820   6823   6825     1  0.0000000  0.6508444  3
   6822   6820   6829   6830     1  0.0000000  0.6508444  3
   6822   6820   6829   6831     1  0.0000000  0.6508444  3
   6822   6820   6829   6833     1  0.0000000  0.6508444  3
   6823   6820   6829   6830     1  0.0000000  0.6508444  3
   6823   6820   6829   6831     1  0.0000000  0.6508444  3
   6823   6820   6829   6833     1  0.0000000  0.6508444  3
   6824   6823   6820   6829     1  0.0000000  0.6508444  3
   6824   6823   6826   6832     1  0.0000000  1.0460000  1
   6824   6823   6826   6832     1  0.0000000  0.0000000  3
   6824   6823   6826   6827     1  0.0000000  0.6508444  3
   6824   6823   6826   6828     1  0.0000000  0.6508444  3
   6825   6823   6820   6829     1  0.0000000  0.6508444  3
   6825   6823   6826   6832     1  0.0000000  1.0460000  1
   6825   6823   6826   6832     1  0.0000000  0.0000000  3
   6825   6823   6826   6827     1  0.0000000  0.6508444  3
   6825   6823   6826   6828     1  0.0000000  0.6508444  3
   6834   6837   6840   6841     1  0.0000000  0.6508444  3
   6834   6837   6840   6842     1  0.0000000  0.6508444  3
   6835   6834   6837   6840     1  0.0000000  0.6508444  3
   6835   6834   6837   6838     1  0.0000000  0.6508444  3
   6835   6834   6837   6839     1  0.0000000  0.6508444  3
   6835   6834   6843   6844     1  0.0000000  0.6508444  3
   6835   6834   6843   6845     1  0.0000000  0.6508444  3
   6835   6834   6843   6847     1  0.0000000  0.6508444  3
   6836   6834   6837   6840     1  0.0000000  0.6508444  3
   6836   6834   6837   6838     1  0.0000000  0.6508444  3
   6836   6834   6837   6839     1  0.0000000  0.6508444  3
   6836   6834   6843   6844     1  0.0000000  0.6508444  3
   6836   6834   6843   6845     1  0.0000000  0.6508444  3
   6836   6834   6843   6847     1  0.0000000  0.6508444  3
   6837   6834   6843   6844     1  0.0000000  0.6508444  3
   6837   6834   6843   6845     1  0.0000000  0.6508444  3
   6837   6834   6843   6847     1  0.0000000  0.6508444  3
   6838   6837   6840   6846     1  0.0000000  1.0460000  1
   6838   6837   6840   6846     1  0.0000000  0.0000000  3
   6838   6837   6840   6841     1  0.0000000  0.6508444  3
   6838   6837   6840   6842     1  0.0000000  0.6508444  3
   6838   6837   6834   6843     1  0.0000000  0.6508444  3
   6839   6837   6840   6846     1  0.0000000  1.0460000  1
   6839   6837   6840   6846     1  0.0000000  0.0000000  3
   6839   6837   6840   6841     1  0.0000000  0.6508444  3
   6839   6837   6840   6842     1  0.0000000  0.6508444  3
   6839   6837   6834   6843     1  0.0000000  0.6508444  3
   6848   6851   6854   6855     1  0.0000000  0.6508444  3
   6848   6851   6854   6856     1  0.0000000  0.6508444  3
   6849   6848   6851   6854     1  0.0000000  0.6508444  3
   6849   6848   6851   6852     1  0.0000000  0.6508444  3
   6849   6848   6851   6853     1  0.0000000  0.6508444  3
   6849   6848   6857   6858     1  0.0000000  0.6508444  3
   6849   6848   6857   6859     1  0.0000000  0.6508444  3
   6849   6848   6857   6861     1  0.0000000  0.6508444  3
   6850   6848   6851   6854     1  0.0000000  0.6508444  3
   6850   6848   6851   6852     1  0.0000000  0.6508444  3
   6850   6848   6851   6853     1  0.0000000  0.6508444  3
   6850   6848   6857   6858     1  0.0000000  0.6508444  3
   6850   6848   6857   6859     1  0.0000000  0.6508444  3
   6850   6848   6857   6861     1  0.0000000  0.6508444  3
   6851   6848   6857   6858     1  0.0000000  0.6508444  3
   6851   6848   6857   6859     1  0.0000000  0.6508444  3
   6851   6848   6857   6861     1  0.0000000  0.6508444  3
   6852   6851   6848   6857     1  0.0000000  0.6508444  3
   6852   6851   6854   6860     1  0.0000000  1.0460000  1
   6852   6851   6854   6860     1  0.0000000  0.0000000  3
   6852   6851   6854   6855     1  0.0000000  0.6508444  3
   6852   6851   6854   6856     1  0.0000000  0.6508444  3
   6853   6851   6848   6857     1  0.0000000  0.6508444  3
   6853   6851   6854   6860     1  0.0000000  1.0460000  1
   6853   6851   6854   6860     1  0.0000000  0.0000000  3
   6853   6851   6854   6855     1  0.0000000  0.6508444  3
   6853   6851   6854   6856     1  0.0000000  0.6508444  3
   6862   6865   6868   6869     1  0.0000000  0.6508444  3
   6862   6865   6868   6870     1  0.0000000  0.6508444  3
   6863   6862   6865   6868     1  0.0000000  0.6508444  3
   6863   6862   6865   6866     1  0.0000000  0.6508444  3
   6863   6862   6865   6867     1  0.0000000  0.6508444  3
   6863   6862   6871   6872     1  0.0000000  0.6508444  3
   6863   6862   6871   6873     1  0.0000000  0.6508444  3
   6863   6862   6871   6875     1  0.0000000  0.6508444  3
   6864   6862   6865   6868     1  0.0000000  0.6508444  3
   6864   6862   6865   6866     1  0.0000000  0.6508444  3
   6864   6862   6865   6867     1  0.0000000  0.6508444  3
   6864   6862   6871   6872     1  0.0000000  0.6508444  3
   6864   6862   6871   6873     1  0.0000000  0.6508444  3
   6864   6862   6871   6875     1  0.0000000  0.6508444  3
   6865   6862   6871   6872     1  0.0000000  0.6508444  3
   6865   6862   6871   6873     1  0.0000000  0.6508444  3
   6865   6862   6871   6875     1  0.0000000  0.6508444  3
   6866   6865   6868   6874     1  0.0000000  1.0460000  1
   6866   6865   6868   6874     1  0.0000000  0.0000000  3
   6866   6865   6868   6869     1  0.0000000  0.6508444  3
   6866   6865   6868   6870     1  0.0000000  0.6508444  3
   6866   6865   6862   6871     1  0.0000000  0.6508444  3
   6867   6865   6868   6874     1  0.0000000  1.0460000  1
   6867   6865   6868   6874     1  0.0000000  0.0000000  3
   6867   6865   6868   6869     1  0.0000000  0.6508444  3
   6867   6865   6868   6870     1  0.0000000  0.6508444  3
   6867   6865   6862   6871     1  0.0000000  0.6508444  3
   6876   6879   6882   6883     1  0.0000000  0.6508444  3
   6876   6879   6882   6884     1  0.0000000  0.6508444  3
   6877   6876   6879   6882     1  0.0000000  0.6508444  3
   6877   6876   6879   6880     1  0.0000000  0.6508444  3
   6877   6876   6879   6881     1  0.0000000  0.6508444  3
   6877   6876   6885   6886     1  0.0000000  0.6508444  3
   6877   6876   6885   6887     1  0.0000000  0.6508444  3
   6877   6876   6885   6889     1  0.0000000  0.6508444  3
   6878   6876   6879   6882     1  0.0000000  0.6508444  3
   6878   6876   6879   6880     1  0.0000000  0.6508444  3
   6878   6876   6879   6881     1  0.0000000  0.6508444  3
   6878   6876   6885   6886     1  0.0000000  0.6508444  3
   6878   6876   6885   6887     1  0.0000000  0.6508444  3
   6878   6876   6885   6889     1  0.0000000  0.6508444  3
   6879   6876   6885   6886     1  0.0000000  0.6508444  3
   6879   6876   6885   6887     1  0.0000000  0.6508444  3
   6879   6876   6885   6889     1  0.0000000  0.6508444  3
   6880   6879   6876   6885     1  0.0000000  0.6508444  3
   6880   6879   6882   6888     1  0.0000000  1.0460000  1
   6880   6879   6882   6888     1  0.0000000  0.0000000  3
   6880   6879   6882   6883     1  0.0000000  0.6508444  3
   6880   6879   6882   6884     1  0.0000000  0.6508444  3
   6881   6879   6876   6885     1  0.0000000  0.6508444  3
   6881   6879   6882   6888     1  0.0000000  1.0460000  1
   6881   6879   6882   6888     1  0.0000000  0.0000000  3
   6881   6879   6882   6883     1  0.0000000  0.6508444  3
   6881   6879   6882   6884     1  0.0000000  0.6508444  3
   6890   6893   6896   6897     1  0.0000000  0.6508444  3
   6890   6893   6896   6898     1  0.0000000  0.6508444  3
   6891   6890   6893   6896     1  0.0000000  0.6508444  3
   6891   6890   6893   6894     1  0.0000000  0.6508444  3
   6891   6890   6893   6895     1  0.0000000  0.6508444  3
   6891   6890   6899   6900     1  0.0000000  0.6508444  3
   6891   6890   6899   6901     1  0.0000000  0.6508444  3
   6891   6890   6899   6903     1  0.0000000  0.6508444  3
   6892   6890   6893   6896     1  0.0000000  0.6508444  3
   6892   6890   6893   6894     1  0.0000000  0.6508444  3
   6892   6890   6893   6895     1  0.0000000  0.6508444  3
   6892   6890   6899   6900     1  0.0000000  0.6508444  3
   6892   6890   6899   6901     1  0.0000000  0.6508444  3
   6892   6890   6899   6903     1  0.0000000  0.6508444  3
   6893   6890   6899   6900     1  0.0000000  0.6508444  3
   6893   6890   6899   6901     1  0.0000000  0.6508444  3
   6893   6890   6899   6903     1  0.0000000  0.6508444  3
   6894   6893   6896   6902     1  0.0000000  1.0460000  1
   6894   6893   6896   6902     1  0.0000000  0.0000000  3
   6894   6893   6896   6897     1  0.0000000  0.6508444  3
   6894   6893   6896   6898     1  0.0000000  0.6508444  3
   6894   6893   6890   6899     1  0.0000000  0.6508444  3
   6895   6893   6896   6902     1  0.0000000  1.0460000  1
   6895   6893   6896   6902     1  0.0000000  0.0000000  3
   6895   6893   6896   6897     1  0.0000000  0.6508444  3
   6895   6893   6896   6898     1  0.0000000  0.6508444  3
   6895   6893   6890   6899     1  0.0000000  0.6508444  3
   6904   6907   6910   6911     1  0.0000000  0.6508444  3
   6904   6907   6910   6912     1  0.0000000  0.6508444  3
   6905   6904   6907   6910     1  0.0000000  0.6508444  3
   6905   6904   6907   6908     1  0.0000000  0.6508444  3
   6905   6904   6907   6909     1  0.0000000  0.6508444  3
   6905   6904   6913   6914     1  0.0000000  0.6508444  3
   6905   6904   6913   6915     1  0.0000000  0.6508444  3
   6905   6904   6913   6917     1  0.0000000  0.6508444  3
   6906   6904   6907   6910     1  0.0000000  0.6508444  3
   6906   6904   6907   6908     1  0.0000000  0.6508444  3
   6906   6904   6907   6909     1  0.0000000  0.6508444  3
   6906   6904   6913   6914     1  0.0000000  0.6508444  3
   6906   6904   6913   6915     1  0.0000000  0.6508444  3
   6906   6904   6913   6917     1  0.0000000  0.6508444  3
   6907   6904   6913   6914     1  0.0000000  0.6508444  3
   6907   6904   6913   6915     1  0.0000000  0.6508444  3
   6907   6904   6913   6917     1  0.0000000  0.6508444  3
   6908   6907   6904   6913     1  0.0000000  0.6508444  3
   6908   6907   6910   6916     1  0.0000000  1.0460000  1
   6908   6907   6910   6916     1  0.0000000  0.0000000  3
   6908   6907   6910   6911     1  0.0000000  0.6508444  3
   6908   6907   6910   6912     1  0.0000000  0.6508444  3
   6909   6907   6904   6913     1  0.0000000  0.6508444  3
   6909   6907   6910   6916     1  0.0000000  1.0460000  1
   6909   6907   6910   6916     1  0.0000000  0.0000000  3
   6909   6907   6910   6911     1  0.0000000  0.6508444  3
   6909   6907   6910   6912     1  0.0000000  0.6508444  3
   6918   6921   6924   6925     1  0.0000000  0.6508444  3
   6918   6921   6924   6926     1  0.0000000  0.6508444  3
   6919   6918   6921   6924     1  0.0000000  0.6508444  3
   6919   6918   6921   6922     1  0.0000000  0.6508444  3
   6919   6918   6921   6923     1  0.0000000  0.6508444  3
   6919   6918   6927   6928     1  0.0000000  0.6508444  3
   6919   6918   6927   6929     1  0.0000000  0.6508444  3
   6919   6918   6927   6931     1  0.0000000  0.6508444  3
   6920   6918   6921   6924     1  0.0000000  0.6508444  3
   6920   6918   6921   6922     1  0.0000000  0.6508444  3
   6920   6918   6921   6923     1  0.0000000  0.6508444  3
   6920   6918   6927   6928     1  0.0000000  0.6508444  3
   6920   6918   6927   6929     1  0.0000000  0.6508444  3
   6920   6918   6927   6931     1  0.0000000  0.6508444  3
   6921   6918   6927   6928     1  0.0000000  0.6508444  3
   6921   6918   6927   6929     1  0.0000000  0.6508444  3
   6921   6918   6927   6931     1  0.0000000  0.6508444  3
   6922   6921   6924   6930     1  0.0000000  1.0460000  1
   6922   6921   6924   6930     1  0.0000000  0.0000000  3
   6922   6921   6924   6925     1  0.0000000  0.6508444  3
   6922   6921   6924   6926     1  0.0000000  0.6508444  3
   6922   6921   6918   6927     1  0.0000000  0.6508444  3
   6923   6921   6924   6930     1  0.0000000  1.0460000  1
   6923   6921   6924   6930     1  0.0000000  0.0000000  3
   6923   6921   6924   6925     1  0.0000000  0.6508444  3
   6923   6921   6924   6926     1  0.0000000  0.6508444  3
   6923   6921   6918   6927     1  0.0000000  0.6508444  3
   6932   6935   6938   6939     1  0.0000000  0.6508444  3
   6932   6935   6938   6940     1  0.0000000  0.6508444  3
   6933   6932   6935   6938     1  0.0000000  0.6508444  3
   6933   6932   6935   6936     1  0.0000000  0.6508444  3
   6933   6932   6935   6937     1  0.0000000  0.6508444  3
   6933   6932   6941   6942     1  0.0000000  0.6508444  3
   6933   6932   6941   6943     1  0.0000000  0.6508444  3
   6933   6932   6941   6945     1  0.0000000  0.6508444  3
   6934   6932   6935   6938     1  0.0000000  0.6508444  3
   6934   6932   6935   6936     1  0.0000000  0.6508444  3
   6934   6932   6935   6937     1  0.0000000  0.6508444  3
   6934   6932   6941   6942     1  0.0000000  0.6508444  3
   6934   6932   6941   6943     1  0.0000000  0.6508444  3
   6934   6932   6941   6945     1  0.0000000  0.6508444  3
   6935   6932   6941   6942     1  0.0000000  0.6508444  3
   6935   6932   6941   6943     1  0.0000000  0.6508444  3
   6935   6932   6941   6945     1  0.0000000  0.6508444  3
   6936   6935   6932   6941     1  0.0000000  0.6508444  3
   6936   6935   6938   6944     1  0.0000000  1.0460000  1
   6936   6935   6938   6944     1  0.0000000  0.0000000  3
   6936   6935   6938   6939     1  0.0000000  0.6508444  3
   6936   6935   6938   6940     1  0.0000000  0.6508444  3
   6937   6935   6932   6941     1  0.0000000  0.6508444  3
   6937   6935   6938   6944     1  0.0000000  1.0460000  1
   6937   6935   6938   6944     1  0.0000000  0.0000000  3
   6937   6935   6938   6939     1  0.0000000  0.6508444  3
   6937   6935   6938   6940     1  0.0000000  0.6508444  3
   6946   6949   6952   6953     1  0.0000000  0.6508444  3
   6946   6949   6952   6954     1  0.0000000  0.6508444  3
   6947   6946   6949   6952     1  0.0000000  0.6508444  3
   6947   6946   6949   6950     1  0.0000000  0.6508444  3
   6947   6946   6949   6951     1  0.0000000  0.6508444  3
   6947   6946   6955   6956     1  0.0000000  0.6508444  3
   6947   6946   6955   6957     1  0.0000000  0.6508444  3
   6947   6946   6955   6959     1  0.0000000  0.6508444  3
   6948   6946   6949   6952     1  0.0000000  0.6508444  3
   6948   6946   6949   6950     1  0.0000000  0.6508444  3
   6948   6946   6949   6951     1  0.0000000  0.6508444  3
   6948   6946   6955   6956     1  0.0000000  0.6508444  3
   6948   6946   6955   6957     1  0.0000000  0.6508444  3
   6948   6946   6955   6959     1  0.0000000  0.6508444  3
   6949   6946   6955   6956     1  0.0000000  0.6508444  3
   6949   6946   6955   6957     1  0.0000000  0.6508444  3
   6949   6946   6955   6959     1  0.0000000  0.6508444  3
   6950   6949   6952   6958     1  0.0000000  1.0460000  1
   6950   6949   6952   6958     1  0.0000000  0.0000000  3
   6950   6949   6952   6953     1  0.0000000  0.6508444  3
   6950   6949   6952   6954     1  0.0000000  0.6508444  3
   6950   6949   6946   6955     1  0.0000000  0.6508444  3
   6951   6949   6952   6958     1  0.0000000  1.0460000  1
   6951   6949   6952   6958     1  0.0000000  0.0000000  3
   6951   6949   6952   6953     1  0.0000000  0.6508444  3
   6951   6949   6952   6954     1  0.0000000  0.6508444  3
   6951   6949   6946   6955     1  0.0000000  0.6508444  3
   6960   6963   6966   6967     1  0.0000000  0.6508444  3
   6960   6963   6966   6968     1  0.0000000  0.6508444  3
   6961   6960   6963   6966     1  0.0000000  0.6508444  3
   6961   6960   6963   6964     1  0.0000000  0.6508444  3
   6961   6960   6963   6965     1  0.0000000  0.6508444  3
   6961   6960   6969   6970     1  0.0000000  0.6508444  3
   6961   6960   6969   6971     1  0.0000000  0.6508444  3
   6961   6960   6969   6973     1  0.0000000  0.6508444  3
   6962   6960   6963   6966     1  0.0000000  0.6508444  3
   6962   6960   6963   6964     1  0.0000000  0.6508444  3
   6962   6960   6963   6965     1  0.0000000  0.6508444  3
   6962   6960   6969   6970     1  0.0000000  0.6508444  3
   6962   6960   6969   6971     1  0.0000000  0.6508444  3
   6962   6960   6969   6973     1  0.0000000  0.6508444  3
   6963   6960   6969   6970     1  0.0000000  0.6508444  3
   6963   6960   6969   6971     1  0.0000000  0.6508444  3
   6963   6960   6969   6973     1  0.0000000  0.6508444  3
   6964   6963   6960   6969     1  0.0000000  0.6508444  3
   6964   6963   6966   6972     1  0.0000000  1.0460000  1
   6964   6963   6966   6972     1  0.0000000  0.0000000  3
   6964   6963   6966   6967     1  0.0000000  0.6508444  3
   6964   6963   6966   6968     1  0.0000000  0.6508444  3
   6965   6963   6960   6969     1  0.0000000  0.6508444  3
   6965   6963   6966   6972     1  0.0000000  1.0460000  1
   6965   6963   6966   6972     1  0.0000000  0.0000000  3
   6965   6963   6966   6967     1  0.0000000  0.6508444  3
   6965   6963   6966   6968     1  0.0000000  0.6508444  3
   6974   6977   6980   6981     1  0.0000000  0.6508444  3
   6974   6977   6980   6982     1  0.0000000  0.6508444  3
   6975   6974   6977   6980     1  0.0000000  0.6508444  3
   6975   6974   6977   6978     1  0.0000000  0.6508444  3
   6975   6974   6977   6979     1  0.0000000  0.6508444  3
   6975   6974   6983   6984     1  0.0000000  0.6508444  3
   6975   6974   6983   6985     1  0.0000000  0.6508444  3
   6975   6974   6983   6987     1  0.0000000  0.6508444  3
   6976   6974   6977   6980     1  0.0000000  0.6508444  3
   6976   6974   6977   6978     1  0.0000000  0.6508444  3
   6976   6974   6977   6979     1  0.0000000  0.6508444  3
   6976   6974   6983   6984     1  0.0000000  0.6508444  3
   6976   6974   6983   6985     1  0.0000000  0.6508444  3
   6976   6974   6983   6987     1  0.0000000  0.6508444  3
   6977   6974   6983   6984     1  0.0000000  0.6508444  3
   6977   6974   6983   6985     1  0.0000000  0.6508444  3
   6977   6974   6983   6987     1  0.0000000  0.6508444  3
   6978   6977   6980   6986     1  0.0000000  1.0460000  1
   6978   6977   6980   6986     1  0.0000000  0.0000000  3
   6978   6977   6980   6981     1  0.0000000  0.6508444  3
   6978   6977   6980   6982     1  0.0000000  0.6508444  3
   6978   6977   6974   6983     1  0.0000000  0.6508444  3
   6979   6977   6980   6986     1  0.0000000  1.0460000  1
   6979   6977   6980   6986     1  0.0000000  0.0000000  3
   6979   6977   6980   6981     1  0.0000000  0.6508444  3
   6979   6977   6980   6982     1  0.0000000  0.6508444  3
   6979   6977   6974   6983     1  0.0000000  0.6508444  3
   6988   6991   6994   6995     1  0.0000000  0.6508444  3
   6988   6991   6994   6996     1  0.0000000  0.6508444  3
   6989   6988   6991   6994     1  0.0000000  0.6508444  3
   6989   6988   6991   6992     1  0.0000000  0.6508444  3
   6989   6988   6991   6993     1  0.0000000  0.6508444  3
   6989   6988   6997   6998     1  0.0000000  0.6508444  3
   6989   6988   6997   6999     1  0.0000000  0.6508444  3
   6989   6988   6997   7001     1  0.0000000  0.6508444  3
   6990   6988   6991   6994     1  0.0000000  0.6508444  3
   6990   6988   6991   6992     1  0.0000000  0.6508444  3
   6990   6988   6991   6993     1  0.0000000  0.6508444  3
   6990   6988   6997   6998     1  0.0000000  0.6508444  3
   6990   6988   6997   6999     1  0.0000000  0.6508444  3
   6990   6988   6997   7001     1  0.0000000  0.6508444  3
   6991   6988   6997   6998     1  0.0000000  0.6508444  3
   6991   6988   6997   6999     1  0.0000000  0.6508444  3
   6991   6988   6997   7001     1  0.0000000  0.6508444  3
   6992   6991   6988   6997     1  0.0000000  0.6508444  3
   6992   6991   6994   7000     1  0.0000000  1.0460000  1
   6992   6991   6994   7000     1  0.0000000  0.0000000  3
   6992   6991   6994   6995     1  0.0000000  0.6508444  3
   6992   6991   6994   6996     1  0.0000000  0.6508444  3
   6993   6991   6988   6997     1  0.0000000  0.6508444  3
   6993   6991   6994   7000     1  0.0000000  1.0460000  1
   6993   6991   6994   7000     1  0.0000000  0.0000000  3
   6993   6991   6994   6995     1  0.0000000  0.6508444  3
   6993   6991   6994   6996     1  0.0000000  0.6508444  3
   7002   7005   7008   7009     1  0.0000000  0.6508444  3
   7002   7005   7008   7010     1  0.0000000  0.6508444  3
   7003   7002   7005   7008     1  0.0000000  0.6508444  3
   7003   7002   7005   7006     1  0.0000000  0.6508444  3
   7003   7002   7005   7007     1  0.0000000  0.6508444  3
   7003   7002   7011   7012     1  0.0000000  0.6508444  3
   7003   7002   7011   7013     1  0.0000000  0.6508444  3
   7003   7002   7011   7015     1  0.0000000  0.6508444  3
   7004   7002   7005   7008     1  0.0000000  0.6508444  3
   7004   7002   7005   7006     1  0.0000000  0.6508444  3
   7004   7002   7005   7007     1  0.0000000  0.6508444  3
   7004   7002   7011   7012     1  0.0000000  0.6508444  3
   7004   7002   7011   7013     1  0.0000000  0.6508444  3
   7004   7002   7011   7015     1  0.0000000  0.6508444  3
   7005   7002   7011   7012     1  0.0000000  0.6508444  3
   7005   7002   7011   7013     1  0.0000000  0.6508444  3
   7005   7002   7011   7015     1  0.0000000  0.6508444  3
   7006   7005   7008   7014     1  0.0000000  1.0460000  1
   7006   7005   7008   7014     1  0.0000000  0.0000000  3
   7006   7005   7008   7009     1  0.0000000  0.6508444  3
   7006   7005   7008   7010     1  0.0000000  0.6508444  3
   7006   7005   7002   7011     1  0.0000000  0.6508444  3
   7007   7005   7008   7014     1  0.0000000  1.0460000  1
   7007   7005   7008   7014     1  0.0000000  0.0000000  3
   7007   7005   7008   7009     1  0.0000000  0.6508444  3
   7007   7005   7008   7010     1  0.0000000  0.6508444  3
   7007   7005   7002   7011     1  0.0000000  0.6508444  3
   7016   7019   7022   7023     1  0.0000000  0.6508444  3
   7016   7019   7022   7024     1  0.0000000  0.6508444  3
   7017   7016   7019   7022     1  0.0000000  0.6508444  3
   7017   7016   7019   7020     1  0.0000000  0.6508444  3
   7017   7016   7019   7021     1  0.0000000  0.6508444  3
   7017   7016   7025   7026     1  0.0000000  0.6508444  3
   7017   7016   7025   7027     1  0.0000000  0.6508444  3
   7017   7016   7025   7029     1  0.0000000  0.6508444  3
   7018   7016   7019   7022     1  0.0000000  0.6508444  3
   7018   7016   7019   7020     1  0.0000000  0.6508444  3
   7018   7016   7019   7021     1  0.0000000  0.6508444  3
   7018   7016   7025   7026     1  0.0000000  0.6508444  3
   7018   7016   7025   7027     1  0.0000000  0.6508444  3
   7018   7016   7025   7029     1  0.0000000  0.6508444  3
   7019   7016   7025   7026     1  0.0000000  0.6508444  3
   7019   7016   7025   7027     1  0.0000000  0.6508444  3
   7019   7016   7025   7029     1  0.0000000  0.6508444  3
   7020   7019   7016   7025     1  0.0000000  0.6508444  3
   7020   7019   7022   7028     1  0.0000000  1.0460000  1
   7020   7019   7022   7028     1  0.0000000  0.0000000  3
   7020   7019   7022   7023     1  0.0000000  0.6508444  3
   7020   7019   7022   7024     1  0.0000000  0.6508444  3
   7021   7019   7016   7025     1  0.0000000  0.6508444  3
   7021   7019   7022   7028     1  0.0000000  1.0460000  1
   7021   7019   7022   7028     1  0.0000000  0.0000000  3
   7021   7019   7022   7023     1  0.0000000  0.6508444  3
   7021   7019   7022   7024     1  0.0000000  0.6508444  3
   7030   7033   7036   7037     1  0.0000000  0.6508444  3
   7030   7033   7036   7038     1  0.0000000  0.6508444  3
   7031   7030   7033   7036     1  0.0000000  0.6508444  3
   7031   7030   7033   7034     1  0.0000000  0.6508444  3
   7031   7030   7033   7035     1  0.0000000  0.6508444  3
   7031   7030   7039   7040     1  0.0000000  0.6508444  3
   7031   7030   7039   7041     1  0.0000000  0.6508444  3
   7031   7030   7039   7043     1  0.0000000  0.6508444  3
   7032   7030   7033   7036     1  0.0000000  0.6508444  3
   7032   7030   7033   7034     1  0.0000000  0.6508444  3
   7032   7030   7033   7035     1  0.0000000  0.6508444  3
   7032   7030   7039   7040     1  0.0000000  0.6508444  3
   7032   7030   7039   7041     1  0.0000000  0.6508444  3
   7032   7030   7039   7043     1  0.0000000  0.6508444  3
   7033   7030   7039   7040     1  0.0000000  0.6508444  3
   7033   7030   7039   7041     1  0.0000000  0.6508444  3
   7033   7030   7039   7043     1  0.0000000  0.6508444  3
   7034   7033   7036   7042     1  0.0000000  1.0460000  1
   7034   7033   7036   7042     1  0.0000000  0.0000000  3
   7034   7033   7036   7037     1  0.0000000  0.6508444  3
   7034   7033   7036   7038     1  0.0000000  0.6508444  3
   7034   7033   7030   7039     1  0.0000000  0.6508444  3
   7035   7033   7036   7042     1  0.0000000  1.0460000  1
   7035   7033   7036   7042     1  0.0000000  0.0000000  3
   7035   7033   7036   7037     1  0.0000000  0.6508444  3
   7035   7033   7036   7038     1  0.0000000  0.6508444  3
   7035   7033   7030   7039     1  0.0000000  0.6508444  3
   7044   7047   7050   7051     1  0.0000000  0.6508444  3
   7044   7047   7050   7052     1  0.0000000  0.6508444  3
   7045   7044   7047   7050     1  0.0000000  0.6508444  3
   7045   7044   7047   7048     1  0.0000000  0.6508444  3
   7045   7044   7047   7049     1  0.0000000  0.6508444  3
   7045   7044   7053   7054     1  0.0000000  0.6508444  3
   7045   7044   7053   7055     1  0.0000000  0.6508444  3
   7045   7044   7053   7057     1  0.0000000  0.6508444  3
   7046   7044   7047   7050     1  0.0000000  0.6508444  3
   7046   7044   7047   7048     1  0.0000000  0.6508444  3
   7046   7044   7047   7049     1  0.0000000  0.6508444  3
   7046   7044   7053   7054     1  0.0000000  0.6508444  3
   7046   7044   7053   7055     1  0.0000000  0.6508444  3
   7046   7044   7053   7057     1  0.0000000  0.6508444  3
   7047   7044   7053   7054     1  0.0000000  0.6508444  3
   7047   7044   7053   7055     1  0.0000000  0.6508444  3
   7047   7044   7053   7057     1  0.0000000  0.6508444  3
   7048   7047   7044   7053     1  0.0000000  0.6508444  3
   7048   7047   7050   7056     1  0.0000000  1.0460000  1
   7048   7047   7050   7056     1  0.0000000  0.0000000  3
   7048   7047   7050   7051     1  0.0000000  0.6508444  3
   7048   7047   7050   7052     1  0.0000000  0.6508444  3
   7049   7047   7044   7053     1  0.0000000  0.6508444  3
   7049   7047   7050   7056     1  0.0000000  1.0460000  1
   7049   7047   7050   7056     1  0.0000000  0.0000000  3
   7049   7047   7050   7051     1  0.0000000  0.6508444  3
   7049   7047   7050   7052     1  0.0000000  0.6508444  3
   7058   7061   7064   7065     1  0.0000000  0.6508444  3
   7058   7061   7064   7066     1  0.0000000  0.6508444  3
   7059   7058   7061   7064     1  0.0000000  0.6508444  3
   7059   7058   7061   7062     1  0.0000000  0.6508444  3
   7059   7058   7061   7063     1  0.0000000  0.6508444  3
   7059   7058   7067   7068     1  0.0000000  0.6508444  3
   7059   7058   7067   7069     1  0.0000000  0.6508444  3
   7059   7058   7067   7071     1  0.0000000  0.6508444  3
   7060   7058   7061   7064     1  0.0000000  0.6508444  3
   7060   7058   7061   7062     1  0.0000000  0.6508444  3
   7060   7058   7061   7063     1  0.0000000  0.6508444  3
   7060   7058   7067   7068     1  0.0000000  0.6508444  3
   7060   7058   7067   7069     1  0.0000000  0.6508444  3
   7060   7058   7067   7071     1  0.0000000  0.6508444  3
   7061   7058   7067   7068     1  0.0000000  0.6508444  3
   7061   7058   7067   7069     1  0.0000000  0.6508444  3
   7061   7058   7067   7071     1  0.0000000  0.6508444  3
   7062   7061   7064   7070     1  0.0000000  1.0460000  1
   7062   7061   7064   7070     1  0.0000000  0.0000000  3
   7062   7061   7064   7065     1  0.0000000  0.6508444  3
   7062   7061   7064   7066     1  0.0000000  0.6508444  3
   7062   7061   7058   7067     1  0.0000000  0.6508444  3
   7063   7061   7064   7070     1  0.0000000  1.0460000  1
   7063   7061   7064   7070     1  0.0000000  0.0000000  3
   7063   7061   7064   7065     1  0.0000000  0.6508444  3
   7063   7061   7064   7066     1  0.0000000  0.6508444  3
   7063   7061   7058   7067     1  0.0000000  0.6508444  3
   7072   7075   7078   7079     1  0.0000000  0.6508444  3
   7072   7075   7078   7080     1  0.0000000  0.6508444  3
   7073   7072   7075   7078     1  0.0000000  0.6508444  3
   7073   7072   7075   7076     1  0.0000000  0.6508444  3
   7073   7072   7075   7077     1  0.0000000  0.6508444  3
   7073   7072   7081   7082     1  0.0000000  0.6508444  3
   7073   7072   7081   7083     1  0.0000000  0.6508444  3
   7073   7072   7081   7085     1  0.0000000  0.6508444  3
   7074   7072   7075   7078     1  0.0000000  0.6508444  3
   7074   7072   7075   7076     1  0.0000000  0.6508444  3
   7074   7072   7075   7077     1  0.0000000  0.6508444  3
   7074   7072   7081   7082     1  0.0000000  0.6508444  3
   7074   7072   7081   7083     1  0.0000000  0.6508444  3
   7074   7072   7081   7085     1  0.0000000  0.6508444  3
   7075   7072   7081   7082     1  0.0000000  0.6508444  3
   7075   7072   7081   7083     1  0.0000000  0.6508444  3
   7075   7072   7081   7085     1  0.0000000  0.6508444  3
   7076   7075   7072   7081     1  0.0000000  0.6508444  3
   7076   7075   7078   7084     1  0.0000000  1.0460000  1
   7076   7075   7078   7084     1  0.0000000  0.0000000  3
   7076   7075   7078   7079     1  0.0000000  0.6508444  3
   7076   7075   7078   7080     1  0.0000000  0.6508444  3
   7077   7075   7072   7081     1  0.0000000  0.6508444  3
   7077   7075   7078   7084     1  0.0000000  1.0460000  1
   7077   7075   7078   7084     1  0.0000000  0.0000000  3
   7077   7075   7078   7079     1  0.0000000  0.6508444  3
   7077   7075   7078   7080     1  0.0000000  0.6508444  3
   7086   7089   7092   7093     1  0.0000000  0.6508444  3
   7086   7089   7092   7094     1  0.0000000  0.6508444  3
   7087   7086   7089   7092     1  0.0000000  0.6508444  3
   7087   7086   7089   7090     1  0.0000000  0.6508444  3
   7087   7086   7089   7091     1  0.0000000  0.6508444  3
   7087   7086   7095   7096     1  0.0000000  0.6508444  3
   7087   7086   7095   7097     1  0.0000000  0.6508444  3
   7087   7086   7095   7099     1  0.0000000  0.6508444  3
   7088   7086   7089   7092     1  0.0000000  0.6508444  3
   7088   7086   7089   7090     1  0.0000000  0.6508444  3
   7088   7086   7089   7091     1  0.0000000  0.6508444  3
   7088   7086   7095   7096     1  0.0000000  0.6508444  3
   7088   7086   7095   7097     1  0.0000000  0.6508444  3
   7088   7086   7095   7099     1  0.0000000  0.6508444  3
   7089   7086   7095   7096     1  0.0000000  0.6508444  3
   7089   7086   7095   7097     1  0.0000000  0.6508444  3
   7089   7086   7095   7099     1  0.0000000  0.6508444  3
   7090   7089   7092   7098     1  0.0000000  1.0460000  1
   7090   7089   7092   7098     1  0.0000000  0.0000000  3
   7090   7089   7092   7093     1  0.0000000  0.6508444  3
   7090   7089   7092   7094     1  0.0000000  0.6508444  3
   7090   7089   7086   7095     1  0.0000000  0.6508444  3
   7091   7089   7092   7098     1  0.0000000  1.0460000  1
   7091   7089   7092   7098     1  0.0000000  0.0000000  3
   7091   7089   7092   7093     1  0.0000000  0.6508444  3
   7091   7089   7092   7094     1  0.0000000  0.6508444  3
   7091   7089   7086   7095     1  0.0000000  0.6508444  3
   7100   7103   7106   7107     1  0.0000000  0.6508444  3
   7100   7103   7106   7108     1  0.0000000  0.6508444  3
   7101   7100   7103   7106     1  0.0000000  0.6508444  3
   7101   7100   7103   7104     1  0.0000000  0.6508444  3
   7101   7100   7103   7105     1  0.0000000  0.6508444  3
   7101   7100   7109   7110     1  0.0000000  0.6508444  3
   7101   7100   7109   7111     1  0.0000000  0.6508444  3
   7101   7100   7109   7113     1  0.0000000  0.6508444  3
   7102   7100   7103   7106     1  0.0000000  0.6508444  3
   7102   7100   7103   7104     1  0.0000000  0.6508444  3
   7102   7100   7103   7105     1  0.0000000  0.6508444  3
   7102   7100   7109   7110     1  0.0000000  0.6508444  3
   7102   7100   7109   7111     1  0.0000000  0.6508444  3
   7102   7100   7109   7113     1  0.0000000  0.6508444  3
   7103   7100   7109   7110     1  0.0000000  0.6508444  3
   7103   7100   7109   7111     1  0.0000000  0.6508444  3
   7103   7100   7109   7113     1  0.0000000  0.6508444  3
   7104   7103   7100   7109     1  0.0000000  0.6508444  3
   7104   7103   7106   7112     1  0.0000000  1.0460000  1
   7104   7103   7106   7112     1  0.0000000  0.0000000  3
   7104   7103   7106   7107     1  0.0000000  0.6508444  3
   7104   7103   7106   7108     1  0.0000000  0.6508444  3
   7105   7103   7100   7109     1  0.0000000  0.6508444  3
   7105   7103   7106   7112     1  0.0000000  1.0460000  1
   7105   7103   7106   7112     1  0.0000000  0.0000000  3
   7105   7103   7106   7107     1  0.0000000  0.6508444  3
   7105   7103   7106   7108     1  0.0000000  0.6508444  3
   7114   7117   7120   7121     1  0.0000000  0.6508444  3
   7114   7117   7120   7122     1  0.0000000  0.6508444  3
   7115   7114   7117   7120     1  0.0000000  0.6508444  3
   7115   7114   7117   7118     1  0.0000000  0.6508444  3
   7115   7114   7117   7119     1  0.0000000  0.6508444  3
   7115   7114   7123   7124     1  0.0000000  0.6508444  3
   7115   7114   7123   7125     1  0.0000000  0.6508444  3
   7115   7114   7123   7127     1  0.0000000  0.6508444  3
   7116   7114   7117   7120     1  0.0000000  0.6508444  3
   7116   7114   7117   7118     1  0.0000000  0.6508444  3
   7116   7114   7117   7119     1  0.0000000  0.6508444  3
   7116   7114   7123   7124     1  0.0000000  0.6508444  3
   7116   7114   7123   7125     1  0.0000000  0.6508444  3
   7116   7114   7123   7127     1  0.0000000  0.6508444  3
   7117   7114   7123   7124     1  0.0000000  0.6508444  3
   7117   7114   7123   7125     1  0.0000000  0.6508444  3
   7117   7114   7123   7127     1  0.0000000  0.6508444  3
   7118   7117   7120   7126     1  0.0000000  1.0460000  1
   7118   7117   7120   7126     1  0.0000000  0.0000000  3
   7118   7117   7120   7121     1  0.0000000  0.6508444  3
   7118   7117   7120   7122     1  0.0000000  0.6508444  3
   7118   7117   7114   7123     1  0.0000000  0.6508444  3
   7119   7117   7120   7126     1  0.0000000  1.0460000  1
   7119   7117   7120   7126     1  0.0000000  0.0000000  3
   7119   7117   7120   7121     1  0.0000000  0.6508444  3
   7119   7117   7120   7122     1  0.0000000  0.6508444  3
   7119   7117   7114   7123     1  0.0000000  0.6508444  3
   7128   7131   7134   7135     1  0.0000000  0.6508444  3
   7128   7131   7134   7136     1  0.0000000  0.6508444  3
   7129   7128   7131   7134     1  0.0000000  0.6508444  3
   7129   7128   7131   7132     1  0.0000000  0.6508444  3
   7129   7128   7131   7133     1  0.0000000  0.6508444  3
   7129   7128   7137   7138     1  0.0000000  0.6508444  3
   7129   7128   7137   7139     1  0.0000000  0.6508444  3
   7129   7128   7137   7141     1  0.0000000  0.6508444  3
   7130   7128   7131   7134     1  0.0000000  0.6508444  3
   7130   7128   7131   7132     1  0.0000000  0.6508444  3
   7130   7128   7131   7133     1  0.0000000  0.6508444  3
   7130   7128   7137   7138     1  0.0000000  0.6508444  3
   7130   7128   7137   7139     1  0.0000000  0.6508444  3
   7130   7128   7137   7141     1  0.0000000  0.6508444  3
   7131   7128   7137   7138     1  0.0000000  0.6508444  3
   7131   7128   7137   7139     1  0.0000000  0.6508444  3
   7131   7128   7137   7141     1  0.0000000  0.6508444  3
   7132   7131   7128   7137     1  0.0000000  0.6508444  3
   7132   7131   7134   7140     1  0.0000000  1.0460000  1
   7132   7131   7134   7140     1  0.0000000  0.0000000  3
   7132   7131   7134   7135     1  0.0000000  0.6508444  3
   7132   7131   7134   7136     1  0.0000000  0.6508444  3
   7133   7131   7128   7137     1  0.0000000  0.6508444  3
   7133   7131   7134   7140     1  0.0000000  1.0460000  1
   7133   7131   7134   7140     1  0.0000000  0.0000000  3
   7133   7131   7134   7135     1  0.0000000  0.6508444  3
   7133   7131   7134   7136     1  0.0000000  0.6508444  3
   7142   7145   7148   7149     1  0.0000000  0.6508444  3
   7142   7145   7148   7150     1  0.0000000  0.6508444  3
   7143   7142   7145   7148     1  0.0000000  0.6508444  3
   7143   7142   7145   7146     1  0.0000000  0.6508444  3
   7143   7142   7145   7147     1  0.0000000  0.6508444  3
   7143   7142   7151   7152     1  0.0000000  0.6508444  3
   7143   7142   7151   7153     1  0.0000000  0.6508444  3
   7143   7142   7151   7155     1  0.0000000  0.6508444  3
   7144   7142   7145   7148     1  0.0000000  0.6508444  3
   7144   7142   7145   7146     1  0.0000000  0.6508444  3
   7144   7142   7145   7147     1  0.0000000  0.6508444  3
   7144   7142   7151   7152     1  0.0000000  0.6508444  3
   7144   7142   7151   7153     1  0.0000000  0.6508444  3
   7144   7142   7151   7155     1  0.0000000  0.6508444  3
   7145   7142   7151   7152     1  0.0000000  0.6508444  3
   7145   7142   7151   7153     1  0.0000000  0.6508444  3
   7145   7142   7151   7155     1  0.0000000  0.6508444  3
   7146   7145   7148   7154     1  0.0000000  1.0460000  1
   7146   7145   7148   7154     1  0.0000000  0.0000000  3
   7146   7145   7148   7149     1  0.0000000  0.6508444  3
   7146   7145   7148   7150     1  0.0000000  0.6508444  3
   7146   7145   7142   7151     1  0.0000000  0.6508444  3
   7147   7145   7148   7154     1  0.0000000  1.0460000  1
   7147   7145   7148   7154     1  0.0000000  0.0000000  3
   7147   7145   7148   7149     1  0.0000000  0.6508444  3
   7147   7145   7148   7150     1  0.0000000  0.6508444  3
   7147   7145   7142   7151     1  0.0000000  0.6508444  3
   7156   7159   7162   7163     1  0.0000000  0.6508444  3
   7156   7159   7162   7164     1  0.0000000  0.6508444  3
   7157   7156   7159   7162     1  0.0000000  0.6508444  3
   7157   7156   7159   7160     1  0.0000000  0.6508444  3
   7157   7156   7159   7161     1  0.0000000  0.6508444  3
   7157   7156   7165   7166     1  0.0000000  0.6508444  3
   7157   7156   7165   7167     1  0.0000000  0.6508444  3
   7157   7156   7165   7169     1  0.0000000  0.6508444  3
   7158   7156   7159   7162     1  0.0000000  0.6508444  3
   7158   7156   7159   7160     1  0.0000000  0.6508444  3
   7158   7156   7159   7161     1  0.0000000  0.6508444  3
   7158   7156   7165   7166     1  0.0000000  0.6508444  3
   7158   7156   7165   7167     1  0.0000000  0.6508444  3
   7158   7156   7165   7169     1  0.0000000  0.6508444  3
   7159   7156   7165   7166     1  0.0000000  0.6508444  3
   7159   7156   7165   7167     1  0.0000000  0.6508444  3
   7159   7156   7165   7169     1  0.0000000  0.6508444  3
   7160   7159   7156   7165     1  0.0000000  0.6508444  3
   7160   7159   7162   7168     1  0.0000000  1.0460000  1
   7160   7159   7162   7168     1  0.0000000  0.0000000  3
   7160   7159   7162   7163     1  0.0000000  0.6508444  3
   7160   7159   7162   7164     1  0.0000000  0.6508444  3
   7161   7159   7156   7165     1  0.0000000  0.6508444  3
   7161   7159   7162   7168     1  0.0000000  1.0460000  1
   7161   7159   7162   7168     1  0.0000000  0.0000000  3
   7161   7159   7162   7163     1  0.0000000  0.6508444  3
   7161   7159   7162   7164     1  0.0000000  0.6508444  3
   7170   7173   7176   7177     1  0.0000000  0.6508444  3
   7170   7173   7176   7178     1  0.0000000  0.6508444  3
   7171   7170   7173   7176     1  0.0000000  0.6508444  3
   7171   7170   7173   7174     1  0.0000000  0.6508444  3
   7171   7170   7173   7175     1  0.0000000  0.6508444  3
   7171   7170   7179   7180     1  0.0000000  0.6508444  3
   7171   7170   7179   7181     1  0.0000000  0.6508444  3
   7171   7170   7179   7183     1  0.0000000  0.6508444  3
   7172   7170   7173   7176     1  0.0000000  0.6508444  3
   7172   7170   7173   7174     1  0.0000000  0.6508444  3
   7172   7170   7173   7175     1  0.0000000  0.6508444  3
   7172   7170   7179   7180     1  0.0000000  0.6508444  3
   7172   7170   7179   7181     1  0.0000000  0.6508444  3
   7172   7170   7179   7183     1  0.0000000  0.6508444  3
   7173   7170   7179   7180     1  0.0000000  0.6508444  3
   7173   7170   7179   7181     1  0.0000000  0.6508444  3
   7173   7170   7179   7183     1  0.0000000  0.6508444  3
   7174   7173   7176   7182     1  0.0000000  1.0460000  1
   7174   7173   7176   7182     1  0.0000000  0.0000000  3
   7174   7173   7176   7177     1  0.0000000  0.6508444  3
   7174   7173   7176   7178     1  0.0000000  0.6508444  3
   7174   7173   7170   7179     1  0.0000000  0.6508444  3
   7175   7173   7176   7182     1  0.0000000  1.0460000  1
   7175   7173   7176   7182     1  0.0000000  0.0000000  3
   7175   7173   7176   7177     1  0.0000000  0.6508444  3
   7175   7173   7176   7178     1  0.0000000  0.6508444  3
   7175   7173   7170   7179     1  0.0000000  0.6508444  3
   7184   7187   7190   7191     1  0.0000000  0.6508444  3
   7184   7187   7190   7192     1  0.0000000  0.6508444  3
   7185   7184   7187   7190     1  0.0000000  0.6508444  3
   7185   7184   7187   7188     1  0.0000000  0.6508444  3
   7185   7184   7187   7189     1  0.0000000  0.6508444  3
   7185   7184   7193   7194     1  0.0000000  0.6508444  3
   7185   7184   7193   7195     1  0.0000000  0.6508444  3
   7185   7184   7193   7197     1  0.0000000  0.6508444  3
   7186   7184   7187   7190     1  0.0000000  0.6508444  3
   7186   7184   7187   7188     1  0.0000000  0.6508444  3
   7186   7184   7187   7189     1  0.0000000  0.6508444  3
   7186   7184   7193   7194     1  0.0000000  0.6508444  3
   7186   7184   7193   7195     1  0.0000000  0.6508444  3
   7186   7184   7193   7197     1  0.0000000  0.6508444  3
   7187   7184   7193   7194     1  0.0000000  0.6508444  3
   7187   7184   7193   7195     1  0.0000000  0.6508444  3
   7187   7184   7193   7197     1  0.0000000  0.6508444  3
   7188   7187   7184   7193     1  0.0000000  0.6508444  3
   7188   7187   7190   7196     1  0.0000000  1.0460000  1
   7188   7187   7190   7196     1  0.0000000  0.0000000  3
   7188   7187   7190   7191     1  0.0000000  0.6508444  3
   7188   7187   7190   7192     1  0.0000000  0.6508444  3
   7189   7187   7184   7193     1  0.0000000  0.6508444  3
   7189   7187   7190   7196     1  0.0000000  1.0460000  1
   7189   7187   7190   7196     1  0.0000000  0.0000000  3
   7189   7187   7190   7191     1  0.0000000  0.6508444  3
   7189   7187   7190   7192     1  0.0000000  0.6508444  3
   7198   7201   7204   7205     1  0.0000000  0.6508444  3
   7198   7201   7204   7206     1  0.0000000  0.6508444  3
   7199   7198   7201   7204     1  0.0000000  0.6508444  3
   7199   7198   7201   7202     1  0.0000000  0.6508444  3
   7199   7198   7201   7203     1  0.0000000  0.6508444  3
   7199   7198   7207   7208     1  0.0000000  0.6508444  3
   7199   7198   7207   7209     1  0.0000000  0.6508444  3
   7199   7198   7207   7211     1  0.0000000  0.6508444  3
   7200   7198   7201   7204     1  0.0000000  0.6508444  3
   7200   7198   7201   7202     1  0.0000000  0.6508444  3
   7200   7198   7201   7203     1  0.0000000  0.6508444  3
   7200   7198   7207   7208     1  0.0000000  0.6508444  3
   7200   7198   7207   7209     1  0.0000000  0.6508444  3
   7200   7198   7207   7211     1  0.0000000  0.6508444  3
   7201   7198   7207   7208     1  0.0000000  0.6508444  3
   7201   7198   7207   7209     1  0.0000000  0.6508444  3
   7201   7198   7207   7211     1  0.0000000  0.6508444  3
   7202   7201   7204   7210     1  0.0000000  1.0460000  1
   7202   7201   7204   7210     1  0.0000000  0.0000000  3
   7202   7201   7204   7205     1  0.0000000  0.6508444  3
   7202   7201   7204   7206     1  0.0000000  0.6508444  3
   7202   7201   7198   7207     1  0.0000000  0.6508444  3
   7203   7201   7204   7210     1  0.0000000  1.0460000  1
   7203   7201   7204   7210     1  0.0000000  0.0000000  3
   7203   7201   7204   7205     1  0.0000000  0.6508444  3
   7203   7201   7204   7206     1  0.0000000  0.6508444  3
   7203   7201   7198   7207     1  0.0000000  0.6508444  3
   7212   7215   7218   7219     1  0.0000000  0.6508444  3
   7212   7215   7218   7220     1  0.0000000  0.6508444  3
   7213   7212   7215   7218     1  0.0000000  0.6508444  3
   7213   7212   7215   7216     1  0.0000000  0.6508444  3
   7213   7212   7215   7217     1  0.0000000  0.6508444  3
   7213   7212   7221   7222     1  0.0000000  0.6508444  3
   7213   7212   7221   7223     1  0.0000000  0.6508444  3
   7213   7212   7221   7225     1  0.0000000  0.6508444  3
   7214   7212   7215   7218     1  0.0000000  0.6508444  3
   7214   7212   7215   7216     1  0.0000000  0.6508444  3
   7214   7212   7215   7217     1  0.0000000  0.6508444  3
   7214   7212   7221   7222     1  0.0000000  0.6508444  3
   7214   7212   7221   7223     1  0.0000000  0.6508444  3
   7214   7212   7221   7225     1  0.0000000  0.6508444  3
   7215   7212   7221   7222     1  0.0000000  0.6508444  3
   7215   7212   7221   7223     1  0.0000000  0.6508444  3
   7215   7212   7221   7225     1  0.0000000  0.6508444  3
   7216   7215   7212   7221     1  0.0000000  0.6508444  3
   7216   7215   7218   7224     1  0.0000000  1.0460000  1
   7216   7215   7218   7224     1  0.0000000  0.0000000  3
   7216   7215   7218   7219     1  0.0000000  0.6508444  3
   7216   7215   7218   7220     1  0.0000000  0.6508444  3
   7217   7215   7212   7221     1  0.0000000  0.6508444  3
   7217   7215   7218   7224     1  0.0000000  1.0460000  1
   7217   7215   7218   7224     1  0.0000000  0.0000000  3
   7217   7215   7218   7219     1  0.0000000  0.6508444  3
   7217   7215   7218   7220     1  0.0000000  0.6508444  3
   7226   7229   7232   7233     1  0.0000000  0.6508444  3
   7226   7229   7232   7234     1  0.0000000  0.6508444  3
   7227   7226   7229   7232     1  0.0000000  0.6508444  3
   7227   7226   7229   7230     1  0.0000000  0.6508444  3
   7227   7226   7229   7231     1  0.0000000  0.6508444  3
   7227   7226   7235   7236     1  0.0000000  0.6508444  3
   7227   7226   7235   7237     1  0.0000000  0.6508444  3
   7227   7226   7235   7239     1  0.0000000  0.6508444  3
   7228   7226   7229   7232     1  0.0000000  0.6508444  3
   7228   7226   7229   7230     1  0.0000000  0.6508444  3
   7228   7226   7229   7231     1  0.0000000  0.6508444  3
   7228   7226   7235   7236     1  0.0000000  0.6508444  3
   7228   7226   7235   7237     1  0.0000000  0.6508444  3
   7228   7226   7235   7239     1  0.0000000  0.6508444  3
   7229   7226   7235   7236     1  0.0000000  0.6508444  3
   7229   7226   7235   7237     1  0.0000000  0.6508444  3
   7229   7226   7235   7239     1  0.0000000  0.6508444  3
   7230   7229   7232   7238     1  0.0000000  1.0460000  1
   7230   7229   7232   7238     1  0.0000000  0.0000000  3
   7230   7229   7232   7233     1  0.0000000  0.6508444  3
   7230   7229   7232   7234     1  0.0000000  0.6508444  3
   7230   7229   7226   7235     1  0.0000000  0.6508444  3
   7231   7229   7232   7238     1  0.0000000  1.0460000  1
   7231   7229   7232   7238     1  0.0000000  0.0000000  3
   7231   7229   7232   7233     1  0.0000000  0.6508444  3
   7231   7229   7232   7234     1  0.0000000  0.6508444  3
   7231   7229   7226   7235     1  0.0000000  0.6508444  3
   7240   7243   7246   7247     1  0.0000000  0.6508444  3
   7240   7243   7246   7248     1  0.0000000  0.6508444  3
   7241   7240   7243   7246     1  0.0000000  0.6508444  3
   7241   7240   7243   7244     1  0.0000000  0.6508444  3
   7241   7240   7243   7245     1  0.0000000  0.6508444  3
   7241   7240   7249   7250     1  0.0000000  0.6508444  3
   7241   7240   7249   7251     1  0.0000000  0.6508444  3
   7241   7240   7249   7253     1  0.0000000  0.6508444  3
   7242   7240   7243   7246     1  0.0000000  0.6508444  3
   7242   7240   7243   7244     1  0.0000000  0.6508444  3
   7242   7240   7243   7245     1  0.0000000  0.6508444  3
   7242   7240   7249   7250     1  0.0000000  0.6508444  3
   7242   7240   7249   7251     1  0.0000000  0.6508444  3
   7242   7240   7249   7253     1  0.0000000  0.6508444  3
   7243   7240   7249   7250     1  0.0000000  0.6508444  3
   7243   7240   7249   7251     1  0.0000000  0.6508444  3
   7243   7240   7249   7253     1  0.0000000  0.6508444  3
   7244   7243   7240   7249     1  0.0000000  0.6508444  3
   7244   7243   7246   7252     1  0.0000000  1.0460000  1
   7244   7243   7246   7252     1  0.0000000  0.0000000  3
   7244   7243   7246   7247     1  0.0000000  0.6508444  3
   7244   7243   7246   7248     1  0.0000000  0.6508444  3
   7245   7243   7240   7249     1  0.0000000  0.6508444  3
   7245   7243   7246   7252     1  0.0000000  1.0460000  1
   7245   7243   7246   7252     1  0.0000000  0.0000000  3
   7245   7243   7246   7247     1  0.0000000  0.6508444  3
   7245   7243   7246   7248     1  0.0000000  0.6508444  3
   7254   7257   7260   7261     1  0.0000000  0.6508444  3
   7254   7257   7260   7262     1  0.0000000  0.6508444  3
   7255   7254   7257   7260     1  0.0000000  0.6508444  3
   7255   7254   7257   7258     1  0.0000000  0.6508444  3
   7255   7254   7257   7259     1  0.0000000  0.6508444  3
   7255   7254   7263   7264     1  0.0000000  0.6508444  3
   7255   7254   7263   7265     1  0.0000000  0.6508444  3
   7255   7254   7263   7267     1  0.0000000  0.6508444  3
   7256   7254   7257   7260     1  0.0000000  0.6508444  3
   7256   7254   7257   7258     1  0.0000000  0.6508444  3
   7256   7254   7257   7259     1  0.0000000  0.6508444  3
   7256   7254   7263   7264     1  0.0000000  0.6508444  3
   7256   7254   7263   7265     1  0.0000000  0.6508444  3
   7256   7254   7263   7267     1  0.0000000  0.6508444  3
   7257   7254   7263   7264     1  0.0000000  0.6508444  3
   7257   7254   7263   7265     1  0.0000000  0.6508444  3
   7257   7254   7263   7267     1  0.0000000  0.6508444  3
   7258   7257   7260   7266     1  0.0000000  1.0460000  1
   7258   7257   7260   7266     1  0.0000000  0.0000000  3
   7258   7257   7260   7261     1  0.0000000  0.6508444  3
   7258   7257   7260   7262     1  0.0000000  0.6508444  3
   7258   7257   7254   7263     1  0.0000000  0.6508444  3
   7259   7257   7260   7266     1  0.0000000  1.0460000  1
   7259   7257   7260   7266     1  0.0000000  0.0000000  3
   7259   7257   7260   7261     1  0.0000000  0.6508444  3
   7259   7257   7260   7262     1  0.0000000  0.6508444  3
   7259   7257   7254   7263     1  0.0000000  0.6508444  3
   7268   7271   7274   7275     1  0.0000000  0.6508444  3
   7268   7271   7274   7276     1  0.0000000  0.6508444  3
   7269   7268   7271   7274     1  0.0000000  0.6508444  3
   7269   7268   7271   7272     1  0.0000000  0.6508444  3
   7269   7268   7271   7273     1  0.0000000  0.6508444  3
   7269   7268   7277   7278     1  0.0000000  0.6508444  3
   7269   7268   7277   7279     1  0.0000000  0.6508444  3
   7269   7268   7277   7281     1  0.0000000  0.6508444  3
   7270   7268   7271   7274     1  0.0000000  0.6508444  3
   7270   7268   7271   7272     1  0.0000000  0.6508444  3
   7270   7268   7271   7273     1  0.0000000  0.6508444  3
   7270   7268   7277   7278     1  0.0000000  0.6508444  3
   7270   7268   7277   7279     1  0.0000000  0.6508444  3
   7270   7268   7277   7281     1  0.0000000  0.6508444  3
   7271   7268   7277   7278     1  0.0000000  0.6508444  3
   7271   7268   7277   7279     1  0.0000000  0.6508444  3
   7271   7268   7277   7281     1  0.0000000  0.6508444  3
   7272   7271   7268   7277     1  0.0000000  0.6508444  3
   7272   7271   7274   7280     1  0.0000000  1.0460000  1
   7272   7271   7274   7280     1  0.0000000  0.0000000  3
   7272   7271   7274   7275     1  0.0000000  0.6508444  3
   7272   7271   7274   7276     1  0.0000000  0.6508444  3
   7273   7271   7268   7277     1  0.0000000  0.6508444  3
   7273   7271   7274   7280     1  0.0000000  1.0460000  1
   7273   7271   7274   7280     1  0.0000000  0.0000000  3
   7273   7271   7274   7275     1  0.0000000  0.6508444  3
   7273   7271   7274   7276     1  0.0000000  0.6508444  3
   7282   7285   7288   7289     1  0.0000000  0.6508444  3
   7282   7285   7288   7290     1  0.0000000  0.6508444  3
   7283   7282   7285   7288     1  0.0000000  0.6508444  3
   7283   7282   7285   7286     1  0.0000000  0.6508444  3
   7283   7282   7285   7287     1  0.0000000  0.6508444  3
   7283   7282   7291   7292     1  0.0000000  0.6508444  3
   7283   7282   7291   7293     1  0.0000000  0.6508444  3
   7283   7282   7291   7295     1  0.0000000  0.6508444  3
   7284   7282   7285   7288     1  0.0000000  0.6508444  3
   7284   7282   7285   7286     1  0.0000000  0.6508444  3
   7284   7282   7285   7287     1  0.0000000  0.6508444  3
   7284   7282   7291   7292     1  0.0000000  0.6508444  3
   7284   7282   7291   7293     1  0.0000000  0.6508444  3
   7284   7282   7291   7295     1  0.0000000  0.6508444  3
   7285   7282   7291   7292     1  0.0000000  0.6508444  3
   7285   7282   7291   7293     1  0.0000000  0.6508444  3
   7285   7282   7291   7295     1  0.0000000  0.6508444  3
   7286   7285   7288   7294     1  0.0000000  1.0460000  1
   7286   7285   7288   7294     1  0.0000000  0.0000000  3
   7286   7285   7288   7289     1  0.0000000  0.6508444  3
   7286   7285   7288   7290     1  0.0000000  0.6508444  3
   7286   7285   7282   7291     1  0.0000000  0.6508444  3
   7287   7285   7288   7294     1  0.0000000  1.0460000  1
   7287   7285   7288   7294     1  0.0000000  0.0000000  3
   7287   7285   7288   7289     1  0.0000000  0.6508444  3
   7287   7285   7288   7290     1  0.0000000  0.6508444  3
   7287   7285   7282   7291     1  0.0000000  0.6508444  3
   7296   7299   7302   7303     1  0.0000000  0.6508444  3
   7296   7299   7302   7304     1  0.0000000  0.6508444  3
   7297   7296   7299   7302     1  0.0000000  0.6508444  3
   7297   7296   7299   7300     1  0.0000000  0.6508444  3
   7297   7296   7299   7301     1  0.0000000  0.6508444  3
   7297   7296   7305   7306     1  0.0000000  0.6508444  3
   7297   7296   7305   7307     1  0.0000000  0.6508444  3
   7297   7296   7305   7309     1  0.0000000  0.6508444  3
   7298   7296   7299   7302     1  0.0000000  0.6508444  3
   7298   7296   7299   7300     1  0.0000000  0.6508444  3
   7298   7296   7299   7301     1  0.0000000  0.6508444  3
   7298   7296   7305   7306     1  0.0000000  0.6508444  3
   7298   7296   7305   7307     1  0.0000000  0.6508444  3
   7298   7296   7305   7309     1  0.0000000  0.6508444  3
   7299   7296   7305   7306     1  0.0000000  0.6508444  3
   7299   7296   7305   7307     1  0.0000000  0.6508444  3
   7299   7296   7305   7309     1  0.0000000  0.6508444  3
   7300   7299   7296   7305     1  0.0000000  0.6508444  3
   7300   7299   7302   7308     1  0.0000000  1.0460000  1
   7300   7299   7302   7308     1  0.0000000  0.0000000  3
   7300   7299   7302   7303     1  0.0000000  0.6508444  3
   7300   7299   7302   7304     1  0.0000000  0.6508444  3
   7301   7299   7296   7305     1  0.0000000  0.6508444  3
   7301   7299   7302   7308     1  0.0000000  1.0460000  1
   7301   7299   7302   7308     1  0.0000000  0.0000000  3
   7301   7299   7302   7303     1  0.0000000  0.6508444  3
   7301   7299   7302   7304     1  0.0000000  0.6508444  3
   7310   7313   7316   7317     1  0.0000000  0.6508444  3
   7310   7313   7316   7318     1  0.0000000  0.6508444  3
   7311   7310   7313   7316     1  0.0000000  0.6508444  3
   7311   7310   7313   7314     1  0.0000000  0.6508444  3
   7311   7310   7313   7315     1  0.0000000  0.6508444  3
   7311   7310   7319   7320     1  0.0000000  0.6508444  3
   7311   7310   7319   7321     1  0.0000000  0.6508444  3
   7311   7310   7319   7323     1  0.0000000  0.6508444  3
   7312   7310   7313   7316     1  0.0000000  0.6508444  3
   7312   7310   7313   7314     1  0.0000000  0.6508444  3
   7312   7310   7313   7315     1  0.0000000  0.6508444  3
   7312   7310   7319   7320     1  0.0000000  0.6508444  3
   7312   7310   7319   7321     1  0.0000000  0.6508444  3
   7312   7310   7319   7323     1  0.0000000  0.6508444  3
   7313   7310   7319   7320     1  0.0000000  0.6508444  3
   7313   7310   7319   7321     1  0.0000000  0.6508444  3
   7313   7310   7319   7323     1  0.0000000  0.6508444  3
   7314   7313   7316   7322     1  0.0000000  1.0460000  1
   7314   7313   7316   7322     1  0.0000000  0.0000000  3
   7314   7313   7316   7317     1  0.0000000  0.6508444  3
   7314   7313   7316   7318     1  0.0000000  0.6508444  3
   7314   7313   7310   7319     1  0.0000000  0.6508444  3
   7315   7313   7316   7322     1  0.0000000  1.0460000  1
   7315   7313   7316   7322     1  0.0000000  0.0000000  3
   7315   7313   7316   7317     1  0.0000000  0.6508444  3
   7315   7313   7316   7318     1  0.0000000  0.6508444  3
   7315   7313   7310   7319     1  0.0000000  0.6508444  3
   7324   7327   7330   7331     1  0.0000000  0.6508444  3
   7324   7327   7330   7332     1  0.0000000  0.6508444  3
   7325   7324   7327   7330     1  0.0000000  0.6508444  3
   7325   7324   7327   7328     1  0.0000000  0.6508444  3
   7325   7324   7327   7329     1  0.0000000  0.6508444  3
   7325   7324   7333   7334     1  0.0000000  0.6508444  3
   7325   7324   7333   7335     1  0.0000000  0.6508444  3
   7325   7324   7333   7337     1  0.0000000  0.6508444  3
   7326   7324   7327   7330     1  0.0000000  0.6508444  3
   7326   7324   7327   7328     1  0.0000000  0.6508444  3
   7326   7324   7327   7329     1  0.0000000  0.6508444  3
   7326   7324   7333   7334     1  0.0000000  0.6508444  3
   7326   7324   7333   7335     1  0.0000000  0.6508444  3
   7326   7324   7333   7337     1  0.0000000  0.6508444  3
   7327   7324   7333   7334     1  0.0000000  0.6508444  3
   7327   7324   7333   7335     1  0.0000000  0.6508444  3
   7327   7324   7333   7337     1  0.0000000  0.6508444  3
   7328   7327   7324   7333     1  0.0000000  0.6508444  3
   7328   7327   7330   7336     1  0.0000000  1.0460000  1
   7328   7327   7330   7336     1  0.0000000  0.0000000  3
   7328   7327   7330   7331     1  0.0000000  0.6508444  3
   7328   7327   7330   7332     1  0.0000000  0.6508444  3
   7329   7327   7324   7333     1  0.0000000  0.6508444  3
   7329   7327   7330   7336     1  0.0000000  1.0460000  1
   7329   7327   7330   7336     1  0.0000000  0.0000000  3
   7329   7327   7330   7331     1  0.0000000  0.6508444  3
   7329   7327   7330   7332     1  0.0000000  0.6508444  3
   7338   7341   7344   7345     1  0.0000000  0.6508444  3
   7338   7341   7344   7346     1  0.0000000  0.6508444  3
   7339   7338   7341   7344     1  0.0000000  0.6508444  3
   7339   7338   7341   7342     1  0.0000000  0.6508444  3
   7339   7338   7341   7343     1  0.0000000  0.6508444  3
   7339   7338   7347   7348     1  0.0000000  0.6508444  3
   7339   7338   7347   7349     1  0.0000000  0.6508444  3
   7339   7338   7347   7351     1  0.0000000  0.6508444  3
   7340   7338   7341   7344     1  0.0000000  0.6508444  3
   7340   7338   7341   7342     1  0.0000000  0.6508444  3
   7340   7338   7341   7343     1  0.0000000  0.6508444  3
   7340   7338   7347   7348     1  0.0000000  0.6508444  3
   7340   7338   7347   7349     1  0.0000000  0.6508444  3
   7340   7338   7347   7351     1  0.0000000  0.6508444  3
   7341   7338   7347   7348     1  0.0000000  0.6508444  3
   7341   7338   7347   7349     1  0.0000000  0.6508444  3
   7341   7338   7347   7351     1  0.0000000  0.6508444  3
   7342   7341   7344   7350     1  0.0000000  1.0460000  1
   7342   7341   7344   7350     1  0.0000000  0.0000000  3
   7342   7341   7344   7345     1  0.0000000  0.6508444  3
   7342   7341   7344   7346     1  0.0000000  0.6508444  3
   7342   7341   7338   7347     1  0.0000000  0.6508444  3
   7343   7341   7344   7350     1  0.0000000  1.0460000  1
   7343   7341   7344   7350     1  0.0000000  0.0000000  3
   7343   7341   7344   7345     1  0.0000000  0.6508444  3
   7343   7341   7344   7346     1  0.0000000  0.6508444  3
   7343   7341   7338   7347     1  0.0000000  0.6508444  3
   7352   7355   7358   7359     1  0.0000000  0.6508444  3
   7352   7355   7358   7360     1  0.0000000  0.6508444  3
   7353   7352   7355   7358     1  0.0000000  0.6508444  3
   7353   7352   7355   7356     1  0.0000000  0.6508444  3
   7353   7352   7355   7357     1  0.0000000  0.6508444  3
   7353   7352   7361   7362     1  0.0000000  0.6508444  3
   7353   7352   7361   7363     1  0.0000000  0.6508444  3
   7353   7352   7361   7365     1  0.0000000  0.6508444  3
   7354   7352   7355   7358     1  0.0000000  0.6508444  3
   7354   7352   7355   7356     1  0.0000000  0.6508444  3
   7354   7352   7355   7357     1  0.0000000  0.6508444  3
   7354   7352   7361   7362     1  0.0000000  0.6508444  3
   7354   7352   7361   7363     1  0.0000000  0.6508444  3
   7354   7352   7361   7365     1  0.0000000  0.6508444  3
   7355   7352   7361   7362     1  0.0000000  0.6508444  3
   7355   7352   7361   7363     1  0.0000000  0.6508444  3
   7355   7352   7361   7365     1  0.0000000  0.6508444  3
   7356   7355   7352   7361     1  0.0000000  0.6508444  3
   7356   7355   7358   7364     1  0.0000000  1.0460000  1
   7356   7355   7358   7364     1  0.0000000  0.0000000  3
   7356   7355   7358   7359     1  0.0000000  0.6508444  3
   7356   7355   7358   7360     1  0.0000000  0.6508444  3
   7357   7355   7352   7361     1  0.0000000  0.6508444  3
   7357   7355   7358   7364     1  0.0000000  1.0460000  1
   7357   7355   7358   7364     1  0.0000000  0.0000000  3
   7357   7355   7358   7359     1  0.0000000  0.6508444  3
   7357   7355   7358   7360     1  0.0000000  0.6508444  3
   7366   7369   7372   7373     1  0.0000000  0.6508444  3
   7366   7369   7372   7374     1  0.0000000  0.6508444  3
   7367   7366   7369   7372     1  0.0000000  0.6508444  3
   7367   7366   7369   7370     1  0.0000000  0.6508444  3
   7367   7366   7369   7371     1  0.0000000  0.6508444  3
   7367   7366   7375   7376     1  0.0000000  0.6508444  3
   7367   7366   7375   7377     1  0.0000000  0.6508444  3
   7367   7366   7375   7379     1  0.0000000  0.6508444  3
   7368   7366   7369   7372     1  0.0000000  0.6508444  3
   7368   7366   7369   7370     1  0.0000000  0.6508444  3
   7368   7366   7369   7371     1  0.0000000  0.6508444  3
   7368   7366   7375   7376     1  0.0000000  0.6508444  3
   7368   7366   7375   7377     1  0.0000000  0.6508444  3
   7368   7366   7375   7379     1  0.0000000  0.6508444  3
   7369   7366   7375   7376     1  0.0000000  0.6508444  3
   7369   7366   7375   7377     1  0.0000000  0.6508444  3
   7369   7366   7375   7379     1  0.0000000  0.6508444  3
   7370   7369   7372   7378     1  0.0000000  1.0460000  1
   7370   7369   7372   7378     1  0.0000000  0.0000000  3
   7370   7369   7372   7373     1  0.0000000  0.6508444  3
   7370   7369   7372   7374     1  0.0000000  0.6508444  3
   7370   7369   7366   7375     1  0.0000000  0.6508444  3
   7371   7369   7372   7378     1  0.0000000  1.0460000  1
   7371   7369   7372   7378     1  0.0000000  0.0000000  3
   7371   7369   7372   7373     1  0.0000000  0.6508444  3
   7371   7369   7372   7374     1  0.0000000  0.6508444  3
   7371   7369   7366   7375     1  0.0000000  0.6508444  3
   7380   7383   7386   7387     1  0.0000000  0.6508444  3
   7380   7383   7386   7388     1  0.0000000  0.6508444  3
   7381   7380   7383   7386     1  0.0000000  0.6508444  3
   7381   7380   7383   7384     1  0.0000000  0.6508444  3
   7381   7380   7383   7385     1  0.0000000  0.6508444  3
   7381   7380   7389   7390     1  0.0000000  0.6508444  3
   7381   7380   7389   7391     1  0.0000000  0.6508444  3
   7381   7380   7389   7393     1  0.0000000  0.6508444  3
   7382   7380   7383   7386     1  0.0000000  0.6508444  3
   7382   7380   7383   7384     1  0.0000000  0.6508444  3
   7382   7380   7383   7385     1  0.0000000  0.6508444  3
   7382   7380   7389   7390     1  0.0000000  0.6508444  3
   7382   7380   7389   7391     1  0.0000000  0.6508444  3
   7382   7380   7389   7393     1  0.0000000  0.6508444  3
   7383   7380   7389   7390     1  0.0000000  0.6508444  3
   7383   7380   7389   7391     1  0.0000000  0.6508444  3
   7383   7380   7389   7393     1  0.0000000  0.6508444  3
   7384   7383   7380   7389     1  0.0000000  0.6508444  3
   7384   7383   7386   7392     1  0.0000000  1.0460000  1
   7384   7383   7386   7392     1  0.0000000  0.0000000  3
   7384   7383   7386   7387     1  0.0000000  0.6508444  3
   7384   7383   7386   7388     1  0.0000000  0.6508444  3
   7385   7383   7380   7389     1  0.0000000  0.6508444  3
   7385   7383   7386   7392     1  0.0000000  1.0460000  1
   7385   7383   7386   7392     1  0.0000000  0.0000000  3
   7385   7383   7386   7387     1  0.0000000  0.6508444  3
   7385   7383   7386   7388     1  0.0000000  0.6508444  3
   7394   7397   7400   7401     1  0.0000000  0.6508444  3
   7394   7397   7400   7402     1  0.0000000  0.6508444  3
   7395   7394   7397   7400     1  0.0000000  0.6508444  3
   7395   7394   7397   7398     1  0.0000000  0.6508444  3
   7395   7394   7397   7399     1  0.0000000  0.6508444  3
   7395   7394   7403   7404     1  0.0000000  0.6508444  3
   7395   7394   7403   7405     1  0.0000000  0.6508444  3
   7395   7394   7403   7407     1  0.0000000  0.6508444  3
   7396   7394   7397   7400     1  0.0000000  0.6508444  3
   7396   7394   7397   7398     1  0.0000000  0.6508444  3
   7396   7394   7397   7399     1  0.0000000  0.6508444  3
   7396   7394   7403   7404     1  0.0000000  0.6508444  3
   7396   7394   7403   7405     1  0.0000000  0.6508444  3
   7396   7394   7403   7407     1  0.0000000  0.6508444  3
   7397   7394   7403   7404     1  0.0000000  0.6508444  3
   7397   7394   7403   7405     1  0.0000000  0.6508444  3
   7397   7394   7403   7407     1  0.0000000  0.6508444  3
   7398   7397   7400   7406     1  0.0000000  1.0460000  1
   7398   7397   7400   7406     1  0.0000000  0.0000000  3
   7398   7397   7400   7401     1  0.0000000  0.6508444  3
   7398   7397   7400   7402     1  0.0000000  0.6508444  3
   7398   7397   7394   7403     1  0.0000000  0.6508444  3
   7399   7397   7400   7406     1  0.0000000  1.0460000  1
   7399   7397   7400   7406     1  0.0000000  0.0000000  3
   7399   7397   7400   7401     1  0.0000000  0.6508444  3
   7399   7397   7400   7402     1  0.0000000  0.6508444  3
   7399   7397   7394   7403     1  0.0000000  0.6508444  3
   7408   7411   7414   7415     1  0.0000000  0.6508444  3
   7408   7411   7414   7416     1  0.0000000  0.6508444  3
   7409   7408   7411   7414     1  0.0000000  0.6508444  3
   7409   7408   7411   7412     1  0.0000000  0.6508444  3
   7409   7408   7411   7413     1  0.0000000  0.6508444  3
   7409   7408   7417   7418     1  0.0000000  0.6508444  3
   7409   7408   7417   7419     1  0.0000000  0.6508444  3
   7409   7408   7417   7421     1  0.0000000  0.6508444  3
   7410   7408   7411   7414     1  0.0000000  0.6508444  3
   7410   7408   7411   7412     1  0.0000000  0.6508444  3
   7410   7408   7411   7413     1  0.0000000  0.6508444  3
   7410   7408   7417   7418     1  0.0000000  0.6508444  3
   7410   7408   7417   7419     1  0.0000000  0.6508444  3
   7410   7408   7417   7421     1  0.0000000  0.6508444  3
   7411   7408   7417   7418     1  0.0000000  0.6508444  3
   7411   7408   7417   7419     1  0.0000000  0.6508444  3
   7411   7408   7417   7421     1  0.0000000  0.6508444  3
   7412   7411   7408   7417     1  0.0000000  0.6508444  3
   7412   7411   7414   7420     1  0.0000000  1.0460000  1
   7412   7411   7414   7420     1  0.0000000  0.0000000  3
   7412   7411   7414   7415     1  0.0000000  0.6508444  3
   7412   7411   7414   7416     1  0.0000000  0.6508444  3
   7413   7411   7408   7417     1  0.0000000  0.6508444  3
   7413   7411   7414   7420     1  0.0000000  1.0460000  1
   7413   7411   7414   7420     1  0.0000000  0.0000000  3
   7413   7411   7414   7415     1  0.0000000  0.6508444  3
   7413   7411   7414   7416     1  0.0000000  0.6508444  3
   7422   7425   7428   7429     1  0.0000000  0.6508444  3
   7422   7425   7428   7430     1  0.0000000  0.6508444  3
   7423   7422   7425   7428     1  0.0000000  0.6508444  3
   7423   7422   7425   7426     1  0.0000000  0.6508444  3
   7423   7422   7425   7427     1  0.0000000  0.6508444  3
   7423   7422   7431   7432     1  0.0000000  0.6508444  3
   7423   7422   7431   7433     1  0.0000000  0.6508444  3
   7423   7422   7431   7435     1  0.0000000  0.6508444  3
   7424   7422   7425   7428     1  0.0000000  0.6508444  3
   7424   7422   7425   7426     1  0.0000000  0.6508444  3
   7424   7422   7425   7427     1  0.0000000  0.6508444  3
   7424   7422   7431   7432     1  0.0000000  0.6508444  3
   7424   7422   7431   7433     1  0.0000000  0.6508444  3
   7424   7422   7431   7435     1  0.0000000  0.6508444  3
   7425   7422   7431   7432     1  0.0000000  0.6508444  3
   7425   7422   7431   7433     1  0.0000000  0.6508444  3
   7425   7422   7431   7435     1  0.0000000  0.6508444  3
   7426   7425   7428   7434     1  0.0000000  1.0460000  1
   7426   7425   7428   7434     1  0.0000000  0.0000000  3
   7426   7425   7428   7429     1  0.0000000  0.6508444  3
   7426   7425   7428   7430     1  0.0000000  0.6508444  3
   7426   7425   7422   7431     1  0.0000000  0.6508444  3
   7427   7425   7428   7434     1  0.0000000  1.0460000  1
   7427   7425   7428   7434     1  0.0000000  0.0000000  3
   7427   7425   7428   7429     1  0.0000000  0.6508444  3
   7427   7425   7428   7430     1  0.0000000  0.6508444  3
   7427   7425   7422   7431     1  0.0000000  0.6508444  3
   7436   7439   7442   7443     1  0.0000000  0.6508444  3
   7436   7439   7442   7444     1  0.0000000  0.6508444  3
   7437   7436   7439   7442     1  0.0000000  0.6508444  3
   7437   7436   7439   7440     1  0.0000000  0.6508444  3
   7437   7436   7439   7441     1  0.0000000  0.6508444  3
   7437   7436   7445   7446     1  0.0000000  0.6508444  3
   7437   7436   7445   7447     1  0.0000000  0.6508444  3
   7437   7436   7445   7449     1  0.0000000  0.6508444  3
   7438   7436   7439   7442     1  0.0000000  0.6508444  3
   7438   7436   7439   7440     1  0.0000000  0.6508444  3
   7438   7436   7439   7441     1  0.0000000  0.6508444  3
   7438   7436   7445   7446     1  0.0000000  0.6508444  3
   7438   7436   7445   7447     1  0.0000000  0.6508444  3
   7438   7436   7445   7449     1  0.0000000  0.6508444  3
   7439   7436   7445   7446     1  0.0000000  0.6508444  3
   7439   7436   7445   7447     1  0.0000000  0.6508444  3
   7439   7436   7445   7449     1  0.0000000  0.6508444  3
   7440   7439   7436   7445     1  0.0000000  0.6508444  3
   7440   7439   7442   7448     1  0.0000000  1.0460000  1
   7440   7439   7442   7448     1  0.0000000  0.0000000  3
   7440   7439   7442   7443     1  0.0000000  0.6508444  3
   7440   7439   7442   7444     1  0.0000000  0.6508444  3
   7441   7439   7436   7445     1  0.0000000  0.6508444  3
   7441   7439   7442   7448     1  0.0000000  1.0460000  1
   7441   7439   7442   7448     1  0.0000000  0.0000000  3
   7441   7439   7442   7443     1  0.0000000  0.6508444  3
   7441   7439   7442   7444     1  0.0000000  0.6508444  3
   7450   7453   7456   7457     1  0.0000000  0.6508444  3
   7450   7453   7456   7458     1  0.0000000  0.6508444  3
   7451   7450   7453   7456     1  0.0000000  0.6508444  3
   7451   7450   7453   7454     1  0.0000000  0.6508444  3
   7451   7450   7453   7455     1  0.0000000  0.6508444  3
   7451   7450   7459   7460     1  0.0000000  0.6508444  3
   7451   7450   7459   7461     1  0.0000000  0.6508444  3
   7451   7450   7459   7463     1  0.0000000  0.6508444  3
   7452   7450   7453   7456     1  0.0000000  0.6508444  3
   7452   7450   7453   7454     1  0.0000000  0.6508444  3
   7452   7450   7453   7455     1  0.0000000  0.6508444  3
   7452   7450   7459   7460     1  0.0000000  0.6508444  3
   7452   7450   7459   7461     1  0.0000000  0.6508444  3
   7452   7450   7459   7463     1  0.0000000  0.6508444  3
   7453   7450   7459   7460     1  0.0000000  0.6508444  3
   7453   7450   7459   7461     1  0.0000000  0.6508444  3
   7453   7450   7459   7463     1  0.0000000  0.6508444  3
   7454   7453   7456   7462     1  0.0000000  1.0460000  1
   7454   7453   7456   7462     1  0.0000000  0.0000000  3
   7454   7453   7456   7457     1  0.0000000  0.6508444  3
   7454   7453   7456   7458     1  0.0000000  0.6508444  3
   7454   7453   7450   7459     1  0.0000000  0.6508444  3
   7455   7453   7456   7462     1  0.0000000  1.0460000  1
   7455   7453   7456   7462     1  0.0000000  0.0000000  3
   7455   7453   7456   7457     1  0.0000000  0.6508444  3
   7455   7453   7456   7458     1  0.0000000  0.6508444  3
   7455   7453   7450   7459     1  0.0000000  0.6508444  3
   7464   7467   7470   7471     1  0.0000000  0.6508444  3
   7464   7467   7470   7472     1  0.0000000  0.6508444  3
   7465   7464   7467   7470     1  0.0000000  0.6508444  3
   7465   7464   7467   7468     1  0.0000000  0.6508444  3
   7465   7464   7467   7469     1  0.0000000  0.6508444  3
   7465   7464   7473   7474     1  0.0000000  0.6508444  3
   7465   7464   7473   7475     1  0.0000000  0.6508444  3
   7465   7464   7473   7477     1  0.0000000  0.6508444  3
   7466   7464   7467   7470     1  0.0000000  0.6508444  3
   7466   7464   7467   7468     1  0.0000000  0.6508444  3
   7466   7464   7467   7469     1  0.0000000  0.6508444  3
   7466   7464   7473   7474     1  0.0000000  0.6508444  3
   7466   7464   7473   7475     1  0.0000000  0.6508444  3
   7466   7464   7473   7477     1  0.0000000  0.6508444  3
   7467   7464   7473   7474     1  0.0000000  0.6508444  3
   7467   7464   7473   7475     1  0.0000000  0.6508444  3
   7467   7464   7473   7477     1  0.0000000  0.6508444  3
   7468   7467   7464   7473     1  0.0000000  0.6508444  3
   7468   7467   7470   7476     1  0.0000000  1.0460000  1
   7468   7467   7470   7476     1  0.0000000  0.0000000  3
   7468   7467   7470   7471     1  0.0000000  0.6508444  3
   7468   7467   7470   7472     1  0.0000000  0.6508444  3
   7469   7467   7464   7473     1  0.0000000  0.6508444  3
   7469   7467   7470   7476     1  0.0000000  1.0460000  1
   7469   7467   7470   7476     1  0.0000000  0.0000000  3
   7469   7467   7470   7471     1  0.0000000  0.6508444  3
   7469   7467   7470   7472     1  0.0000000  0.6508444  3
   7478   7481   7484   7485     1  0.0000000  0.6508444  3
   7478   7481   7484   7486     1  0.0000000  0.6508444  3
   7479   7478   7481   7484     1  0.0000000  0.6508444  3
   7479   7478   7481   7482     1  0.0000000  0.6508444  3
   7479   7478   7481   7483     1  0.0000000  0.6508444  3
   7479   7478   7487   7488     1  0.0000000  0.6508444  3
   7479   7478   7487   7489     1  0.0000000  0.6508444  3
   7479   7478   7487   7491     1  0.0000000  0.6508444  3
   7480   7478   7481   7484     1  0.0000000  0.6508444  3
   7480   7478   7481   7482     1  0.0000000  0.6508444  3
   7480   7478   7481   7483     1  0.0000000  0.6508444  3
   7480   7478   7487   7488     1  0.0000000  0.6508444  3
   7480   7478   7487   7489     1  0.0000000  0.6508444  3
   7480   7478   7487   7491     1  0.0000000  0.6508444  3
   7481   7478   7487   7488     1  0.0000000  0.6508444  3
   7481   7478   7487   7489     1  0.0000000  0.6508444  3
   7481   7478   7487   7491     1  0.0000000  0.6508444  3
   7482   7481   7484   7490     1  0.0000000  1.0460000  1
   7482   7481   7484   7490     1  0.0000000  0.0000000  3
   7482   7481   7484   7485     1  0.0000000  0.6508444  3
   7482   7481   7484   7486     1  0.0000000  0.6508444  3
   7482   7481   7478   7487     1  0.0000000  0.6508444  3
   7483   7481   7484   7490     1  0.0000000  1.0460000  1
   7483   7481   7484   7490     1  0.0000000  0.0000000  3
   7483   7481   7484   7485     1  0.0000000  0.6508444  3
   7483   7481   7484   7486     1  0.0000000  0.6508444  3
   7483   7481   7478   7487     1  0.0000000  0.6508444  3
   7492   7495   7498   7499     1  0.0000000  0.6508444  3
   7492   7495   7498   7500     1  0.0000000  0.6508444  3
   7493   7492   7495   7498     1  0.0000000  0.6508444  3
   7493   7492   7495   7496     1  0.0000000  0.6508444  3
   7493   7492   7495   7497     1  0.0000000  0.6508444  3
   7493   7492   7501   7502     1  0.0000000  0.6508444  3
   7493   7492   7501   7503     1  0.0000000  0.6508444  3
   7493   7492   7501   7505     1  0.0000000  0.6508444  3
   7494   7492   7495   7498     1  0.0000000  0.6508444  3
   7494   7492   7495   7496     1  0.0000000  0.6508444  3
   7494   7492   7495   7497     1  0.0000000  0.6508444  3
   7494   7492   7501   7502     1  0.0000000  0.6508444  3
   7494   7492   7501   7503     1  0.0000000  0.6508444  3
   7494   7492   7501   7505     1  0.0000000  0.6508444  3
   7495   7492   7501   7502     1  0.0000000  0.6508444  3
   7495   7492   7501   7503     1  0.0000000  0.6508444  3
   7495   7492   7501   7505     1  0.0000000  0.6508444  3
   7496   7495   7492   7501     1  0.0000000  0.6508444  3
   7496   7495   7498   7504     1  0.0000000  1.0460000  1
   7496   7495   7498   7504     1  0.0000000  0.0000000  3
   7496   7495   7498   7499     1  0.0000000  0.6508444  3
   7496   7495   7498   7500     1  0.0000000  0.6508444  3
   7497   7495   7492   7501     1  0.0000000  0.6508444  3
   7497   7495   7498   7504     1  0.0000000  1.0460000  1
   7497   7495   7498   7504     1  0.0000000  0.0000000  3
   7497   7495   7498   7499     1  0.0000000  0.6508444  3
   7497   7495   7498   7500     1  0.0000000  0.6508444  3
   7506   7509   7512   7513     1  0.0000000  0.6508444  3
   7506   7509   7512   7514     1  0.0000000  0.6508444  3
   7507   7506   7509   7512     1  0.0000000  0.6508444  3
   7507   7506   7509   7510     1  0.0000000  0.6508444  3
   7507   7506   7509   7511     1  0.0000000  0.6508444  3
   7507   7506   7515   7516     1  0.0000000  0.6508444  3
   7507   7506   7515   7517     1  0.0000000  0.6508444  3
   7507   7506   7515   7519     1  0.0000000  0.6508444  3
   7508   7506   7509   7512     1  0.0000000  0.6508444  3
   7508   7506   7509   7510     1  0.0000000  0.6508444  3
   7508   7506   7509   7511     1  0.0000000  0.6508444  3
   7508   7506   7515   7516     1  0.0000000  0.6508444  3
   7508   7506   7515   7517     1  0.0000000  0.6508444  3
   7508   7506   7515   7519     1  0.0000000  0.6508444  3
   7509   7506   7515   7516     1  0.0000000  0.6508444  3
   7509   7506   7515   7517     1  0.0000000  0.6508444  3
   7509   7506   7515   7519     1  0.0000000  0.6508444  3
   7510   7509   7512   7518     1  0.0000000  1.0460000  1
   7510   7509   7512   7518     1  0.0000000  0.0000000  3
   7510   7509   7512   7513     1  0.0000000  0.6508444  3
   7510   7509   7512   7514     1  0.0000000  0.6508444  3
   7510   7509   7506   7515     1  0.0000000  0.6508444  3
   7511   7509   7512   7518     1  0.0000000  1.0460000  1
   7511   7509   7512   7518     1  0.0000000  0.0000000  3
   7511   7509   7512   7513     1  0.0000000  0.6508444  3
   7511   7509   7512   7514     1  0.0000000  0.6508444  3
   7511   7509   7506   7515     1  0.0000000  0.6508444  3
   7520   7523   7526   7527     1  0.0000000  0.6508444  3
   7520   7523   7526   7528     1  0.0000000  0.6508444  3
   7521   7520   7523   7526     1  0.0000000  0.6508444  3
   7521   7520   7523   7524     1  0.0000000  0.6508444  3
   7521   7520   7523   7525     1  0.0000000  0.6508444  3
   7521   7520   7529   7530     1  0.0000000  0.6508444  3
   7521   7520   7529   7531     1  0.0000000  0.6508444  3
   7521   7520   7529   7533     1  0.0000000  0.6508444  3
   7522   7520   7523   7526     1  0.0000000  0.6508444  3
   7522   7520   7523   7524     1  0.0000000  0.6508444  3
   7522   7520   7523   7525     1  0.0000000  0.6508444  3
   7522   7520   7529   7530     1  0.0000000  0.6508444  3
   7522   7520   7529   7531     1  0.0000000  0.6508444  3
   7522   7520   7529   7533     1  0.0000000  0.6508444  3
   7523   7520   7529   7530     1  0.0000000  0.6508444  3
   7523   7520   7529   7531     1  0.0000000  0.6508444  3
   7523   7520   7529   7533     1  0.0000000  0.6508444  3
   7524   7523   7520   7529     1  0.0000000  0.6508444  3
   7524   7523   7526   7532     1  0.0000000  1.0460000  1
   7524   7523   7526   7532     1  0.0000000  0.0000000  3
   7524   7523   7526   7527     1  0.0000000  0.6508444  3
   7524   7523   7526   7528     1  0.0000000  0.6508444  3
   7525   7523   7520   7529     1  0.0000000  0.6508444  3
   7525   7523   7526   7532     1  0.0000000  1.0460000  1
   7525   7523   7526   7532     1  0.0000000  0.0000000  3
   7525   7523   7526   7527     1  0.0000000  0.6508444  3
   7525   7523   7526   7528     1  0.0000000  0.6508444  3
   7534   7537   7540   7541     1  0.0000000  0.6508444  3
   7534   7537   7540   7542     1  0.0000000  0.6508444  3
   7535   7534   7537   7540     1  0.0000000  0.6508444  3
   7535   7534   7537   7538     1  0.0000000  0.6508444  3
   7535   7534   7537   7539     1  0.0000000  0.6508444  3
   7535   7534   7543   7544     1  0.0000000  0.6508444  3
   7535   7534   7543   7545     1  0.0000000  0.6508444  3
   7535   7534   7543   7547     1  0.0000000  0.6508444  3
   7536   7534   7537   7540     1  0.0000000  0.6508444  3
   7536   7534   7537   7538     1  0.0000000  0.6508444  3
   7536   7534   7537   7539     1  0.0000000  0.6508444  3
   7536   7534   7543   7544     1  0.0000000  0.6508444  3
   7536   7534   7543   7545     1  0.0000000  0.6508444  3
   7536   7534   7543   7547     1  0.0000000  0.6508444  3
   7537   7534   7543   7544     1  0.0000000  0.6508444  3
   7537   7534   7543   7545     1  0.0000000  0.6508444  3
   7537   7534   7543   7547     1  0.0000000  0.6508444  3
   7538   7537   7540   7546     1  0.0000000  1.0460000  1
   7538   7537   7540   7546     1  0.0000000  0.0000000  3
   7538   7537   7540   7541     1  0.0000000  0.6508444  3
   7538   7537   7540   7542     1  0.0000000  0.6508444  3
   7538   7537   7534   7543     1  0.0000000  0.6508444  3
   7539   7537   7540   7546     1  0.0000000  1.0460000  1
   7539   7537   7540   7546     1  0.0000000  0.0000000  3
   7539   7537   7540   7541     1  0.0000000  0.6508444  3
   7539   7537   7540   7542     1  0.0000000  0.6508444  3
   7539   7537   7534   7543     1  0.0000000  0.6508444  3
   7548   7551   7554   7555     1  0.0000000  0.6508444  3
   7548   7551   7554   7556     1  0.0000000  0.6508444  3
   7549   7548   7551   7554     1  0.0000000  0.6508444  3
   7549   7548   7551   7552     1  0.0000000  0.6508444  3
   7549   7548   7551   7553     1  0.0000000  0.6508444  3
   7549   7548   7557   7558     1  0.0000000  0.6508444  3
   7549   7548   7557   7559     1  0.0000000  0.6508444  3
   7549   7548   7557   7561     1  0.0000000  0.6508444  3
   7550   7548   7551   7554     1  0.0000000  0.6508444  3
   7550   7548   7551   7552     1  0.0000000  0.6508444  3
   7550   7548   7551   7553     1  0.0000000  0.6508444  3
   7550   7548   7557   7558     1  0.0000000  0.6508444  3
   7550   7548   7557   7559     1  0.0000000  0.6508444  3
   7550   7548   7557   7561     1  0.0000000  0.6508444  3
   7551   7548   7557   7558     1  0.0000000  0.6508444  3
   7551   7548   7557   7559     1  0.0000000  0.6508444  3
   7551   7548   7557   7561     1  0.0000000  0.6508444  3
   7552   7551   7548   7557     1  0.0000000  0.6508444  3
   7552   7551   7554   7560     1  0.0000000  1.0460000  1
   7552   7551   7554   7560     1  0.0000000  0.0000000  3
   7552   7551   7554   7555     1  0.0000000  0.6508444  3
   7552   7551   7554   7556     1  0.0000000  0.6508444  3
   7553   7551   7548   7557     1  0.0000000  0.6508444  3
   7553   7551   7554   7560     1  0.0000000  1.0460000  1
   7553   7551   7554   7560     1  0.0000000  0.0000000  3
   7553   7551   7554   7555     1  0.0000000  0.6508444  3
   7553   7551   7554   7556     1  0.0000000  0.6508444  3
   7562   7565   7568   7569     1  0.0000000  0.6508444  3
   7562   7565   7568   7570     1  0.0000000  0.6508444  3
   7563   7562   7565   7568     1  0.0000000  0.6508444  3
   7563   7562   7565   7566     1  0.0000000  0.6508444  3
   7563   7562   7565   7567     1  0.0000000  0.6508444  3
   7563   7562   7571   7572     1  0.0000000  0.6508444  3
   7563   7562   7571   7573     1  0.0000000  0.6508444  3
   7563   7562   7571   7575     1  0.0000000  0.6508444  3
   7564   7562   7565   7568     1  0.0000000  0.6508444  3
   7564   7562   7565   7566     1  0.0000000  0.6508444  3
   7564   7562   7565   7567     1  0.0000000  0.6508444  3
   7564   7562   7571   7572     1  0.0000000  0.6508444  3
   7564   7562   7571   7573     1  0.0000000  0.6508444  3
   7564   7562   7571   7575     1  0.0000000  0.6508444  3
   7565   7562   7571   7572     1  0.0000000  0.6508444  3
   7565   7562   7571   7573     1  0.0000000  0.6508444  3
   7565   7562   7571   7575     1  0.0000000  0.6508444  3
   7566   7565   7568   7574     1  0.0000000  1.0460000  1
   7566   7565   7568   7574     1  0.0000000  0.0000000  3
   7566   7565   7568   7569     1  0.0000000  0.6508444  3
   7566   7565   7568   7570     1  0.0000000  0.6508444  3
   7566   7565   7562   7571     1  0.0000000  0.6508444  3
   7567   7565   7568   7574     1  0.0000000  1.0460000  1
   7567   7565   7568   7574     1  0.0000000  0.0000000  3
   7567   7565   7568   7569     1  0.0000000  0.6508444  3
   7567   7565   7568   7570     1  0.0000000  0.6508444  3
   7567   7565   7562   7571     1  0.0000000  0.6508444  3
   7576   7579   7582   7583     1  0.0000000  0.6508444  3
   7576   7579   7582   7584     1  0.0000000  0.6508444  3
   7577   7576   7579   7582     1  0.0000000  0.6508444  3
   7577   7576   7579   7580     1  0.0000000  0.6508444  3
   7577   7576   7579   7581     1  0.0000000  0.6508444  3
   7577   7576   7585   7586     1  0.0000000  0.6508444  3
   7577   7576   7585   7587     1  0.0000000  0.6508444  3
   7577   7576   7585   7589     1  0.0000000  0.6508444  3
   7578   7576   7579   7582     1  0.0000000  0.6508444  3
   7578   7576   7579   7580     1  0.0000000  0.6508444  3
   7578   7576   7579   7581     1  0.0000000  0.6508444  3
   7578   7576   7585   7586     1  0.0000000  0.6508444  3
   7578   7576   7585   7587     1  0.0000000  0.6508444  3
   7578   7576   7585   7589     1  0.0000000  0.6508444  3
   7579   7576   7585   7586     1  0.0000000  0.6508444  3
   7579   7576   7585   7587     1  0.0000000  0.6508444  3
   7579   7576   7585   7589     1  0.0000000  0.6508444  3
   7580   7579   7576   7585     1  0.0000000  0.6508444  3
   7580   7579   7582   7588     1  0.0000000  1.0460000  1
   7580   7579   7582   7588     1  0.0000000  0.0000000  3
   7580   7579   7582   7583     1  0.0000000  0.6508444  3
   7580   7579   7582   7584     1  0.0000000  0.6508444  3
   7581   7579   7576   7585     1  0.0000000  0.6508444  3
   7581   7579   7582   7588     1  0.0000000  1.0460000  1
   7581   7579   7582   7588     1  0.0000000  0.0000000  3
   7581   7579   7582   7583     1  0.0000000  0.6508444  3
   7581   7579   7582   7584     1  0.0000000  0.6508444  3
   7590   7593   7596   7597     1  0.0000000  0.6508444  3
   7590   7593   7596   7598     1  0.0000000  0.6508444  3
   7591   7590   7593   7596     1  0.0000000  0.6508444  3
   7591   7590   7593   7594     1  0.0000000  0.6508444  3
   7591   7590   7593   7595     1  0.0000000  0.6508444  3
   7591   7590   7599   7600     1  0.0000000  0.6508444  3
   7591   7590   7599   7601     1  0.0000000  0.6508444  3
   7591   7590   7599   7603     1  0.0000000  0.6508444  3
   7592   7590   7593   7596     1  0.0000000  0.6508444  3
   7592   7590   7593   7594     1  0.0000000  0.6508444  3
   7592   7590   7593   7595     1  0.0000000  0.6508444  3
   7592   7590   7599   7600     1  0.0000000  0.6508444  3
   7592   7590   7599   7601     1  0.0000000  0.6508444  3
   7592   7590   7599   7603     1  0.0000000  0.6508444  3
   7593   7590   7599   7600     1  0.0000000  0.6508444  3
   7593   7590   7599   7601     1  0.0000000  0.6508444  3
   7593   7590   7599   7603     1  0.0000000  0.6508444  3
   7594   7593   7596   7602     1  0.0000000  1.0460000  1
   7594   7593   7596   7602     1  0.0000000  0.0000000  3
   7594   7593   7596   7597     1  0.0000000  0.6508444  3
   7594   7593   7596   7598     1  0.0000000  0.6508444  3
   7594   7593   7590   7599     1  0.0000000  0.6508444  3
   7595   7593   7596   7602     1  0.0000000  1.0460000  1
   7595   7593   7596   7602     1  0.0000000  0.0000000  3
   7595   7593   7596   7597     1  0.0000000  0.6508444  3
   7595   7593   7596   7598     1  0.0000000  0.6508444  3
   7595   7593   7590   7599     1  0.0000000  0.6508444  3
   7604   7607   7610   7611     1  0.0000000  0.6508444  3
   7604   7607   7610   7612     1  0.0000000  0.6508444  3
   7605   7604   7607   7610     1  0.0000000  0.6508444  3
   7605   7604   7607   7608     1  0.0000000  0.6508444  3
   7605   7604   7607   7609     1  0.0000000  0.6508444  3
   7605   7604   7613   7614     1  0.0000000  0.6508444  3
   7605   7604   7613   7615     1  0.0000000  0.6508444  3
   7605   7604   7613   7617     1  0.0000000  0.6508444  3
   7606   7604   7607   7610     1  0.0000000  0.6508444  3
   7606   7604   7607   7608     1  0.0000000  0.6508444  3
   7606   7604   7607   7609     1  0.0000000  0.6508444  3
   7606   7604   7613   7614     1  0.0000000  0.6508444  3
   7606   7604   7613   7615     1  0.0000000  0.6508444  3
   7606   7604   7613   7617     1  0.0000000  0.6508444  3
   7607   7604   7613   7614     1  0.0000000  0.6508444  3
   7607   7604   7613   7615     1  0.0000000  0.6508444  3
   7607   7604   7613   7617     1  0.0000000  0.6508444  3
   7608   7607   7604   7613     1  0.0000000  0.6508444  3
   7608   7607   7610   7616     1  0.0000000  1.0460000  1
   7608   7607   7610   7616     1  0.0000000  0.0000000  3
   7608   7607   7610   7611     1  0.0000000  0.6508444  3
   7608   7607   7610   7612     1  0.0000000  0.6508444  3
   7609   7607   7604   7613     1  0.0000000  0.6508444  3
   7609   7607   7610   7616     1  0.0000000  1.0460000  1
   7609   7607   7610   7616     1  0.0000000  0.0000000  3
   7609   7607   7610   7611     1  0.0000000  0.6508444  3
   7609   7607   7610   7612     1  0.0000000  0.6508444  3
   7618   7621   7624   7625     1  0.0000000  0.6508444  3
   7618   7621   7624   7626     1  0.0000000  0.6508444  3
   7619   7618   7621   7624     1  0.0000000  0.6508444  3
   7619   7618   7621   7622     1  0.0000000  0.6508444  3
   7619   7618   7621   7623     1  0.0000000  0.6508444  3
   7619   7618   7627   7628     1  0.0000000  0.6508444  3
   7619   7618   7627   7629     1  0.0000000  0.6508444  3
   7619   7618   7627   7631     1  0.0000000  0.6508444  3
   7620   7618   7621   7624     1  0.0000000  0.6508444  3
   7620   7618   7621   7622     1  0.0000000  0.6508444  3
   7620   7618   7621   7623     1  0.0000000  0.6508444  3
   7620   7618   7627   7628     1  0.0000000  0.6508444  3
   7620   7618   7627   7629     1  0.0000000  0.6508444  3
   7620   7618   7627   7631     1  0.0000000  0.6508444  3
   7621   7618   7627   7628     1  0.0000000  0.6508444  3
   7621   7618   7627   7629     1  0.0000000  0.6508444  3
   7621   7618   7627   7631     1  0.0000000  0.6508444  3
   7622   7621   7624   7630     1  0.0000000  1.0460000  1
   7622   7621   7624   7630     1  0.0000000  0.0000000  3
   7622   7621   7624   7625     1  0.0000000  0.6508444  3
   7622   7621   7624   7626     1  0.0000000  0.6508444  3
   7622   7621   7618   7627     1  0.0000000  0.6508444  3
   7623   7621   7624   7630     1  0.0000000  1.0460000  1
   7623   7621   7624   7630     1  0.0000000  0.0000000  3
   7623   7621   7624   7625     1  0.0000000  0.6508444  3
   7623   7621   7624   7626     1  0.0000000  0.6508444  3
   7623   7621   7618   7627     1  0.0000000  0.6508444  3
   7632   7635   7638   7639     1  0.0000000  0.6508444  3
   7632   7635   7638   7640     1  0.0000000  0.6508444  3
   7633   7632   7635   7638     1  0.0000000  0.6508444  3
   7633   7632   7635   7636     1  0.0000000  0.6508444  3
   7633   7632   7635   7637     1  0.0000000  0.6508444  3
   7633   7632   7641   7642     1  0.0000000  0.6508444  3
   7633   7632   7641   7643     1  0.0000000  0.6508444  3
   7633   7632   7641   7645     1  0.0000000  0.6508444  3
   7634   7632   7635   7638     1  0.0000000  0.6508444  3
   7634   7632   7635   7636     1  0.0000000  0.6508444  3
   7634   7632   7635   7637     1  0.0000000  0.6508444  3
   7634   7632   7641   7642     1  0.0000000  0.6508444  3
   7634   7632   7641   7643     1  0.0000000  0.6508444  3
   7634   7632   7641   7645     1  0.0000000  0.6508444  3
   7635   7632   7641   7642     1  0.0000000  0.6508444  3
   7635   7632   7641   7643     1  0.0000000  0.6508444  3
   7635   7632   7641   7645     1  0.0000000  0.6508444  3
   7636   7635   7632   7641     1  0.0000000  0.6508444  3
   7636   7635   7638   7644     1  0.0000000  1.0460000  1
   7636   7635   7638   7644     1  0.0000000  0.0000000  3
   7636   7635   7638   7639     1  0.0000000  0.6508444  3
   7636   7635   7638   7640     1  0.0000000  0.6508444  3
   7637   7635   7632   7641     1  0.0000000  0.6508444  3
   7637   7635   7638   7644     1  0.0000000  1.0460000  1
   7637   7635   7638   7644     1  0.0000000  0.0000000  3
   7637   7635   7638   7639     1  0.0000000  0.6508444  3
   7637   7635   7638   7640     1  0.0000000  0.6508444  3
   7646   7649   7652   7653     1  0.0000000  0.6508444  3
   7646   7649   7652   7654     1  0.0000000  0.6508444  3
   7647   7646   7649   7652     1  0.0000000  0.6508444  3
   7647   7646   7649   7650     1  0.0000000  0.6508444  3
   7647   7646   7649   7651     1  0.0000000  0.6508444  3
   7647   7646   7655   7656     1  0.0000000  0.6508444  3
   7647   7646   7655   7657     1  0.0000000  0.6508444  3
   7647   7646   7655   7659     1  0.0000000  0.6508444  3
   7648   7646   7649   7652     1  0.0000000  0.6508444  3
   7648   7646   7649   7650     1  0.0000000  0.6508444  3
   7648   7646   7649   7651     1  0.0000000  0.6508444  3
   7648   7646   7655   7656     1  0.0000000  0.6508444  3
   7648   7646   7655   7657     1  0.0000000  0.6508444  3
   7648   7646   7655   7659     1  0.0000000  0.6508444  3
   7649   7646   7655   7656     1  0.0000000  0.6508444  3
   7649   7646   7655   7657     1  0.0000000  0.6508444  3
   7649   7646   7655   7659     1  0.0000000  0.6508444  3
   7650   7649   7652   7658     1  0.0000000  1.0460000  1
   7650   7649   7652   7658     1  0.0000000  0.0000000  3
   7650   7649   7652   7653     1  0.0000000  0.6508444  3
   7650   7649   7652   7654     1  0.0000000  0.6508444  3
   7650   7649   7646   7655     1  0.0000000  0.6508444  3
   7651   7649   7652   7658     1  0.0000000  1.0460000  1
   7651   7649   7652   7658     1  0.0000000  0.0000000  3
   7651   7649   7652   7653     1  0.0000000  0.6508444  3
   7651   7649   7652   7654     1  0.0000000  0.6508444  3
   7651   7649   7646   7655     1  0.0000000  0.6508444  3
   7660   7663   7666   7667     1  0.0000000  0.6508444  3
   7660   7663   7666   7668     1  0.0000000  0.6508444  3
   7661   7660   7663   7666     1  0.0000000  0.6508444  3
   7661   7660   7663   7664     1  0.0000000  0.6508444  3
   7661   7660   7663   7665     1  0.0000000  0.6508444  3
   7661   7660   7669   7670     1  0.0000000  0.6508444  3
   7661   7660   7669   7671     1  0.0000000  0.6508444  3
   7661   7660   7669   7673     1  0.0000000  0.6508444  3
   7662   7660   7663   7666     1  0.0000000  0.6508444  3
   7662   7660   7663   7664     1  0.0000000  0.6508444  3
   7662   7660   7663   7665     1  0.0000000  0.6508444  3
   7662   7660   7669   7670     1  0.0000000  0.6508444  3
   7662   7660   7669   7671     1  0.0000000  0.6508444  3
   7662   7660   7669   7673     1  0.0000000  0.6508444  3
   7663   7660   7669   7670     1  0.0000000  0.6508444  3
   7663   7660   7669   7671     1  0.0000000  0.6508444  3
   7663   7660   7669   7673     1  0.0000000  0.6508444  3
   7664   7663   7660   7669     1  0.0000000  0.6508444  3
   7664   7663   7666   7672     1  0.0000000  1.0460000  1
   7664   7663   7666   7672     1  0.0000000  0.0000000  3
   7664   7663   7666   7667     1  0.0000000  0.6508444  3
   7664   7663   7666   7668     1  0.0000000  0.6508444  3
   7665   7663   7660   7669     1  0.0000000  0.6508444  3
   7665   7663   7666   7672     1  0.0000000  1.0460000  1
   7665   7663   7666   7672     1  0.0000000  0.0000000  3
   7665   7663   7666   7667     1  0.0000000  0.6508444  3
   7665   7663   7666   7668     1  0.0000000  0.6508444  3
   7674   7677   7680   7681     1  0.0000000  0.6508444  3
   7674   7677   7680   7682     1  0.0000000  0.6508444  3
   7675   7674   7677   7680     1  0.0000000  0.6508444  3
   7675   7674   7677   7678     1  0.0000000  0.6508444  3
   7675   7674   7677   7679     1  0.0000000  0.6508444  3
   7675   7674   7683   7684     1  0.0000000  0.6508444  3
   7675   7674   7683   7685     1  0.0000000  0.6508444  3
   7675   7674   7683   7687     1  0.0000000  0.6508444  3
   7676   7674   7677   7680     1  0.0000000  0.6508444  3
   7676   7674   7677   7678     1  0.0000000  0.6508444  3
   7676   7674   7677   7679     1  0.0000000  0.6508444  3
   7676   7674   7683   7684     1  0.0000000  0.6508444  3
   7676   7674   7683   7685     1  0.0000000  0.6508444  3
   7676   7674   7683   7687     1  0.0000000  0.6508444  3
   7677   7674   7683   7684     1  0.0000000  0.6508444  3
   7677   7674   7683   7685     1  0.0000000  0.6508444  3
   7677   7674   7683   7687     1  0.0000000  0.6508444  3
   7678   7677   7680   7686     1  0.0000000  1.0460000  1
   7678   7677   7680   7686     1  0.0000000  0.0000000  3
   7678   7677   7680   7681     1  0.0000000  0.6508444  3
   7678   7677   7680   7682     1  0.0000000  0.6508444  3
   7678   7677   7674   7683     1  0.0000000  0.6508444  3
   7679   7677   7680   7686     1  0.0000000  1.0460000  1
   7679   7677   7680   7686     1  0.0000000  0.0000000  3
   7679   7677   7680   7681     1  0.0000000  0.6508444  3
   7679   7677   7680   7682     1  0.0000000  0.6508444  3
   7679   7677   7674   7683     1  0.0000000  0.6508444  3
   7688   7691   7694   7695     1  0.0000000  0.6508444  3
   7688   7691   7694   7696     1  0.0000000  0.6508444  3
   7689   7688   7691   7694     1  0.0000000  0.6508444  3
   7689   7688   7691   7692     1  0.0000000  0.6508444  3
   7689   7688   7691   7693     1  0.0000000  0.6508444  3
   7689   7688   7697   7698     1  0.0000000  0.6508444  3
   7689   7688   7697   7699     1  0.0000000  0.6508444  3
   7689   7688   7697   7701     1  0.0000000  0.6508444  3
   7690   7688   7691   7694     1  0.0000000  0.6508444  3
   7690   7688   7691   7692     1  0.0000000  0.6508444  3
   7690   7688   7691   7693     1  0.0000000  0.6508444  3
   7690   7688   7697   7698     1  0.0000000  0.6508444  3
   7690   7688   7697   7699     1  0.0000000  0.6508444  3
   7690   7688   7697   7701     1  0.0000000  0.6508444  3
   7691   7688   7697   7698     1  0.0000000  0.6508444  3
   7691   7688   7697   7699     1  0.0000000  0.6508444  3
   7691   7688   7697   7701     1  0.0000000  0.6508444  3
   7692   7691   7688   7697     1  0.0000000  0.6508444  3
   7692   7691   7694   7700     1  0.0000000  1.0460000  1
   7692   7691   7694   7700     1  0.0000000  0.0000000  3
   7692   7691   7694   7695     1  0.0000000  0.6508444  3
   7692   7691   7694   7696     1  0.0000000  0.6508444  3
   7693   7691   7688   7697     1  0.0000000  0.6508444  3
   7693   7691   7694   7700     1  0.0000000  1.0460000  1
   7693   7691   7694   7700     1  0.0000000  0.0000000  3
   7693   7691   7694   7695     1  0.0000000  0.6508444  3
   7693   7691   7694   7696     1  0.0000000  0.6508444  3
   7702   7705   7708   7709     1  0.0000000  0.6508444  3
   7702   7705   7708   7710     1  0.0000000  0.6508444  3
   7703   7702   7705   7708     1  0.0000000  0.6508444  3
   7703   7702   7705   7706     1  0.0000000  0.6508444  3
   7703   7702   7705   7707     1  0.0000000  0.6508444  3
   7703   7702   7711   7712     1  0.0000000  0.6508444  3
   7703   7702   7711   7713     1  0.0000000  0.6508444  3
   7703   7702   7711   7715     1  0.0000000  0.6508444  3
   7704   7702   7705   7708     1  0.0000000  0.6508444  3
   7704   7702   7705   7706     1  0.0000000  0.6508444  3
   7704   7702   7705   7707     1  0.0000000  0.6508444  3
   7704   7702   7711   7712     1  0.0000000  0.6508444  3
   7704   7702   7711   7713     1  0.0000000  0.6508444  3
   7704   7702   7711   7715     1  0.0000000  0.6508444  3
   7705   7702   7711   7712     1  0.0000000  0.6508444  3
   7705   7702   7711   7713     1  0.0000000  0.6508444  3
   7705   7702   7711   7715     1  0.0000000  0.6508444  3
   7706   7705   7708   7714     1  0.0000000  1.0460000  1
   7706   7705   7708   7714     1  0.0000000  0.0000000  3
   7706   7705   7708   7709     1  0.0000000  0.6508444  3
   7706   7705   7708   7710     1  0.0000000  0.6508444  3
   7706   7705   7702   7711     1  0.0000000  0.6508444  3
   7707   7705   7708   7714     1  0.0000000  1.0460000  1
   7707   7705   7708   7714     1  0.0000000  0.0000000  3
   7707   7705   7708   7709     1  0.0000000  0.6508444  3
   7707   7705   7708   7710     1  0.0000000  0.6508444  3
   7707   7705   7702   7711     1  0.0000000  0.6508444  3
   7716   7719   7722   7723     1  0.0000000  0.6508444  3
   7716   7719   7722   7724     1  0.0000000  0.6508444  3
   7717   7716   7719   7722     1  0.0000000  0.6508444  3
   7717   7716   7719   7720     1  0.0000000  0.6508444  3
   7717   7716   7719   7721     1  0.0000000  0.6508444  3
   7717   7716   7725   7726     1  0.0000000  0.6508444  3
   7717   7716   7725   7727     1  0.0000000  0.6508444  3
   7717   7716   7725   7729     1  0.0000000  0.6508444  3
   7718   7716   7719   7722     1  0.0000000  0.6508444  3
   7718   7716   7719   7720     1  0.0000000  0.6508444  3
   7718   7716   7719   7721     1  0.0000000  0.6508444  3
   7718   7716   7725   7726     1  0.0000000  0.6508444  3
   7718   7716   7725   7727     1  0.0000000  0.6508444  3
   7718   7716   7725   7729     1  0.0000000  0.6508444  3
   7719   7716   7725   7726     1  0.0000000  0.6508444  3
   7719   7716   7725   7727     1  0.0000000  0.6508444  3
   7719   7716   7725   7729     1  0.0000000  0.6508444  3
   7720   7719   7716   7725     1  0.0000000  0.6508444  3
   7720   7719   7722   7728     1  0.0000000  1.0460000  1
   7720   7719   7722   7728     1  0.0000000  0.0000000  3
   7720   7719   7722   7723     1  0.0000000  0.6508444  3
   7720   7719   7722   7724     1  0.0000000  0.6508444  3
   7721   7719   7716   7725     1  0.0000000  0.6508444  3
   7721   7719   7722   7728     1  0.0000000  1.0460000  1
   7721   7719   7722   7728     1  0.0000000  0.0000000  3
   7721   7719   7722   7723     1  0.0000000  0.6508444  3
   7721   7719   7722   7724     1  0.0000000  0.6508444  3
   7730   7733   7736   7737     1  0.0000000  0.6508444  3
   7730   7733   7736   7738     1  0.0000000  0.6508444  3
   7731   7730   7733   7736     1  0.0000000  0.6508444  3
   7731   7730   7733   7734     1  0.0000000  0.6508444  3
   7731   7730   7733   7735     1  0.0000000  0.6508444  3
   7731   7730   7739   7740     1  0.0000000  0.6508444  3
   7731   7730   7739   7741     1  0.0000000  0.6508444  3
   7731   7730   7739   7743     1  0.0000000  0.6508444  3
   7732   7730   7733   7736     1  0.0000000  0.6508444  3
   7732   7730   7733   7734     1  0.0000000  0.6508444  3
   7732   7730   7733   7735     1  0.0000000  0.6508444  3
   7732   7730   7739   7740     1  0.0000000  0.6508444  3
   7732   7730   7739   7741     1  0.0000000  0.6508444  3
   7732   7730   7739   7743     1  0.0000000  0.6508444  3
   7733   7730   7739   7740     1  0.0000000  0.6508444  3
   7733   7730   7739   7741     1  0.0000000  0.6508444  3
   7733   7730   7739   7743     1  0.0000000  0.6508444  3
   7734   7733   7736   7742     1  0.0000000  1.0460000  1
   7734   7733   7736   7742     1  0.0000000  0.0000000  3
   7734   7733   7736   7737     1  0.0000000  0.6508444  3
   7734   7733   7736   7738     1  0.0000000  0.6508444  3
   7734   7733   7730   7739     1  0.0000000  0.6508444  3
   7735   7733   7736   7742     1  0.0000000  1.0460000  1
   7735   7733   7736   7742     1  0.0000000  0.0000000  3
   7735   7733   7736   7737     1  0.0000000  0.6508444  3
   7735   7733   7736   7738     1  0.0000000  0.6508444  3
   7735   7733   7730   7739     1  0.0000000  0.6508444  3
   7744   7747   7750   7751     1  0.0000000  0.6508444  3
   7744   7747   7750   7752     1  0.0000000  0.6508444  3
   7745   7744   7747   7750     1  0.0000000  0.6508444  3
   7745   7744   7747   7748     1  0.0000000  0.6508444  3
   7745   7744   7747   7749     1  0.0000000  0.6508444  3
   7745   7744   7753   7754     1  0.0000000  0.6508444  3
   7745   7744   7753   7755     1  0.0000000  0.6508444  3
   7745   7744   7753   7757     1  0.0000000  0.6508444  3
   7746   7744   7747   7750     1  0.0000000  0.6508444  3
   7746   7744   7747   7748     1  0.0000000  0.6508444  3
   7746   7744   7747   7749     1  0.0000000  0.6508444  3
   7746   7744   7753   7754     1  0.0000000  0.6508444  3
   7746   7744   7753   7755     1  0.0000000  0.6508444  3
   7746   7744   7753   7757     1  0.0000000  0.6508444  3
   7747   7744   7753   7754     1  0.0000000  0.6508444  3
   7747   7744   7753   7755     1  0.0000000  0.6508444  3
   7747   7744   7753   7757     1  0.0000000  0.6508444  3
   7748   7747   7744   7753     1  0.0000000  0.6508444  3
   7748   7747   7750   7756     1  0.0000000  1.0460000  1
   7748   7747   7750   7756     1  0.0000000  0.0000000  3
   7748   7747   7750   7751     1  0.0000000  0.6508444  3
   7748   7747   7750   7752     1  0.0000000  0.6508444  3
   7749   7747   7744   7753     1  0.0000000  0.6508444  3
   7749   7747   7750   7756     1  0.0000000  1.0460000  1
   7749   7747   7750   7756     1  0.0000000  0.0000000  3
   7749   7747   7750   7751     1  0.0000000  0.6508444  3
   7749   7747   7750   7752     1  0.0000000  0.6508444  3
   7758   7761   7764   7765     1  0.0000000  0.6508444  3
   7758   7761   7764   7766     1  0.0000000  0.6508444  3
   7759   7758   7761   7764     1  0.0000000  0.6508444  3
   7759   7758   7761   7762     1  0.0000000  0.6508444  3
   7759   7758   7761   7763     1  0.0000000  0.6508444  3
   7759   7758   7767   7768     1  0.0000000  0.6508444  3
   7759   7758   7767   7769     1  0.0000000  0.6508444  3
   7759   7758   7767   7771     1  0.0000000  0.6508444  3
   7760   7758   7761   7764     1  0.0000000  0.6508444  3
   7760   7758   7761   7762     1  0.0000000  0.6508444  3
   7760   7758   7761   7763     1  0.0000000  0.6508444  3
   7760   7758   7767   7768     1  0.0000000  0.6508444  3
   7760   7758   7767   7769     1  0.0000000  0.6508444  3
   7760   7758   7767   7771     1  0.0000000  0.6508444  3
   7761   7758   7767   7768     1  0.0000000  0.6508444  3
   7761   7758   7767   7769     1  0.0000000  0.6508444  3
   7761   7758   7767   7771     1  0.0000000  0.6508444  3
   7762   7761   7764   7770     1  0.0000000  1.0460000  1
   7762   7761   7764   7770     1  0.0000000  0.0000000  3
   7762   7761   7764   7765     1  0.0000000  0.6508444  3
   7762   7761   7764   7766     1  0.0000000  0.6508444  3
   7762   7761   7758   7767     1  0.0000000  0.6508444  3
   7763   7761   7764   7770     1  0.0000000  1.0460000  1
   7763   7761   7764   7770     1  0.0000000  0.0000000  3
   7763   7761   7764   7765     1  0.0000000  0.6508444  3
   7763   7761   7764   7766     1  0.0000000  0.6508444  3
   7763   7761   7758   7767     1  0.0000000  0.6508444  3
   7772   7775   7778   7779     1  0.0000000  0.6508444  3
   7772   7775   7778   7780     1  0.0000000  0.6508444  3
   7773   7772   7775   7778     1  0.0000000  0.6508444  3
   7773   7772   7775   7776     1  0.0000000  0.6508444  3
   7773   7772   7775   7777     1  0.0000000  0.6508444  3
   7773   7772   7781   7782     1  0.0000000  0.6508444  3
   7773   7772   7781   7783     1  0.0000000  0.6508444  3
   7773   7772   7781   7785     1  0.0000000  0.6508444  3
   7774   7772   7775   7778     1  0.0000000  0.6508444  3
   7774   7772   7775   7776     1  0.0000000  0.6508444  3
   7774   7772   7775   7777     1  0.0000000  0.6508444  3
   7774   7772   7781   7782     1  0.0000000  0.6508444  3
   7774   7772   7781   7783     1  0.0000000  0.6508444  3
   7774   7772   7781   7785     1  0.0000000  0.6508444  3
   7775   7772   7781   7782     1  0.0000000  0.6508444  3
   7775   7772   7781   7783     1  0.0000000  0.6508444  3
   7775   7772   7781   7785     1  0.0000000  0.6508444  3
   7776   7775   7772   7781     1  0.0000000  0.6508444  3
   7776   7775   7778   7784     1  0.0000000  1.0460000  1
   7776   7775   7778   7784     1  0.0000000  0.0000000  3
   7776   7775   7778   7779     1  0.0000000  0.6508444  3
   7776   7775   7778   7780     1  0.0000000  0.6508444  3
   7777   7775   7772   7781     1  0.0000000  0.6508444  3
   7777   7775   7778   7784     1  0.0000000  1.0460000  1
   7777   7775   7778   7784     1  0.0000000  0.0000000  3
   7777   7775   7778   7779     1  0.0000000  0.6508444  3
   7777   7775   7778   7780     1  0.0000000  0.6508444  3
   7786   7789   7792   7793     1  0.0000000  0.6508444  3
   7786   7789   7792   7794     1  0.0000000  0.6508444  3
   7787   7786   7789   7792     1  0.0000000  0.6508444  3
   7787   7786   7789   7790     1  0.0000000  0.6508444  3
   7787   7786   7789   7791     1  0.0000000  0.6508444  3
   7787   7786   7795   7796     1  0.0000000  0.6508444  3
   7787   7786   7795   7797     1  0.0000000  0.6508444  3
   7787   7786   7795   7799     1  0.0000000  0.6508444  3
   7788   7786   7789   7792     1  0.0000000  0.6508444  3
   7788   7786   7789   7790     1  0.0000000  0.6508444  3
   7788   7786   7789   7791     1  0.0000000  0.6508444  3
   7788   7786   7795   7796     1  0.0000000  0.6508444  3
   7788   7786   7795   7797     1  0.0000000  0.6508444  3
   7788   7786   7795   7799     1  0.0000000  0.6508444  3
   7789   7786   7795   7796     1  0.0000000  0.6508444  3
   7789   7786   7795   7797     1  0.0000000  0.6508444  3
   7789   7786   7795   7799     1  0.0000000  0.6508444  3
   7790   7789   7792   7798     1  0.0000000  1.0460000  1
   7790   7789   7792   7798     1  0.0000000  0.0000000  3
   7790   7789   7792   7793     1  0.0000000  0.6508444  3
   7790   7789   7792   7794     1  0.0000000  0.6508444  3
   7790   7789   7786   7795     1  0.0000000  0.6508444  3
   7791   7789   7792   7798     1  0.0000000  1.0460000  1
   7791   7789   7792   7798     1  0.0000000  0.0000000  3
   7791   7789   7792   7793     1  0.0000000  0.6508444  3
   7791   7789   7792   7794     1  0.0000000  0.6508444  3
   7791   7789   7786   7795     1  0.0000000  0.6508444  3
   7800   7803   7806   7807     1  0.0000000  0.6508444  3
   7800   7803   7806   7808     1  0.0000000  0.6508444  3
   7801   7800   7803   7806     1  0.0000000  0.6508444  3
   7801   7800   7803   7804     1  0.0000000  0.6508444  3
   7801   7800   7803   7805     1  0.0000000  0.6508444  3
   7801   7800   7809   7810     1  0.0000000  0.6508444  3
   7801   7800   7809   7811     1  0.0000000  0.6508444  3
   7801   7800   7809   7813     1  0.0000000  0.6508444  3
   7802   7800   7803   7806     1  0.0000000  0.6508444  3
   7802   7800   7803   7804     1  0.0000000  0.6508444  3
   7802   7800   7803   7805     1  0.0000000  0.6508444  3
   7802   7800   7809   7810     1  0.0000000  0.6508444  3
   7802   7800   7809   7811     1  0.0000000  0.6508444  3
   7802   7800   7809   7813     1  0.0000000  0.6508444  3
   7803   7800   7809   7810     1  0.0000000  0.6508444  3
   7803   7800   7809   7811     1  0.0000000  0.6508444  3
   7803   7800   7809   7813     1  0.0000000  0.6508444  3
   7804   7803   7800   7809     1  0.0000000  0.6508444  3
   7804   7803   7806   7812     1  0.0000000  1.0460000  1
   7804   7803   7806   7812     1  0.0000000  0.0000000  3
   7804   7803   7806   7807     1  0.0000000  0.6508444  3
   7804   7803   7806   7808     1  0.0000000  0.6508444  3
   7805   7803   7800   7809     1  0.0000000  0.6508444  3
   7805   7803   7806   7812     1  0.0000000  1.0460000  1
   7805   7803   7806   7812     1  0.0000000  0.0000000  3
   7805   7803   7806   7807     1  0.0000000  0.6508444  3
   7805   7803   7806   7808     1  0.0000000  0.6508444  3
   7814   7817   7820   7821     1  0.0000000  0.6508444  3
   7814   7817   7820   7822     1  0.0000000  0.6508444  3
   7815   7814   7817   7820     1  0.0000000  0.6508444  3
   7815   7814   7817   7818     1  0.0000000  0.6508444  3
   7815   7814   7817   7819     1  0.0000000  0.6508444  3
   7815   7814   7823   7824     1  0.0000000  0.6508444  3
   7815   7814   7823   7825     1  0.0000000  0.6508444  3
   7815   7814   7823   7827     1  0.0000000  0.6508444  3
   7816   7814   7817   7820     1  0.0000000  0.6508444  3
   7816   7814   7817   7818     1  0.0000000  0.6508444  3
   7816   7814   7817   7819     1  0.0000000  0.6508444  3
   7816   7814   7823   7824     1  0.0000000  0.6508444  3
   7816   7814   7823   7825     1  0.0000000  0.6508444  3
   7816   7814   7823   7827     1  0.0000000  0.6508444  3
   7817   7814   7823   7824     1  0.0000000  0.6508444  3
   7817   7814   7823   7825     1  0.0000000  0.6508444  3
   7817   7814   7823   7827     1  0.0000000  0.6508444  3
   7818   7817   7820   7826     1  0.0000000  1.0460000  1
   7818   7817   7820   7826     1  0.0000000  0.0000000  3
   7818   7817   7820   7821     1  0.0000000  0.6508444  3
   7818   7817   7820   7822     1  0.0000000  0.6508444  3
   7818   7817   7814   7823     1  0.0000000  0.6508444  3
   7819   7817   7820   7826     1  0.0000000  1.0460000  1
   7819   7817   7820   7826     1  0.0000000  0.0000000  3
   7819   7817   7820   7821     1  0.0000000  0.6508444  3
   7819   7817   7820   7822     1  0.0000000  0.6508444  3
   7819   7817   7814   7823     1  0.0000000  0.6508444  3
   7828   7831   7834   7835     1  0.0000000  0.6508444  3
   7828   7831   7834   7836     1  0.0000000  0.6508444  3
   7829   7828   7831   7834     1  0.0000000  0.6508444  3
   7829   7828   7831   7832     1  0.0000000  0.6508444  3
   7829   7828   7831   7833     1  0.0000000  0.6508444  3
   7829   7828   7837   7838     1  0.0000000  0.6508444  3
   7829   7828   7837   7839     1  0.0000000  0.6508444  3
   7829   7828   7837   7841     1  0.0000000  0.6508444  3
   7830   7828   7831   7834     1  0.0000000  0.6508444  3
   7830   7828   7831   7832     1  0.0000000  0.6508444  3
   7830   7828   7831   7833     1  0.0000000  0.6508444  3
   7830   7828   7837   7838     1  0.0000000  0.6508444  3
   7830   7828   7837   7839     1  0.0000000  0.6508444  3
   7830   7828   7837   7841     1  0.0000000  0.6508444  3
   7831   7828   7837   7838     1  0.0000000  0.6508444  3
   7831   7828   7837   7839     1  0.0000000  0.6508444  3
   7831   7828   7837   7841     1  0.0000000  0.6508444  3
   7832   7831   7828   7837     1  0.0000000  0.6508444  3
   7832   7831   7834   7840     1  0.0000000  1.0460000  1
   7832   7831   7834   7840     1  0.0000000  0.0000000  3
   7832   7831   7834   7835     1  0.0000000  0.6508444  3
   7832   7831   7834   7836     1  0.0000000  0.6508444  3
   7833   7831   7828   7837     1  0.0000000  0.6508444  3
   7833   7831   7834   7840     1  0.0000000  1.0460000  1
   7833   7831   7834   7840     1  0.0000000  0.0000000  3
   7833   7831   7834   7835     1  0.0000000  0.6508444  3
   7833   7831   7834   7836     1  0.0000000  0.6508444  3
   7842   7845   7848   7849     1  0.0000000  0.6508444  3
   7842   7845   7848   7850     1  0.0000000  0.6508444  3
   7843   7842   7845   7848     1  0.0000000  0.6508444  3
   7843   7842   7845   7846     1  0.0000000  0.6508444  3
   7843   7842   7845   7847     1  0.0000000  0.6508444  3
   7843   7842   7851   7852     1  0.0000000  0.6508444  3
   7843   7842   7851   7853     1  0.0000000  0.6508444  3
   7843   7842   7851   7855     1  0.0000000  0.6508444  3
   7844   7842   7845   7848     1  0.0000000  0.6508444  3
   7844   7842   7845   7846     1  0.0000000  0.6508444  3
   7844   7842   7845   7847     1  0.0000000  0.6508444  3
   7844   7842   7851   7852     1  0.0000000  0.6508444  3
   7844   7842   7851   7853     1  0.0000000  0.6508444  3
   7844   7842   7851   7855     1  0.0000000  0.6508444  3
   7845   7842   7851   7852     1  0.0000000  0.6508444  3
   7845   7842   7851   7853     1  0.0000000  0.6508444  3
   7845   7842   7851   7855     1  0.0000000  0.6508444  3
   7846   7845   7848   7854     1  0.0000000  1.0460000  1
   7846   7845   7848   7854     1  0.0000000  0.0000000  3
   7846   7845   7848   7849     1  0.0000000  0.6508444  3
   7846   7845   7848   7850     1  0.0000000  0.6508444  3
   7846   7845   7842   7851     1  0.0000000  0.6508444  3
   7847   7845   7848   7854     1  0.0000000  1.0460000  1
   7847   7845   7848   7854     1  0.0000000  0.0000000  3
   7847   7845   7848   7849     1  0.0000000  0.6508444  3
   7847   7845   7848   7850     1  0.0000000  0.6508444  3
   7847   7845   7842   7851     1  0.0000000  0.6508444  3
   7856   7859   7862   7863     1  0.0000000  0.6508444  3
   7856   7859   7862   7864     1  0.0000000  0.6508444  3
   7857   7856   7859   7862     1  0.0000000  0.6508444  3
   7857   7856   7859   7860     1  0.0000000  0.6508444  3
   7857   7856   7859   7861     1  0.0000000  0.6508444  3
   7857   7856   7865   7866     1  0.0000000  0.6508444  3
   7857   7856   7865   7867     1  0.0000000  0.6508444  3
   7857   7856   7865   7869     1  0.0000000  0.6508444  3
   7858   7856   7859   7862     1  0.0000000  0.6508444  3
   7858   7856   7859   7860     1  0.0000000  0.6508444  3
   7858   7856   7859   7861     1  0.0000000  0.6508444  3
   7858   7856   7865   7866     1  0.0000000  0.6508444  3
   7858   7856   7865   7867     1  0.0000000  0.6508444  3
   7858   7856   7865   7869     1  0.0000000  0.6508444  3
   7859   7856   7865   7866     1  0.0000000  0.6508444  3
   7859   7856   7865   7867     1  0.0000000  0.6508444  3
   7859   7856   7865   7869     1  0.0000000  0.6508444  3
   7860   7859   7856   7865     1  0.0000000  0.6508444  3
   7860   7859   7862   7868     1  0.0000000  1.0460000  1
   7860   7859   7862   7868     1  0.0000000  0.0000000  3
   7860   7859   7862   7863     1  0.0000000  0.6508444  3
   7860   7859   7862   7864     1  0.0000000  0.6508444  3
   7861   7859   7856   7865     1  0.0000000  0.6508444  3
   7861   7859   7862   7868     1  0.0000000  1.0460000  1
   7861   7859   7862   7868     1  0.0000000  0.0000000  3
   7861   7859   7862   7863     1  0.0000000  0.6508444  3
   7861   7859   7862   7864     1  0.0000000  0.6508444  3
   7870   7873   7876   7877     1  0.0000000  0.6508444  3
   7870   7873   7876   7878     1  0.0000000  0.6508444  3
   7871   7870   7873   7876     1  0.0000000  0.6508444  3
   7871   7870   7873   7874     1  0.0000000  0.6508444  3
   7871   7870   7873   7875     1  0.0000000  0.6508444  3
   7871   7870   7879   7880     1  0.0000000  0.6508444  3
   7871   7870   7879   7881     1  0.0000000  0.6508444  3
   7871   7870   7879   7883     1  0.0000000  0.6508444  3
   7872   7870   7873   7876     1  0.0000000  0.6508444  3
   7872   7870   7873   7874     1  0.0000000  0.6508444  3
   7872   7870   7873   7875     1  0.0000000  0.6508444  3
   7872   7870   7879   7880     1  0.0000000  0.6508444  3
   7872   7870   7879   7881     1  0.0000000  0.6508444  3
   7872   7870   7879   7883     1  0.0000000  0.6508444  3
   7873   7870   7879   7880     1  0.0000000  0.6508444  3
   7873   7870   7879   7881     1  0.0000000  0.6508444  3
   7873   7870   7879   7883     1  0.0000000  0.6508444  3
   7874   7873   7876   7882     1  0.0000000  1.0460000  1
   7874   7873   7876   7882     1  0.0000000  0.0000000  3
   7874   7873   7876   7877     1  0.0000000  0.6508444  3
   7874   7873   7876   7878     1  0.0000000  0.6508444  3
   7874   7873   7870   7879     1  0.0000000  0.6508444  3
   7875   7873   7876   7882     1  0.0000000  1.0460000  1
   7875   7873   7876   7882     1  0.0000000  0.0000000  3
   7875   7873   7876   7877     1  0.0000000  0.6508444  3
   7875   7873   7876   7878     1  0.0000000  0.6508444  3
   7875   7873   7870   7879     1  0.0000000  0.6508444  3
   7884   7887   7890   7891     1  0.0000000  0.6508444  3
   7884   7887   7890   7892     1  0.0000000  0.6508444  3
   7885   7884   7887   7890     1  0.0000000  0.6508444  3
   7885   7884   7887   7888     1  0.0000000  0.6508444  3
   7885   7884   7887   7889     1  0.0000000  0.6508444  3
   7885   7884   7893   7894     1  0.0000000  0.6508444  3
   7885   7884   7893   7895     1  0.0000000  0.6508444  3
   7885   7884   7893   7897     1  0.0000000  0.6508444  3
   7886   7884   7887   7890     1  0.0000000  0.6508444  3
   7886   7884   7887   7888     1  0.0000000  0.6508444  3
   7886   7884   7887   7889     1  0.0000000  0.6508444  3
   7886   7884   7893   7894     1  0.0000000  0.6508444  3
   7886   7884   7893   7895     1  0.0000000  0.6508444  3
   7886   7884   7893   7897     1  0.0000000  0.6508444  3
   7887   7884   7893   7894     1  0.0000000  0.6508444  3
   7887   7884   7893   7895     1  0.0000000  0.6508444  3
   7887   7884   7893   7897     1  0.0000000  0.6508444  3
   7888   7887   7884   7893     1  0.0000000  0.6508444  3
   7888   7887   7890   7896     1  0.0000000  1.0460000  1
   7888   7887   7890   7896     1  0.0000000  0.0000000  3
   7888   7887   7890   7891     1  0.0000000  0.6508444  3
   7888   7887   7890   7892     1  0.0000000  0.6508444  3
   7889   7887   7884   7893     1  0.0000000  0.6508444  3
   7889   7887   7890   7896     1  0.0000000  1.0460000  1
   7889   7887   7890   7896     1  0.0000000  0.0000000  3
   7889   7887   7890   7891     1  0.0000000  0.6508444  3
   7889   7887   7890   7892     1  0.0000000  0.6508444  3
   7898   7901   7904   7905     1  0.0000000  0.6508444  3
   7898   7901   7904   7906     1  0.0000000  0.6508444  3
   7899   7898   7901   7904     1  0.0000000  0.6508444  3
   7899   7898   7901   7902     1  0.0000000  0.6508444  3
   7899   7898   7901   7903     1  0.0000000  0.6508444  3
   7899   7898   7907   7908     1  0.0000000  0.6508444  3
   7899   7898   7907   7909     1  0.0000000  0.6508444  3
   7899   7898   7907   7911     1  0.0000000  0.6508444  3
   7900   7898   7901   7904     1  0.0000000  0.6508444  3
   7900   7898   7901   7902     1  0.0000000  0.6508444  3
   7900   7898   7901   7903     1  0.0000000  0.6508444  3
   7900   7898   7907   7908     1  0.0000000  0.6508444  3
   7900   7898   7907   7909     1  0.0000000  0.6508444  3
   7900   7898   7907   7911     1  0.0000000  0.6508444  3
   7901   7898   7907   7908     1  0.0000000  0.6508444  3
   7901   7898   7907   7909     1  0.0000000  0.6508444  3
   7901   7898   7907   7911     1  0.0000000  0.6508444  3
   7902   7901   7904   7910     1  0.0000000  1.0460000  1
   7902   7901   7904   7910     1  0.0000000  0.0000000  3
   7902   7901   7904   7905     1  0.0000000  0.6508444  3
   7902   7901   7904   7906     1  0.0000000  0.6508444  3
   7902   7901   7898   7907     1  0.0000000  0.6508444  3
   7903   7901   7904   7910     1  0.0000000  1.0460000  1
   7903   7901   7904   7910     1  0.0000000  0.0000000  3
   7903   7901   7904   7905     1  0.0000000  0.6508444  3
   7903   7901   7904   7906     1  0.0000000  0.6508444  3
   7903   7901   7898   7907     1  0.0000000  0.6508444  3
   7912   7915   7918   7919     1  0.0000000  0.6508444  3
   7912   7915   7918   7920     1  0.0000000  0.6508444  3
   7913   7912   7915   7918     1  0.0000000  0.6508444  3
   7913   7912   7915   7916     1  0.0000000  0.6508444  3
   7913   7912   7915   7917     1  0.0000000  0.6508444  3
   7913   7912   7921   7922     1  0.0000000  0.6508444  3
   7913   7912   7921   7923     1  0.0000000  0.6508444  3
   7913   7912   7921   7925     1  0.0000000  0.6508444  3
   7914   7912   7915   7918     1  0.0000000  0.6508444  3
   7914   7912   7915   7916     1  0.0000000  0.6508444  3
   7914   7912   7915   7917     1  0.0000000  0.6508444  3
   7914   7912   7921   7922     1  0.0000000  0.6508444  3
   7914   7912   7921   7923     1  0.0000000  0.6508444  3
   7914   7912   7921   7925     1  0.0000000  0.6508444  3
   7915   7912   7921   7922     1  0.0000000  0.6508444  3
   7915   7912   7921   7923     1  0.0000000  0.6508444  3
   7915   7912   7921   7925     1  0.0000000  0.6508444  3
   7916   7915   7912   7921     1  0.0000000  0.6508444  3
   7916   7915   7918   7924     1  0.0000000  1.0460000  1
   7916   7915   7918   7924     1  0.0000000  0.0000000  3
   7916   7915   7918   7919     1  0.0000000  0.6508444  3
   7916   7915   7918   7920     1  0.0000000  0.6508444  3
   7917   7915   7912   7921     1  0.0000000  0.6508444  3
   7917   7915   7918   7924     1  0.0000000  1.0460000  1
   7917   7915   7918   7924     1  0.0000000  0.0000000  3
   7917   7915   7918   7919     1  0.0000000  0.6508444  3
   7917   7915   7918   7920     1  0.0000000  0.6508444  3
   7926   7929   7932   7933     1  0.0000000  0.6508444  3
   7926   7929   7932   7934     1  0.0000000  0.6508444  3
   7927   7926   7929   7932     1  0.0000000  0.6508444  3
   7927   7926   7929   7930     1  0.0000000  0.6508444  3
   7927   7926   7929   7931     1  0.0000000  0.6508444  3
   7927   7926   7935   7936     1  0.0000000  0.6508444  3
   7927   7926   7935   7937     1  0.0000000  0.6508444  3
   7927   7926   7935   7939     1  0.0000000  0.6508444  3
   7928   7926   7929   7932     1  0.0000000  0.6508444  3
   7928   7926   7929   7930     1  0.0000000  0.6508444  3
   7928   7926   7929   7931     1  0.0000000  0.6508444  3
   7928   7926   7935   7936     1  0.0000000  0.6508444  3
   7928   7926   7935   7937     1  0.0000000  0.6508444  3
   7928   7926   7935   7939     1  0.0000000  0.6508444  3
   7929   7926   7935   7936     1  0.0000000  0.6508444  3
   7929   7926   7935   7937     1  0.0000000  0.6508444  3
   7929   7926   7935   7939     1  0.0000000  0.6508444  3
   7930   7929   7932   7938     1  0.0000000  1.0460000  1
   7930   7929   7932   7938     1  0.0000000  0.0000000  3
   7930   7929   7932   7933     1  0.0000000  0.6508444  3
   7930   7929   7932   7934     1  0.0000000  0.6508444  3
   7930   7929   7926   7935     1  0.0000000  0.6508444  3
   7931   7929   7932   7938     1  0.0000000  1.0460000  1
   7931   7929   7932   7938     1  0.0000000  0.0000000  3
   7931   7929   7932   7933     1  0.0000000  0.6508444  3
   7931   7929   7932   7934     1  0.0000000  0.6508444  3
   7931   7929   7926   7935     1  0.0000000  0.6508444  3
   7940   7943   7946   7947     1  0.0000000  0.6508444  3
   7940   7943   7946   7948     1  0.0000000  0.6508444  3
   7941   7940   7943   7946     1  0.0000000  0.6508444  3
   7941   7940   7943   7944     1  0.0000000  0.6508444  3
   7941   7940   7943   7945     1  0.0000000  0.6508444  3
   7941   7940   7949   7950     1  0.0000000  0.6508444  3
   7941   7940   7949   7951     1  0.0000000  0.6508444  3
   7941   7940   7949   7953     1  0.0000000  0.6508444  3
   7942   7940   7943   7946     1  0.0000000  0.6508444  3
   7942   7940   7943   7944     1  0.0000000  0.6508444  3
   7942   7940   7943   7945     1  0.0000000  0.6508444  3
   7942   7940   7949   7950     1  0.0000000  0.6508444  3
   7942   7940   7949   7951     1  0.0000000  0.6508444  3
   7942   7940   7949   7953     1  0.0000000  0.6508444  3
   7943   7940   7949   7950     1  0.0000000  0.6508444  3
   7943   7940   7949   7951     1  0.0000000  0.6508444  3
   7943   7940   7949   7953     1  0.0000000  0.6508444  3
   7944   7943   7940   7949     1  0.0000000  0.6508444  3
   7944   7943   7946   7952     1  0.0000000  1.0460000  1
   7944   7943   7946   7952     1  0.0000000  0.0000000  3
   7944   7943   7946   7947     1  0.0000000  0.6508444  3
   7944   7943   7946   7948     1  0.0000000  0.6508444  3
   7945   7943   7940   7949     1  0.0000000  0.6508444  3
   7945   7943   7946   7952     1  0.0000000  1.0460000  1
   7945   7943   7946   7952     1  0.0000000  0.0000000  3
   7945   7943   7946   7947     1  0.0000000  0.6508444  3
   7945   7943   7946   7948     1  0.0000000  0.6508444  3
   7954   7957   7960   7961     1  0.0000000  0.6508444  3
   7954   7957   7960   7962     1  0.0000000  0.6508444  3
   7955   7954   7957   7960     1  0.0000000  0.6508444  3
   7955   7954   7957   7958     1  0.0000000  0.6508444  3
   7955   7954   7957   7959     1  0.0000000  0.6508444  3
   7955   7954   7963   7964     1  0.0000000  0.6508444  3
   7955   7954   7963   7965     1  0.0000000  0.6508444  3
   7955   7954   7963   7967     1  0.0000000  0.6508444  3
   7956   7954   7957   7960     1  0.0000000  0.6508444  3
   7956   7954   7957   7958     1  0.0000000  0.6508444  3
   7956   7954   7957   7959     1  0.0000000  0.6508444  3
   7956   7954   7963   7964     1  0.0000000  0.6508444  3
   7956   7954   7963   7965     1  0.0000000  0.6508444  3
   7956   7954   7963   7967     1  0.0000000  0.6508444  3
   7957   7954   7963   7964     1  0.0000000  0.6508444  3
   7957   7954   7963   7965     1  0.0000000  0.6508444  3
   7957   7954   7963   7967     1  0.0000000  0.6508444  3
   7958   7957   7960   7966     1  0.0000000  1.0460000  1
   7958   7957   7960   7966     1  0.0000000  0.0000000  3
   7958   7957   7960   7961     1  0.0000000  0.6508444  3
   7958   7957   7960   7962     1  0.0000000  0.6508444  3
   7958   7957   7954   7963     1  0.0000000  0.6508444  3
   7959   7957   7960   7966     1  0.0000000  1.0460000  1
   7959   7957   7960   7966     1  0.0000000  0.0000000  3
   7959   7957   7960   7961     1  0.0000000  0.6508444  3
   7959   7957   7960   7962     1  0.0000000  0.6508444  3
   7959   7957   7954   7963     1  0.0000000  0.6508444  3
   7968   7971   7974   7975     1  0.0000000  0.6508444  3
   7968   7971   7974   7976     1  0.0000000  0.6508444  3
   7969   7968   7971   7974     1  0.0000000  0.6508444  3
   7969   7968   7971   7972     1  0.0000000  0.6508444  3
   7969   7968   7971   7973     1  0.0000000  0.6508444  3
   7969   7968   7977   7978     1  0.0000000  0.6508444  3
   7969   7968   7977   7979     1  0.0000000  0.6508444  3
   7969   7968   7977   7981     1  0.0000000  0.6508444  3
   7970   7968   7971   7974     1  0.0000000  0.6508444  3
   7970   7968   7971   7972     1  0.0000000  0.6508444  3
   7970   7968   7971   7973     1  0.0000000  0.6508444  3
   7970   7968   7977   7978     1  0.0000000  0.6508444  3
   7970   7968   7977   7979     1  0.0000000  0.6508444  3
   7970   7968   7977   7981     1  0.0000000  0.6508444  3
   7971   7968   7977   7978     1  0.0000000  0.6508444  3
   7971   7968   7977   7979     1  0.0000000  0.6508444  3
   7971   7968   7977   7981     1  0.0000000  0.6508444  3
   7972   7971   7968   7977     1  0.0000000  0.6508444  3
   7972   7971   7974   7980     1  0.0000000  1.0460000  1
   7972   7971   7974   7980     1  0.0000000  0.0000000  3
   7972   7971   7974   7975     1  0.0000000  0.6508444  3
   7972   7971   7974   7976     1  0.0000000  0.6508444  3
   7973   7971   7968   7977     1  0.0000000  0.6508444  3
   7973   7971   7974   7980     1  0.0000000  1.0460000  1
   7973   7971   7974   7980     1  0.0000000  0.0000000  3
   7973   7971   7974   7975     1  0.0000000  0.6508444  3
   7973   7971   7974   7976     1  0.0000000  0.6508444  3
   7982   7985   7988   7989     1  0.0000000  0.6508444  3
   7982   7985   7988   7990     1  0.0000000  0.6508444  3
   7983   7982   7985   7988     1  0.0000000  0.6508444  3
   7983   7982   7985   7986     1  0.0000000  0.6508444  3
   7983   7982   7985   7987     1  0.0000000  0.6508444  3
   7983   7982   7991   7992     1  0.0000000  0.6508444  3
   7983   7982   7991   7993     1  0.0000000  0.6508444  3
   7983   7982   7991   7995     1  0.0000000  0.6508444  3
   7984   7982   7985   7988     1  0.0000000  0.6508444  3
   7984   7982   7985   7986     1  0.0000000  0.6508444  3
   7984   7982   7985   7987     1  0.0000000  0.6508444  3
   7984   7982   7991   7992     1  0.0000000  0.6508444  3
   7984   7982   7991   7993     1  0.0000000  0.6508444  3
   7984   7982   7991   7995     1  0.0000000  0.6508444  3
   7985   7982   7991   7992     1  0.0000000  0.6508444  3
   7985   7982   7991   7993     1  0.0000000  0.6508444  3
   7985   7982   7991   7995     1  0.0000000  0.6508444  3
   7986   7985   7988   7994     1  0.0000000  1.0460000  1
   7986   7985   7988   7994     1  0.0000000  0.0000000  3
   7986   7985   7988   7989     1  0.0000000  0.6508444  3
   7986   7985   7988   7990     1  0.0000000  0.6508444  3
   7986   7985   7982   7991     1  0.0000000  0.6508444  3
   7987   7985   7988   7994     1  0.0000000  1.0460000  1
   7987   7985   7988   7994     1  0.0000000  0.0000000  3
   7987   7985   7988   7989     1  0.0000000  0.6508444  3
   7987   7985   7988   7990     1  0.0000000  0.6508444  3
   7987   7985   7982   7991     1  0.0000000  0.6508444  3
   7996   7999   8002   8003     1  0.0000000  0.6508444  3
   7996   7999   8002   8004     1  0.0000000  0.6508444  3
   7997   7996   7999   8002     1  0.0000000  0.6508444  3
   7997   7996   7999   8000     1  0.0000000  0.6508444  3
   7997   7996   7999   8001     1  0.0000000  0.6508444  3
   7997   7996   8005   8006     1  0.0000000  0.6508444  3
   7997   7996   8005   8007     1  0.0000000  0.6508444  3
   7997   7996   8005   8009     1  0.0000000  0.6508444  3
   7998   7996   7999   8002     1  0.0000000  0.6508444  3
   7998   7996   7999   8000     1  0.0000000  0.6508444  3
   7998   7996   7999   8001     1  0.0000000  0.6508444  3
   7998   7996   8005   8006     1  0.0000000  0.6508444  3
   7998   7996   8005   8007     1  0.0000000  0.6508444  3
   7998   7996   8005   8009     1  0.0000000  0.6508444  3
   7999   7996   8005   8006     1  0.0000000  0.6508444  3
   7999   7996   8005   8007     1  0.0000000  0.6508444  3
   7999   7996   8005   8009     1  0.0000000  0.6508444  3
   8000   7999   7996   8005     1  0.0000000  0.6508444  3
   8000   7999   8002   8008     1  0.0000000  1.0460000  1
   8000   7999   8002   8008     1  0.0000000  0.0000000  3
   8000   7999   8002   8003     1  0.0000000  0.6508444  3
   8000   7999   8002   8004     1  0.0000000  0.6508444  3
   8001   7999   7996   8005     1  0.0000000  0.6508444  3
   8001   7999   8002   8008     1  0.0000000  1.0460000  1
   8001   7999   8002   8008     1  0.0000000  0.0000000  3
   8001   7999   8002   8003     1  0.0000000  0.6508444  3
   8001   7999   8002   8004     1  0.0000000  0.6508444  3
   8010   8013   8016   8017     1  0.0000000  0.6508444  3
   8010   8013   8016   8018     1  0.0000000  0.6508444  3
   8011   8010   8013   8016     1  0.0000000  0.6508444  3
   8011   8010   8013   8014     1  0.0000000  0.6508444  3
   8011   8010   8013   8015     1  0.0000000  0.6508444  3
   8011   8010   8019   8020     1  0.0000000  0.6508444  3
   8011   8010   8019   8021     1  0.0000000  0.6508444  3
   8011   8010   8019   8023     1  0.0000000  0.6508444  3
   8012   8010   8013   8016     1  0.0000000  0.6508444  3
   8012   8010   8013   8014     1  0.0000000  0.6508444  3
   8012   8010   8013   8015     1  0.0000000  0.6508444  3
   8012   8010   8019   8020     1  0.0000000  0.6508444  3
   8012   8010   8019   8021     1  0.0000000  0.6508444  3
   8012   8010   8019   8023     1  0.0000000  0.6508444  3
   8013   8010   8019   8020     1  0.0000000  0.6508444  3
   8013   8010   8019   8021     1  0.0000000  0.6508444  3
   8013   8010   8019   8023     1  0.0000000  0.6508444  3
   8014   8013   8016   8022     1  0.0000000  1.0460000  1
   8014   8013   8016   8022     1  0.0000000  0.0000000  3
   8014   8013   8016   8017     1  0.0000000  0.6508444  3
   8014   8013   8016   8018     1  0.0000000  0.6508444  3
   8014   8013   8010   8019     1  0.0000000  0.6508444  3
   8015   8013   8016   8022     1  0.0000000  1.0460000  1
   8015   8013   8016   8022     1  0.0000000  0.0000000  3
   8015   8013   8016   8017     1  0.0000000  0.6508444  3
   8015   8013   8016   8018     1  0.0000000  0.6508444  3
   8015   8013   8010   8019     1  0.0000000  0.6508444  3
   8024   8027   8030   8031     1  0.0000000  0.6508444  3
   8024   8027   8030   8032     1  0.0000000  0.6508444  3
   8025   8024   8027   8030     1  0.0000000  0.6508444  3
   8025   8024   8027   8028     1  0.0000000  0.6508444  3
   8025   8024   8027   8029     1  0.0000000  0.6508444  3
   8025   8024   8033   8034     1  0.0000000  0.6508444  3
   8025   8024   8033   8035     1  0.0000000  0.6508444  3
   8025   8024   8033   8037     1  0.0000000  0.6508444  3
   8026   8024   8027   8030     1  0.0000000  0.6508444  3
   8026   8024   8027   8028     1  0.0000000  0.6508444  3
   8026   8024   8027   8029     1  0.0000000  0.6508444  3
   8026   8024   8033   8034     1  0.0000000  0.6508444  3
   8026   8024   8033   8035     1  0.0000000  0.6508444  3
   8026   8024   8033   8037     1  0.0000000  0.6508444  3
   8027   8024   8033   8034     1  0.0000000  0.6508444  3
   8027   8024   8033   8035     1  0.0000000  0.6508444  3
   8027   8024   8033   8037     1  0.0000000  0.6508444  3
   8028   8027   8024   8033     1  0.0000000  0.6508444  3
   8028   8027   8030   8036     1  0.0000000  1.0460000  1
   8028   8027   8030   8036     1  0.0000000  0.0000000  3
   8028   8027   8030   8031     1  0.0000000  0.6508444  3
   8028   8027   8030   8032     1  0.0000000  0.6508444  3
   8029   8027   8024   8033     1  0.0000000  0.6508444  3
   8029   8027   8030   8036     1  0.0000000  1.0460000  1
   8029   8027   8030   8036     1  0.0000000  0.0000000  3
   8029   8027   8030   8031     1  0.0000000  0.6508444  3
   8029   8027   8030   8032     1  0.0000000  0.6508444  3
   8038   8041   8044   8045     1  0.0000000  0.6508444  3
   8038   8041   8044   8046     1  0.0000000  0.6508444  3
   8039   8038   8041   8044     1  0.0000000  0.6508444  3
   8039   8038   8041   8042     1  0.0000000  0.6508444  3
   8039   8038   8041   8043     1  0.0000000  0.6508444  3
   8039   8038   8047   8048     1  0.0000000  0.6508444  3
   8039   8038   8047   8049     1  0.0000000  0.6508444  3
   8039   8038   8047   8051     1  0.0000000  0.6508444  3
   8040   8038   8041   8044     1  0.0000000  0.6508444  3
   8040   8038   8041   8042     1  0.0000000  0.6508444  3
   8040   8038   8041   8043     1  0.0000000  0.6508444  3
   8040   8038   8047   8048     1  0.0000000  0.6508444  3
   8040   8038   8047   8049     1  0.0000000  0.6508444  3
   8040   8038   8047   8051     1  0.0000000  0.6508444  3
   8041   8038   8047   8048     1  0.0000000  0.6508444  3
   8041   8038   8047   8049     1  0.0000000  0.6508444  3
   8041   8038   8047   8051     1  0.0000000  0.6508444  3
   8042   8041   8044   8050     1  0.0000000  1.0460000  1
   8042   8041   8044   8050     1  0.0000000  0.0000000  3
   8042   8041   8044   8045     1  0.0000000  0.6508444  3
   8042   8041   8044   8046     1  0.0000000  0.6508444  3
   8042   8041   8038   8047     1  0.0000000  0.6508444  3
   8043   8041   8044   8050     1  0.0000000  1.0460000  1
   8043   8041   8044   8050     1  0.0000000  0.0000000  3
   8043   8041   8044   8045     1  0.0000000  0.6508444  3
   8043   8041   8044   8046     1  0.0000000  0.6508444  3
   8043   8041   8038   8047     1  0.0000000  0.6508444  3
   8052   8055   8058   8059     1  0.0000000  0.6508444  3
   8052   8055   8058   8060     1  0.0000000  0.6508444  3
   8053   8052   8055   8058     1  0.0000000  0.6508444  3
   8053   8052   8055   8056     1  0.0000000  0.6508444  3
   8053   8052   8055   8057     1  0.0000000  0.6508444  3
   8053   8052   8061   8062     1  0.0000000  0.6508444  3
   8053   8052   8061   8063     1  0.0000000  0.6508444  3
   8053   8052   8061   8065     1  0.0000000  0.6508444  3
   8054   8052   8055   8058     1  0.0000000  0.6508444  3
   8054   8052   8055   8056     1  0.0000000  0.6508444  3
   8054   8052   8055   8057     1  0.0000000  0.6508444  3
   8054   8052   8061   8062     1  0.0000000  0.6508444  3
   8054   8052   8061   8063     1  0.0000000  0.6508444  3
   8054   8052   8061   8065     1  0.0000000  0.6508444  3
   8055   8052   8061   8062     1  0.0000000  0.6508444  3
   8055   8052   8061   8063     1  0.0000000  0.6508444  3
   8055   8052   8061   8065     1  0.0000000  0.6508444  3
   8056   8055   8052   8061     1  0.0000000  0.6508444  3
   8056   8055   8058   8064     1  0.0000000  1.0460000  1
   8056   8055   8058   8064     1  0.0000000  0.0000000  3
   8056   8055   8058   8059     1  0.0000000  0.6508444  3
   8056   8055   8058   8060     1  0.0000000  0.6508444  3
   8057   8055   8052   8061     1  0.0000000  0.6508444  3
   8057   8055   8058   8064     1  0.0000000  1.0460000  1
   8057   8055   8058   8064     1  0.0000000  0.0000000  3
   8057   8055   8058   8059     1  0.0000000  0.6508444  3
   8057   8055   8058   8060     1  0.0000000  0.6508444  3
   8066   8069   8072   8073     1  0.0000000  0.6508444  3
   8066   8069   8072   8074     1  0.0000000  0.6508444  3
   8067   8066   8069   8072     1  0.0000000  0.6508444  3
   8067   8066   8069   8070     1  0.0000000  0.6508444  3
   8067   8066   8069   8071     1  0.0000000  0.6508444  3
   8067   8066   8075   8076     1  0.0000000  0.6508444  3
   8067   8066   8075   8077     1  0.0000000  0.6508444  3
   8067   8066   8075   8079     1  0.0000000  0.6508444  3
   8068   8066   8069   8072     1  0.0000000  0.6508444  3
   8068   8066   8069   8070     1  0.0000000  0.6508444  3
   8068   8066   8069   8071     1  0.0000000  0.6508444  3
   8068   8066   8075   8076     1  0.0000000  0.6508444  3
   8068   8066   8075   8077     1  0.0000000  0.6508444  3
   8068   8066   8075   8079     1  0.0000000  0.6508444  3
   8069   8066   8075   8076     1  0.0000000  0.6508444  3
   8069   8066   8075   8077     1  0.0000000  0.6508444  3
   8069   8066   8075   8079     1  0.0000000  0.6508444  3
   8070   8069   8072   8078     1  0.0000000  1.0460000  1
   8070   8069   8072   8078     1  0.0000000  0.0000000  3
   8070   8069   8072   8073     1  0.0000000  0.6508444  3
   8070   8069   8072   8074     1  0.0000000  0.6508444  3
   8070   8069   8066   8075     1  0.0000000  0.6508444  3
   8071   8069   8072   8078     1  0.0000000  1.0460000  1
   8071   8069   8072   8078     1  0.0000000  0.0000000  3
   8071   8069   8072   8073     1  0.0000000  0.6508444  3
   8071   8069   8072   8074     1  0.0000000  0.6508444  3
   8071   8069   8066   8075     1  0.0000000  0.6508444  3
   8080   8083   8086   8087     1  0.0000000  0.6508444  3
   8080   8083   8086   8088     1  0.0000000  0.6508444  3
   8081   8080   8083   8086     1  0.0000000  0.6508444  3
   8081   8080   8083   8084     1  0.0000000  0.6508444  3
   8081   8080   8083   8085     1  0.0000000  0.6508444  3
   8081   8080   8089   8090     1  0.0000000  0.6508444  3
   8081   8080   8089   8091     1  0.0000000  0.6508444  3
   8081   8080   8089   8093     1  0.0000000  0.6508444  3
   8082   8080   8083   8086     1  0.0000000  0.6508444  3
   8082   8080   8083   8084     1  0.0000000  0.6508444  3
   8082   8080   8083   8085     1  0.0000000  0.6508444  3
   8082   8080   8089   8090     1  0.0000000  0.6508444  3
   8082   8080   8089   8091     1  0.0000000  0.6508444  3
   8082   8080   8089   8093     1  0.0000000  0.6508444  3
   8083   8080   8089   8090     1  0.0000000  0.6508444  3
   8083   8080   8089   8091     1  0.0000000  0.6508444  3
   8083   8080   8089   8093     1  0.0000000  0.6508444  3
   8084   8083   8080   8089     1  0.0000000  0.6508444  3
   8084   8083   8086   8092     1  0.0000000  1.0460000  1
   8084   8083   8086   8092     1  0.0000000  0.0000000  3
   8084   8083   8086   8087     1  0.0000000  0.6508444  3
   8084   8083   8086   8088     1  0.0000000  0.6508444  3
   8085   8083   8080   8089     1  0.0000000  0.6508444  3
   8085   8083   8086   8092     1  0.0000000  1.0460000  1
   8085   8083   8086   8092     1  0.0000000  0.0000000  3
   8085   8083   8086   8087     1  0.0000000  0.6508444  3
   8085   8083   8086   8088     1  0.0000000  0.6508444  3
   8094   8097   8100   8101     1  0.0000000  0.6508444  3
   8094   8097   8100   8102     1  0.0000000  0.6508444  3
   8095   8094   8097   8100     1  0.0000000  0.6508444  3
   8095   8094   8097   8098     1  0.0000000  0.6508444  3
   8095   8094   8097   8099     1  0.0000000  0.6508444  3
   8095   8094   8103   8104     1  0.0000000  0.6508444  3
   8095   8094   8103   8105     1  0.0000000  0.6508444  3
   8095   8094   8103   8107     1  0.0000000  0.6508444  3
   8096   8094   8097   8100     1  0.0000000  0.6508444  3
   8096   8094   8097   8098     1  0.0000000  0.6508444  3
   8096   8094   8097   8099     1  0.0000000  0.6508444  3
   8096   8094   8103   8104     1  0.0000000  0.6508444  3
   8096   8094   8103   8105     1  0.0000000  0.6508444  3
   8096   8094   8103   8107     1  0.0000000  0.6508444  3
   8097   8094   8103   8104     1  0.0000000  0.6508444  3
   8097   8094   8103   8105     1  0.0000000  0.6508444  3
   8097   8094   8103   8107     1  0.0000000  0.6508444  3
   8098   8097   8100   8106     1  0.0000000  1.0460000  1
   8098   8097   8100   8106     1  0.0000000  0.0000000  3
   8098   8097   8100   8101     1  0.0000000  0.6508444  3
   8098   8097   8100   8102     1  0.0000000  0.6508444  3
   8098   8097   8094   8103     1  0.0000000  0.6508444  3
   8099   8097   8100   8106     1  0.0000000  1.0460000  1
   8099   8097   8100   8106     1  0.0000000  0.0000000  3
   8099   8097   8100   8101     1  0.0000000  0.6508444  3
   8099   8097   8100   8102     1  0.0000000  0.6508444  3
   8099   8097   8094   8103     1  0.0000000  0.6508444  3
   8108   8111   8114   8115     1  0.0000000  0.6508444  3
   8108   8111   8114   8116     1  0.0000000  0.6508444  3
   8109   8108   8111   8114     1  0.0000000  0.6508444  3
   8109   8108   8111   8112     1  0.0000000  0.6508444  3
   8109   8108   8111   8113     1  0.0000000  0.6508444  3
   8109   8108   8117   8118     1  0.0000000  0.6508444  3
   8109   8108   8117   8119     1  0.0000000  0.6508444  3
   8109   8108   8117   8121     1  0.0000000  0.6508444  3
   8110   8108   8111   8114     1  0.0000000  0.6508444  3
   8110   8108   8111   8112     1  0.0000000  0.6508444  3
   8110   8108   8111   8113     1  0.0000000  0.6508444  3
   8110   8108   8117   8118     1  0.0000000  0.6508444  3
   8110   8108   8117   8119     1  0.0000000  0.6508444  3
   8110   8108   8117   8121     1  0.0000000  0.6508444  3
   8111   8108   8117   8118     1  0.0000000  0.6508444  3
   8111   8108   8117   8119     1  0.0000000  0.6508444  3
   8111   8108   8117   8121     1  0.0000000  0.6508444  3
   8112   8111   8108   8117     1  0.0000000  0.6508444  3
   8112   8111   8114   8120     1  0.0000000  1.0460000  1
   8112   8111   8114   8120     1  0.0000000  0.0000000  3
   8112   8111   8114   8115     1  0.0000000  0.6508444  3
   8112   8111   8114   8116     1  0.0000000  0.6508444  3
   8113   8111   8108   8117     1  0.0000000  0.6508444  3
   8113   8111   8114   8120     1  0.0000000  1.0460000  1
   8113   8111   8114   8120     1  0.0000000  0.0000000  3
   8113   8111   8114   8115     1  0.0000000  0.6508444  3
   8113   8111   8114   8116     1  0.0000000  0.6508444  3
   8122   8125   8128   8129     1  0.0000000  0.6508444  3
   8122   8125   8128   8130     1  0.0000000  0.6508444  3
   8123   8122   8125   8128     1  0.0000000  0.6508444  3
   8123   8122   8125   8126     1  0.0000000  0.6508444  3
   8123   8122   8125   8127     1  0.0000000  0.6508444  3
   8123   8122   8131   8132     1  0.0000000  0.6508444  3
   8123   8122   8131   8133     1  0.0000000  0.6508444  3
   8123   8122   8131   8135     1  0.0000000  0.6508444  3
   8124   8122   8125   8128     1  0.0000000  0.6508444  3
   8124   8122   8125   8126     1  0.0000000  0.6508444  3
   8124   8122   8125   8127     1  0.0000000  0.6508444  3
   8124   8122   8131   8132     1  0.0000000  0.6508444  3
   8124   8122   8131   8133     1  0.0000000  0.6508444  3
   8124   8122   8131   8135     1  0.0000000  0.6508444  3
   8125   8122   8131   8132     1  0.0000000  0.6508444  3
   8125   8122   8131   8133     1  0.0000000  0.6508444  3
   8125   8122   8131   8135     1  0.0000000  0.6508444  3
   8126   8125   8128   8134     1  0.0000000  1.0460000  1
   8126   8125   8128   8134     1  0.0000000  0.0000000  3
   8126   8125   8128   8129     1  0.0000000  0.6508444  3
   8126   8125   8128   8130     1  0.0000000  0.6508444  3
   8126   8125   8122   8131     1  0.0000000  0.6508444  3
   8127   8125   8128   8134     1  0.0000000  1.0460000  1
   8127   8125   8128   8134     1  0.0000000  0.0000000  3
   8127   8125   8128   8129     1  0.0000000  0.6508444  3
   8127   8125   8128   8130     1  0.0000000  0.6508444  3
   8127   8125   8122   8131     1  0.0000000  0.6508444  3
   8136   8139   8142   8143     1  0.0000000  0.6508444  3
   8136   8139   8142   8144     1  0.0000000  0.6508444  3
   8137   8136   8139   8142     1  0.0000000  0.6508444  3
   8137   8136   8139   8140     1  0.0000000  0.6508444  3
   8137   8136   8139   8141     1  0.0000000  0.6508444  3
   8137   8136   8145   8146     1  0.0000000  0.6508444  3
   8137   8136   8145   8147     1  0.0000000  0.6508444  3
   8137   8136   8145   8149     1  0.0000000  0.6508444  3
   8138   8136   8139   8142     1  0.0000000  0.6508444  3
   8138   8136   8139   8140     1  0.0000000  0.6508444  3
   8138   8136   8139   8141     1  0.0000000  0.6508444  3
   8138   8136   8145   8146     1  0.0000000  0.6508444  3
   8138   8136   8145   8147     1  0.0000000  0.6508444  3
   8138   8136   8145   8149     1  0.0000000  0.6508444  3
   8139   8136   8145   8146     1  0.0000000  0.6508444  3
   8139   8136   8145   8147     1  0.0000000  0.6508444  3
   8139   8136   8145   8149     1  0.0000000  0.6508444  3
   8140   8139   8136   8145     1  0.0000000  0.6508444  3
   8140   8139   8142   8148     1  0.0000000  1.0460000  1
   8140   8139   8142   8148     1  0.0000000  0.0000000  3
   8140   8139   8142   8143     1  0.0000000  0.6508444  3
   8140   8139   8142   8144     1  0.0000000  0.6508444  3
   8141   8139   8136   8145     1  0.0000000  0.6508444  3
   8141   8139   8142   8148     1  0.0000000  1.0460000  1
   8141   8139   8142   8148     1  0.0000000  0.0000000  3
   8141   8139   8142   8143     1  0.0000000  0.6508444  3
   8141   8139   8142   8144     1  0.0000000  0.6508444  3
   8150   8153   8156   8157     1  0.0000000  0.6508444  3
   8150   8153   8156   8158     1  0.0000000  0.6508444  3
   8151   8150   8153   8156     1  0.0000000  0.6508444  3
   8151   8150   8153   8154     1  0.0000000  0.6508444  3
   8151   8150   8153   8155     1  0.0000000  0.6508444  3
   8151   8150   8159   8160     1  0.0000000  0.6508444  3
   8151   8150   8159   8161     1  0.0000000  0.6508444  3
   8151   8150   8159   8163     1  0.0000000  0.6508444  3
   8152   8150   8153   8156     1  0.0000000  0.6508444  3
   8152   8150   8153   8154     1  0.0000000  0.6508444  3
   8152   8150   8153   8155     1  0.0000000  0.6508444  3
   8152   8150   8159   8160     1  0.0000000  0.6508444  3
   8152   8150   8159   8161     1  0.0000000  0.6508444  3
   8152   8150   8159   8163     1  0.0000000  0.6508444  3
   8153   8150   8159   8160     1  0.0000000  0.6508444  3
   8153   8150   8159   8161     1  0.0000000  0.6508444  3
   8153   8150   8159   8163     1  0.0000000  0.6508444  3
   8154   8153   8156   8162     1  0.0000000  1.0460000  1
   8154   8153   8156   8162     1  0.0000000  0.0000000  3
   8154   8153   8156   8157     1  0.0000000  0.6508444  3
   8154   8153   8156   8158     1  0.0000000  0.6508444  3
   8154   8153   8150   8159     1  0.0000000  0.6508444  3
   8155   8153   8156   8162     1  0.0000000  1.0460000  1
   8155   8153   8156   8162     1  0.0000000  0.0000000  3
   8155   8153   8156   8157     1  0.0000000  0.6508444  3
   8155   8153   8156   8158     1  0.0000000  0.6508444  3
   8155   8153   8150   8159     1  0.0000000  0.6508444  3
   8164   8167   8170   8171     1  0.0000000  0.6508444  3
   8164   8167   8170   8172     1  0.0000000  0.6508444  3
   8165   8164   8167   8170     1  0.0000000  0.6508444  3
   8165   8164   8167   8168     1  0.0000000  0.6508444  3
   8165   8164   8167   8169     1  0.0000000  0.6508444  3
   8165   8164   8173   8174     1  0.0000000  0.6508444  3
   8165   8164   8173   8175     1  0.0000000  0.6508444  3
   8165   8164   8173   8177     1  0.0000000  0.6508444  3
   8166   8164   8167   8170     1  0.0000000  0.6508444  3
   8166   8164   8167   8168     1  0.0000000  0.6508444  3
   8166   8164   8167   8169     1  0.0000000  0.6508444  3
   8166   8164   8173   8174     1  0.0000000  0.6508444  3
   8166   8164   8173   8175     1  0.0000000  0.6508444  3
   8166   8164   8173   8177     1  0.0000000  0.6508444  3
   8167   8164   8173   8174     1  0.0000000  0.6508444  3
   8167   8164   8173   8175     1  0.0000000  0.6508444  3
   8167   8164   8173   8177     1  0.0000000  0.6508444  3
   8168   8167   8164   8173     1  0.0000000  0.6508444  3
   8168   8167   8170   8176     1  0.0000000  1.0460000  1
   8168   8167   8170   8176     1  0.0000000  0.0000000  3
   8168   8167   8170   8171     1  0.0000000  0.6508444  3
   8168   8167   8170   8172     1  0.0000000  0.6508444  3
   8169   8167   8164   8173     1  0.0000000  0.6508444  3
   8169   8167   8170   8176     1  0.0000000  1.0460000  1
   8169   8167   8170   8176     1  0.0000000  0.0000000  3
   8169   8167   8170   8171     1  0.0000000  0.6508444  3
   8169   8167   8170   8172     1  0.0000000  0.6508444  3
   8178   8181   8184   8185     1  0.0000000  0.6508444  3
   8178   8181   8184   8186     1  0.0000000  0.6508444  3
   8179   8178   8181   8184     1  0.0000000  0.6508444  3
   8179   8178   8181   8182     1  0.0000000  0.6508444  3
   8179   8178   8181   8183     1  0.0000000  0.6508444  3
   8179   8178   8187   8188     1  0.0000000  0.6508444  3
   8179   8178   8187   8189     1  0.0000000  0.6508444  3
   8179   8178   8187   8191     1  0.0000000  0.6508444  3
   8180   8178   8181   8184     1  0.0000000  0.6508444  3
   8180   8178   8181   8182     1  0.0000000  0.6508444  3
   8180   8178   8181   8183     1  0.0000000  0.6508444  3
   8180   8178   8187   8188     1  0.0000000  0.6508444  3
   8180   8178   8187   8189     1  0.0000000  0.6508444  3
   8180   8178   8187   8191     1  0.0000000  0.6508444  3
   8181   8178   8187   8188     1  0.0000000  0.6508444  3
   8181   8178   8187   8189     1  0.0000000  0.6508444  3
   8181   8178   8187   8191     1  0.0000000  0.6508444  3
   8182   8181   8184   8190     1  0.0000000  1.0460000  1
   8182   8181   8184   8190     1  0.0000000  0.0000000  3
   8182   8181   8184   8185     1  0.0000000  0.6508444  3
   8182   8181   8184   8186     1  0.0000000  0.6508444  3
   8182   8181   8178   8187     1  0.0000000  0.6508444  3
   8183   8181   8184   8190     1  0.0000000  1.0460000  1
   8183   8181   8184   8190     1  0.0000000  0.0000000  3
   8183   8181   8184   8185     1  0.0000000  0.6508444  3
   8183   8181   8184   8186     1  0.0000000  0.6508444  3
   8183   8181   8178   8187     1  0.0000000  0.6508444  3
   8192   8195   8198   8199     1  0.0000000  0.6508444  3
   8192   8195   8198   8200     1  0.0000000  0.6508444  3
   8193   8192   8195   8198     1  0.0000000  0.6508444  3
   8193   8192   8195   8196     1  0.0000000  0.6508444  3
   8193   8192   8195   8197     1  0.0000000  0.6508444  3
   8193   8192   8201   8202     1  0.0000000  0.6508444  3
   8193   8192   8201   8203     1  0.0000000  0.6508444  3
   8193   8192   8201   8205     1  0.0000000  0.6508444  3
   8194   8192   8195   8198     1  0.0000000  0.6508444  3
   8194   8192   8195   8196     1  0.0000000  0.6508444  3
   8194   8192   8195   8197     1  0.0000000  0.6508444  3
   8194   8192   8201   8202     1  0.0000000  0.6508444  3
   8194   8192   8201   8203     1  0.0000000  0.6508444  3
   8194   8192   8201   8205     1  0.0000000  0.6508444  3
   8195   8192   8201   8202     1  0.0000000  0.6508444  3
   8195   8192   8201   8203     1  0.0000000  0.6508444  3
   8195   8192   8201   8205     1  0.0000000  0.6508444  3
   8196   8195   8192   8201     1  0.0000000  0.6508444  3
   8196   8195   8198   8204     1  0.0000000  1.0460000  1
   8196   8195   8198   8204     1  0.0000000  0.0000000  3
   8196   8195   8198   8199     1  0.0000000  0.6508444  3
   8196   8195   8198   8200     1  0.0000000  0.6508444  3
   8197   8195   8192   8201     1  0.0000000  0.6508444  3
   8197   8195   8198   8204     1  0.0000000  1.0460000  1
   8197   8195   8198   8204     1  0.0000000  0.0000000  3
   8197   8195   8198   8199     1  0.0000000  0.6508444  3
   8197   8195   8198   8200     1  0.0000000  0.6508444  3
   8206   8209   8212   8213     1  0.0000000  0.6508444  3
   8206   8209   8212   8214     1  0.0000000  0.6508444  3
   8207   8206   8209   8212     1  0.0000000  0.6508444  3
   8207   8206   8209   8210     1  0.0000000  0.6508444  3
   8207   8206   8209   8211     1  0.0000000  0.6508444  3
   8207   8206   8215   8216     1  0.0000000  0.6508444  3
   8207   8206   8215   8217     1  0.0000000  0.6508444  3
   8207   8206   8215   8219     1  0.0000000  0.6508444  3
   8208   8206   8209   8212     1  0.0000000  0.6508444  3
   8208   8206   8209   8210     1  0.0000000  0.6508444  3
   8208   8206   8209   8211     1  0.0000000  0.6508444  3
   8208   8206   8215   8216     1  0.0000000  0.6508444  3
   8208   8206   8215   8217     1  0.0000000  0.6508444  3
   8208   8206   8215   8219     1  0.0000000  0.6508444  3
   8209   8206   8215   8216     1  0.0000000  0.6508444  3
   8209   8206   8215   8217     1  0.0000000  0.6508444  3
   8209   8206   8215   8219     1  0.0000000  0.6508444  3
   8210   8209   8212   8218     1  0.0000000  1.0460000  1
   8210   8209   8212   8218     1  0.0000000  0.0000000  3
   8210   8209   8212   8213     1  0.0000000  0.6508444  3
   8210   8209   8212   8214     1  0.0000000  0.6508444  3
   8210   8209   8206   8215     1  0.0000000  0.6508444  3
   8211   8209   8212   8218     1  0.0000000  1.0460000  1
   8211   8209   8212   8218     1  0.0000000  0.0000000  3
   8211   8209   8212   8213     1  0.0000000  0.6508444  3
   8211   8209   8212   8214     1  0.0000000  0.6508444  3
   8211   8209   8206   8215     1  0.0000000  0.6508444  3
   8220   8223   8226   8227     1  0.0000000  0.6508444  3
   8220   8223   8226   8228     1  0.0000000  0.6508444  3
   8221   8220   8223   8226     1  0.0000000  0.6508444  3
   8221   8220   8223   8224     1  0.0000000  0.6508444  3
   8221   8220   8223   8225     1  0.0000000  0.6508444  3
   8221   8220   8229   8230     1  0.0000000  0.6508444  3
   8221   8220   8229   8231     1  0.0000000  0.6508444  3
   8221   8220   8229   8233     1  0.0000000  0.6508444  3
   8222   8220   8223   8226     1  0.0000000  0.6508444  3
   8222   8220   8223   8224     1  0.0000000  0.6508444  3
   8222   8220   8223   8225     1  0.0000000  0.6508444  3
   8222   8220   8229   8230     1  0.0000000  0.6508444  3
   8222   8220   8229   8231     1  0.0000000  0.6508444  3
   8222   8220   8229   8233     1  0.0000000  0.6508444  3
   8223   8220   8229   8230     1  0.0000000  0.6508444  3
   8223   8220   8229   8231     1  0.0000000  0.6508444  3
   8223   8220   8229   8233     1  0.0000000  0.6508444  3
   8224   8223   8220   8229     1  0.0000000  0.6508444  3
   8224   8223   8226   8232     1  0.0000000  1.0460000  1
   8224   8223   8226   8232     1  0.0000000  0.0000000  3
   8224   8223   8226   8227     1  0.0000000  0.6508444  3
   8224   8223   8226   8228     1  0.0000000  0.6508444  3
   8225   8223   8220   8229     1  0.0000000  0.6508444  3
   8225   8223   8226   8232     1  0.0000000  1.0460000  1
   8225   8223   8226   8232     1  0.0000000  0.0000000  3
   8225   8223   8226   8227     1  0.0000000  0.6508444  3
   8225   8223   8226   8228     1  0.0000000  0.6508444  3
   8234   8237   8240   8241     1  0.0000000  0.6508444  3
   8234   8237   8240   8242     1  0.0000000  0.6508444  3
   8235   8234   8237   8240     1  0.0000000  0.6508444  3
   8235   8234   8237   8238     1  0.0000000  0.6508444  3
   8235   8234   8237   8239     1  0.0000000  0.6508444  3
   8235   8234   8243   8244     1  0.0000000  0.6508444  3
   8235   8234   8243   8245     1  0.0000000  0.6508444  3
   8235   8234   8243   8247     1  0.0000000  0.6508444  3
   8236   8234   8237   8240     1  0.0000000  0.6508444  3
   8236   8234   8237   8238     1  0.0000000  0.6508444  3
   8236   8234   8237   8239     1  0.0000000  0.6508444  3
   8236   8234   8243   8244     1  0.0000000  0.6508444  3
   8236   8234   8243   8245     1  0.0000000  0.6508444  3
   8236   8234   8243   8247     1  0.0000000  0.6508444  3
   8237   8234   8243   8244     1  0.0000000  0.6508444  3
   8237   8234   8243   8245     1  0.0000000  0.6508444  3
   8237   8234   8243   8247     1  0.0000000  0.6508444  3
   8238   8237   8240   8246     1  0.0000000  1.0460000  1
   8238   8237   8240   8246     1  0.0000000  0.0000000  3
   8238   8237   8240   8241     1  0.0000000  0.6508444  3
   8238   8237   8240   8242     1  0.0000000  0.6508444  3
   8238   8237   8234   8243     1  0.0000000  0.6508444  3
   8239   8237   8240   8246     1  0.0000000  1.0460000  1
   8239   8237   8240   8246     1  0.0000000  0.0000000  3
   8239   8237   8240   8241     1  0.0000000  0.6508444  3
   8239   8237   8240   8242     1  0.0000000  0.6508444  3
   8239   8237   8234   8243     1  0.0000000  0.6508444  3
   8248   8251   8254   8255     1  0.0000000  0.6508444  3
   8248   8251   8254   8256     1  0.0000000  0.6508444  3
   8249   8248   8251   8254     1  0.0000000  0.6508444  3
   8249   8248   8251   8252     1  0.0000000  0.6508444  3
   8249   8248   8251   8253     1  0.0000000  0.6508444  3
   8249   8248   8257   8258     1  0.0000000  0.6508444  3
   8249   8248   8257   8259     1  0.0000000  0.6508444  3
   8249   8248   8257   8261     1  0.0000000  0.6508444  3
   8250   8248   8251   8254     1  0.0000000  0.6508444  3
   8250   8248   8251   8252     1  0.0000000  0.6508444  3
   8250   8248   8251   8253     1  0.0000000  0.6508444  3
   8250   8248   8257   8258     1  0.0000000  0.6508444  3
   8250   8248   8257   8259     1  0.0000000  0.6508444  3
   8250   8248   8257   8261     1  0.0000000  0.6508444  3
   8251   8248   8257   8258     1  0.0000000  0.6508444  3
   8251   8248   8257   8259     1  0.0000000  0.6508444  3
   8251   8248   8257   8261     1  0.0000000  0.6508444  3
   8252   8251   8248   8257     1  0.0000000  0.6508444  3
   8252   8251   8254   8260     1  0.0000000  1.0460000  1
   8252   8251   8254   8260     1  0.0000000  0.0000000  3
   8252   8251   8254   8255     1  0.0000000  0.6508444  3
   8252   8251   8254   8256     1  0.0000000  0.6508444  3
   8253   8251   8248   8257     1  0.0000000  0.6508444  3
   8253   8251   8254   8260     1  0.0000000  1.0460000  1
   8253   8251   8254   8260     1  0.0000000  0.0000000  3
   8253   8251   8254   8255     1  0.0000000  0.6508444  3
   8253   8251   8254   8256     1  0.0000000  0.6508444  3
   8262   8265   8268   8269     1  0.0000000  0.6508444  3
   8262   8265   8268   8270     1  0.0000000  0.6508444  3
   8263   8262   8265   8268     1  0.0000000  0.6508444  3
   8263   8262   8265   8266     1  0.0000000  0.6508444  3
   8263   8262   8265   8267     1  0.0000000  0.6508444  3
   8263   8262   8271   8272     1  0.0000000  0.6508444  3
   8263   8262   8271   8273     1  0.0000000  0.6508444  3
   8263   8262   8271   8275     1  0.0000000  0.6508444  3
   8264   8262   8265   8268     1  0.0000000  0.6508444  3
   8264   8262   8265   8266     1  0.0000000  0.6508444  3
   8264   8262   8265   8267     1  0.0000000  0.6508444  3
   8264   8262   8271   8272     1  0.0000000  0.6508444  3
   8264   8262   8271   8273     1  0.0000000  0.6508444  3
   8264   8262   8271   8275     1  0.0000000  0.6508444  3
   8265   8262   8271   8272     1  0.0000000  0.6508444  3
   8265   8262   8271   8273     1  0.0000000  0.6508444  3
   8265   8262   8271   8275     1  0.0000000  0.6508444  3
   8266   8265   8268   8274     1  0.0000000  1.0460000  1
   8266   8265   8268   8274     1  0.0000000  0.0000000  3
   8266   8265   8268   8269     1  0.0000000  0.6508444  3
   8266   8265   8268   8270     1  0.0000000  0.6508444  3
   8266   8265   8262   8271     1  0.0000000  0.6508444  3
   8267   8265   8268   8274     1  0.0000000  1.0460000  1
   8267   8265   8268   8274     1  0.0000000  0.0000000  3
   8267   8265   8268   8269     1  0.0000000  0.6508444  3
   8267   8265   8268   8270     1  0.0000000  0.6508444  3
   8267   8265   8262   8271     1  0.0000000  0.6508444  3
   8276   8279   8282   8283     1  0.0000000  0.6508444  3
   8276   8279   8282   8284     1  0.0000000  0.6508444  3
   8277   8276   8279   8282     1  0.0000000  0.6508444  3
   8277   8276   8279   8280     1  0.0000000  0.6508444  3
   8277   8276   8279   8281     1  0.0000000  0.6508444  3
   8277   8276   8285   8286     1  0.0000000  0.6508444  3
   8277   8276   8285   8287     1  0.0000000  0.6508444  3
   8277   8276   8285   8289     1  0.0000000  0.6508444  3
   8278   8276   8279   8282     1  0.0000000  0.6508444  3
   8278   8276   8279   8280     1  0.0000000  0.6508444  3
   8278   8276   8279   8281     1  0.0000000  0.6508444  3
   8278   8276   8285   8286     1  0.0000000  0.6508444  3
   8278   8276   8285   8287     1  0.0000000  0.6508444  3
   8278   8276   8285   8289     1  0.0000000  0.6508444  3
   8279   8276   8285   8286     1  0.0000000  0.6508444  3
   8279   8276   8285   8287     1  0.0000000  0.6508444  3
   8279   8276   8285   8289     1  0.0000000  0.6508444  3
   8280   8279   8276   8285     1  0.0000000  0.6508444  3
   8280   8279   8282   8288     1  0.0000000  1.0460000  1
   8280   8279   8282   8288     1  0.0000000  0.0000000  3
   8280   8279   8282   8283     1  0.0000000  0.6508444  3
   8280   8279   8282   8284     1  0.0000000  0.6508444  3
   8281   8279   8276   8285     1  0.0000000  0.6508444  3
   8281   8279   8282   8288     1  0.0000000  1.0460000  1
   8281   8279   8282   8288     1  0.0000000  0.0000000  3
   8281   8279   8282   8283     1  0.0000000  0.6508444  3
   8281   8279   8282   8284     1  0.0000000  0.6508444  3
   8290   8293   8296   8297     1  0.0000000  0.6508444  3
   8290   8293   8296   8298     1  0.0000000  0.6508444  3
   8291   8290   8293   8296     1  0.0000000  0.6508444  3
   8291   8290   8293   8294     1  0.0000000  0.6508444  3
   8291   8290   8293   8295     1  0.0000000  0.6508444  3
   8291   8290   8299   8300     1  0.0000000  0.6508444  3
   8291   8290   8299   8301     1  0.0000000  0.6508444  3
   8291   8290   8299   8303     1  0.0000000  0.6508444  3
   8292   8290   8293   8296     1  0.0000000  0.6508444  3
   8292   8290   8293   8294     1  0.0000000  0.6508444  3
   8292   8290   8293   8295     1  0.0000000  0.6508444  3
   8292   8290   8299   8300     1  0.0000000  0.6508444  3
   8292   8290   8299   8301     1  0.0000000  0.6508444  3
   8292   8290   8299   8303     1  0.0000000  0.6508444  3
   8293   8290   8299   8300     1  0.0000000  0.6508444  3
   8293   8290   8299   8301     1  0.0000000  0.6508444  3
   8293   8290   8299   8303     1  0.0000000  0.6508444  3
   8294   8293   8296   8302     1  0.0000000  1.0460000  1
   8294   8293   8296   8302     1  0.0000000  0.0000000  3
   8294   8293   8296   8297     1  0.0000000  0.6508444  3
   8294   8293   8296   8298     1  0.0000000  0.6508444  3
   8294   8293   8290   8299     1  0.0000000  0.6508444  3
   8295   8293   8296   8302     1  0.0000000  1.0460000  1
   8295   8293   8296   8302     1  0.0000000  0.0000000  3
   8295   8293   8296   8297     1  0.0000000  0.6508444  3
   8295   8293   8296   8298     1  0.0000000  0.6508444  3
   8295   8293   8290   8299     1  0.0000000  0.6508444  3
   8304   8307   8310   8311     1  0.0000000  0.6508444  3
   8304   8307   8310   8312     1  0.0000000  0.6508444  3
   8305   8304   8307   8310     1  0.0000000  0.6508444  3
   8305   8304   8307   8308     1  0.0000000  0.6508444  3
   8305   8304   8307   8309     1  0.0000000  0.6508444  3
   8305   8304   8313   8314     1  0.0000000  0.6508444  3
   8305   8304   8313   8315     1  0.0000000  0.6508444  3
   8305   8304   8313   8317     1  0.0000000  0.6508444  3
   8306   8304   8307   8310     1  0.0000000  0.6508444  3
   8306   8304   8307   8308     1  0.0000000  0.6508444  3
   8306   8304   8307   8309     1  0.0000000  0.6508444  3
   8306   8304   8313   8314     1  0.0000000  0.6508444  3
   8306   8304   8313   8315     1  0.0000000  0.6508444  3
   8306   8304   8313   8317     1  0.0000000  0.6508444  3
   8307   8304   8313   8314     1  0.0000000  0.6508444  3
   8307   8304   8313   8315     1  0.0000000  0.6508444  3
   8307   8304   8313   8317     1  0.0000000  0.6508444  3
   8308   8307   8304   8313     1  0.0000000  0.6508444  3
   8308   8307   8310   8316     1  0.0000000  1.0460000  1
   8308   8307   8310   8316     1  0.0000000  0.0000000  3
   8308   8307   8310   8311     1  0.0000000  0.6508444  3
   8308   8307   8310   8312     1  0.0000000  0.6508444  3
   8309   8307   8304   8313     1  0.0000000  0.6508444  3
   8309   8307   8310   8316     1  0.0000000  1.0460000  1
   8309   8307   8310   8316     1  0.0000000  0.0000000  3
   8309   8307   8310   8311     1  0.0000000  0.6508444  3
   8309   8307   8310   8312     1  0.0000000  0.6508444  3
   8318   8321   8324   8325     1  0.0000000  0.6508444  3
   8318   8321   8324   8326     1  0.0000000  0.6508444  3
   8319   8318   8321   8324     1  0.0000000  0.6508444  3
   8319   8318   8321   8322     1  0.0000000  0.6508444  3
   8319   8318   8321   8323     1  0.0000000  0.6508444  3
   8319   8318   8327   8328     1  0.0000000  0.6508444  3
   8319   8318   8327   8329     1  0.0000000  0.6508444  3
   8319   8318   8327   8331     1  0.0000000  0.6508444  3
   8320   8318   8321   8324     1  0.0000000  0.6508444  3
   8320   8318   8321   8322     1  0.0000000  0.6508444  3
   8320   8318   8321   8323     1  0.0000000  0.6508444  3
   8320   8318   8327   8328     1  0.0000000  0.6508444  3
   8320   8318   8327   8329     1  0.0000000  0.6508444  3
   8320   8318   8327   8331     1  0.0000000  0.6508444  3
   8321   8318   8327   8328     1  0.0000000  0.6508444  3
   8321   8318   8327   8329     1  0.0000000  0.6508444  3
   8321   8318   8327   8331     1  0.0000000  0.6508444  3
   8322   8321   8324   8330     1  0.0000000  1.0460000  1
   8322   8321   8324   8330     1  0.0000000  0.0000000  3
   8322   8321   8324   8325     1  0.0000000  0.6508444  3
   8322   8321   8324   8326     1  0.0000000  0.6508444  3
   8322   8321   8318   8327     1  0.0000000  0.6508444  3
   8323   8321   8324   8330     1  0.0000000  1.0460000  1
   8323   8321   8324   8330     1  0.0000000  0.0000000  3
   8323   8321   8324   8325     1  0.0000000  0.6508444  3
   8323   8321   8324   8326     1  0.0000000  0.6508444  3
   8323   8321   8318   8327     1  0.0000000  0.6508444  3
   8332   8335   8338   8339     1  0.0000000  0.6508444  3
   8332   8335   8338   8340     1  0.0000000  0.6508444  3
   8333   8332   8335   8338     1  0.0000000  0.6508444  3
   8333   8332   8335   8336     1  0.0000000  0.6508444  3
   8333   8332   8335   8337     1  0.0000000  0.6508444  3
   8333   8332   8341   8342     1  0.0000000  0.6508444  3
   8333   8332   8341   8343     1  0.0000000  0.6508444  3
   8333   8332   8341   8345     1  0.0000000  0.6508444  3
   8334   8332   8335   8338     1  0.0000000  0.6508444  3
   8334   8332   8335   8336     1  0.0000000  0.6508444  3
   8334   8332   8335   8337     1  0.0000000  0.6508444  3
   8334   8332   8341   8342     1  0.0000000  0.6508444  3
   8334   8332   8341   8343     1  0.0000000  0.6508444  3
   8334   8332   8341   8345     1  0.0000000  0.6508444  3
   8335   8332   8341   8342     1  0.0000000  0.6508444  3
   8335   8332   8341   8343     1  0.0000000  0.6508444  3
   8335   8332   8341   8345     1  0.0000000  0.6508444  3
   8336   8335   8332   8341     1  0.0000000  0.6508444  3
   8336   8335   8338   8344     1  0.0000000  1.0460000  1
   8336   8335   8338   8344     1  0.0000000  0.0000000  3
   8336   8335   8338   8339     1  0.0000000  0.6508444  3
   8336   8335   8338   8340     1  0.0000000  0.6508444  3
   8337   8335   8332   8341     1  0.0000000  0.6508444  3
   8337   8335   8338   8344     1  0.0000000  1.0460000  1
   8337   8335   8338   8344     1  0.0000000  0.0000000  3
   8337   8335   8338   8339     1  0.0000000  0.6508444  3
   8337   8335   8338   8340     1  0.0000000  0.6508444  3
   8346   8349   8352   8353     1  0.0000000  0.6508444  3
   8346   8349   8352   8354     1  0.0000000  0.6508444  3
   8347   8346   8349   8352     1  0.0000000  0.6508444  3
   8347   8346   8349   8350     1  0.0000000  0.6508444  3
   8347   8346   8349   8351     1  0.0000000  0.6508444  3
   8347   8346   8355   8356     1  0.0000000  0.6508444  3
   8347   8346   8355   8357     1  0.0000000  0.6508444  3
   8347   8346   8355   8359     1  0.0000000  0.6508444  3
   8348   8346   8349   8352     1  0.0000000  0.6508444  3
   8348   8346   8349   8350     1  0.0000000  0.6508444  3
   8348   8346   8349   8351     1  0.0000000  0.6508444  3
   8348   8346   8355   8356     1  0.0000000  0.6508444  3
   8348   8346   8355   8357     1  0.0000000  0.6508444  3
   8348   8346   8355   8359     1  0.0000000  0.6508444  3
   8349   8346   8355   8356     1  0.0000000  0.6508444  3
   8349   8346   8355   8357     1  0.0000000  0.6508444  3
   8349   8346   8355   8359     1  0.0000000  0.6508444  3
   8350   8349   8352   8358     1  0.0000000  1.0460000  1
   8350   8349   8352   8358     1  0.0000000  0.0000000  3
   8350   8349   8352   8353     1  0.0000000  0.6508444  3
   8350   8349   8352   8354     1  0.0000000  0.6508444  3
   8350   8349   8346   8355     1  0.0000000  0.6508444  3
   8351   8349   8352   8358     1  0.0000000  1.0460000  1
   8351   8349   8352   8358     1  0.0000000  0.0000000  3
   8351   8349   8352   8353     1  0.0000000  0.6508444  3
   8351   8349   8352   8354     1  0.0000000  0.6508444  3
   8351   8349   8346   8355     1  0.0000000  0.6508444  3
   8360   8363   8366   8367     1  0.0000000  0.6508444  3
   8360   8363   8366   8368     1  0.0000000  0.6508444  3
   8361   8360   8363   8366     1  0.0000000  0.6508444  3
   8361   8360   8363   8364     1  0.0000000  0.6508444  3
   8361   8360   8363   8365     1  0.0000000  0.6508444  3
   8361   8360   8369   8370     1  0.0000000  0.6508444  3
   8361   8360   8369   8371     1  0.0000000  0.6508444  3
   8361   8360   8369   8373     1  0.0000000  0.6508444  3
   8362   8360   8363   8366     1  0.0000000  0.6508444  3
   8362   8360   8363   8364     1  0.0000000  0.6508444  3
   8362   8360   8363   8365     1  0.0000000  0.6508444  3
   8362   8360   8369   8370     1  0.0000000  0.6508444  3
   8362   8360   8369   8371     1  0.0000000  0.6508444  3
   8362   8360   8369   8373     1  0.0000000  0.6508444  3
   8363   8360   8369   8370     1  0.0000000  0.6508444  3
   8363   8360   8369   8371     1  0.0000000  0.6508444  3
   8363   8360   8369   8373     1  0.0000000  0.6508444  3
   8364   8363   8360   8369     1  0.0000000  0.6508444  3
   8364   8363   8366   8372     1  0.0000000  1.0460000  1
   8364   8363   8366   8372     1  0.0000000  0.0000000  3
   8364   8363   8366   8367     1  0.0000000  0.6508444  3
   8364   8363   8366   8368     1  0.0000000  0.6508444  3
   8365   8363   8360   8369     1  0.0000000  0.6508444  3
   8365   8363   8366   8372     1  0.0000000  1.0460000  1
   8365   8363   8366   8372     1  0.0000000  0.0000000  3
   8365   8363   8366   8367     1  0.0000000  0.6508444  3
   8365   8363   8366   8368     1  0.0000000  0.6508444  3
   8374   8377   8380   8381     1  0.0000000  0.6508444  3
   8374   8377   8380   8382     1  0.0000000  0.6508444  3
   8375   8374   8377   8380     1  0.0000000  0.6508444  3
   8375   8374   8377   8378     1  0.0000000  0.6508444  3
   8375   8374   8377   8379     1  0.0000000  0.6508444  3
   8375   8374   8383   8384     1  0.0000000  0.6508444  3
   8375   8374   8383   8385     1  0.0000000  0.6508444  3
   8375   8374   8383   8387     1  0.0000000  0.6508444  3
   8376   8374   8377   8380     1  0.0000000  0.6508444  3
   8376   8374   8377   8378     1  0.0000000  0.6508444  3
   8376   8374   8377   8379     1  0.0000000  0.6508444  3
   8376   8374   8383   8384     1  0.0000000  0.6508444  3
   8376   8374   8383   8385     1  0.0000000  0.6508444  3
   8376   8374   8383   8387     1  0.0000000  0.6508444  3
   8377   8374   8383   8384     1  0.0000000  0.6508444  3
   8377   8374   8383   8385     1  0.0000000  0.6508444  3
   8377   8374   8383   8387     1  0.0000000  0.6508444  3
   8378   8377   8380   8386     1  0.0000000  1.0460000  1
   8378   8377   8380   8386     1  0.0000000  0.0000000  3
   8378   8377   8380   8381     1  0.0000000  0.6508444  3
   8378   8377   8380   8382     1  0.0000000  0.6508444  3
   8378   8377   8374   8383     1  0.0000000  0.6508444  3
   8379   8377   8380   8386     1  0.0000000  1.0460000  1
   8379   8377   8380   8386     1  0.0000000  0.0000000  3
   8379   8377   8380   8381     1  0.0000000  0.6508444  3
   8379   8377   8380   8382     1  0.0000000  0.6508444  3
   8379   8377   8374   8383     1  0.0000000  0.6508444  3

;[ system ]
;; Name
;Generic title
;
;[ molecules ]
;; Compound       #mols
;system1              1
