;
;   File g3.5dpNcore_cooh_petim.itp  was generated
;   By user: sairam (1000)
;   On host: sairam
;   At date: Mon. February  1 15:13:56 2025
;
;   This is a standalone topology file
;
;   Created by:
;   ParmEd:       amb2gro_top_gro.py, VERSION 3.4.1
;   Executable:   amb2gro_top_gro.py
;   Library dir:  /usr/local/gromacs/share/gromacs/top
;   Command line:
;     ./amb2gro_top_gro.py -p g3.5dpNcore_cooh_petim.prmtop -c g3.5dpNcore_cooh_petim.inpcrd -t g3.5dpNcore_cooh_petim.itp -g g3.5dpNcore_cooh_petim.gro -b g3.5dpNcore_cooh_petim.pdb
;

;[ defaults ]
;; nbfunc        comb-rule       gen-pairs       fudgeLJ fudgeQQ
;1               2               yes             0.5          0.83333333  
;
;[ atomtypes ]
;; name    at.num    mass    charge ptype  sigma      epsilon
;n4             7  14.010000  0.00000000  A     0.32499985        0.71128
;c3             6  12.010000  0.00000000  A     0.33996695      0.4577296
;hx             1   1.008000  0.00000000  A     0.19599772      0.0656888
;hc             1   1.008000  0.00000000  A     0.26495328      0.0656888
;h1             1   1.008000  0.00000000  A      0.2471353      0.0656888
;hn             1   1.008000  0.00000000  A     0.10690785      0.0656888
;os             8  16.000000  0.00000000  A     0.30000123        0.71128
;c              6  12.010000  0.00000000  A     0.33996695       0.359824
;o              8  16.000000  0.00000000  A     0.29599219        0.87864
;oh             8  16.000000  0.00000000  A     0.30664734      0.8803136
;ho             1   1.008000  0.00000000  A              0              0


[ moleculetype ]
; Name            nrexcl
g3.5dpNcore_cooh_petim          3

[ atoms ]
;   nr       type  resnr residue  atom   cgnr    charge       mass  typeB    chargeB      massB
; residue    1 aaa rtp aaa q 1.0
    1         n4      1    aaa     N1      1 -0.24795800  14.010000   ; qtot -0.247958
    2         c3      1    aaa     C1      2 0.15727100  12.010000   ; qtot -0.090687
    3         hx      1    aaa     H1      3 0.05072400   1.008000   ; qtot -0.039963
    4         hx      1    aaa     H2      4 0.05072400   1.008000   ; qtot 0.010761
    5         c3      1    aaa     C2      5 0.15727100  12.010000   ; qtot 0.168032
    6         hx      1    aaa     H3      6 0.05072400   1.008000   ; qtot 0.218756
    7         hx      1    aaa     H4      7 0.05072400   1.008000   ; qtot 0.269480
    8         c3      1    aaa     C3      8 0.15727100  12.010000   ; qtot 0.426751
    9         hx      1    aaa     H5      9 0.05072400   1.008000   ; qtot 0.477475
   10         hx      1    aaa     H6     10 0.05072400   1.008000   ; qtot 0.528199
   11         c3      1    aaa     C4     11 0.05437700  12.010000   ; qtot 0.582576
   12         hc      1    aaa     H7     12 0.07708700   1.008000   ; qtot 0.659663
   13         hc      1    aaa     H8     13 0.07708700   1.008000   ; qtot 0.736750
   14         c3      1    aaa     C5     14 0.05437700  12.010000   ; qtot 0.791127
   15         hc      1    aaa     H9     15 0.07708700   1.008000   ; qtot 0.868214
   16         hc      1    aaa    H10     16 0.07708700   1.008000   ; qtot 0.945301
   17         c3      1    aaa     C6     17 0.05437700  12.010000   ; qtot 0.999678
   18         hc      1    aaa    H11     18 0.07708700   1.008000   ; qtot 1.076765
   19         hc      1    aaa    H12     19 0.07708700   1.008000   ; qtot 1.153852
   20         c3      1    aaa     C7     20 -0.74569400  12.010000   ; qtot 0.408158
   21         h1      1    aaa    H13     21 0.30837900   1.008000   ; qtot 0.716537
   22         h1      1    aaa    H14     22 0.30837900   1.008000   ; qtot 1.024916
   23         c3      1    aaa     C8     23 -0.74569400  12.010000   ; qtot 0.279222
   24         h1      1    aaa    H15     24 0.30837900   1.008000   ; qtot 0.587601
   25         h1      1    aaa    H16     25 0.30837900   1.008000   ; qtot 0.895980
   26         c3      1    aaa     C9     26 -0.74569400  12.010000   ; qtot 0.150286
   27         h1      1    aaa    H17     27 0.30837900   1.008000   ; qtot 0.458665
   28         h1      1    aaa    H18     28 0.30837900   1.008000   ; qtot 0.767044
   29         hn      1    aaa    H19     29 0.23295100   1.008000   ; qtot 0.999995
; residue    2 bbb rtp bbb q 1.0
   30         n4      2    bbb     N1     30 0.03726400  14.010000   ; qtot 1.037259
   31         c3      2    bbb     C1     31 -0.07020100  12.010000   ; qtot 0.967058
   32         hx      2    bbb     H1     32 0.12219000   1.008000   ; qtot 1.089248
   33         hx      2    bbb     H2     33 0.12219000   1.008000   ; qtot 1.211438
   34         c3      2    bbb     C2     34 -0.07020100  12.010000   ; qtot 1.141237
   35         hx      2    bbb     H3     35 0.12219000   1.008000   ; qtot 1.263427
   36         hx      2    bbb     H4     36 0.12219000   1.008000   ; qtot 1.385617
   37         c3      2    bbb     C3     37 -0.39007700  12.010000   ; qtot 0.995540
   38         hx      2    bbb     H5     38 0.14940300   1.008000   ; qtot 1.144943
   39         hx      2    bbb     H6     39 0.14940300   1.008000   ; qtot 1.294346
   40         c3      2    bbb     C4     40 0.18057300  12.010000   ; qtot 1.474919
   41         hc      2    bbb     H7     41 0.01788900   1.008000   ; qtot 1.492808
   42         hc      2    bbb     H8     42 0.01788900   1.008000   ; qtot 1.510697
   43         c3      2    bbb     C5     43 -0.11337700  12.010000   ; qtot 1.397320
   44         hc      2    bbb     H9     44 0.09515400   1.008000   ; qtot 1.492474
   45         hc      2    bbb    H10     45 0.09515400   1.008000   ; qtot 1.587628
   46         c3      2    bbb     C6     46 -0.11337700  12.010000   ; qtot 1.474251
   47         hc      2    bbb    H11     47 0.09515400   1.008000   ; qtot 1.569405
   48         hc      2    bbb    H12     48 0.09515400   1.008000   ; qtot 1.664559
   49         c3      2    bbb     C7     49 0.21842400  12.010000   ; qtot 1.882983
   50         h1      2    bbb    H13     50 0.04500300   1.008000   ; qtot 1.927986
   51         h1      2    bbb    H14     51 0.04500300   1.008000   ; qtot 1.972989
   52         c3      2    bbb     C8     52 -0.06455200  12.010000   ; qtot 1.908437
   53         h1      2    bbb    H15     53 0.13554100   1.008000   ; qtot 2.043978
   54         h1      2    bbb    H16     54 0.13554100   1.008000   ; qtot 2.179519
   55         c3      2    bbb     C9     55 -0.06455200  12.010000   ; qtot 2.114967
   56         h1      2    bbb    H17     56 0.13554100   1.008000   ; qtot 2.250508
   57         h1      2    bbb    H18     57 0.13554100   1.008000   ; qtot 2.386049
   58         os      2    bbb     O1     58 -0.62587700  16.000000   ; qtot 1.760172
   59         hn      2    bbb    H19     59 0.23982500   1.008000   ; qtot 1.999997
; residue    3 bbb rtp bbb q 1.0
   60         n4      3    bbb     N1     60 0.03726400  14.010000   ; qtot 2.037261
   61         c3      3    bbb     C1     61 -0.07020100  12.010000   ; qtot 1.967060
   62         hx      3    bbb     H1     62 0.12219000   1.008000   ; qtot 2.089250
   63         hx      3    bbb     H2     63 0.12219000   1.008000   ; qtot 2.211440
   64         c3      3    bbb     C2     64 -0.07020100  12.010000   ; qtot 2.141239
   65         hx      3    bbb     H3     65 0.12219000   1.008000   ; qtot 2.263429
   66         hx      3    bbb     H4     66 0.12219000   1.008000   ; qtot 2.385619
   67         c3      3    bbb     C3     67 -0.39007700  12.010000   ; qtot 1.995542
   68         hx      3    bbb     H5     68 0.14940300   1.008000   ; qtot 2.144945
   69         hx      3    bbb     H6     69 0.14940300   1.008000   ; qtot 2.294348
   70         c3      3    bbb     C4     70 0.18057300  12.010000   ; qtot 2.474921
   71         hc      3    bbb     H7     71 0.01788900   1.008000   ; qtot 2.492810
   72         hc      3    bbb     H8     72 0.01788900   1.008000   ; qtot 2.510699
   73         c3      3    bbb     C5     73 -0.11337700  12.010000   ; qtot 2.397322
   74         hc      3    bbb     H9     74 0.09515400   1.008000   ; qtot 2.492476
   75         hc      3    bbb    H10     75 0.09515400   1.008000   ; qtot 2.587630
   76         c3      3    bbb     C6     76 -0.11337700  12.010000   ; qtot 2.474253
   77         hc      3    bbb    H11     77 0.09515400   1.008000   ; qtot 2.569407
   78         hc      3    bbb    H12     78 0.09515400   1.008000   ; qtot 2.664561
   79         c3      3    bbb     C7     79 0.21842400  12.010000   ; qtot 2.882985
   80         h1      3    bbb    H13     80 0.04500300   1.008000   ; qtot 2.927988
   81         h1      3    bbb    H14     81 0.04500300   1.008000   ; qtot 2.972991
   82         c3      3    bbb     C8     82 -0.06455200  12.010000   ; qtot 2.908439
   83         h1      3    bbb    H15     83 0.13554100   1.008000   ; qtot 3.043980
   84         h1      3    bbb    H16     84 0.13554100   1.008000   ; qtot 3.179521
   85         c3      3    bbb     C9     85 -0.06455200  12.010000   ; qtot 3.114969
   86         h1      3    bbb    H17     86 0.13554100   1.008000   ; qtot 3.250510
   87         h1      3    bbb    H18     87 0.13554100   1.008000   ; qtot 3.386051
   88         os      3    bbb     O1     88 -0.62587700  16.000000   ; qtot 2.760174
   89         hn      3    bbb    H19     89 0.23982500   1.008000   ; qtot 2.999999
; residue    4 bbb rtp bbb q 1.0
   90         n4      4    bbb     N1     90 0.03726400  14.010000   ; qtot 3.037263
   91         c3      4    bbb     C1     91 -0.07020100  12.010000   ; qtot 2.967062
   92         hx      4    bbb     H1     92 0.12219000   1.008000   ; qtot 3.089252
   93         hx      4    bbb     H2     93 0.12219000   1.008000   ; qtot 3.211442
   94         c3      4    bbb     C2     94 -0.07020100  12.010000   ; qtot 3.141241
   95         hx      4    bbb     H3     95 0.12219000   1.008000   ; qtot 3.263431
   96         hx      4    bbb     H4     96 0.12219000   1.008000   ; qtot 3.385621
   97         c3      4    bbb     C3     97 -0.39007700  12.010000   ; qtot 2.995544
   98         hx      4    bbb     H5     98 0.14940300   1.008000   ; qtot 3.144947
   99         hx      4    bbb     H6     99 0.14940300   1.008000   ; qtot 3.294350
  100         c3      4    bbb     C4    100 0.18057300  12.010000   ; qtot 3.474923
  101         hc      4    bbb     H7    101 0.01788900   1.008000   ; qtot 3.492812
  102         hc      4    bbb     H8    102 0.01788900   1.008000   ; qtot 3.510701
  103         c3      4    bbb     C5    103 -0.11337700  12.010000   ; qtot 3.397324
  104         hc      4    bbb     H9    104 0.09515400   1.008000   ; qtot 3.492478
  105         hc      4    bbb    H10    105 0.09515400   1.008000   ; qtot 3.587632
  106         c3      4    bbb     C6    106 -0.11337700  12.010000   ; qtot 3.474255
  107         hc      4    bbb    H11    107 0.09515400   1.008000   ; qtot 3.569409
  108         hc      4    bbb    H12    108 0.09515400   1.008000   ; qtot 3.664563
  109         c3      4    bbb     C7    109 0.21842400  12.010000   ; qtot 3.882987
  110         h1      4    bbb    H13    110 0.04500300   1.008000   ; qtot 3.927990
  111         h1      4    bbb    H14    111 0.04500300   1.008000   ; qtot 3.972993
  112         c3      4    bbb     C8    112 -0.06455200  12.010000   ; qtot 3.908441
  113         h1      4    bbb    H15    113 0.13554100   1.008000   ; qtot 4.043982
  114         h1      4    bbb    H16    114 0.13554100   1.008000   ; qtot 4.179523
  115         c3      4    bbb     C9    115 -0.06455200  12.010000   ; qtot 4.114971
  116         h1      4    bbb    H17    116 0.13554100   1.008000   ; qtot 4.250512
  117         h1      4    bbb    H18    117 0.13554100   1.008000   ; qtot 4.386053
  118         os      4    bbb     O1    118 -0.62587700  16.000000   ; qtot 3.760176
  119         hn      4    bbb    H19    119 0.23982500   1.008000   ; qtot 4.000001
; residue    5 bbb rtp bbb q 1.0
  120         n4      5    bbb     N1    120 0.03726400  14.010000   ; qtot 4.037265
  121         c3      5    bbb     C1    121 -0.07020100  12.010000   ; qtot 3.967064
  122         hx      5    bbb     H1    122 0.12219000   1.008000   ; qtot 4.089254
  123         hx      5    bbb     H2    123 0.12219000   1.008000   ; qtot 4.211444
  124         c3      5    bbb     C2    124 -0.07020100  12.010000   ; qtot 4.141243
  125         hx      5    bbb     H3    125 0.12219000   1.008000   ; qtot 4.263433
  126         hx      5    bbb     H4    126 0.12219000   1.008000   ; qtot 4.385623
  127         c3      5    bbb     C3    127 -0.39007700  12.010000   ; qtot 3.995546
  128         hx      5    bbb     H5    128 0.14940300   1.008000   ; qtot 4.144949
  129         hx      5    bbb     H6    129 0.14940300   1.008000   ; qtot 4.294352
  130         c3      5    bbb     C4    130 0.18057300  12.010000   ; qtot 4.474925
  131         hc      5    bbb     H7    131 0.01788900   1.008000   ; qtot 4.492814
  132         hc      5    bbb     H8    132 0.01788900   1.008000   ; qtot 4.510703
  133         c3      5    bbb     C5    133 -0.11337700  12.010000   ; qtot 4.397326
  134         hc      5    bbb     H9    134 0.09515400   1.008000   ; qtot 4.492480
  135         hc      5    bbb    H10    135 0.09515400   1.008000   ; qtot 4.587634
  136         c3      5    bbb     C6    136 -0.11337700  12.010000   ; qtot 4.474257
  137         hc      5    bbb    H11    137 0.09515400   1.008000   ; qtot 4.569411
  138         hc      5    bbb    H12    138 0.09515400   1.008000   ; qtot 4.664565
  139         c3      5    bbb     C7    139 0.21842400  12.010000   ; qtot 4.882989
  140         h1      5    bbb    H13    140 0.04500300   1.008000   ; qtot 4.927992
  141         h1      5    bbb    H14    141 0.04500300   1.008000   ; qtot 4.972995
  142         c3      5    bbb     C8    142 -0.06455200  12.010000   ; qtot 4.908443
  143         h1      5    bbb    H15    143 0.13554100   1.008000   ; qtot 5.043984
  144         h1      5    bbb    H16    144 0.13554100   1.008000   ; qtot 5.179525
  145         c3      5    bbb     C9    145 -0.06455200  12.010000   ; qtot 5.114973
  146         h1      5    bbb    H17    146 0.13554100   1.008000   ; qtot 5.250514
  147         h1      5    bbb    H18    147 0.13554100   1.008000   ; qtot 5.386055
  148         os      5    bbb     O1    148 -0.62587700  16.000000   ; qtot 4.760178
  149         hn      5    bbb    H19    149 0.23982500   1.008000   ; qtot 5.000003
; residue    6 bbb rtp bbb q 1.0
  150         n4      6    bbb     N1    150 0.03726400  14.010000   ; qtot 5.037267
  151         c3      6    bbb     C1    151 -0.07020100  12.010000   ; qtot 4.967066
  152         hx      6    bbb     H1    152 0.12219000   1.008000   ; qtot 5.089256
  153         hx      6    bbb     H2    153 0.12219000   1.008000   ; qtot 5.211446
  154         c3      6    bbb     C2    154 -0.07020100  12.010000   ; qtot 5.141245
  155         hx      6    bbb     H3    155 0.12219000   1.008000   ; qtot 5.263435
  156         hx      6    bbb     H4    156 0.12219000   1.008000   ; qtot 5.385625
  157         c3      6    bbb     C3    157 -0.39007700  12.010000   ; qtot 4.995548
  158         hx      6    bbb     H5    158 0.14940300   1.008000   ; qtot 5.144951
  159         hx      6    bbb     H6    159 0.14940300   1.008000   ; qtot 5.294354
  160         c3      6    bbb     C4    160 0.18057300  12.010000   ; qtot 5.474927
  161         hc      6    bbb     H7    161 0.01788900   1.008000   ; qtot 5.492816
  162         hc      6    bbb     H8    162 0.01788900   1.008000   ; qtot 5.510705
  163         c3      6    bbb     C5    163 -0.11337700  12.010000   ; qtot 5.397328
  164         hc      6    bbb     H9    164 0.09515400   1.008000   ; qtot 5.492482
  165         hc      6    bbb    H10    165 0.09515400   1.008000   ; qtot 5.587636
  166         c3      6    bbb     C6    166 -0.11337700  12.010000   ; qtot 5.474259
  167         hc      6    bbb    H11    167 0.09515400   1.008000   ; qtot 5.569413
  168         hc      6    bbb    H12    168 0.09515400   1.008000   ; qtot 5.664567
  169         c3      6    bbb     C7    169 0.21842400  12.010000   ; qtot 5.882991
  170         h1      6    bbb    H13    170 0.04500300   1.008000   ; qtot 5.927994
  171         h1      6    bbb    H14    171 0.04500300   1.008000   ; qtot 5.972997
  172         c3      6    bbb     C8    172 -0.06455200  12.010000   ; qtot 5.908445
  173         h1      6    bbb    H15    173 0.13554100   1.008000   ; qtot 6.043986
  174         h1      6    bbb    H16    174 0.13554100   1.008000   ; qtot 6.179527
  175         c3      6    bbb     C9    175 -0.06455200  12.010000   ; qtot 6.114975
  176         h1      6    bbb    H17    176 0.13554100   1.008000   ; qtot 6.250516
  177         h1      6    bbb    H18    177 0.13554100   1.008000   ; qtot 6.386057
  178         os      6    bbb     O1    178 -0.62587700  16.000000   ; qtot 5.760180
  179         hn      6    bbb    H19    179 0.23982500   1.008000   ; qtot 6.000005
; residue    7 bbb rtp bbb q 1.0
  180         n4      7    bbb     N1    180 0.03726400  14.010000   ; qtot 6.037269
  181         c3      7    bbb     C1    181 -0.07020100  12.010000   ; qtot 5.967068
  182         hx      7    bbb     H1    182 0.12219000   1.008000   ; qtot 6.089258
  183         hx      7    bbb     H2    183 0.12219000   1.008000   ; qtot 6.211448
  184         c3      7    bbb     C2    184 -0.07020100  12.010000   ; qtot 6.141247
  185         hx      7    bbb     H3    185 0.12219000   1.008000   ; qtot 6.263437
  186         hx      7    bbb     H4    186 0.12219000   1.008000   ; qtot 6.385627
  187         c3      7    bbb     C3    187 -0.39007700  12.010000   ; qtot 5.995550
  188         hx      7    bbb     H5    188 0.14940300   1.008000   ; qtot 6.144953
  189         hx      7    bbb     H6    189 0.14940300   1.008000   ; qtot 6.294356
  190         c3      7    bbb     C4    190 0.18057300  12.010000   ; qtot 6.474929
  191         hc      7    bbb     H7    191 0.01788900   1.008000   ; qtot 6.492818
  192         hc      7    bbb     H8    192 0.01788900   1.008000   ; qtot 6.510707
  193         c3      7    bbb     C5    193 -0.11337700  12.010000   ; qtot 6.397330
  194         hc      7    bbb     H9    194 0.09515400   1.008000   ; qtot 6.492484
  195         hc      7    bbb    H10    195 0.09515400   1.008000   ; qtot 6.587638
  196         c3      7    bbb     C6    196 -0.11337700  12.010000   ; qtot 6.474261
  197         hc      7    bbb    H11    197 0.09515400   1.008000   ; qtot 6.569415
  198         hc      7    bbb    H12    198 0.09515400   1.008000   ; qtot 6.664569
  199         c3      7    bbb     C7    199 0.21842400  12.010000   ; qtot 6.882993
  200         h1      7    bbb    H13    200 0.04500300   1.008000   ; qtot 6.927996
  201         h1      7    bbb    H14    201 0.04500300   1.008000   ; qtot 6.972999
  202         c3      7    bbb     C8    202 -0.06455200  12.010000   ; qtot 6.908447
  203         h1      7    bbb    H15    203 0.13554100   1.008000   ; qtot 7.043988
  204         h1      7    bbb    H16    204 0.13554100   1.008000   ; qtot 7.179529
  205         c3      7    bbb     C9    205 -0.06455200  12.010000   ; qtot 7.114977
  206         h1      7    bbb    H17    206 0.13554100   1.008000   ; qtot 7.250518
  207         h1      7    bbb    H18    207 0.13554100   1.008000   ; qtot 7.386059
  208         os      7    bbb     O1    208 -0.62587700  16.000000   ; qtot 6.760182
  209         hn      7    bbb    H19    209 0.23982500   1.008000   ; qtot 7.000007
; residue    8 bbb rtp bbb q 1.0
  210         n4      8    bbb     N1    210 0.03726400  14.010000   ; qtot 7.037271
  211         c3      8    bbb     C1    211 -0.07020100  12.010000   ; qtot 6.967070
  212         hx      8    bbb     H1    212 0.12219000   1.008000   ; qtot 7.089260
  213         hx      8    bbb     H2    213 0.12219000   1.008000   ; qtot 7.211450
  214         c3      8    bbb     C2    214 -0.07020100  12.010000   ; qtot 7.141249
  215         hx      8    bbb     H3    215 0.12219000   1.008000   ; qtot 7.263439
  216         hx      8    bbb     H4    216 0.12219000   1.008000   ; qtot 7.385629
  217         c3      8    bbb     C3    217 -0.39007700  12.010000   ; qtot 6.995552
  218         hx      8    bbb     H5    218 0.14940300   1.008000   ; qtot 7.144955
  219         hx      8    bbb     H6    219 0.14940300   1.008000   ; qtot 7.294358
  220         c3      8    bbb     C4    220 0.18057300  12.010000   ; qtot 7.474931
  221         hc      8    bbb     H7    221 0.01788900   1.008000   ; qtot 7.492820
  222         hc      8    bbb     H8    222 0.01788900   1.008000   ; qtot 7.510709
  223         c3      8    bbb     C5    223 -0.11337700  12.010000   ; qtot 7.397332
  224         hc      8    bbb     H9    224 0.09515400   1.008000   ; qtot 7.492486
  225         hc      8    bbb    H10    225 0.09515400   1.008000   ; qtot 7.587640
  226         c3      8    bbb     C6    226 -0.11337700  12.010000   ; qtot 7.474263
  227         hc      8    bbb    H11    227 0.09515400   1.008000   ; qtot 7.569417
  228         hc      8    bbb    H12    228 0.09515400   1.008000   ; qtot 7.664571
  229         c3      8    bbb     C7    229 0.21842400  12.010000   ; qtot 7.882995
  230         h1      8    bbb    H13    230 0.04500300   1.008000   ; qtot 7.927998
  231         h1      8    bbb    H14    231 0.04500300   1.008000   ; qtot 7.973001
  232         c3      8    bbb     C8    232 -0.06455200  12.010000   ; qtot 7.908449
  233         h1      8    bbb    H15    233 0.13554100   1.008000   ; qtot 8.043990
  234         h1      8    bbb    H16    234 0.13554100   1.008000   ; qtot 8.179531
  235         c3      8    bbb     C9    235 -0.06455200  12.010000   ; qtot 8.114979
  236         h1      8    bbb    H17    236 0.13554100   1.008000   ; qtot 8.250520
  237         h1      8    bbb    H18    237 0.13554100   1.008000   ; qtot 8.386061
  238         os      8    bbb     O1    238 -0.62587700  16.000000   ; qtot 7.760184
  239         hn      8    bbb    H19    239 0.23982500   1.008000   ; qtot 8.000009
; residue    9 bbb rtp bbb q 1.0
  240         n4      9    bbb     N1    240 0.03726400  14.010000   ; qtot 8.037273
  241         c3      9    bbb     C1    241 -0.07020100  12.010000   ; qtot 7.967072
  242         hx      9    bbb     H1    242 0.12219000   1.008000   ; qtot 8.089262
  243         hx      9    bbb     H2    243 0.12219000   1.008000   ; qtot 8.211452
  244         c3      9    bbb     C2    244 -0.07020100  12.010000   ; qtot 8.141251
  245         hx      9    bbb     H3    245 0.12219000   1.008000   ; qtot 8.263441
  246         hx      9    bbb     H4    246 0.12219000   1.008000   ; qtot 8.385631
  247         c3      9    bbb     C3    247 -0.39007700  12.010000   ; qtot 7.995554
  248         hx      9    bbb     H5    248 0.14940300   1.008000   ; qtot 8.144957
  249         hx      9    bbb     H6    249 0.14940300   1.008000   ; qtot 8.294360
  250         c3      9    bbb     C4    250 0.18057300  12.010000   ; qtot 8.474933
  251         hc      9    bbb     H7    251 0.01788900   1.008000   ; qtot 8.492822
  252         hc      9    bbb     H8    252 0.01788900   1.008000   ; qtot 8.510711
  253         c3      9    bbb     C5    253 -0.11337700  12.010000   ; qtot 8.397334
  254         hc      9    bbb     H9    254 0.09515400   1.008000   ; qtot 8.492488
  255         hc      9    bbb    H10    255 0.09515400   1.008000   ; qtot 8.587642
  256         c3      9    bbb     C6    256 -0.11337700  12.010000   ; qtot 8.474265
  257         hc      9    bbb    H11    257 0.09515400   1.008000   ; qtot 8.569419
  258         hc      9    bbb    H12    258 0.09515400   1.008000   ; qtot 8.664573
  259         c3      9    bbb     C7    259 0.21842400  12.010000   ; qtot 8.882997
  260         h1      9    bbb    H13    260 0.04500300   1.008000   ; qtot 8.928000
  261         h1      9    bbb    H14    261 0.04500300   1.008000   ; qtot 8.973003
  262         c3      9    bbb     C8    262 -0.06455200  12.010000   ; qtot 8.908451
  263         h1      9    bbb    H15    263 0.13554100   1.008000   ; qtot 9.043992
  264         h1      9    bbb    H16    264 0.13554100   1.008000   ; qtot 9.179533
  265         c3      9    bbb     C9    265 -0.06455200  12.010000   ; qtot 9.114981
  266         h1      9    bbb    H17    266 0.13554100   1.008000   ; qtot 9.250522
  267         h1      9    bbb    H18    267 0.13554100   1.008000   ; qtot 9.386063
  268         os      9    bbb     O1    268 -0.62587700  16.000000   ; qtot 8.760186
  269         hn      9    bbb    H19    269 0.23982500   1.008000   ; qtot 9.000011
; residue   10 bbb rtp bbb q 1.0
  270         n4     10    bbb     N1    270 0.03726400  14.010000   ; qtot 9.037275
  271         c3     10    bbb     C1    271 -0.07020100  12.010000   ; qtot 8.967074
  272         hx     10    bbb     H1    272 0.12219000   1.008000   ; qtot 9.089264
  273         hx     10    bbb     H2    273 0.12219000   1.008000   ; qtot 9.211454
  274         c3     10    bbb     C2    274 -0.07020100  12.010000   ; qtot 9.141253
  275         hx     10    bbb     H3    275 0.12219000   1.008000   ; qtot 9.263443
  276         hx     10    bbb     H4    276 0.12219000   1.008000   ; qtot 9.385633
  277         c3     10    bbb     C3    277 -0.39007700  12.010000   ; qtot 8.995556
  278         hx     10    bbb     H5    278 0.14940300   1.008000   ; qtot 9.144959
  279         hx     10    bbb     H6    279 0.14940300   1.008000   ; qtot 9.294362
  280         c3     10    bbb     C4    280 0.18057300  12.010000   ; qtot 9.474935
  281         hc     10    bbb     H7    281 0.01788900   1.008000   ; qtot 9.492824
  282         hc     10    bbb     H8    282 0.01788900   1.008000   ; qtot 9.510713
  283         c3     10    bbb     C5    283 -0.11337700  12.010000   ; qtot 9.397336
  284         hc     10    bbb     H9    284 0.09515400   1.008000   ; qtot 9.492490
  285         hc     10    bbb    H10    285 0.09515400   1.008000   ; qtot 9.587644
  286         c3     10    bbb     C6    286 -0.11337700  12.010000   ; qtot 9.474267
  287         hc     10    bbb    H11    287 0.09515400   1.008000   ; qtot 9.569421
  288         hc     10    bbb    H12    288 0.09515400   1.008000   ; qtot 9.664575
  289         c3     10    bbb     C7    289 0.21842400  12.010000   ; qtot 9.882999
  290         h1     10    bbb    H13    290 0.04500300   1.008000   ; qtot 9.928002
  291         h1     10    bbb    H14    291 0.04500300   1.008000   ; qtot 9.973005
  292         c3     10    bbb     C8    292 -0.06455200  12.010000   ; qtot 9.908453
  293         h1     10    bbb    H15    293 0.13554100   1.008000   ; qtot 10.043994
  294         h1     10    bbb    H16    294 0.13554100   1.008000   ; qtot 10.179535
  295         c3     10    bbb     C9    295 -0.06455200  12.010000   ; qtot 10.114983
  296         h1     10    bbb    H17    296 0.13554100   1.008000   ; qtot 10.250524
  297         h1     10    bbb    H18    297 0.13554100   1.008000   ; qtot 10.386065
  298         os     10    bbb     O1    298 -0.62587700  16.000000   ; qtot 9.760188
  299         hn     10    bbb    H19    299 0.23982500   1.008000   ; qtot 10.000013
; residue   11 bbb rtp bbb q 1.0
  300         n4     11    bbb     N1    300 0.03726400  14.010000   ; qtot 10.037277
  301         c3     11    bbb     C1    301 -0.07020100  12.010000   ; qtot 9.967076
  302         hx     11    bbb     H1    302 0.12219000   1.008000   ; qtot 10.089266
  303         hx     11    bbb     H2    303 0.12219000   1.008000   ; qtot 10.211456
  304         c3     11    bbb     C2    304 -0.07020100  12.010000   ; qtot 10.141255
  305         hx     11    bbb     H3    305 0.12219000   1.008000   ; qtot 10.263445
  306         hx     11    bbb     H4    306 0.12219000   1.008000   ; qtot 10.385635
  307         c3     11    bbb     C3    307 -0.39007700  12.010000   ; qtot 9.995558
  308         hx     11    bbb     H5    308 0.14940300   1.008000   ; qtot 10.144961
  309         hx     11    bbb     H6    309 0.14940300   1.008000   ; qtot 10.294364
  310         c3     11    bbb     C4    310 0.18057300  12.010000   ; qtot 10.474937
  311         hc     11    bbb     H7    311 0.01788900   1.008000   ; qtot 10.492826
  312         hc     11    bbb     H8    312 0.01788900   1.008000   ; qtot 10.510715
  313         c3     11    bbb     C5    313 -0.11337700  12.010000   ; qtot 10.397338
  314         hc     11    bbb     H9    314 0.09515400   1.008000   ; qtot 10.492492
  315         hc     11    bbb    H10    315 0.09515400   1.008000   ; qtot 10.587646
  316         c3     11    bbb     C6    316 -0.11337700  12.010000   ; qtot 10.474269
  317         hc     11    bbb    H11    317 0.09515400   1.008000   ; qtot 10.569423
  318         hc     11    bbb    H12    318 0.09515400   1.008000   ; qtot 10.664577
  319         c3     11    bbb     C7    319 0.21842400  12.010000   ; qtot 10.883001
  320         h1     11    bbb    H13    320 0.04500300   1.008000   ; qtot 10.928004
  321         h1     11    bbb    H14    321 0.04500300   1.008000   ; qtot 10.973007
  322         c3     11    bbb     C8    322 -0.06455200  12.010000   ; qtot 10.908455
  323         h1     11    bbb    H15    323 0.13554100   1.008000   ; qtot 11.043996
  324         h1     11    bbb    H16    324 0.13554100   1.008000   ; qtot 11.179537
  325         c3     11    bbb     C9    325 -0.06455200  12.010000   ; qtot 11.114985
  326         h1     11    bbb    H17    326 0.13554100   1.008000   ; qtot 11.250526
  327         h1     11    bbb    H18    327 0.13554100   1.008000   ; qtot 11.386067
  328         os     11    bbb     O1    328 -0.62587700  16.000000   ; qtot 10.760190
  329         hn     11    bbb    H19    329 0.23982500   1.008000   ; qtot 11.000015
; residue   12 bbb rtp bbb q 1.0
  330         n4     12    bbb     N1    330 0.03726400  14.010000   ; qtot 11.037279
  331         c3     12    bbb     C1    331 -0.07020100  12.010000   ; qtot 10.967078
  332         hx     12    bbb     H1    332 0.12219000   1.008000   ; qtot 11.089268
  333         hx     12    bbb     H2    333 0.12219000   1.008000   ; qtot 11.211458
  334         c3     12    bbb     C2    334 -0.07020100  12.010000   ; qtot 11.141257
  335         hx     12    bbb     H3    335 0.12219000   1.008000   ; qtot 11.263447
  336         hx     12    bbb     H4    336 0.12219000   1.008000   ; qtot 11.385637
  337         c3     12    bbb     C3    337 -0.39007700  12.010000   ; qtot 10.995560
  338         hx     12    bbb     H5    338 0.14940300   1.008000   ; qtot 11.144963
  339         hx     12    bbb     H6    339 0.14940300   1.008000   ; qtot 11.294366
  340         c3     12    bbb     C4    340 0.18057300  12.010000   ; qtot 11.474939
  341         hc     12    bbb     H7    341 0.01788900   1.008000   ; qtot 11.492828
  342         hc     12    bbb     H8    342 0.01788900   1.008000   ; qtot 11.510717
  343         c3     12    bbb     C5    343 -0.11337700  12.010000   ; qtot 11.397340
  344         hc     12    bbb     H9    344 0.09515400   1.008000   ; qtot 11.492494
  345         hc     12    bbb    H10    345 0.09515400   1.008000   ; qtot 11.587648
  346         c3     12    bbb     C6    346 -0.11337700  12.010000   ; qtot 11.474271
  347         hc     12    bbb    H11    347 0.09515400   1.008000   ; qtot 11.569425
  348         hc     12    bbb    H12    348 0.09515400   1.008000   ; qtot 11.664579
  349         c3     12    bbb     C7    349 0.21842400  12.010000   ; qtot 11.883003
  350         h1     12    bbb    H13    350 0.04500300   1.008000   ; qtot 11.928006
  351         h1     12    bbb    H14    351 0.04500300   1.008000   ; qtot 11.973009
  352         c3     12    bbb     C8    352 -0.06455200  12.010000   ; qtot 11.908457
  353         h1     12    bbb    H15    353 0.13554100   1.008000   ; qtot 12.043998
  354         h1     12    bbb    H16    354 0.13554100   1.008000   ; qtot 12.179539
  355         c3     12    bbb     C9    355 -0.06455200  12.010000   ; qtot 12.114987
  356         h1     12    bbb    H17    356 0.13554100   1.008000   ; qtot 12.250528
  357         h1     12    bbb    H18    357 0.13554100   1.008000   ; qtot 12.386069
  358         os     12    bbb     O1    358 -0.62587700  16.000000   ; qtot 11.760192
  359         hn     12    bbb    H19    359 0.23982500   1.008000   ; qtot 12.000017
; residue   13 bbb rtp bbb q 1.0
  360         n4     13    bbb     N1    360 0.03726400  14.010000   ; qtot 12.037281
  361         c3     13    bbb     C1    361 -0.07020100  12.010000   ; qtot 11.967080
  362         hx     13    bbb     H1    362 0.12219000   1.008000   ; qtot 12.089270
  363         hx     13    bbb     H2    363 0.12219000   1.008000   ; qtot 12.211460
  364         c3     13    bbb     C2    364 -0.07020100  12.010000   ; qtot 12.141259
  365         hx     13    bbb     H3    365 0.12219000   1.008000   ; qtot 12.263449
  366         hx     13    bbb     H4    366 0.12219000   1.008000   ; qtot 12.385639
  367         c3     13    bbb     C3    367 -0.39007700  12.010000   ; qtot 11.995562
  368         hx     13    bbb     H5    368 0.14940300   1.008000   ; qtot 12.144965
  369         hx     13    bbb     H6    369 0.14940300   1.008000   ; qtot 12.294368
  370         c3     13    bbb     C4    370 0.18057300  12.010000   ; qtot 12.474941
  371         hc     13    bbb     H7    371 0.01788900   1.008000   ; qtot 12.492830
  372         hc     13    bbb     H8    372 0.01788900   1.008000   ; qtot 12.510719
  373         c3     13    bbb     C5    373 -0.11337700  12.010000   ; qtot 12.397342
  374         hc     13    bbb     H9    374 0.09515400   1.008000   ; qtot 12.492496
  375         hc     13    bbb    H10    375 0.09515400   1.008000   ; qtot 12.587650
  376         c3     13    bbb     C6    376 -0.11337700  12.010000   ; qtot 12.474273
  377         hc     13    bbb    H11    377 0.09515400   1.008000   ; qtot 12.569427
  378         hc     13    bbb    H12    378 0.09515400   1.008000   ; qtot 12.664581
  379         c3     13    bbb     C7    379 0.21842400  12.010000   ; qtot 12.883005
  380         h1     13    bbb    H13    380 0.04500300   1.008000   ; qtot 12.928008
  381         h1     13    bbb    H14    381 0.04500300   1.008000   ; qtot 12.973011
  382         c3     13    bbb     C8    382 -0.06455200  12.010000   ; qtot 12.908459
  383         h1     13    bbb    H15    383 0.13554100   1.008000   ; qtot 13.044000
  384         h1     13    bbb    H16    384 0.13554100   1.008000   ; qtot 13.179541
  385         c3     13    bbb     C9    385 -0.06455200  12.010000   ; qtot 13.114989
  386         h1     13    bbb    H17    386 0.13554100   1.008000   ; qtot 13.250530
  387         h1     13    bbb    H18    387 0.13554100   1.008000   ; qtot 13.386071
  388         os     13    bbb     O1    388 -0.62587700  16.000000   ; qtot 12.760194
  389         hn     13    bbb    H19    389 0.23982500   1.008000   ; qtot 13.000019
; residue   14 bbb rtp bbb q 1.0
  390         n4     14    bbb     N1    390 0.03726400  14.010000   ; qtot 13.037283
  391         c3     14    bbb     C1    391 -0.07020100  12.010000   ; qtot 12.967082
  392         hx     14    bbb     H1    392 0.12219000   1.008000   ; qtot 13.089272
  393         hx     14    bbb     H2    393 0.12219000   1.008000   ; qtot 13.211462
  394         c3     14    bbb     C2    394 -0.07020100  12.010000   ; qtot 13.141261
  395         hx     14    bbb     H3    395 0.12219000   1.008000   ; qtot 13.263451
  396         hx     14    bbb     H4    396 0.12219000   1.008000   ; qtot 13.385641
  397         c3     14    bbb     C3    397 -0.39007700  12.010000   ; qtot 12.995564
  398         hx     14    bbb     H5    398 0.14940300   1.008000   ; qtot 13.144967
  399         hx     14    bbb     H6    399 0.14940300   1.008000   ; qtot 13.294370
  400         c3     14    bbb     C4    400 0.18057300  12.010000   ; qtot 13.474943
  401         hc     14    bbb     H7    401 0.01788900   1.008000   ; qtot 13.492832
  402         hc     14    bbb     H8    402 0.01788900   1.008000   ; qtot 13.510721
  403         c3     14    bbb     C5    403 -0.11337700  12.010000   ; qtot 13.397344
  404         hc     14    bbb     H9    404 0.09515400   1.008000   ; qtot 13.492498
  405         hc     14    bbb    H10    405 0.09515400   1.008000   ; qtot 13.587652
  406         c3     14    bbb     C6    406 -0.11337700  12.010000   ; qtot 13.474275
  407         hc     14    bbb    H11    407 0.09515400   1.008000   ; qtot 13.569429
  408         hc     14    bbb    H12    408 0.09515400   1.008000   ; qtot 13.664583
  409         c3     14    bbb     C7    409 0.21842400  12.010000   ; qtot 13.883007
  410         h1     14    bbb    H13    410 0.04500300   1.008000   ; qtot 13.928010
  411         h1     14    bbb    H14    411 0.04500300   1.008000   ; qtot 13.973013
  412         c3     14    bbb     C8    412 -0.06455200  12.010000   ; qtot 13.908461
  413         h1     14    bbb    H15    413 0.13554100   1.008000   ; qtot 14.044002
  414         h1     14    bbb    H16    414 0.13554100   1.008000   ; qtot 14.179543
  415         c3     14    bbb     C9    415 -0.06455200  12.010000   ; qtot 14.114991
  416         h1     14    bbb    H17    416 0.13554100   1.008000   ; qtot 14.250532
  417         h1     14    bbb    H18    417 0.13554100   1.008000   ; qtot 14.386073
  418         os     14    bbb     O1    418 -0.62587700  16.000000   ; qtot 13.760196
  419         hn     14    bbb    H19    419 0.23982500   1.008000   ; qtot 14.000021
; residue   15 bbb rtp bbb q 1.0
  420         n4     15    bbb     N1    420 0.03726400  14.010000   ; qtot 14.037285
  421         c3     15    bbb     C1    421 -0.07020100  12.010000   ; qtot 13.967084
  422         hx     15    bbb     H1    422 0.12219000   1.008000   ; qtot 14.089274
  423         hx     15    bbb     H2    423 0.12219000   1.008000   ; qtot 14.211464
  424         c3     15    bbb     C2    424 -0.07020100  12.010000   ; qtot 14.141263
  425         hx     15    bbb     H3    425 0.12219000   1.008000   ; qtot 14.263453
  426         hx     15    bbb     H4    426 0.12219000   1.008000   ; qtot 14.385643
  427         c3     15    bbb     C3    427 -0.39007700  12.010000   ; qtot 13.995566
  428         hx     15    bbb     H5    428 0.14940300   1.008000   ; qtot 14.144969
  429         hx     15    bbb     H6    429 0.14940300   1.008000   ; qtot 14.294372
  430         c3     15    bbb     C4    430 0.18057300  12.010000   ; qtot 14.474945
  431         hc     15    bbb     H7    431 0.01788900   1.008000   ; qtot 14.492834
  432         hc     15    bbb     H8    432 0.01788900   1.008000   ; qtot 14.510723
  433         c3     15    bbb     C5    433 -0.11337700  12.010000   ; qtot 14.397346
  434         hc     15    bbb     H9    434 0.09515400   1.008000   ; qtot 14.492500
  435         hc     15    bbb    H10    435 0.09515400   1.008000   ; qtot 14.587654
  436         c3     15    bbb     C6    436 -0.11337700  12.010000   ; qtot 14.474277
  437         hc     15    bbb    H11    437 0.09515400   1.008000   ; qtot 14.569431
  438         hc     15    bbb    H12    438 0.09515400   1.008000   ; qtot 14.664585
  439         c3     15    bbb     C7    439 0.21842400  12.010000   ; qtot 14.883009
  440         h1     15    bbb    H13    440 0.04500300   1.008000   ; qtot 14.928012
  441         h1     15    bbb    H14    441 0.04500300   1.008000   ; qtot 14.973015
  442         c3     15    bbb     C8    442 -0.06455200  12.010000   ; qtot 14.908463
  443         h1     15    bbb    H15    443 0.13554100   1.008000   ; qtot 15.044004
  444         h1     15    bbb    H16    444 0.13554100   1.008000   ; qtot 15.179545
  445         c3     15    bbb     C9    445 -0.06455200  12.010000   ; qtot 15.114993
  446         h1     15    bbb    H17    446 0.13554100   1.008000   ; qtot 15.250534
  447         h1     15    bbb    H18    447 0.13554100   1.008000   ; qtot 15.386075
  448         os     15    bbb     O1    448 -0.62587700  16.000000   ; qtot 14.760198
  449         hn     15    bbb    H19    449 0.23982500   1.008000   ; qtot 15.000023
; residue   16 bbb rtp bbb q 1.0
  450         n4     16    bbb     N1    450 0.03726400  14.010000   ; qtot 15.037287
  451         c3     16    bbb     C1    451 -0.07020100  12.010000   ; qtot 14.967086
  452         hx     16    bbb     H1    452 0.12219000   1.008000   ; qtot 15.089276
  453         hx     16    bbb     H2    453 0.12219000   1.008000   ; qtot 15.211466
  454         c3     16    bbb     C2    454 -0.07020100  12.010000   ; qtot 15.141265
  455         hx     16    bbb     H3    455 0.12219000   1.008000   ; qtot 15.263455
  456         hx     16    bbb     H4    456 0.12219000   1.008000   ; qtot 15.385645
  457         c3     16    bbb     C3    457 -0.39007700  12.010000   ; qtot 14.995568
  458         hx     16    bbb     H5    458 0.14940300   1.008000   ; qtot 15.144971
  459         hx     16    bbb     H6    459 0.14940300   1.008000   ; qtot 15.294374
  460         c3     16    bbb     C4    460 0.18057300  12.010000   ; qtot 15.474947
  461         hc     16    bbb     H7    461 0.01788900   1.008000   ; qtot 15.492836
  462         hc     16    bbb     H8    462 0.01788900   1.008000   ; qtot 15.510725
  463         c3     16    bbb     C5    463 -0.11337700  12.010000   ; qtot 15.397348
  464         hc     16    bbb     H9    464 0.09515400   1.008000   ; qtot 15.492502
  465         hc     16    bbb    H10    465 0.09515400   1.008000   ; qtot 15.587656
  466         c3     16    bbb     C6    466 -0.11337700  12.010000   ; qtot 15.474279
  467         hc     16    bbb    H11    467 0.09515400   1.008000   ; qtot 15.569433
  468         hc     16    bbb    H12    468 0.09515400   1.008000   ; qtot 15.664587
  469         c3     16    bbb     C7    469 0.21842400  12.010000   ; qtot 15.883011
  470         h1     16    bbb    H13    470 0.04500300   1.008000   ; qtot 15.928014
  471         h1     16    bbb    H14    471 0.04500300   1.008000   ; qtot 15.973017
  472         c3     16    bbb     C8    472 -0.06455200  12.010000   ; qtot 15.908465
  473         h1     16    bbb    H15    473 0.13554100   1.008000   ; qtot 16.044006
  474         h1     16    bbb    H16    474 0.13554100   1.008000   ; qtot 16.179547
  475         c3     16    bbb     C9    475 -0.06455200  12.010000   ; qtot 16.114995
  476         h1     16    bbb    H17    476 0.13554100   1.008000   ; qtot 16.250536
  477         h1     16    bbb    H18    477 0.13554100   1.008000   ; qtot 16.386077
  478         os     16    bbb     O1    478 -0.62587700  16.000000   ; qtot 15.760200
  479         hn     16    bbb    H19    479 0.23982500   1.008000   ; qtot 16.000025
; residue   17 bbb rtp bbb q 1.0
  480         n4     17    bbb     N1    480 0.03726400  14.010000   ; qtot 16.037289
  481         c3     17    bbb     C1    481 -0.07020100  12.010000   ; qtot 15.967088
  482         hx     17    bbb     H1    482 0.12219000   1.008000   ; qtot 16.089278
  483         hx     17    bbb     H2    483 0.12219000   1.008000   ; qtot 16.211468
  484         c3     17    bbb     C2    484 -0.07020100  12.010000   ; qtot 16.141267
  485         hx     17    bbb     H3    485 0.12219000   1.008000   ; qtot 16.263457
  486         hx     17    bbb     H4    486 0.12219000   1.008000   ; qtot 16.385647
  487         c3     17    bbb     C3    487 -0.39007700  12.010000   ; qtot 15.995570
  488         hx     17    bbb     H5    488 0.14940300   1.008000   ; qtot 16.144973
  489         hx     17    bbb     H6    489 0.14940300   1.008000   ; qtot 16.294376
  490         c3     17    bbb     C4    490 0.18057300  12.010000   ; qtot 16.474949
  491         hc     17    bbb     H7    491 0.01788900   1.008000   ; qtot 16.492838
  492         hc     17    bbb     H8    492 0.01788900   1.008000   ; qtot 16.510727
  493         c3     17    bbb     C5    493 -0.11337700  12.010000   ; qtot 16.397350
  494         hc     17    bbb     H9    494 0.09515400   1.008000   ; qtot 16.492504
  495         hc     17    bbb    H10    495 0.09515400   1.008000   ; qtot 16.587658
  496         c3     17    bbb     C6    496 -0.11337700  12.010000   ; qtot 16.474281
  497         hc     17    bbb    H11    497 0.09515400   1.008000   ; qtot 16.569435
  498         hc     17    bbb    H12    498 0.09515400   1.008000   ; qtot 16.664589
  499         c3     17    bbb     C7    499 0.21842400  12.010000   ; qtot 16.883013
  500         h1     17    bbb    H13    500 0.04500300   1.008000   ; qtot 16.928016
  501         h1     17    bbb    H14    501 0.04500300   1.008000   ; qtot 16.973019
  502         c3     17    bbb     C8    502 -0.06455200  12.010000   ; qtot 16.908467
  503         h1     17    bbb    H15    503 0.13554100   1.008000   ; qtot 17.044008
  504         h1     17    bbb    H16    504 0.13554100   1.008000   ; qtot 17.179549
  505         c3     17    bbb     C9    505 -0.06455200  12.010000   ; qtot 17.114997
  506         h1     17    bbb    H17    506 0.13554100   1.008000   ; qtot 17.250538
  507         h1     17    bbb    H18    507 0.13554100   1.008000   ; qtot 17.386079
  508         os     17    bbb     O1    508 -0.62587700  16.000000   ; qtot 16.760202
  509         hn     17    bbb    H19    509 0.23982500   1.008000   ; qtot 17.000027
; residue   18 bbb rtp bbb q 1.0
  510         n4     18    bbb     N1    510 0.03726400  14.010000   ; qtot 17.037291
  511         c3     18    bbb     C1    511 -0.07020100  12.010000   ; qtot 16.967090
  512         hx     18    bbb     H1    512 0.12219000   1.008000   ; qtot 17.089280
  513         hx     18    bbb     H2    513 0.12219000   1.008000   ; qtot 17.211470
  514         c3     18    bbb     C2    514 -0.07020100  12.010000   ; qtot 17.141269
  515         hx     18    bbb     H3    515 0.12219000   1.008000   ; qtot 17.263459
  516         hx     18    bbb     H4    516 0.12219000   1.008000   ; qtot 17.385649
  517         c3     18    bbb     C3    517 -0.39007700  12.010000   ; qtot 16.995572
  518         hx     18    bbb     H5    518 0.14940300   1.008000   ; qtot 17.144975
  519         hx     18    bbb     H6    519 0.14940300   1.008000   ; qtot 17.294378
  520         c3     18    bbb     C4    520 0.18057300  12.010000   ; qtot 17.474951
  521         hc     18    bbb     H7    521 0.01788900   1.008000   ; qtot 17.492840
  522         hc     18    bbb     H8    522 0.01788900   1.008000   ; qtot 17.510729
  523         c3     18    bbb     C5    523 -0.11337700  12.010000   ; qtot 17.397352
  524         hc     18    bbb     H9    524 0.09515400   1.008000   ; qtot 17.492506
  525         hc     18    bbb    H10    525 0.09515400   1.008000   ; qtot 17.587660
  526         c3     18    bbb     C6    526 -0.11337700  12.010000   ; qtot 17.474283
  527         hc     18    bbb    H11    527 0.09515400   1.008000   ; qtot 17.569437
  528         hc     18    bbb    H12    528 0.09515400   1.008000   ; qtot 17.664591
  529         c3     18    bbb     C7    529 0.21842400  12.010000   ; qtot 17.883015
  530         h1     18    bbb    H13    530 0.04500300   1.008000   ; qtot 17.928018
  531         h1     18    bbb    H14    531 0.04500300   1.008000   ; qtot 17.973021
  532         c3     18    bbb     C8    532 -0.06455200  12.010000   ; qtot 17.908469
  533         h1     18    bbb    H15    533 0.13554100   1.008000   ; qtot 18.044010
  534         h1     18    bbb    H16    534 0.13554100   1.008000   ; qtot 18.179551
  535         c3     18    bbb     C9    535 -0.06455200  12.010000   ; qtot 18.114999
  536         h1     18    bbb    H17    536 0.13554100   1.008000   ; qtot 18.250540
  537         h1     18    bbb    H18    537 0.13554100   1.008000   ; qtot 18.386081
  538         os     18    bbb     O1    538 -0.62587700  16.000000   ; qtot 17.760204
  539         hn     18    bbb    H19    539 0.23982500   1.008000   ; qtot 18.000029
; residue   19 bbb rtp bbb q 1.0
  540         n4     19    bbb     N1    540 0.03726400  14.010000   ; qtot 18.037293
  541         c3     19    bbb     C1    541 -0.07020100  12.010000   ; qtot 17.967092
  542         hx     19    bbb     H1    542 0.12219000   1.008000   ; qtot 18.089282
  543         hx     19    bbb     H2    543 0.12219000   1.008000   ; qtot 18.211472
  544         c3     19    bbb     C2    544 -0.07020100  12.010000   ; qtot 18.141271
  545         hx     19    bbb     H3    545 0.12219000   1.008000   ; qtot 18.263461
  546         hx     19    bbb     H4    546 0.12219000   1.008000   ; qtot 18.385651
  547         c3     19    bbb     C3    547 -0.39007700  12.010000   ; qtot 17.995574
  548         hx     19    bbb     H5    548 0.14940300   1.008000   ; qtot 18.144977
  549         hx     19    bbb     H6    549 0.14940300   1.008000   ; qtot 18.294380
  550         c3     19    bbb     C4    550 0.18057300  12.010000   ; qtot 18.474953
  551         hc     19    bbb     H7    551 0.01788900   1.008000   ; qtot 18.492842
  552         hc     19    bbb     H8    552 0.01788900   1.008000   ; qtot 18.510731
  553         c3     19    bbb     C5    553 -0.11337700  12.010000   ; qtot 18.397354
  554         hc     19    bbb     H9    554 0.09515400   1.008000   ; qtot 18.492508
  555         hc     19    bbb    H10    555 0.09515400   1.008000   ; qtot 18.587662
  556         c3     19    bbb     C6    556 -0.11337700  12.010000   ; qtot 18.474285
  557         hc     19    bbb    H11    557 0.09515400   1.008000   ; qtot 18.569439
  558         hc     19    bbb    H12    558 0.09515400   1.008000   ; qtot 18.664593
  559         c3     19    bbb     C7    559 0.21842400  12.010000   ; qtot 18.883017
  560         h1     19    bbb    H13    560 0.04500300   1.008000   ; qtot 18.928020
  561         h1     19    bbb    H14    561 0.04500300   1.008000   ; qtot 18.973023
  562         c3     19    bbb     C8    562 -0.06455200  12.010000   ; qtot 18.908471
  563         h1     19    bbb    H15    563 0.13554100   1.008000   ; qtot 19.044012
  564         h1     19    bbb    H16    564 0.13554100   1.008000   ; qtot 19.179553
  565         c3     19    bbb     C9    565 -0.06455200  12.010000   ; qtot 19.115001
  566         h1     19    bbb    H17    566 0.13554100   1.008000   ; qtot 19.250542
  567         h1     19    bbb    H18    567 0.13554100   1.008000   ; qtot 19.386083
  568         os     19    bbb     O1    568 -0.62587700  16.000000   ; qtot 18.760206
  569         hn     19    bbb    H19    569 0.23982500   1.008000   ; qtot 19.000031
; residue   20 bbb rtp bbb q 1.0
  570         n4     20    bbb     N1    570 0.03726400  14.010000   ; qtot 19.037295
  571         c3     20    bbb     C1    571 -0.07020100  12.010000   ; qtot 18.967094
  572         hx     20    bbb     H1    572 0.12219000   1.008000   ; qtot 19.089284
  573         hx     20    bbb     H2    573 0.12219000   1.008000   ; qtot 19.211474
  574         c3     20    bbb     C2    574 -0.07020100  12.010000   ; qtot 19.141273
  575         hx     20    bbb     H3    575 0.12219000   1.008000   ; qtot 19.263463
  576         hx     20    bbb     H4    576 0.12219000   1.008000   ; qtot 19.385653
  577         c3     20    bbb     C3    577 -0.39007700  12.010000   ; qtot 18.995576
  578         hx     20    bbb     H5    578 0.14940300   1.008000   ; qtot 19.144979
  579         hx     20    bbb     H6    579 0.14940300   1.008000   ; qtot 19.294382
  580         c3     20    bbb     C4    580 0.18057300  12.010000   ; qtot 19.474955
  581         hc     20    bbb     H7    581 0.01788900   1.008000   ; qtot 19.492844
  582         hc     20    bbb     H8    582 0.01788900   1.008000   ; qtot 19.510733
  583         c3     20    bbb     C5    583 -0.11337700  12.010000   ; qtot 19.397356
  584         hc     20    bbb     H9    584 0.09515400   1.008000   ; qtot 19.492510
  585         hc     20    bbb    H10    585 0.09515400   1.008000   ; qtot 19.587664
  586         c3     20    bbb     C6    586 -0.11337700  12.010000   ; qtot 19.474287
  587         hc     20    bbb    H11    587 0.09515400   1.008000   ; qtot 19.569441
  588         hc     20    bbb    H12    588 0.09515400   1.008000   ; qtot 19.664595
  589         c3     20    bbb     C7    589 0.21842400  12.010000   ; qtot 19.883019
  590         h1     20    bbb    H13    590 0.04500300   1.008000   ; qtot 19.928022
  591         h1     20    bbb    H14    591 0.04500300   1.008000   ; qtot 19.973025
  592         c3     20    bbb     C8    592 -0.06455200  12.010000   ; qtot 19.908473
  593         h1     20    bbb    H15    593 0.13554100   1.008000   ; qtot 20.044014
  594         h1     20    bbb    H16    594 0.13554100   1.008000   ; qtot 20.179555
  595         c3     20    bbb     C9    595 -0.06455200  12.010000   ; qtot 20.115003
  596         h1     20    bbb    H17    596 0.13554100   1.008000   ; qtot 20.250544
  597         h1     20    bbb    H18    597 0.13554100   1.008000   ; qtot 20.386085
  598         os     20    bbb     O1    598 -0.62587700  16.000000   ; qtot 19.760208
  599         hn     20    bbb    H19    599 0.23982500   1.008000   ; qtot 20.000033
; residue   21 bbb rtp bbb q 1.0
  600         n4     21    bbb     N1    600 0.03726400  14.010000   ; qtot 20.037297
  601         c3     21    bbb     C1    601 -0.07020100  12.010000   ; qtot 19.967096
  602         hx     21    bbb     H1    602 0.12219000   1.008000   ; qtot 20.089286
  603         hx     21    bbb     H2    603 0.12219000   1.008000   ; qtot 20.211476
  604         c3     21    bbb     C2    604 -0.07020100  12.010000   ; qtot 20.141275
  605         hx     21    bbb     H3    605 0.12219000   1.008000   ; qtot 20.263465
  606         hx     21    bbb     H4    606 0.12219000   1.008000   ; qtot 20.385655
  607         c3     21    bbb     C3    607 -0.39007700  12.010000   ; qtot 19.995578
  608         hx     21    bbb     H5    608 0.14940300   1.008000   ; qtot 20.144981
  609         hx     21    bbb     H6    609 0.14940300   1.008000   ; qtot 20.294384
  610         c3     21    bbb     C4    610 0.18057300  12.010000   ; qtot 20.474957
  611         hc     21    bbb     H7    611 0.01788900   1.008000   ; qtot 20.492846
  612         hc     21    bbb     H8    612 0.01788900   1.008000   ; qtot 20.510735
  613         c3     21    bbb     C5    613 -0.11337700  12.010000   ; qtot 20.397358
  614         hc     21    bbb     H9    614 0.09515400   1.008000   ; qtot 20.492512
  615         hc     21    bbb    H10    615 0.09515400   1.008000   ; qtot 20.587666
  616         c3     21    bbb     C6    616 -0.11337700  12.010000   ; qtot 20.474289
  617         hc     21    bbb    H11    617 0.09515400   1.008000   ; qtot 20.569443
  618         hc     21    bbb    H12    618 0.09515400   1.008000   ; qtot 20.664597
  619         c3     21    bbb     C7    619 0.21842400  12.010000   ; qtot 20.883021
  620         h1     21    bbb    H13    620 0.04500300   1.008000   ; qtot 20.928024
  621         h1     21    bbb    H14    621 0.04500300   1.008000   ; qtot 20.973027
  622         c3     21    bbb     C8    622 -0.06455200  12.010000   ; qtot 20.908475
  623         h1     21    bbb    H15    623 0.13554100   1.008000   ; qtot 21.044016
  624         h1     21    bbb    H16    624 0.13554100   1.008000   ; qtot 21.179557
  625         c3     21    bbb     C9    625 -0.06455200  12.010000   ; qtot 21.115005
  626         h1     21    bbb    H17    626 0.13554100   1.008000   ; qtot 21.250546
  627         h1     21    bbb    H18    627 0.13554100   1.008000   ; qtot 21.386087
  628         os     21    bbb     O1    628 -0.62587700  16.000000   ; qtot 20.760210
  629         hn     21    bbb    H19    629 0.23982500   1.008000   ; qtot 21.000035
; residue   22 bbb rtp bbb q 1.0
  630         n4     22    bbb     N1    630 0.03726400  14.010000   ; qtot 21.037299
  631         c3     22    bbb     C1    631 -0.07020100  12.010000   ; qtot 20.967098
  632         hx     22    bbb     H1    632 0.12219000   1.008000   ; qtot 21.089288
  633         hx     22    bbb     H2    633 0.12219000   1.008000   ; qtot 21.211478
  634         c3     22    bbb     C2    634 -0.07020100  12.010000   ; qtot 21.141277
  635         hx     22    bbb     H3    635 0.12219000   1.008000   ; qtot 21.263467
  636         hx     22    bbb     H4    636 0.12219000   1.008000   ; qtot 21.385657
  637         c3     22    bbb     C3    637 -0.39007700  12.010000   ; qtot 20.995580
  638         hx     22    bbb     H5    638 0.14940300   1.008000   ; qtot 21.144983
  639         hx     22    bbb     H6    639 0.14940300   1.008000   ; qtot 21.294386
  640         c3     22    bbb     C4    640 0.18057300  12.010000   ; qtot 21.474959
  641         hc     22    bbb     H7    641 0.01788900   1.008000   ; qtot 21.492848
  642         hc     22    bbb     H8    642 0.01788900   1.008000   ; qtot 21.510737
  643         c3     22    bbb     C5    643 -0.11337700  12.010000   ; qtot 21.397360
  644         hc     22    bbb     H9    644 0.09515400   1.008000   ; qtot 21.492514
  645         hc     22    bbb    H10    645 0.09515400   1.008000   ; qtot 21.587668
  646         c3     22    bbb     C6    646 -0.11337700  12.010000   ; qtot 21.474291
  647         hc     22    bbb    H11    647 0.09515400   1.008000   ; qtot 21.569445
  648         hc     22    bbb    H12    648 0.09515400   1.008000   ; qtot 21.664599
  649         c3     22    bbb     C7    649 0.21842400  12.010000   ; qtot 21.883023
  650         h1     22    bbb    H13    650 0.04500300   1.008000   ; qtot 21.928026
  651         h1     22    bbb    H14    651 0.04500300   1.008000   ; qtot 21.973029
  652         c3     22    bbb     C8    652 -0.06455200  12.010000   ; qtot 21.908477
  653         h1     22    bbb    H15    653 0.13554100   1.008000   ; qtot 22.044018
  654         h1     22    bbb    H16    654 0.13554100   1.008000   ; qtot 22.179559
  655         c3     22    bbb     C9    655 -0.06455200  12.010000   ; qtot 22.115007
  656         h1     22    bbb    H17    656 0.13554100   1.008000   ; qtot 22.250548
  657         h1     22    bbb    H18    657 0.13554100   1.008000   ; qtot 22.386089
  658         os     22    bbb     O1    658 -0.62587700  16.000000   ; qtot 21.760212
  659         hn     22    bbb    H19    659 0.23982500   1.008000   ; qtot 22.000037
; residue   23 ccc rtp ccc q 1.0
  660         c3     23    ccc     C1    660 0.14608100  12.010000   ; qtot 22.146118
  661         h1     23    ccc     H1    661 0.06738100   1.008000   ; qtot 22.213499
  662         h1     23    ccc     H2    662 0.06738100   1.008000   ; qtot 22.280880
  663         c3     23    ccc     C2    663 -0.14571900  12.010000   ; qtot 22.135161
  664         hc     23    ccc     H3    664 0.08688100   1.008000   ; qtot 22.222042
  665         hc     23    ccc     H4    665 0.08688100   1.008000   ; qtot 22.308923
  666         c3     23    ccc     C3    666 0.12348100  12.010000   ; qtot 22.432404
  667         hx     23    ccc     H5    667 0.10638100   1.008000   ; qtot 22.538785
  668         hx     23    ccc     H6    668 0.10638100   1.008000   ; qtot 22.645166
  669         n4     23    ccc     N1    669 -0.69071900  14.010000   ; qtot 21.954447
  670         c3     23    ccc     C4    670 0.12498100  12.010000   ; qtot 22.079428
  671         hx     23    ccc     H7    671 0.12238100   1.008000   ; qtot 22.201809
  672         hx     23    ccc     H8    672 0.12238100   1.008000   ; qtot 22.324190
  673         c3     23    ccc     C5    673 -0.20771900  12.010000   ; qtot 22.116471
  674         hc     23    ccc     H9    674 0.11463100   1.008000   ; qtot 22.231102
  675         hc     23    ccc    H10    675 0.11463100   1.008000   ; qtot 22.345733
  676          c     23    ccc     C6    676 0.64078100  12.010000   ; qtot 22.986514
  677          o     23    ccc     O1    677 -0.49231900  16.000000   ; qtot 22.494195
  678         oh     23    ccc     O2    678 -0.51841900  16.000000   ; qtot 21.975776
  679         ho     23    ccc    H11    679 0.45318100   1.008000   ; qtot 22.428957
  680         c3     23    ccc     C7    680 0.12498100  12.010000   ; qtot 22.553938
  681         hx     23    ccc    H12    681 0.12238100   1.008000   ; qtot 22.676319
  682         hx     23    ccc    H13    682 0.12238100   1.008000   ; qtot 22.798700
  683         c3     23    ccc     C8    683 -0.20771900  12.010000   ; qtot 22.590981
  684         hc     23    ccc    H14    684 0.11463100   1.008000   ; qtot 22.705612
  685         hc     23    ccc    H15    685 0.11463100   1.008000   ; qtot 22.820243
  686          c     23    ccc     C9    686 0.64078100  12.010000   ; qtot 23.461024
  687          o     23    ccc     O3    687 -0.49231900  16.000000   ; qtot 22.968705
  688         oh     23    ccc     O4    688 -0.51841900  16.000000   ; qtot 22.450286
  689         ho     23    ccc    H16    689 0.45318100   1.008000   ; qtot 22.903467
  690         os     23    ccc     O5    690 -0.39491900  16.000000   ; qtot 22.508548
  691         hn     23    ccc    H17    691 0.49148100   1.008000   ; qtot 23.000029
; residue   24 ccc rtp ccc q 1.0
  692         c3     24    ccc     C1    692 0.14608100  12.010000   ; qtot 23.146110
  693         h1     24    ccc     H1    693 0.06738100   1.008000   ; qtot 23.213491
  694         h1     24    ccc     H2    694 0.06738100   1.008000   ; qtot 23.280872
  695         c3     24    ccc     C2    695 -0.14571900  12.010000   ; qtot 23.135153
  696         hc     24    ccc     H3    696 0.08688100   1.008000   ; qtot 23.222034
  697         hc     24    ccc     H4    697 0.08688100   1.008000   ; qtot 23.308915
  698         c3     24    ccc     C3    698 0.12348100  12.010000   ; qtot 23.432396
  699         hx     24    ccc     H5    699 0.10638100   1.008000   ; qtot 23.538777
  700         hx     24    ccc     H6    700 0.10638100   1.008000   ; qtot 23.645158
  701         n4     24    ccc     N1    701 -0.69071900  14.010000   ; qtot 22.954439
  702         c3     24    ccc     C4    702 0.12498100  12.010000   ; qtot 23.079420
  703         hx     24    ccc     H7    703 0.12238100   1.008000   ; qtot 23.201801
  704         hx     24    ccc     H8    704 0.12238100   1.008000   ; qtot 23.324182
  705         c3     24    ccc     C5    705 -0.20771900  12.010000   ; qtot 23.116463
  706         hc     24    ccc     H9    706 0.11463100   1.008000   ; qtot 23.231094
  707         hc     24    ccc    H10    707 0.11463100   1.008000   ; qtot 23.345725
  708          c     24    ccc     C6    708 0.64078100  12.010000   ; qtot 23.986506
  709          o     24    ccc     O1    709 -0.49231900  16.000000   ; qtot 23.494187
  710         oh     24    ccc     O2    710 -0.51841900  16.000000   ; qtot 22.975768
  711         ho     24    ccc    H11    711 0.45318100   1.008000   ; qtot 23.428949
  712         c3     24    ccc     C7    712 0.12498100  12.010000   ; qtot 23.553930
  713         hx     24    ccc    H12    713 0.12238100   1.008000   ; qtot 23.676311
  714         hx     24    ccc    H13    714 0.12238100   1.008000   ; qtot 23.798692
  715         c3     24    ccc     C8    715 -0.20771900  12.010000   ; qtot 23.590973
  716         hc     24    ccc    H14    716 0.11463100   1.008000   ; qtot 23.705604
  717         hc     24    ccc    H15    717 0.11463100   1.008000   ; qtot 23.820235
  718          c     24    ccc     C9    718 0.64078100  12.010000   ; qtot 24.461016
  719          o     24    ccc     O3    719 -0.49231900  16.000000   ; qtot 23.968697
  720         oh     24    ccc     O4    720 -0.51841900  16.000000   ; qtot 23.450278
  721         ho     24    ccc    H16    721 0.45318100   1.008000   ; qtot 23.903459
  722         os     24    ccc     O5    722 -0.39491900  16.000000   ; qtot 23.508540
  723         hn     24    ccc    H17    723 0.49148100   1.008000   ; qtot 24.000021
; residue   25 ccc rtp ccc q 1.0
  724         c3     25    ccc     C1    724 0.14608100  12.010000   ; qtot 24.146102
  725         h1     25    ccc     H1    725 0.06738100   1.008000   ; qtot 24.213483
  726         h1     25    ccc     H2    726 0.06738100   1.008000   ; qtot 24.280864
  727         c3     25    ccc     C2    727 -0.14571900  12.010000   ; qtot 24.135145
  728         hc     25    ccc     H3    728 0.08688100   1.008000   ; qtot 24.222026
  729         hc     25    ccc     H4    729 0.08688100   1.008000   ; qtot 24.308907
  730         c3     25    ccc     C3    730 0.12348100  12.010000   ; qtot 24.432388
  731         hx     25    ccc     H5    731 0.10638100   1.008000   ; qtot 24.538769
  732         hx     25    ccc     H6    732 0.10638100   1.008000   ; qtot 24.645150
  733         n4     25    ccc     N1    733 -0.69071900  14.010000   ; qtot 23.954431
  734         c3     25    ccc     C4    734 0.12498100  12.010000   ; qtot 24.079412
  735         hx     25    ccc     H7    735 0.12238100   1.008000   ; qtot 24.201793
  736         hx     25    ccc     H8    736 0.12238100   1.008000   ; qtot 24.324174
  737         c3     25    ccc     C5    737 -0.20771900  12.010000   ; qtot 24.116455
  738         hc     25    ccc     H9    738 0.11463100   1.008000   ; qtot 24.231086
  739         hc     25    ccc    H10    739 0.11463100   1.008000   ; qtot 24.345717
  740          c     25    ccc     C6    740 0.64078100  12.010000   ; qtot 24.986498
  741          o     25    ccc     O1    741 -0.49231900  16.000000   ; qtot 24.494179
  742         oh     25    ccc     O2    742 -0.51841900  16.000000   ; qtot 23.975760
  743         ho     25    ccc    H11    743 0.45318100   1.008000   ; qtot 24.428941
  744         c3     25    ccc     C7    744 0.12498100  12.010000   ; qtot 24.553922
  745         hx     25    ccc    H12    745 0.12238100   1.008000   ; qtot 24.676303
  746         hx     25    ccc    H13    746 0.12238100   1.008000   ; qtot 24.798684
  747         c3     25    ccc     C8    747 -0.20771900  12.010000   ; qtot 24.590965
  748         hc     25    ccc    H14    748 0.11463100   1.008000   ; qtot 24.705596
  749         hc     25    ccc    H15    749 0.11463100   1.008000   ; qtot 24.820227
  750          c     25    ccc     C9    750 0.64078100  12.010000   ; qtot 25.461008
  751          o     25    ccc     O3    751 -0.49231900  16.000000   ; qtot 24.968689
  752         oh     25    ccc     O4    752 -0.51841900  16.000000   ; qtot 24.450270
  753         ho     25    ccc    H16    753 0.45318100   1.008000   ; qtot 24.903451
  754         os     25    ccc     O5    754 -0.39491900  16.000000   ; qtot 24.508532
  755         hn     25    ccc    H17    755 0.49148100   1.008000   ; qtot 25.000013
; residue   26 ccc rtp ccc q 1.0
  756         c3     26    ccc     C1    756 0.14608100  12.010000   ; qtot 25.146094
  757         h1     26    ccc     H1    757 0.06738100   1.008000   ; qtot 25.213475
  758         h1     26    ccc     H2    758 0.06738100   1.008000   ; qtot 25.280856
  759         c3     26    ccc     C2    759 -0.14571900  12.010000   ; qtot 25.135137
  760         hc     26    ccc     H3    760 0.08688100   1.008000   ; qtot 25.222018
  761         hc     26    ccc     H4    761 0.08688100   1.008000   ; qtot 25.308899
  762         c3     26    ccc     C3    762 0.12348100  12.010000   ; qtot 25.432380
  763         hx     26    ccc     H5    763 0.10638100   1.008000   ; qtot 25.538761
  764         hx     26    ccc     H6    764 0.10638100   1.008000   ; qtot 25.645142
  765         n4     26    ccc     N1    765 -0.69071900  14.010000   ; qtot 24.954423
  766         c3     26    ccc     C4    766 0.12498100  12.010000   ; qtot 25.079404
  767         hx     26    ccc     H7    767 0.12238100   1.008000   ; qtot 25.201785
  768         hx     26    ccc     H8    768 0.12238100   1.008000   ; qtot 25.324166
  769         c3     26    ccc     C5    769 -0.20771900  12.010000   ; qtot 25.116447
  770         hc     26    ccc     H9    770 0.11463100   1.008000   ; qtot 25.231078
  771         hc     26    ccc    H10    771 0.11463100   1.008000   ; qtot 25.345709
  772          c     26    ccc     C6    772 0.64078100  12.010000   ; qtot 25.986490
  773          o     26    ccc     O1    773 -0.49231900  16.000000   ; qtot 25.494171
  774         oh     26    ccc     O2    774 -0.51841900  16.000000   ; qtot 24.975752
  775         ho     26    ccc    H11    775 0.45318100   1.008000   ; qtot 25.428933
  776         c3     26    ccc     C7    776 0.12498100  12.010000   ; qtot 25.553914
  777         hx     26    ccc    H12    777 0.12238100   1.008000   ; qtot 25.676295
  778         hx     26    ccc    H13    778 0.12238100   1.008000   ; qtot 25.798676
  779         c3     26    ccc     C8    779 -0.20771900  12.010000   ; qtot 25.590957
  780         hc     26    ccc    H14    780 0.11463100   1.008000   ; qtot 25.705588
  781         hc     26    ccc    H15    781 0.11463100   1.008000   ; qtot 25.820219
  782          c     26    ccc     C9    782 0.64078100  12.010000   ; qtot 26.461000
  783          o     26    ccc     O3    783 -0.49231900  16.000000   ; qtot 25.968681
  784         oh     26    ccc     O4    784 -0.51841900  16.000000   ; qtot 25.450262
  785         ho     26    ccc    H16    785 0.45318100   1.008000   ; qtot 25.903443
  786         os     26    ccc     O5    786 -0.39491900  16.000000   ; qtot 25.508524
  787         hn     26    ccc    H17    787 0.49148100   1.008000   ; qtot 26.000005
; residue   27 ccc rtp ccc q 1.0
  788         c3     27    ccc     C1    788 0.14608100  12.010000   ; qtot 26.146086
  789         h1     27    ccc     H1    789 0.06738100   1.008000   ; qtot 26.213467
  790         h1     27    ccc     H2    790 0.06738100   1.008000   ; qtot 26.280848
  791         c3     27    ccc     C2    791 -0.14571900  12.010000   ; qtot 26.135129
  792         hc     27    ccc     H3    792 0.08688100   1.008000   ; qtot 26.222010
  793         hc     27    ccc     H4    793 0.08688100   1.008000   ; qtot 26.308891
  794         c3     27    ccc     C3    794 0.12348100  12.010000   ; qtot 26.432372
  795         hx     27    ccc     H5    795 0.10638100   1.008000   ; qtot 26.538753
  796         hx     27    ccc     H6    796 0.10638100   1.008000   ; qtot 26.645134
  797         n4     27    ccc     N1    797 -0.69071900  14.010000   ; qtot 25.954415
  798         c3     27    ccc     C4    798 0.12498100  12.010000   ; qtot 26.079396
  799         hx     27    ccc     H7    799 0.12238100   1.008000   ; qtot 26.201777
  800         hx     27    ccc     H8    800 0.12238100   1.008000   ; qtot 26.324158
  801         c3     27    ccc     C5    801 -0.20771900  12.010000   ; qtot 26.116439
  802         hc     27    ccc     H9    802 0.11463100   1.008000   ; qtot 26.231070
  803         hc     27    ccc    H10    803 0.11463100   1.008000   ; qtot 26.345701
  804          c     27    ccc     C6    804 0.64078100  12.010000   ; qtot 26.986482
  805          o     27    ccc     O1    805 -0.49231900  16.000000   ; qtot 26.494163
  806         oh     27    ccc     O2    806 -0.51841900  16.000000   ; qtot 25.975744
  807         ho     27    ccc    H11    807 0.45318100   1.008000   ; qtot 26.428925
  808         c3     27    ccc     C7    808 0.12498100  12.010000   ; qtot 26.553906
  809         hx     27    ccc    H12    809 0.12238100   1.008000   ; qtot 26.676287
  810         hx     27    ccc    H13    810 0.12238100   1.008000   ; qtot 26.798668
  811         c3     27    ccc     C8    811 -0.20771900  12.010000   ; qtot 26.590949
  812         hc     27    ccc    H14    812 0.11463100   1.008000   ; qtot 26.705580
  813         hc     27    ccc    H15    813 0.11463100   1.008000   ; qtot 26.820211
  814          c     27    ccc     C9    814 0.64078100  12.010000   ; qtot 27.460992
  815          o     27    ccc     O3    815 -0.49231900  16.000000   ; qtot 26.968673
  816         oh     27    ccc     O4    816 -0.51841900  16.000000   ; qtot 26.450254
  817         ho     27    ccc    H16    817 0.45318100   1.008000   ; qtot 26.903435
  818         os     27    ccc     O5    818 -0.39491900  16.000000   ; qtot 26.508516
  819         hn     27    ccc    H17    819 0.49148100   1.008000   ; qtot 26.999997
; residue   28 ccc rtp ccc q 1.0
  820         c3     28    ccc     C1    820 0.14608100  12.010000   ; qtot 27.146078
  821         h1     28    ccc     H1    821 0.06738100   1.008000   ; qtot 27.213459
  822         h1     28    ccc     H2    822 0.06738100   1.008000   ; qtot 27.280840
  823         c3     28    ccc     C2    823 -0.14571900  12.010000   ; qtot 27.135121
  824         hc     28    ccc     H3    824 0.08688100   1.008000   ; qtot 27.222002
  825         hc     28    ccc     H4    825 0.08688100   1.008000   ; qtot 27.308883
  826         c3     28    ccc     C3    826 0.12348100  12.010000   ; qtot 27.432364
  827         hx     28    ccc     H5    827 0.10638100   1.008000   ; qtot 27.538745
  828         hx     28    ccc     H6    828 0.10638100   1.008000   ; qtot 27.645126
  829         n4     28    ccc     N1    829 -0.69071900  14.010000   ; qtot 26.954407
  830         c3     28    ccc     C4    830 0.12498100  12.010000   ; qtot 27.079388
  831         hx     28    ccc     H7    831 0.12238100   1.008000   ; qtot 27.201769
  832         hx     28    ccc     H8    832 0.12238100   1.008000   ; qtot 27.324150
  833         c3     28    ccc     C5    833 -0.20771900  12.010000   ; qtot 27.116431
  834         hc     28    ccc     H9    834 0.11463100   1.008000   ; qtot 27.231062
  835         hc     28    ccc    H10    835 0.11463100   1.008000   ; qtot 27.345693
  836          c     28    ccc     C6    836 0.64078100  12.010000   ; qtot 27.986474
  837          o     28    ccc     O1    837 -0.49231900  16.000000   ; qtot 27.494155
  838         oh     28    ccc     O2    838 -0.51841900  16.000000   ; qtot 26.975736
  839         ho     28    ccc    H11    839 0.45318100   1.008000   ; qtot 27.428917
  840         c3     28    ccc     C7    840 0.12498100  12.010000   ; qtot 27.553898
  841         hx     28    ccc    H12    841 0.12238100   1.008000   ; qtot 27.676279
  842         hx     28    ccc    H13    842 0.12238100   1.008000   ; qtot 27.798660
  843         c3     28    ccc     C8    843 -0.20771900  12.010000   ; qtot 27.590941
  844         hc     28    ccc    H14    844 0.11463100   1.008000   ; qtot 27.705572
  845         hc     28    ccc    H15    845 0.11463100   1.008000   ; qtot 27.820203
  846          c     28    ccc     C9    846 0.64078100  12.010000   ; qtot 28.460984
  847          o     28    ccc     O3    847 -0.49231900  16.000000   ; qtot 27.968665
  848         oh     28    ccc     O4    848 -0.51841900  16.000000   ; qtot 27.450246
  849         ho     28    ccc    H16    849 0.45318100   1.008000   ; qtot 27.903427
  850         os     28    ccc     O5    850 -0.39491900  16.000000   ; qtot 27.508508
  851         hn     28    ccc    H17    851 0.49148100   1.008000   ; qtot 27.999989
; residue   29 ccc rtp ccc q 1.0
  852         c3     29    ccc     C1    852 0.14608100  12.010000   ; qtot 28.146070
  853         h1     29    ccc     H1    853 0.06738100   1.008000   ; qtot 28.213451
  854         h1     29    ccc     H2    854 0.06738100   1.008000   ; qtot 28.280832
  855         c3     29    ccc     C2    855 -0.14571900  12.010000   ; qtot 28.135113
  856         hc     29    ccc     H3    856 0.08688100   1.008000   ; qtot 28.221994
  857         hc     29    ccc     H4    857 0.08688100   1.008000   ; qtot 28.308875
  858         c3     29    ccc     C3    858 0.12348100  12.010000   ; qtot 28.432356
  859         hx     29    ccc     H5    859 0.10638100   1.008000   ; qtot 28.538737
  860         hx     29    ccc     H6    860 0.10638100   1.008000   ; qtot 28.645118
  861         n4     29    ccc     N1    861 -0.69071900  14.010000   ; qtot 27.954399
  862         c3     29    ccc     C4    862 0.12498100  12.010000   ; qtot 28.079380
  863         hx     29    ccc     H7    863 0.12238100   1.008000   ; qtot 28.201761
  864         hx     29    ccc     H8    864 0.12238100   1.008000   ; qtot 28.324142
  865         c3     29    ccc     C5    865 -0.20771900  12.010000   ; qtot 28.116423
  866         hc     29    ccc     H9    866 0.11463100   1.008000   ; qtot 28.231054
  867         hc     29    ccc    H10    867 0.11463100   1.008000   ; qtot 28.345685
  868          c     29    ccc     C6    868 0.64078100  12.010000   ; qtot 28.986466
  869          o     29    ccc     O1    869 -0.49231900  16.000000   ; qtot 28.494147
  870         oh     29    ccc     O2    870 -0.51841900  16.000000   ; qtot 27.975728
  871         ho     29    ccc    H11    871 0.45318100   1.008000   ; qtot 28.428909
  872         c3     29    ccc     C7    872 0.12498100  12.010000   ; qtot 28.553890
  873         hx     29    ccc    H12    873 0.12238100   1.008000   ; qtot 28.676271
  874         hx     29    ccc    H13    874 0.12238100   1.008000   ; qtot 28.798652
  875         c3     29    ccc     C8    875 -0.20771900  12.010000   ; qtot 28.590933
  876         hc     29    ccc    H14    876 0.11463100   1.008000   ; qtot 28.705564
  877         hc     29    ccc    H15    877 0.11463100   1.008000   ; qtot 28.820195
  878          c     29    ccc     C9    878 0.64078100  12.010000   ; qtot 29.460976
  879          o     29    ccc     O3    879 -0.49231900  16.000000   ; qtot 28.968657
  880         oh     29    ccc     O4    880 -0.51841900  16.000000   ; qtot 28.450238
  881         ho     29    ccc    H16    881 0.45318100   1.008000   ; qtot 28.903419
  882         os     29    ccc     O5    882 -0.39491900  16.000000   ; qtot 28.508500
  883         hn     29    ccc    H17    883 0.49148100   1.008000   ; qtot 28.999981
; residue   30 ccc rtp ccc q 1.0
  884         c3     30    ccc     C1    884 0.14608100  12.010000   ; qtot 29.146062
  885         h1     30    ccc     H1    885 0.06738100   1.008000   ; qtot 29.213443
  886         h1     30    ccc     H2    886 0.06738100   1.008000   ; qtot 29.280824
  887         c3     30    ccc     C2    887 -0.14571900  12.010000   ; qtot 29.135105
  888         hc     30    ccc     H3    888 0.08688100   1.008000   ; qtot 29.221986
  889         hc     30    ccc     H4    889 0.08688100   1.008000   ; qtot 29.308867
  890         c3     30    ccc     C3    890 0.12348100  12.010000   ; qtot 29.432348
  891         hx     30    ccc     H5    891 0.10638100   1.008000   ; qtot 29.538729
  892         hx     30    ccc     H6    892 0.10638100   1.008000   ; qtot 29.645110
  893         n4     30    ccc     N1    893 -0.69071900  14.010000   ; qtot 28.954391
  894         c3     30    ccc     C4    894 0.12498100  12.010000   ; qtot 29.079372
  895         hx     30    ccc     H7    895 0.12238100   1.008000   ; qtot 29.201753
  896         hx     30    ccc     H8    896 0.12238100   1.008000   ; qtot 29.324134
  897         c3     30    ccc     C5    897 -0.20771900  12.010000   ; qtot 29.116415
  898         hc     30    ccc     H9    898 0.11463100   1.008000   ; qtot 29.231046
  899         hc     30    ccc    H10    899 0.11463100   1.008000   ; qtot 29.345677
  900          c     30    ccc     C6    900 0.64078100  12.010000   ; qtot 29.986458
  901          o     30    ccc     O1    901 -0.49231900  16.000000   ; qtot 29.494139
  902         oh     30    ccc     O2    902 -0.51841900  16.000000   ; qtot 28.975720
  903         ho     30    ccc    H11    903 0.45318100   1.008000   ; qtot 29.428901
  904         c3     30    ccc     C7    904 0.12498100  12.010000   ; qtot 29.553882
  905         hx     30    ccc    H12    905 0.12238100   1.008000   ; qtot 29.676263
  906         hx     30    ccc    H13    906 0.12238100   1.008000   ; qtot 29.798644
  907         c3     30    ccc     C8    907 -0.20771900  12.010000   ; qtot 29.590925
  908         hc     30    ccc    H14    908 0.11463100   1.008000   ; qtot 29.705556
  909         hc     30    ccc    H15    909 0.11463100   1.008000   ; qtot 29.820187
  910          c     30    ccc     C9    910 0.64078100  12.010000   ; qtot 30.460968
  911          o     30    ccc     O3    911 -0.49231900  16.000000   ; qtot 29.968649
  912         oh     30    ccc     O4    912 -0.51841900  16.000000   ; qtot 29.450230
  913         ho     30    ccc    H16    913 0.45318100   1.008000   ; qtot 29.903411
  914         os     30    ccc     O5    914 -0.39491900  16.000000   ; qtot 29.508492
  915         hn     30    ccc    H17    915 0.49148100   1.008000   ; qtot 29.999973
; residue   31 ccc rtp ccc q 1.0
  916         c3     31    ccc     C1    916 0.14608100  12.010000   ; qtot 30.146054
  917         h1     31    ccc     H1    917 0.06738100   1.008000   ; qtot 30.213435
  918         h1     31    ccc     H2    918 0.06738100   1.008000   ; qtot 30.280816
  919         c3     31    ccc     C2    919 -0.14571900  12.010000   ; qtot 30.135097
  920         hc     31    ccc     H3    920 0.08688100   1.008000   ; qtot 30.221978
  921         hc     31    ccc     H4    921 0.08688100   1.008000   ; qtot 30.308859
  922         c3     31    ccc     C3    922 0.12348100  12.010000   ; qtot 30.432340
  923         hx     31    ccc     H5    923 0.10638100   1.008000   ; qtot 30.538721
  924         hx     31    ccc     H6    924 0.10638100   1.008000   ; qtot 30.645102
  925         n4     31    ccc     N1    925 -0.69071900  14.010000   ; qtot 29.954383
  926         c3     31    ccc     C4    926 0.12498100  12.010000   ; qtot 30.079364
  927         hx     31    ccc     H7    927 0.12238100   1.008000   ; qtot 30.201745
  928         hx     31    ccc     H8    928 0.12238100   1.008000   ; qtot 30.324126
  929         c3     31    ccc     C5    929 -0.20771900  12.010000   ; qtot 30.116407
  930         hc     31    ccc     H9    930 0.11463100   1.008000   ; qtot 30.231038
  931         hc     31    ccc    H10    931 0.11463100   1.008000   ; qtot 30.345669
  932          c     31    ccc     C6    932 0.64078100  12.010000   ; qtot 30.986450
  933          o     31    ccc     O1    933 -0.49231900  16.000000   ; qtot 30.494131
  934         oh     31    ccc     O2    934 -0.51841900  16.000000   ; qtot 29.975712
  935         ho     31    ccc    H11    935 0.45318100   1.008000   ; qtot 30.428893
  936         c3     31    ccc     C7    936 0.12498100  12.010000   ; qtot 30.553874
  937         hx     31    ccc    H12    937 0.12238100   1.008000   ; qtot 30.676255
  938         hx     31    ccc    H13    938 0.12238100   1.008000   ; qtot 30.798636
  939         c3     31    ccc     C8    939 -0.20771900  12.010000   ; qtot 30.590917
  940         hc     31    ccc    H14    940 0.11463100   1.008000   ; qtot 30.705548
  941         hc     31    ccc    H15    941 0.11463100   1.008000   ; qtot 30.820179
  942          c     31    ccc     C9    942 0.64078100  12.010000   ; qtot 31.460960
  943          o     31    ccc     O3    943 -0.49231900  16.000000   ; qtot 30.968641
  944         oh     31    ccc     O4    944 -0.51841900  16.000000   ; qtot 30.450222
  945         ho     31    ccc    H16    945 0.45318100   1.008000   ; qtot 30.903403
  946         os     31    ccc     O5    946 -0.39491900  16.000000   ; qtot 30.508484
  947         hn     31    ccc    H17    947 0.49148100   1.008000   ; qtot 30.999965
; residue   32 ccc rtp ccc q 1.0
  948         c3     32    ccc     C1    948 0.14608100  12.010000   ; qtot 31.146046
  949         h1     32    ccc     H1    949 0.06738100   1.008000   ; qtot 31.213427
  950         h1     32    ccc     H2    950 0.06738100   1.008000   ; qtot 31.280808
  951         c3     32    ccc     C2    951 -0.14571900  12.010000   ; qtot 31.135089
  952         hc     32    ccc     H3    952 0.08688100   1.008000   ; qtot 31.221970
  953         hc     32    ccc     H4    953 0.08688100   1.008000   ; qtot 31.308851
  954         c3     32    ccc     C3    954 0.12348100  12.010000   ; qtot 31.432332
  955         hx     32    ccc     H5    955 0.10638100   1.008000   ; qtot 31.538713
  956         hx     32    ccc     H6    956 0.10638100   1.008000   ; qtot 31.645094
  957         n4     32    ccc     N1    957 -0.69071900  14.010000   ; qtot 30.954375
  958         c3     32    ccc     C4    958 0.12498100  12.010000   ; qtot 31.079356
  959         hx     32    ccc     H7    959 0.12238100   1.008000   ; qtot 31.201737
  960         hx     32    ccc     H8    960 0.12238100   1.008000   ; qtot 31.324118
  961         c3     32    ccc     C5    961 -0.20771900  12.010000   ; qtot 31.116399
  962         hc     32    ccc     H9    962 0.11463100   1.008000   ; qtot 31.231030
  963         hc     32    ccc    H10    963 0.11463100   1.008000   ; qtot 31.345661
  964          c     32    ccc     C6    964 0.64078100  12.010000   ; qtot 31.986442
  965          o     32    ccc     O1    965 -0.49231900  16.000000   ; qtot 31.494123
  966         oh     32    ccc     O2    966 -0.51841900  16.000000   ; qtot 30.975704
  967         ho     32    ccc    H11    967 0.45318100   1.008000   ; qtot 31.428885
  968         c3     32    ccc     C7    968 0.12498100  12.010000   ; qtot 31.553866
  969         hx     32    ccc    H12    969 0.12238100   1.008000   ; qtot 31.676247
  970         hx     32    ccc    H13    970 0.12238100   1.008000   ; qtot 31.798628
  971         c3     32    ccc     C8    971 -0.20771900  12.010000   ; qtot 31.590909
  972         hc     32    ccc    H14    972 0.11463100   1.008000   ; qtot 31.705540
  973         hc     32    ccc    H15    973 0.11463100   1.008000   ; qtot 31.820171
  974          c     32    ccc     C9    974 0.64078100  12.010000   ; qtot 32.460952
  975          o     32    ccc     O3    975 -0.49231900  16.000000   ; qtot 31.968633
  976         oh     32    ccc     O4    976 -0.51841900  16.000000   ; qtot 31.450214
  977         ho     32    ccc    H16    977 0.45318100   1.008000   ; qtot 31.903395
  978         os     32    ccc     O5    978 -0.39491900  16.000000   ; qtot 31.508476
  979         hn     32    ccc    H17    979 0.49148100   1.008000   ; qtot 31.999957
; residue   33 ccc rtp ccc q 1.0
  980         c3     33    ccc     C1    980 0.14608100  12.010000   ; qtot 32.146038
  981         h1     33    ccc     H1    981 0.06738100   1.008000   ; qtot 32.213419
  982         h1     33    ccc     H2    982 0.06738100   1.008000   ; qtot 32.280800
  983         c3     33    ccc     C2    983 -0.14571900  12.010000   ; qtot 32.135081
  984         hc     33    ccc     H3    984 0.08688100   1.008000   ; qtot 32.221962
  985         hc     33    ccc     H4    985 0.08688100   1.008000   ; qtot 32.308843
  986         c3     33    ccc     C3    986 0.12348100  12.010000   ; qtot 32.432324
  987         hx     33    ccc     H5    987 0.10638100   1.008000   ; qtot 32.538705
  988         hx     33    ccc     H6    988 0.10638100   1.008000   ; qtot 32.645086
  989         n4     33    ccc     N1    989 -0.69071900  14.010000   ; qtot 31.954367
  990         c3     33    ccc     C4    990 0.12498100  12.010000   ; qtot 32.079348
  991         hx     33    ccc     H7    991 0.12238100   1.008000   ; qtot 32.201729
  992         hx     33    ccc     H8    992 0.12238100   1.008000   ; qtot 32.324110
  993         c3     33    ccc     C5    993 -0.20771900  12.010000   ; qtot 32.116391
  994         hc     33    ccc     H9    994 0.11463100   1.008000   ; qtot 32.231022
  995         hc     33    ccc    H10    995 0.11463100   1.008000   ; qtot 32.345653
  996          c     33    ccc     C6    996 0.64078100  12.010000   ; qtot 32.986434
  997          o     33    ccc     O1    997 -0.49231900  16.000000   ; qtot 32.494115
  998         oh     33    ccc     O2    998 -0.51841900  16.000000   ; qtot 31.975696
  999         ho     33    ccc    H11    999 0.45318100   1.008000   ; qtot 32.428877
 1000         c3     33    ccc     C7   1000 0.12498100  12.010000   ; qtot 32.553858
 1001         hx     33    ccc    H12   1001 0.12238100   1.008000   ; qtot 32.676239
 1002         hx     33    ccc    H13   1002 0.12238100   1.008000   ; qtot 32.798620
 1003         c3     33    ccc     C8   1003 -0.20771900  12.010000   ; qtot 32.590901
 1004         hc     33    ccc    H14   1004 0.11463100   1.008000   ; qtot 32.705532
 1005         hc     33    ccc    H15   1005 0.11463100   1.008000   ; qtot 32.820163
 1006          c     33    ccc     C9   1006 0.64078100  12.010000   ; qtot 33.460944
 1007          o     33    ccc     O3   1007 -0.49231900  16.000000   ; qtot 32.968625
 1008         oh     33    ccc     O4   1008 -0.51841900  16.000000   ; qtot 32.450206
 1009         ho     33    ccc    H16   1009 0.45318100   1.008000   ; qtot 32.903387
 1010         os     33    ccc     O5   1010 -0.39491900  16.000000   ; qtot 32.508468
 1011         hn     33    ccc    H17   1011 0.49148100   1.008000   ; qtot 32.999949
; residue   34 ccc rtp ccc q 1.0
 1012         c3     34    ccc     C1   1012 0.14608100  12.010000   ; qtot 33.146030
 1013         h1     34    ccc     H1   1013 0.06738100   1.008000   ; qtot 33.213411
 1014         h1     34    ccc     H2   1014 0.06738100   1.008000   ; qtot 33.280792
 1015         c3     34    ccc     C2   1015 -0.14571900  12.010000   ; qtot 33.135073
 1016         hc     34    ccc     H3   1016 0.08688100   1.008000   ; qtot 33.221954
 1017         hc     34    ccc     H4   1017 0.08688100   1.008000   ; qtot 33.308835
 1018         c3     34    ccc     C3   1018 0.12348100  12.010000   ; qtot 33.432316
 1019         hx     34    ccc     H5   1019 0.10638100   1.008000   ; qtot 33.538697
 1020         hx     34    ccc     H6   1020 0.10638100   1.008000   ; qtot 33.645078
 1021         n4     34    ccc     N1   1021 -0.69071900  14.010000   ; qtot 32.954359
 1022         c3     34    ccc     C4   1022 0.12498100  12.010000   ; qtot 33.079340
 1023         hx     34    ccc     H7   1023 0.12238100   1.008000   ; qtot 33.201721
 1024         hx     34    ccc     H8   1024 0.12238100   1.008000   ; qtot 33.324102
 1025         c3     34    ccc     C5   1025 -0.20771900  12.010000   ; qtot 33.116383
 1026         hc     34    ccc     H9   1026 0.11463100   1.008000   ; qtot 33.231014
 1027         hc     34    ccc    H10   1027 0.11463100   1.008000   ; qtot 33.345645
 1028          c     34    ccc     C6   1028 0.64078100  12.010000   ; qtot 33.986426
 1029          o     34    ccc     O1   1029 -0.49231900  16.000000   ; qtot 33.494107
 1030         oh     34    ccc     O2   1030 -0.51841900  16.000000   ; qtot 32.975688
 1031         ho     34    ccc    H11   1031 0.45318100   1.008000   ; qtot 33.428869
 1032         c3     34    ccc     C7   1032 0.12498100  12.010000   ; qtot 33.553850
 1033         hx     34    ccc    H12   1033 0.12238100   1.008000   ; qtot 33.676231
 1034         hx     34    ccc    H13   1034 0.12238100   1.008000   ; qtot 33.798612
 1035         c3     34    ccc     C8   1035 -0.20771900  12.010000   ; qtot 33.590893
 1036         hc     34    ccc    H14   1036 0.11463100   1.008000   ; qtot 33.705524
 1037         hc     34    ccc    H15   1037 0.11463100   1.008000   ; qtot 33.820155
 1038          c     34    ccc     C9   1038 0.64078100  12.010000   ; qtot 34.460936
 1039          o     34    ccc     O3   1039 -0.49231900  16.000000   ; qtot 33.968617
 1040         oh     34    ccc     O4   1040 -0.51841900  16.000000   ; qtot 33.450198
 1041         ho     34    ccc    H16   1041 0.45318100   1.008000   ; qtot 33.903379
 1042         os     34    ccc     O5   1042 -0.39491900  16.000000   ; qtot 33.508460
 1043         hn     34    ccc    H17   1043 0.49148100   1.008000   ; qtot 33.999941
; residue   35 ccc rtp ccc q 1.0
 1044         c3     35    ccc     C1   1044 0.14608100  12.010000   ; qtot 34.146022
 1045         h1     35    ccc     H1   1045 0.06738100   1.008000   ; qtot 34.213403
 1046         h1     35    ccc     H2   1046 0.06738100   1.008000   ; qtot 34.280784
 1047         c3     35    ccc     C2   1047 -0.14571900  12.010000   ; qtot 34.135065
 1048         hc     35    ccc     H3   1048 0.08688100   1.008000   ; qtot 34.221946
 1049         hc     35    ccc     H4   1049 0.08688100   1.008000   ; qtot 34.308827
 1050         c3     35    ccc     C3   1050 0.12348100  12.010000   ; qtot 34.432308
 1051         hx     35    ccc     H5   1051 0.10638100   1.008000   ; qtot 34.538689
 1052         hx     35    ccc     H6   1052 0.10638100   1.008000   ; qtot 34.645070
 1053         n4     35    ccc     N1   1053 -0.69071900  14.010000   ; qtot 33.954351
 1054         c3     35    ccc     C4   1054 0.12498100  12.010000   ; qtot 34.079332
 1055         hx     35    ccc     H7   1055 0.12238100   1.008000   ; qtot 34.201713
 1056         hx     35    ccc     H8   1056 0.12238100   1.008000   ; qtot 34.324094
 1057         c3     35    ccc     C5   1057 -0.20771900  12.010000   ; qtot 34.116375
 1058         hc     35    ccc     H9   1058 0.11463100   1.008000   ; qtot 34.231006
 1059         hc     35    ccc    H10   1059 0.11463100   1.008000   ; qtot 34.345637
 1060          c     35    ccc     C6   1060 0.64078100  12.010000   ; qtot 34.986418
 1061          o     35    ccc     O1   1061 -0.49231900  16.000000   ; qtot 34.494099
 1062         oh     35    ccc     O2   1062 -0.51841900  16.000000   ; qtot 33.975680
 1063         ho     35    ccc    H11   1063 0.45318100   1.008000   ; qtot 34.428861
 1064         c3     35    ccc     C7   1064 0.12498100  12.010000   ; qtot 34.553842
 1065         hx     35    ccc    H12   1065 0.12238100   1.008000   ; qtot 34.676223
 1066         hx     35    ccc    H13   1066 0.12238100   1.008000   ; qtot 34.798604
 1067         c3     35    ccc     C8   1067 -0.20771900  12.010000   ; qtot 34.590885
 1068         hc     35    ccc    H14   1068 0.11463100   1.008000   ; qtot 34.705516
 1069         hc     35    ccc    H15   1069 0.11463100   1.008000   ; qtot 34.820147
 1070          c     35    ccc     C9   1070 0.64078100  12.010000   ; qtot 35.460928
 1071          o     35    ccc     O3   1071 -0.49231900  16.000000   ; qtot 34.968609
 1072         oh     35    ccc     O4   1072 -0.51841900  16.000000   ; qtot 34.450190
 1073         ho     35    ccc    H16   1073 0.45318100   1.008000   ; qtot 34.903371
 1074         os     35    ccc     O5   1074 -0.39491900  16.000000   ; qtot 34.508452
 1075         hn     35    ccc    H17   1075 0.49148100   1.008000   ; qtot 34.999933
; residue   36 ccc rtp ccc q 1.0
 1076         c3     36    ccc     C1   1076 0.14608100  12.010000   ; qtot 35.146014
 1077         h1     36    ccc     H1   1077 0.06738100   1.008000   ; qtot 35.213395
 1078         h1     36    ccc     H2   1078 0.06738100   1.008000   ; qtot 35.280776
 1079         c3     36    ccc     C2   1079 -0.14571900  12.010000   ; qtot 35.135057
 1080         hc     36    ccc     H3   1080 0.08688100   1.008000   ; qtot 35.221938
 1081         hc     36    ccc     H4   1081 0.08688100   1.008000   ; qtot 35.308819
 1082         c3     36    ccc     C3   1082 0.12348100  12.010000   ; qtot 35.432300
 1083         hx     36    ccc     H5   1083 0.10638100   1.008000   ; qtot 35.538681
 1084         hx     36    ccc     H6   1084 0.10638100   1.008000   ; qtot 35.645062
 1085         n4     36    ccc     N1   1085 -0.69071900  14.010000   ; qtot 34.954343
 1086         c3     36    ccc     C4   1086 0.12498100  12.010000   ; qtot 35.079324
 1087         hx     36    ccc     H7   1087 0.12238100   1.008000   ; qtot 35.201705
 1088         hx     36    ccc     H8   1088 0.12238100   1.008000   ; qtot 35.324086
 1089         c3     36    ccc     C5   1089 -0.20771900  12.010000   ; qtot 35.116367
 1090         hc     36    ccc     H9   1090 0.11463100   1.008000   ; qtot 35.230998
 1091         hc     36    ccc    H10   1091 0.11463100   1.008000   ; qtot 35.345629
 1092          c     36    ccc     C6   1092 0.64078100  12.010000   ; qtot 35.986410
 1093          o     36    ccc     O1   1093 -0.49231900  16.000000   ; qtot 35.494091
 1094         oh     36    ccc     O2   1094 -0.51841900  16.000000   ; qtot 34.975672
 1095         ho     36    ccc    H11   1095 0.45318100   1.008000   ; qtot 35.428853
 1096         c3     36    ccc     C7   1096 0.12498100  12.010000   ; qtot 35.553834
 1097         hx     36    ccc    H12   1097 0.12238100   1.008000   ; qtot 35.676215
 1098         hx     36    ccc    H13   1098 0.12238100   1.008000   ; qtot 35.798596
 1099         c3     36    ccc     C8   1099 -0.20771900  12.010000   ; qtot 35.590877
 1100         hc     36    ccc    H14   1100 0.11463100   1.008000   ; qtot 35.705508
 1101         hc     36    ccc    H15   1101 0.11463100   1.008000   ; qtot 35.820139
 1102          c     36    ccc     C9   1102 0.64078100  12.010000   ; qtot 36.460920
 1103          o     36    ccc     O3   1103 -0.49231900  16.000000   ; qtot 35.968601
 1104         oh     36    ccc     O4   1104 -0.51841900  16.000000   ; qtot 35.450182
 1105         ho     36    ccc    H16   1105 0.45318100   1.008000   ; qtot 35.903363
 1106         os     36    ccc     O5   1106 -0.39491900  16.000000   ; qtot 35.508444
 1107         hn     36    ccc    H17   1107 0.49148100   1.008000   ; qtot 35.999925
; residue   37 ccc rtp ccc q 1.0
 1108         c3     37    ccc     C1   1108 0.14608100  12.010000   ; qtot 36.146006
 1109         h1     37    ccc     H1   1109 0.06738100   1.008000   ; qtot 36.213387
 1110         h1     37    ccc     H2   1110 0.06738100   1.008000   ; qtot 36.280768
 1111         c3     37    ccc     C2   1111 -0.14571900  12.010000   ; qtot 36.135049
 1112         hc     37    ccc     H3   1112 0.08688100   1.008000   ; qtot 36.221930
 1113         hc     37    ccc     H4   1113 0.08688100   1.008000   ; qtot 36.308811
 1114         c3     37    ccc     C3   1114 0.12348100  12.010000   ; qtot 36.432292
 1115         hx     37    ccc     H5   1115 0.10638100   1.008000   ; qtot 36.538673
 1116         hx     37    ccc     H6   1116 0.10638100   1.008000   ; qtot 36.645054
 1117         n4     37    ccc     N1   1117 -0.69071900  14.010000   ; qtot 35.954335
 1118         c3     37    ccc     C4   1118 0.12498100  12.010000   ; qtot 36.079316
 1119         hx     37    ccc     H7   1119 0.12238100   1.008000   ; qtot 36.201697
 1120         hx     37    ccc     H8   1120 0.12238100   1.008000   ; qtot 36.324078
 1121         c3     37    ccc     C5   1121 -0.20771900  12.010000   ; qtot 36.116359
 1122         hc     37    ccc     H9   1122 0.11463100   1.008000   ; qtot 36.230990
 1123         hc     37    ccc    H10   1123 0.11463100   1.008000   ; qtot 36.345621
 1124          c     37    ccc     C6   1124 0.64078100  12.010000   ; qtot 36.986402
 1125          o     37    ccc     O1   1125 -0.49231900  16.000000   ; qtot 36.494083
 1126         oh     37    ccc     O2   1126 -0.51841900  16.000000   ; qtot 35.975664
 1127         ho     37    ccc    H11   1127 0.45318100   1.008000   ; qtot 36.428845
 1128         c3     37    ccc     C7   1128 0.12498100  12.010000   ; qtot 36.553826
 1129         hx     37    ccc    H12   1129 0.12238100   1.008000   ; qtot 36.676207
 1130         hx     37    ccc    H13   1130 0.12238100   1.008000   ; qtot 36.798588
 1131         c3     37    ccc     C8   1131 -0.20771900  12.010000   ; qtot 36.590869
 1132         hc     37    ccc    H14   1132 0.11463100   1.008000   ; qtot 36.705500
 1133         hc     37    ccc    H15   1133 0.11463100   1.008000   ; qtot 36.820131
 1134          c     37    ccc     C9   1134 0.64078100  12.010000   ; qtot 37.460912
 1135          o     37    ccc     O3   1135 -0.49231900  16.000000   ; qtot 36.968593
 1136         oh     37    ccc     O4   1136 -0.51841900  16.000000   ; qtot 36.450174
 1137         ho     37    ccc    H16   1137 0.45318100   1.008000   ; qtot 36.903355
 1138         os     37    ccc     O5   1138 -0.39491900  16.000000   ; qtot 36.508436
 1139         hn     37    ccc    H17   1139 0.49148100   1.008000   ; qtot 36.999917
; residue   38 ccc rtp ccc q 1.0
 1140         c3     38    ccc     C1   1140 0.14608100  12.010000   ; qtot 37.145998
 1141         h1     38    ccc     H1   1141 0.06738100   1.008000   ; qtot 37.213379
 1142         h1     38    ccc     H2   1142 0.06738100   1.008000   ; qtot 37.280760
 1143         c3     38    ccc     C2   1143 -0.14571900  12.010000   ; qtot 37.135041
 1144         hc     38    ccc     H3   1144 0.08688100   1.008000   ; qtot 37.221922
 1145         hc     38    ccc     H4   1145 0.08688100   1.008000   ; qtot 37.308803
 1146         c3     38    ccc     C3   1146 0.12348100  12.010000   ; qtot 37.432284
 1147         hx     38    ccc     H5   1147 0.10638100   1.008000   ; qtot 37.538665
 1148         hx     38    ccc     H6   1148 0.10638100   1.008000   ; qtot 37.645046
 1149         n4     38    ccc     N1   1149 -0.69071900  14.010000   ; qtot 36.954327
 1150         c3     38    ccc     C4   1150 0.12498100  12.010000   ; qtot 37.079308
 1151         hx     38    ccc     H7   1151 0.12238100   1.008000   ; qtot 37.201689
 1152         hx     38    ccc     H8   1152 0.12238100   1.008000   ; qtot 37.324070
 1153         c3     38    ccc     C5   1153 -0.20771900  12.010000   ; qtot 37.116351
 1154         hc     38    ccc     H9   1154 0.11463100   1.008000   ; qtot 37.230982
 1155         hc     38    ccc    H10   1155 0.11463100   1.008000   ; qtot 37.345613
 1156          c     38    ccc     C6   1156 0.64078100  12.010000   ; qtot 37.986394
 1157          o     38    ccc     O1   1157 -0.49231900  16.000000   ; qtot 37.494075
 1158         oh     38    ccc     O2   1158 -0.51841900  16.000000   ; qtot 36.975656
 1159         ho     38    ccc    H11   1159 0.45318100   1.008000   ; qtot 37.428837
 1160         c3     38    ccc     C7   1160 0.12498100  12.010000   ; qtot 37.553818
 1161         hx     38    ccc    H12   1161 0.12238100   1.008000   ; qtot 37.676199
 1162         hx     38    ccc    H13   1162 0.12238100   1.008000   ; qtot 37.798580
 1163         c3     38    ccc     C8   1163 -0.20771900  12.010000   ; qtot 37.590861
 1164         hc     38    ccc    H14   1164 0.11463100   1.008000   ; qtot 37.705492
 1165         hc     38    ccc    H15   1165 0.11463100   1.008000   ; qtot 37.820123
 1166          c     38    ccc     C9   1166 0.64078100  12.010000   ; qtot 38.460904
 1167          o     38    ccc     O3   1167 -0.49231900  16.000000   ; qtot 37.968585
 1168         oh     38    ccc     O4   1168 -0.51841900  16.000000   ; qtot 37.450166
 1169         ho     38    ccc    H16   1169 0.45318100   1.008000   ; qtot 37.903347
 1170         os     38    ccc     O5   1170 -0.39491900  16.000000   ; qtot 37.508428
 1171         hn     38    ccc    H17   1171 0.49148100   1.008000   ; qtot 37.999909
; residue   39 ccc rtp ccc q 1.0
 1172         c3     39    ccc     C1   1172 0.14608100  12.010000   ; qtot 38.145990
 1173         h1     39    ccc     H1   1173 0.06738100   1.008000   ; qtot 38.213371
 1174         h1     39    ccc     H2   1174 0.06738100   1.008000   ; qtot 38.280752
 1175         c3     39    ccc     C2   1175 -0.14571900  12.010000   ; qtot 38.135033
 1176         hc     39    ccc     H3   1176 0.08688100   1.008000   ; qtot 38.221914
 1177         hc     39    ccc     H4   1177 0.08688100   1.008000   ; qtot 38.308795
 1178         c3     39    ccc     C3   1178 0.12348100  12.010000   ; qtot 38.432276
 1179         hx     39    ccc     H5   1179 0.10638100   1.008000   ; qtot 38.538657
 1180         hx     39    ccc     H6   1180 0.10638100   1.008000   ; qtot 38.645038
 1181         n4     39    ccc     N1   1181 -0.69071900  14.010000   ; qtot 37.954319
 1182         c3     39    ccc     C4   1182 0.12498100  12.010000   ; qtot 38.079300
 1183         hx     39    ccc     H7   1183 0.12238100   1.008000   ; qtot 38.201681
 1184         hx     39    ccc     H8   1184 0.12238100   1.008000   ; qtot 38.324062
 1185         c3     39    ccc     C5   1185 -0.20771900  12.010000   ; qtot 38.116343
 1186         hc     39    ccc     H9   1186 0.11463100   1.008000   ; qtot 38.230974
 1187         hc     39    ccc    H10   1187 0.11463100   1.008000   ; qtot 38.345605
 1188          c     39    ccc     C6   1188 0.64078100  12.010000   ; qtot 38.986386
 1189          o     39    ccc     O1   1189 -0.49231900  16.000000   ; qtot 38.494067
 1190         oh     39    ccc     O2   1190 -0.51841900  16.000000   ; qtot 37.975648
 1191         ho     39    ccc    H11   1191 0.45318100   1.008000   ; qtot 38.428829
 1192         c3     39    ccc     C7   1192 0.12498100  12.010000   ; qtot 38.553810
 1193         hx     39    ccc    H12   1193 0.12238100   1.008000   ; qtot 38.676191
 1194         hx     39    ccc    H13   1194 0.12238100   1.008000   ; qtot 38.798572
 1195         c3     39    ccc     C8   1195 -0.20771900  12.010000   ; qtot 38.590853
 1196         hc     39    ccc    H14   1196 0.11463100   1.008000   ; qtot 38.705484
 1197         hc     39    ccc    H15   1197 0.11463100   1.008000   ; qtot 38.820115
 1198          c     39    ccc     C9   1198 0.64078100  12.010000   ; qtot 39.460896
 1199          o     39    ccc     O3   1199 -0.49231900  16.000000   ; qtot 38.968577
 1200         oh     39    ccc     O4   1200 -0.51841900  16.000000   ; qtot 38.450158
 1201         ho     39    ccc    H16   1201 0.45318100   1.008000   ; qtot 38.903339
 1202         os     39    ccc     O5   1202 -0.39491900  16.000000   ; qtot 38.508420
 1203         hn     39    ccc    H17   1203 0.49148100   1.008000   ; qtot 38.999901
; residue   40 ccc rtp ccc q 1.0
 1204         c3     40    ccc     C1   1204 0.14608100  12.010000   ; qtot 39.145982
 1205         h1     40    ccc     H1   1205 0.06738100   1.008000   ; qtot 39.213363
 1206         h1     40    ccc     H2   1206 0.06738100   1.008000   ; qtot 39.280744
 1207         c3     40    ccc     C2   1207 -0.14571900  12.010000   ; qtot 39.135025
 1208         hc     40    ccc     H3   1208 0.08688100   1.008000   ; qtot 39.221906
 1209         hc     40    ccc     H4   1209 0.08688100   1.008000   ; qtot 39.308787
 1210         c3     40    ccc     C3   1210 0.12348100  12.010000   ; qtot 39.432268
 1211         hx     40    ccc     H5   1211 0.10638100   1.008000   ; qtot 39.538649
 1212         hx     40    ccc     H6   1212 0.10638100   1.008000   ; qtot 39.645030
 1213         n4     40    ccc     N1   1213 -0.69071900  14.010000   ; qtot 38.954311
 1214         c3     40    ccc     C4   1214 0.12498100  12.010000   ; qtot 39.079292
 1215         hx     40    ccc     H7   1215 0.12238100   1.008000   ; qtot 39.201673
 1216         hx     40    ccc     H8   1216 0.12238100   1.008000   ; qtot 39.324054
 1217         c3     40    ccc     C5   1217 -0.20771900  12.010000   ; qtot 39.116335
 1218         hc     40    ccc     H9   1218 0.11463100   1.008000   ; qtot 39.230966
 1219         hc     40    ccc    H10   1219 0.11463100   1.008000   ; qtot 39.345597
 1220          c     40    ccc     C6   1220 0.64078100  12.010000   ; qtot 39.986378
 1221          o     40    ccc     O1   1221 -0.49231900  16.000000   ; qtot 39.494059
 1222         oh     40    ccc     O2   1222 -0.51841900  16.000000   ; qtot 38.975640
 1223         ho     40    ccc    H11   1223 0.45318100   1.008000   ; qtot 39.428821
 1224         c3     40    ccc     C7   1224 0.12498100  12.010000   ; qtot 39.553802
 1225         hx     40    ccc    H12   1225 0.12238100   1.008000   ; qtot 39.676183
 1226         hx     40    ccc    H13   1226 0.12238100   1.008000   ; qtot 39.798564
 1227         c3     40    ccc     C8   1227 -0.20771900  12.010000   ; qtot 39.590845
 1228         hc     40    ccc    H14   1228 0.11463100   1.008000   ; qtot 39.705476
 1229         hc     40    ccc    H15   1229 0.11463100   1.008000   ; qtot 39.820107
 1230          c     40    ccc     C9   1230 0.64078100  12.010000   ; qtot 40.460888
 1231          o     40    ccc     O3   1231 -0.49231900  16.000000   ; qtot 39.968569
 1232         oh     40    ccc     O4   1232 -0.51841900  16.000000   ; qtot 39.450150
 1233         ho     40    ccc    H16   1233 0.45318100   1.008000   ; qtot 39.903331
 1234         os     40    ccc     O5   1234 -0.39491900  16.000000   ; qtot 39.508412
 1235         hn     40    ccc    H17   1235 0.49148100   1.008000   ; qtot 39.999893
; residue   41 ccc rtp ccc q 1.0
 1236         c3     41    ccc     C1   1236 0.14608100  12.010000   ; qtot 40.145974
 1237         h1     41    ccc     H1   1237 0.06738100   1.008000   ; qtot 40.213355
 1238         h1     41    ccc     H2   1238 0.06738100   1.008000   ; qtot 40.280736
 1239         c3     41    ccc     C2   1239 -0.14571900  12.010000   ; qtot 40.135017
 1240         hc     41    ccc     H3   1240 0.08688100   1.008000   ; qtot 40.221898
 1241         hc     41    ccc     H4   1241 0.08688100   1.008000   ; qtot 40.308779
 1242         c3     41    ccc     C3   1242 0.12348100  12.010000   ; qtot 40.432260
 1243         hx     41    ccc     H5   1243 0.10638100   1.008000   ; qtot 40.538641
 1244         hx     41    ccc     H6   1244 0.10638100   1.008000   ; qtot 40.645022
 1245         n4     41    ccc     N1   1245 -0.69071900  14.010000   ; qtot 39.954303
 1246         c3     41    ccc     C4   1246 0.12498100  12.010000   ; qtot 40.079284
 1247         hx     41    ccc     H7   1247 0.12238100   1.008000   ; qtot 40.201665
 1248         hx     41    ccc     H8   1248 0.12238100   1.008000   ; qtot 40.324046
 1249         c3     41    ccc     C5   1249 -0.20771900  12.010000   ; qtot 40.116327
 1250         hc     41    ccc     H9   1250 0.11463100   1.008000   ; qtot 40.230958
 1251         hc     41    ccc    H10   1251 0.11463100   1.008000   ; qtot 40.345589
 1252          c     41    ccc     C6   1252 0.64078100  12.010000   ; qtot 40.986370
 1253          o     41    ccc     O1   1253 -0.49231900  16.000000   ; qtot 40.494051
 1254         oh     41    ccc     O2   1254 -0.51841900  16.000000   ; qtot 39.975632
 1255         ho     41    ccc    H11   1255 0.45318100   1.008000   ; qtot 40.428813
 1256         c3     41    ccc     C7   1256 0.12498100  12.010000   ; qtot 40.553794
 1257         hx     41    ccc    H12   1257 0.12238100   1.008000   ; qtot 40.676175
 1258         hx     41    ccc    H13   1258 0.12238100   1.008000   ; qtot 40.798556
 1259         c3     41    ccc     C8   1259 -0.20771900  12.010000   ; qtot 40.590837
 1260         hc     41    ccc    H14   1260 0.11463100   1.008000   ; qtot 40.705468
 1261         hc     41    ccc    H15   1261 0.11463100   1.008000   ; qtot 40.820099
 1262          c     41    ccc     C9   1262 0.64078100  12.010000   ; qtot 41.460880
 1263          o     41    ccc     O3   1263 -0.49231900  16.000000   ; qtot 40.968561
 1264         oh     41    ccc     O4   1264 -0.51841900  16.000000   ; qtot 40.450142
 1265         ho     41    ccc    H16   1265 0.45318100   1.008000   ; qtot 40.903323
 1266         os     41    ccc     O5   1266 -0.39491900  16.000000   ; qtot 40.508404
 1267         hn     41    ccc    H17   1267 0.49148100   1.008000   ; qtot 40.999885
; residue   42 ccc rtp ccc q 1.0
 1268         c3     42    ccc     C1   1268 0.14608100  12.010000   ; qtot 41.145966
 1269         h1     42    ccc     H1   1269 0.06738100   1.008000   ; qtot 41.213347
 1270         h1     42    ccc     H2   1270 0.06738100   1.008000   ; qtot 41.280728
 1271         c3     42    ccc     C2   1271 -0.14571900  12.010000   ; qtot 41.135009
 1272         hc     42    ccc     H3   1272 0.08688100   1.008000   ; qtot 41.221890
 1273         hc     42    ccc     H4   1273 0.08688100   1.008000   ; qtot 41.308771
 1274         c3     42    ccc     C3   1274 0.12348100  12.010000   ; qtot 41.432252
 1275         hx     42    ccc     H5   1275 0.10638100   1.008000   ; qtot 41.538633
 1276         hx     42    ccc     H6   1276 0.10638100   1.008000   ; qtot 41.645014
 1277         n4     42    ccc     N1   1277 -0.69071900  14.010000   ; qtot 40.954295
 1278         c3     42    ccc     C4   1278 0.12498100  12.010000   ; qtot 41.079276
 1279         hx     42    ccc     H7   1279 0.12238100   1.008000   ; qtot 41.201657
 1280         hx     42    ccc     H8   1280 0.12238100   1.008000   ; qtot 41.324038
 1281         c3     42    ccc     C5   1281 -0.20771900  12.010000   ; qtot 41.116319
 1282         hc     42    ccc     H9   1282 0.11463100   1.008000   ; qtot 41.230950
 1283         hc     42    ccc    H10   1283 0.11463100   1.008000   ; qtot 41.345581
 1284          c     42    ccc     C6   1284 0.64078100  12.010000   ; qtot 41.986362
 1285          o     42    ccc     O1   1285 -0.49231900  16.000000   ; qtot 41.494043
 1286         oh     42    ccc     O2   1286 -0.51841900  16.000000   ; qtot 40.975624
 1287         ho     42    ccc    H11   1287 0.45318100   1.008000   ; qtot 41.428805
 1288         c3     42    ccc     C7   1288 0.12498100  12.010000   ; qtot 41.553786
 1289         hx     42    ccc    H12   1289 0.12238100   1.008000   ; qtot 41.676167
 1290         hx     42    ccc    H13   1290 0.12238100   1.008000   ; qtot 41.798548
 1291         c3     42    ccc     C8   1291 -0.20771900  12.010000   ; qtot 41.590829
 1292         hc     42    ccc    H14   1292 0.11463100   1.008000   ; qtot 41.705460
 1293         hc     42    ccc    H15   1293 0.11463100   1.008000   ; qtot 41.820091
 1294          c     42    ccc     C9   1294 0.64078100  12.010000   ; qtot 42.460872
 1295          o     42    ccc     O3   1295 -0.49231900  16.000000   ; qtot 41.968553
 1296         oh     42    ccc     O4   1296 -0.51841900  16.000000   ; qtot 41.450134
 1297         ho     42    ccc    H16   1297 0.45318100   1.008000   ; qtot 41.903315
 1298         os     42    ccc     O5   1298 -0.39491900  16.000000   ; qtot 41.508396
 1299         hn     42    ccc    H17   1299 0.49148100   1.008000   ; qtot 41.999877
; residue   43 ccc rtp ccc q 1.0
 1300         c3     43    ccc     C1   1300 0.14608100  12.010000   ; qtot 42.145958
 1301         h1     43    ccc     H1   1301 0.06738100   1.008000   ; qtot 42.213339
 1302         h1     43    ccc     H2   1302 0.06738100   1.008000   ; qtot 42.280720
 1303         c3     43    ccc     C2   1303 -0.14571900  12.010000   ; qtot 42.135001
 1304         hc     43    ccc     H3   1304 0.08688100   1.008000   ; qtot 42.221882
 1305         hc     43    ccc     H4   1305 0.08688100   1.008000   ; qtot 42.308763
 1306         c3     43    ccc     C3   1306 0.12348100  12.010000   ; qtot 42.432244
 1307         hx     43    ccc     H5   1307 0.10638100   1.008000   ; qtot 42.538625
 1308         hx     43    ccc     H6   1308 0.10638100   1.008000   ; qtot 42.645006
 1309         n4     43    ccc     N1   1309 -0.69071900  14.010000   ; qtot 41.954287
 1310         c3     43    ccc     C4   1310 0.12498100  12.010000   ; qtot 42.079268
 1311         hx     43    ccc     H7   1311 0.12238100   1.008000   ; qtot 42.201649
 1312         hx     43    ccc     H8   1312 0.12238100   1.008000   ; qtot 42.324030
 1313         c3     43    ccc     C5   1313 -0.20771900  12.010000   ; qtot 42.116311
 1314         hc     43    ccc     H9   1314 0.11463100   1.008000   ; qtot 42.230942
 1315         hc     43    ccc    H10   1315 0.11463100   1.008000   ; qtot 42.345573
 1316          c     43    ccc     C6   1316 0.64078100  12.010000   ; qtot 42.986354
 1317          o     43    ccc     O1   1317 -0.49231900  16.000000   ; qtot 42.494035
 1318         oh     43    ccc     O2   1318 -0.51841900  16.000000   ; qtot 41.975616
 1319         ho     43    ccc    H11   1319 0.45318100   1.008000   ; qtot 42.428797
 1320         c3     43    ccc     C7   1320 0.12498100  12.010000   ; qtot 42.553778
 1321         hx     43    ccc    H12   1321 0.12238100   1.008000   ; qtot 42.676159
 1322         hx     43    ccc    H13   1322 0.12238100   1.008000   ; qtot 42.798540
 1323         c3     43    ccc     C8   1323 -0.20771900  12.010000   ; qtot 42.590821
 1324         hc     43    ccc    H14   1324 0.11463100   1.008000   ; qtot 42.705452
 1325         hc     43    ccc    H15   1325 0.11463100   1.008000   ; qtot 42.820083
 1326          c     43    ccc     C9   1326 0.64078100  12.010000   ; qtot 43.460864
 1327          o     43    ccc     O3   1327 -0.49231900  16.000000   ; qtot 42.968545
 1328         oh     43    ccc     O4   1328 -0.51841900  16.000000   ; qtot 42.450126
 1329         ho     43    ccc    H16   1329 0.45318100   1.008000   ; qtot 42.903307
 1330         os     43    ccc     O5   1330 -0.39491900  16.000000   ; qtot 42.508388
 1331         hn     43    ccc    H17   1331 0.49148100   1.008000   ; qtot 42.999869
; residue   44 ccc rtp ccc q 1.0
 1332         c3     44    ccc     C1   1332 0.14608100  12.010000   ; qtot 43.145950
 1333         h1     44    ccc     H1   1333 0.06738100   1.008000   ; qtot 43.213331
 1334         h1     44    ccc     H2   1334 0.06738100   1.008000   ; qtot 43.280712
 1335         c3     44    ccc     C2   1335 -0.14571900  12.010000   ; qtot 43.134993
 1336         hc     44    ccc     H3   1336 0.08688100   1.008000   ; qtot 43.221874
 1337         hc     44    ccc     H4   1337 0.08688100   1.008000   ; qtot 43.308755
 1338         c3     44    ccc     C3   1338 0.12348100  12.010000   ; qtot 43.432236
 1339         hx     44    ccc     H5   1339 0.10638100   1.008000   ; qtot 43.538617
 1340         hx     44    ccc     H6   1340 0.10638100   1.008000   ; qtot 43.644998
 1341         n4     44    ccc     N1   1341 -0.69071900  14.010000   ; qtot 42.954279
 1342         c3     44    ccc     C4   1342 0.12498100  12.010000   ; qtot 43.079260
 1343         hx     44    ccc     H7   1343 0.12238100   1.008000   ; qtot 43.201641
 1344         hx     44    ccc     H8   1344 0.12238100   1.008000   ; qtot 43.324022
 1345         c3     44    ccc     C5   1345 -0.20771900  12.010000   ; qtot 43.116303
 1346         hc     44    ccc     H9   1346 0.11463100   1.008000   ; qtot 43.230934
 1347         hc     44    ccc    H10   1347 0.11463100   1.008000   ; qtot 43.345565
 1348          c     44    ccc     C6   1348 0.64078100  12.010000   ; qtot 43.986346
 1349          o     44    ccc     O1   1349 -0.49231900  16.000000   ; qtot 43.494027
 1350         oh     44    ccc     O2   1350 -0.51841900  16.000000   ; qtot 42.975608
 1351         ho     44    ccc    H11   1351 0.45318100   1.008000   ; qtot 43.428789
 1352         c3     44    ccc     C7   1352 0.12498100  12.010000   ; qtot 43.553770
 1353         hx     44    ccc    H12   1353 0.12238100   1.008000   ; qtot 43.676151
 1354         hx     44    ccc    H13   1354 0.12238100   1.008000   ; qtot 43.798532
 1355         c3     44    ccc     C8   1355 -0.20771900  12.010000   ; qtot 43.590813
 1356         hc     44    ccc    H14   1356 0.11463100   1.008000   ; qtot 43.705444
 1357         hc     44    ccc    H15   1357 0.11463100   1.008000   ; qtot 43.820075
 1358          c     44    ccc     C9   1358 0.64078100  12.010000   ; qtot 44.460856
 1359          o     44    ccc     O3   1359 -0.49231900  16.000000   ; qtot 43.968537
 1360         oh     44    ccc     O4   1360 -0.51841900  16.000000   ; qtot 43.450118
 1361         ho     44    ccc    H16   1361 0.45318100   1.008000   ; qtot 43.903299
 1362         os     44    ccc     O5   1362 -0.39491900  16.000000   ; qtot 43.508380
 1363         hn     44    ccc    H17   1363 0.49148100   1.008000   ; qtot 43.999861
; residue   45 ccc rtp ccc q 1.0
 1364         c3     45    ccc     C1   1364 0.14608100  12.010000   ; qtot 44.145942
 1365         h1     45    ccc     H1   1365 0.06738100   1.008000   ; qtot 44.213323
 1366         h1     45    ccc     H2   1366 0.06738100   1.008000   ; qtot 44.280704
 1367         c3     45    ccc     C2   1367 -0.14571900  12.010000   ; qtot 44.134985
 1368         hc     45    ccc     H3   1368 0.08688100   1.008000   ; qtot 44.221866
 1369         hc     45    ccc     H4   1369 0.08688100   1.008000   ; qtot 44.308747
 1370         c3     45    ccc     C3   1370 0.12348100  12.010000   ; qtot 44.432228
 1371         hx     45    ccc     H5   1371 0.10638100   1.008000   ; qtot 44.538609
 1372         hx     45    ccc     H6   1372 0.10638100   1.008000   ; qtot 44.644990
 1373         n4     45    ccc     N1   1373 -0.69071900  14.010000   ; qtot 43.954271
 1374         c3     45    ccc     C4   1374 0.12498100  12.010000   ; qtot 44.079252
 1375         hx     45    ccc     H7   1375 0.12238100   1.008000   ; qtot 44.201633
 1376         hx     45    ccc     H8   1376 0.12238100   1.008000   ; qtot 44.324014
 1377         c3     45    ccc     C5   1377 -0.20771900  12.010000   ; qtot 44.116295
 1378         hc     45    ccc     H9   1378 0.11463100   1.008000   ; qtot 44.230926
 1379         hc     45    ccc    H10   1379 0.11463100   1.008000   ; qtot 44.345557
 1380          c     45    ccc     C6   1380 0.64078100  12.010000   ; qtot 44.986338
 1381          o     45    ccc     O1   1381 -0.49231900  16.000000   ; qtot 44.494019
 1382         oh     45    ccc     O2   1382 -0.51841900  16.000000   ; qtot 43.975600
 1383         ho     45    ccc    H11   1383 0.45318100   1.008000   ; qtot 44.428781
 1384         c3     45    ccc     C7   1384 0.12498100  12.010000   ; qtot 44.553762
 1385         hx     45    ccc    H12   1385 0.12238100   1.008000   ; qtot 44.676143
 1386         hx     45    ccc    H13   1386 0.12238100   1.008000   ; qtot 44.798524
 1387         c3     45    ccc     C8   1387 -0.20771900  12.010000   ; qtot 44.590805
 1388         hc     45    ccc    H14   1388 0.11463100   1.008000   ; qtot 44.705436
 1389         hc     45    ccc    H15   1389 0.11463100   1.008000   ; qtot 44.820067
 1390          c     45    ccc     C9   1390 0.64078100  12.010000   ; qtot 45.460848
 1391          o     45    ccc     O3   1391 -0.49231900  16.000000   ; qtot 44.968529
 1392         oh     45    ccc     O4   1392 -0.51841900  16.000000   ; qtot 44.450110
 1393         ho     45    ccc    H16   1393 0.45318100   1.008000   ; qtot 44.903291
 1394         os     45    ccc     O5   1394 -0.39491900  16.000000   ; qtot 44.508372
 1395         hn     45    ccc    H17   1395 0.49148100   1.008000   ; qtot 44.999853
; residue   46 ccc rtp ccc q 1.0
 1396         c3     46    ccc     C1   1396 0.14608100  12.010000   ; qtot 45.145934
 1397         h1     46    ccc     H1   1397 0.06738100   1.008000   ; qtot 45.213315
 1398         h1     46    ccc     H2   1398 0.06738100   1.008000   ; qtot 45.280696
 1399         c3     46    ccc     C2   1399 -0.14571900  12.010000   ; qtot 45.134977
 1400         hc     46    ccc     H3   1400 0.08688100   1.008000   ; qtot 45.221858
 1401         hc     46    ccc     H4   1401 0.08688100   1.008000   ; qtot 45.308739
 1402         c3     46    ccc     C3   1402 0.12348100  12.010000   ; qtot 45.432220
 1403         hx     46    ccc     H5   1403 0.10638100   1.008000   ; qtot 45.538601
 1404         hx     46    ccc     H6   1404 0.10638100   1.008000   ; qtot 45.644982
 1405         n4     46    ccc     N1   1405 -0.69071900  14.010000   ; qtot 44.954263
 1406         c3     46    ccc     C4   1406 0.12498100  12.010000   ; qtot 45.079244
 1407         hx     46    ccc     H7   1407 0.12238100   1.008000   ; qtot 45.201625
 1408         hx     46    ccc     H8   1408 0.12238100   1.008000   ; qtot 45.324006
 1409         c3     46    ccc     C5   1409 -0.20771900  12.010000   ; qtot 45.116287
 1410         hc     46    ccc     H9   1410 0.11463100   1.008000   ; qtot 45.230918
 1411         hc     46    ccc    H10   1411 0.11463100   1.008000   ; qtot 45.345549
 1412          c     46    ccc     C6   1412 0.64078100  12.010000   ; qtot 45.986330
 1413          o     46    ccc     O1   1413 -0.49231900  16.000000   ; qtot 45.494011
 1414         oh     46    ccc     O2   1414 -0.51841900  16.000000   ; qtot 44.975592
 1415         ho     46    ccc    H11   1415 0.45318100   1.008000   ; qtot 45.428773
 1416         c3     46    ccc     C7   1416 0.12498100  12.010000   ; qtot 45.553754
 1417         hx     46    ccc    H12   1417 0.12238100   1.008000   ; qtot 45.676135
 1418         hx     46    ccc    H13   1418 0.12238100   1.008000   ; qtot 45.798516
 1419         c3     46    ccc     C8   1419 -0.20771900  12.010000   ; qtot 45.590797
 1420         hc     46    ccc    H14   1420 0.11463100   1.008000   ; qtot 45.705428
 1421         hc     46    ccc    H15   1421 0.11463100   1.008000   ; qtot 45.820059
 1422          c     46    ccc     C9   1422 0.64078100  12.010000   ; qtot 46.460840
 1423          o     46    ccc     O3   1423 -0.49231900  16.000000   ; qtot 45.968521
 1424         oh     46    ccc     O4   1424 -0.51841900  16.000000   ; qtot 45.450102
 1425         ho     46    ccc    H16   1425 0.45318100   1.008000   ; qtot 45.903283
 1426         os     46    ccc     O5   1426 -0.39491900  16.000000   ; qtot 45.508364
 1427         hn     46    ccc    H17   1427 0.49148100   1.008000   ; qtot 45.999845

[ bonds ]
;    ai     aj funct         c0         c1         c2         c3
      1      2     1   0.15110 237065.440000
      1      5     1   0.15110 237065.440000
      1      8     1   0.15110 237065.440000
      2     14     1   0.15375 251793.120000
      5     17     1   0.15375 251793.120000
      8     11     1   0.15375 251793.120000
     11     23     1   0.15375 251793.120000
     14     26     1   0.15375 251793.120000
     17     20     1   0.15375 251793.120000
     20     58     1   0.14316 258236.480000
     23     88     1   0.14316 258236.480000
     26    118     1   0.14316 258236.480000
     30     31     1   0.15110 237065.440000
     30     34     1   0.15110 237065.440000
     30     37     1   0.15110 237065.440000
     31     43     1   0.15375 251793.120000
     34     46     1   0.15375 251793.120000
     37     40     1   0.15375 251793.120000
     40     49     1   0.15375 251793.120000
     43     55     1   0.15375 251793.120000
     46     52     1   0.15375 251793.120000
     49     58     1   0.14316 258236.480000
     52    148     1   0.14316 258236.480000
     55    178     1   0.14316 258236.480000
     60     61     1   0.15110 237065.440000
     60     64     1   0.15110 237065.440000
     60     67     1   0.15110 237065.440000
     61     73     1   0.15375 251793.120000
     64     76     1   0.15375 251793.120000
     67     70     1   0.15375 251793.120000
     70     79     1   0.15375 251793.120000
     73     85     1   0.15375 251793.120000
     76     82     1   0.15375 251793.120000
     79     88     1   0.14316 258236.480000
     82    208     1   0.14316 258236.480000
     85    238     1   0.14316 258236.480000
     90     91     1   0.15110 237065.440000
     90     94     1   0.15110 237065.440000
     90     97     1   0.15110 237065.440000
     91    103     1   0.15375 251793.120000
     94    106     1   0.15375 251793.120000
     97    100     1   0.15375 251793.120000
    100    109     1   0.15375 251793.120000
    103    115     1   0.15375 251793.120000
    106    112     1   0.15375 251793.120000
    109    118     1   0.14316 258236.480000
    112    268     1   0.14316 258236.480000
    115    298     1   0.14316 258236.480000
    120    121     1   0.15110 237065.440000
    120    124     1   0.15110 237065.440000
    120    127     1   0.15110 237065.440000
    121    133     1   0.15375 251793.120000
    124    136     1   0.15375 251793.120000
    127    130     1   0.15375 251793.120000
    130    139     1   0.15375 251793.120000
    133    145     1   0.15375 251793.120000
    136    142     1   0.15375 251793.120000
    139    148     1   0.14316 258236.480000
    142    328     1   0.14316 258236.480000
    145    358     1   0.14316 258236.480000
    150    151     1   0.15110 237065.440000
    150    154     1   0.15110 237065.440000
    150    157     1   0.15110 237065.440000
    151    163     1   0.15375 251793.120000
    154    166     1   0.15375 251793.120000
    157    160     1   0.15375 251793.120000
    160    169     1   0.15375 251793.120000
    163    175     1   0.15375 251793.120000
    166    172     1   0.15375 251793.120000
    169    178     1   0.14316 258236.480000
    172    388     1   0.14316 258236.480000
    175    418     1   0.14316 258236.480000
    180    181     1   0.15110 237065.440000
    180    184     1   0.15110 237065.440000
    180    187     1   0.15110 237065.440000
    181    193     1   0.15375 251793.120000
    184    196     1   0.15375 251793.120000
    187    190     1   0.15375 251793.120000
    190    199     1   0.15375 251793.120000
    193    205     1   0.15375 251793.120000
    196    202     1   0.15375 251793.120000
    199    208     1   0.14316 258236.480000
    202    448     1   0.14316 258236.480000
    205    478     1   0.14316 258236.480000
    210    211     1   0.15110 237065.440000
    210    214     1   0.15110 237065.440000
    210    217     1   0.15110 237065.440000
    211    223     1   0.15375 251793.120000
    214    226     1   0.15375 251793.120000
    217    220     1   0.15375 251793.120000
    220    229     1   0.15375 251793.120000
    223    235     1   0.15375 251793.120000
    226    232     1   0.15375 251793.120000
    229    238     1   0.14316 258236.480000
    232    508     1   0.14316 258236.480000
    235    538     1   0.14316 258236.480000
    240    241     1   0.15110 237065.440000
    240    244     1   0.15110 237065.440000
    240    247     1   0.15110 237065.440000
    241    253     1   0.15375 251793.120000
    244    256     1   0.15375 251793.120000
    247    250     1   0.15375 251793.120000
    250    259     1   0.15375 251793.120000
    253    265     1   0.15375 251793.120000
    256    262     1   0.15375 251793.120000
    259    268     1   0.14316 258236.480000
    262    568     1   0.14316 258236.480000
    265    598     1   0.14316 258236.480000
    270    271     1   0.15110 237065.440000
    270    274     1   0.15110 237065.440000
    270    277     1   0.15110 237065.440000
    271    283     1   0.15375 251793.120000
    274    286     1   0.15375 251793.120000
    277    280     1   0.15375 251793.120000
    280    289     1   0.15375 251793.120000
    283    295     1   0.15375 251793.120000
    286    292     1   0.15375 251793.120000
    289    298     1   0.14316 258236.480000
    292    628     1   0.14316 258236.480000
    295    658     1   0.14316 258236.480000
    300    301     1   0.15110 237065.440000
    300    304     1   0.15110 237065.440000
    300    307     1   0.15110 237065.440000
    301    313     1   0.15375 251793.120000
    304    316     1   0.15375 251793.120000
    307    310     1   0.15375 251793.120000
    310    319     1   0.15375 251793.120000
    313    325     1   0.15375 251793.120000
    316    322     1   0.15375 251793.120000
    319    328     1   0.14316 258236.480000
    322    690     1   0.14316 258236.480000
    325    722     1   0.14316 258236.480000
    330    331     1   0.15110 237065.440000
    330    334     1   0.15110 237065.440000
    330    337     1   0.15110 237065.440000
    331    343     1   0.15375 251793.120000
    334    346     1   0.15375 251793.120000
    337    340     1   0.15375 251793.120000
    340    349     1   0.15375 251793.120000
    343    355     1   0.15375 251793.120000
    346    352     1   0.15375 251793.120000
    349    358     1   0.14316 258236.480000
    352    754     1   0.14316 258236.480000
    355    786     1   0.14316 258236.480000
    360    361     1   0.15110 237065.440000
    360    364     1   0.15110 237065.440000
    360    367     1   0.15110 237065.440000
    361    373     1   0.15375 251793.120000
    364    376     1   0.15375 251793.120000
    367    370     1   0.15375 251793.120000
    370    379     1   0.15375 251793.120000
    373    385     1   0.15375 251793.120000
    376    382     1   0.15375 251793.120000
    379    388     1   0.14316 258236.480000
    382    818     1   0.14316 258236.480000
    385    850     1   0.14316 258236.480000
    390    391     1   0.15110 237065.440000
    390    394     1   0.15110 237065.440000
    390    397     1   0.15110 237065.440000
    391    403     1   0.15375 251793.120000
    394    406     1   0.15375 251793.120000
    397    400     1   0.15375 251793.120000
    400    409     1   0.15375 251793.120000
    403    415     1   0.15375 251793.120000
    406    412     1   0.15375 251793.120000
    409    418     1   0.14316 258236.480000
    412    882     1   0.14316 258236.480000
    415    914     1   0.14316 258236.480000
    420    421     1   0.15110 237065.440000
    420    424     1   0.15110 237065.440000
    420    427     1   0.15110 237065.440000
    421    433     1   0.15375 251793.120000
    424    436     1   0.15375 251793.120000
    427    430     1   0.15375 251793.120000
    430    439     1   0.15375 251793.120000
    433    445     1   0.15375 251793.120000
    436    442     1   0.15375 251793.120000
    439    448     1   0.14316 258236.480000
    442    946     1   0.14316 258236.480000
    445    978     1   0.14316 258236.480000
    450    451     1   0.15110 237065.440000
    450    454     1   0.15110 237065.440000
    450    457     1   0.15110 237065.440000
    451    463     1   0.15375 251793.120000
    454    466     1   0.15375 251793.120000
    457    460     1   0.15375 251793.120000
    460    469     1   0.15375 251793.120000
    463    475     1   0.15375 251793.120000
    466    472     1   0.15375 251793.120000
    469    478     1   0.14316 258236.480000
    472   1010     1   0.14316 258236.480000
    475   1042     1   0.14316 258236.480000
    480    481     1   0.15110 237065.440000
    480    484     1   0.15110 237065.440000
    480    487     1   0.15110 237065.440000
    481    493     1   0.15375 251793.120000
    484    496     1   0.15375 251793.120000
    487    490     1   0.15375 251793.120000
    490    499     1   0.15375 251793.120000
    493    505     1   0.15375 251793.120000
    496    502     1   0.15375 251793.120000
    499    508     1   0.14316 258236.480000
    502   1074     1   0.14316 258236.480000
    505   1106     1   0.14316 258236.480000
    510    511     1   0.15110 237065.440000
    510    514     1   0.15110 237065.440000
    510    517     1   0.15110 237065.440000
    511    523     1   0.15375 251793.120000
    514    526     1   0.15375 251793.120000
    517    520     1   0.15375 251793.120000
    520    529     1   0.15375 251793.120000
    523    535     1   0.15375 251793.120000
    526    532     1   0.15375 251793.120000
    529    538     1   0.14316 258236.480000
    532   1138     1   0.14316 258236.480000
    535   1170     1   0.14316 258236.480000
    540    541     1   0.15110 237065.440000
    540    544     1   0.15110 237065.440000
    540    547     1   0.15110 237065.440000
    541    553     1   0.15375 251793.120000
    544    556     1   0.15375 251793.120000
    547    550     1   0.15375 251793.120000
    550    559     1   0.15375 251793.120000
    553    565     1   0.15375 251793.120000
    556    562     1   0.15375 251793.120000
    559    568     1   0.14316 258236.480000
    562   1202     1   0.14316 258236.480000
    565   1234     1   0.14316 258236.480000
    570    571     1   0.15110 237065.440000
    570    574     1   0.15110 237065.440000
    570    577     1   0.15110 237065.440000
    571    583     1   0.15375 251793.120000
    574    586     1   0.15375 251793.120000
    577    580     1   0.15375 251793.120000
    580    589     1   0.15375 251793.120000
    583    595     1   0.15375 251793.120000
    586    592     1   0.15375 251793.120000
    589    598     1   0.14316 258236.480000
    592   1266     1   0.14316 258236.480000
    595   1298     1   0.14316 258236.480000
    600    601     1   0.15110 237065.440000
    600    604     1   0.15110 237065.440000
    600    607     1   0.15110 237065.440000
    601    613     1   0.15375 251793.120000
    604    616     1   0.15375 251793.120000
    607    610     1   0.15375 251793.120000
    610    619     1   0.15375 251793.120000
    613    625     1   0.15375 251793.120000
    616    622     1   0.15375 251793.120000
    619    628     1   0.14316 258236.480000
    622   1330     1   0.14316 258236.480000
    625   1362     1   0.14316 258236.480000
    630    631     1   0.15110 237065.440000
    630    634     1   0.15110 237065.440000
    630    637     1   0.15110 237065.440000
    631    643     1   0.15375 251793.120000
    634    646     1   0.15375 251793.120000
    637    640     1   0.15375 251793.120000
    640    649     1   0.15375 251793.120000
    643    655     1   0.15375 251793.120000
    646    652     1   0.15375 251793.120000
    649    658     1   0.14316 258236.480000
    652   1394     1   0.14316 258236.480000
    655   1426     1   0.14316 258236.480000
    660    663     1   0.15375 251793.120000
    660    690     1   0.14316 258236.480000
    663    666     1   0.15375 251793.120000
    666    669     1   0.15110 237065.440000
    669    670     1   0.15110 237065.440000
    669    680     1   0.15110 237065.440000
    670    673     1   0.15375 251793.120000
    673    676     1   0.15241 261918.400000
    676    677     1   0.12183 533627.360000
    676    678     1   0.13513 334803.680000
    680    683     1   0.15375 251793.120000
    683    686     1   0.15241 261918.400000
    686    687     1   0.12183 533627.360000
    686    688     1   0.13513 334803.680000
    692    695     1   0.15375 251793.120000
    692    722     1   0.14316 258236.480000
    695    698     1   0.15375 251793.120000
    698    701     1   0.15110 237065.440000
    701    702     1   0.15110 237065.440000
    701    712     1   0.15110 237065.440000
    702    705     1   0.15375 251793.120000
    705    708     1   0.15241 261918.400000
    708    709     1   0.12183 533627.360000
    708    710     1   0.13513 334803.680000
    712    715     1   0.15375 251793.120000
    715    718     1   0.15241 261918.400000
    718    719     1   0.12183 533627.360000
    718    720     1   0.13513 334803.680000
    724    727     1   0.15375 251793.120000
    724    754     1   0.14316 258236.480000
    727    730     1   0.15375 251793.120000
    730    733     1   0.15110 237065.440000
    733    734     1   0.15110 237065.440000
    733    744     1   0.15110 237065.440000
    734    737     1   0.15375 251793.120000
    737    740     1   0.15241 261918.400000
    740    741     1   0.12183 533627.360000
    740    742     1   0.13513 334803.680000
    744    747     1   0.15375 251793.120000
    747    750     1   0.15241 261918.400000
    750    751     1   0.12183 533627.360000
    750    752     1   0.13513 334803.680000
    756    759     1   0.15375 251793.120000
    756    786     1   0.14316 258236.480000
    759    762     1   0.15375 251793.120000
    762    765     1   0.15110 237065.440000
    765    766     1   0.15110 237065.440000
    765    776     1   0.15110 237065.440000
    766    769     1   0.15375 251793.120000
    769    772     1   0.15241 261918.400000
    772    773     1   0.12183 533627.360000
    772    774     1   0.13513 334803.680000
    776    779     1   0.15375 251793.120000
    779    782     1   0.15241 261918.400000
    782    783     1   0.12183 533627.360000
    782    784     1   0.13513 334803.680000
    788    791     1   0.15375 251793.120000
    788    818     1   0.14316 258236.480000
    791    794     1   0.15375 251793.120000
    794    797     1   0.15110 237065.440000
    797    798     1   0.15110 237065.440000
    797    808     1   0.15110 237065.440000
    798    801     1   0.15375 251793.120000
    801    804     1   0.15241 261918.400000
    804    805     1   0.12183 533627.360000
    804    806     1   0.13513 334803.680000
    808    811     1   0.15375 251793.120000
    811    814     1   0.15241 261918.400000
    814    815     1   0.12183 533627.360000
    814    816     1   0.13513 334803.680000
    820    823     1   0.15375 251793.120000
    820    850     1   0.14316 258236.480000
    823    826     1   0.15375 251793.120000
    826    829     1   0.15110 237065.440000
    829    830     1   0.15110 237065.440000
    829    840     1   0.15110 237065.440000
    830    833     1   0.15375 251793.120000
    833    836     1   0.15241 261918.400000
    836    837     1   0.12183 533627.360000
    836    838     1   0.13513 334803.680000
    840    843     1   0.15375 251793.120000
    843    846     1   0.15241 261918.400000
    846    847     1   0.12183 533627.360000
    846    848     1   0.13513 334803.680000
    852    855     1   0.15375 251793.120000
    852    882     1   0.14316 258236.480000
    855    858     1   0.15375 251793.120000
    858    861     1   0.15110 237065.440000
    861    862     1   0.15110 237065.440000
    861    872     1   0.15110 237065.440000
    862    865     1   0.15375 251793.120000
    865    868     1   0.15241 261918.400000
    868    869     1   0.12183 533627.360000
    868    870     1   0.13513 334803.680000
    872    875     1   0.15375 251793.120000
    875    878     1   0.15241 261918.400000
    878    879     1   0.12183 533627.360000
    878    880     1   0.13513 334803.680000
    884    887     1   0.15375 251793.120000
    884    914     1   0.14316 258236.480000
    887    890     1   0.15375 251793.120000
    890    893     1   0.15110 237065.440000
    893    894     1   0.15110 237065.440000
    893    904     1   0.15110 237065.440000
    894    897     1   0.15375 251793.120000
    897    900     1   0.15241 261918.400000
    900    901     1   0.12183 533627.360000
    900    902     1   0.13513 334803.680000
    904    907     1   0.15375 251793.120000
    907    910     1   0.15241 261918.400000
    910    911     1   0.12183 533627.360000
    910    912     1   0.13513 334803.680000
    916    919     1   0.15375 251793.120000
    916    946     1   0.14316 258236.480000
    919    922     1   0.15375 251793.120000
    922    925     1   0.15110 237065.440000
    925    926     1   0.15110 237065.440000
    925    936     1   0.15110 237065.440000
    926    929     1   0.15375 251793.120000
    929    932     1   0.15241 261918.400000
    932    933     1   0.12183 533627.360000
    932    934     1   0.13513 334803.680000
    936    939     1   0.15375 251793.120000
    939    942     1   0.15241 261918.400000
    942    943     1   0.12183 533627.360000
    942    944     1   0.13513 334803.680000
    948    951     1   0.15375 251793.120000
    948    978     1   0.14316 258236.480000
    951    954     1   0.15375 251793.120000
    954    957     1   0.15110 237065.440000
    957    958     1   0.15110 237065.440000
    957    968     1   0.15110 237065.440000
    958    961     1   0.15375 251793.120000
    961    964     1   0.15241 261918.400000
    964    965     1   0.12183 533627.360000
    964    966     1   0.13513 334803.680000
    968    971     1   0.15375 251793.120000
    971    974     1   0.15241 261918.400000
    974    975     1   0.12183 533627.360000
    974    976     1   0.13513 334803.680000
    980    983     1   0.15375 251793.120000
    980   1010     1   0.14316 258236.480000
    983    986     1   0.15375 251793.120000
    986    989     1   0.15110 237065.440000
    989    990     1   0.15110 237065.440000
    989   1000     1   0.15110 237065.440000
    990    993     1   0.15375 251793.120000
    993    996     1   0.15241 261918.400000
    996    997     1   0.12183 533627.360000
    996    998     1   0.13513 334803.680000
   1000   1003     1   0.15375 251793.120000
   1003   1006     1   0.15241 261918.400000
   1006   1007     1   0.12183 533627.360000
   1006   1008     1   0.13513 334803.680000
   1012   1015     1   0.15375 251793.120000
   1012   1042     1   0.14316 258236.480000
   1015   1018     1   0.15375 251793.120000
   1018   1021     1   0.15110 237065.440000
   1021   1022     1   0.15110 237065.440000
   1021   1032     1   0.15110 237065.440000
   1022   1025     1   0.15375 251793.120000
   1025   1028     1   0.15241 261918.400000
   1028   1029     1   0.12183 533627.360000
   1028   1030     1   0.13513 334803.680000
   1032   1035     1   0.15375 251793.120000
   1035   1038     1   0.15241 261918.400000
   1038   1039     1   0.12183 533627.360000
   1038   1040     1   0.13513 334803.680000
   1044   1047     1   0.15375 251793.120000
   1044   1074     1   0.14316 258236.480000
   1047   1050     1   0.15375 251793.120000
   1050   1053     1   0.15110 237065.440000
   1053   1054     1   0.15110 237065.440000
   1053   1064     1   0.15110 237065.440000
   1054   1057     1   0.15375 251793.120000
   1057   1060     1   0.15241 261918.400000
   1060   1061     1   0.12183 533627.360000
   1060   1062     1   0.13513 334803.680000
   1064   1067     1   0.15375 251793.120000
   1067   1070     1   0.15241 261918.400000
   1070   1071     1   0.12183 533627.360000
   1070   1072     1   0.13513 334803.680000
   1076   1079     1   0.15375 251793.120000
   1076   1106     1   0.14316 258236.480000
   1079   1082     1   0.15375 251793.120000
   1082   1085     1   0.15110 237065.440000
   1085   1086     1   0.15110 237065.440000
   1085   1096     1   0.15110 237065.440000
   1086   1089     1   0.15375 251793.120000
   1089   1092     1   0.15241 261918.400000
   1092   1093     1   0.12183 533627.360000
   1092   1094     1   0.13513 334803.680000
   1096   1099     1   0.15375 251793.120000
   1099   1102     1   0.15241 261918.400000
   1102   1103     1   0.12183 533627.360000
   1102   1104     1   0.13513 334803.680000
   1108   1111     1   0.15375 251793.120000
   1108   1138     1   0.14316 258236.480000
   1111   1114     1   0.15375 251793.120000
   1114   1117     1   0.15110 237065.440000
   1117   1118     1   0.15110 237065.440000
   1117   1128     1   0.15110 237065.440000
   1118   1121     1   0.15375 251793.120000
   1121   1124     1   0.15241 261918.400000
   1124   1125     1   0.12183 533627.360000
   1124   1126     1   0.13513 334803.680000
   1128   1131     1   0.15375 251793.120000
   1131   1134     1   0.15241 261918.400000
   1134   1135     1   0.12183 533627.360000
   1134   1136     1   0.13513 334803.680000
   1140   1143     1   0.15375 251793.120000
   1140   1170     1   0.14316 258236.480000
   1143   1146     1   0.15375 251793.120000
   1146   1149     1   0.15110 237065.440000
   1149   1150     1   0.15110 237065.440000
   1149   1160     1   0.15110 237065.440000
   1150   1153     1   0.15375 251793.120000
   1153   1156     1   0.15241 261918.400000
   1156   1157     1   0.12183 533627.360000
   1156   1158     1   0.13513 334803.680000
   1160   1163     1   0.15375 251793.120000
   1163   1166     1   0.15241 261918.400000
   1166   1167     1   0.12183 533627.360000
   1166   1168     1   0.13513 334803.680000
   1172   1175     1   0.15375 251793.120000
   1172   1202     1   0.14316 258236.480000
   1175   1178     1   0.15375 251793.120000
   1178   1181     1   0.15110 237065.440000
   1181   1182     1   0.15110 237065.440000
   1181   1192     1   0.15110 237065.440000
   1182   1185     1   0.15375 251793.120000
   1185   1188     1   0.15241 261918.400000
   1188   1189     1   0.12183 533627.360000
   1188   1190     1   0.13513 334803.680000
   1192   1195     1   0.15375 251793.120000
   1195   1198     1   0.15241 261918.400000
   1198   1199     1   0.12183 533627.360000
   1198   1200     1   0.13513 334803.680000
   1204   1207     1   0.15375 251793.120000
   1204   1234     1   0.14316 258236.480000
   1207   1210     1   0.15375 251793.120000
   1210   1213     1   0.15110 237065.440000
   1213   1214     1   0.15110 237065.440000
   1213   1224     1   0.15110 237065.440000
   1214   1217     1   0.15375 251793.120000
   1217   1220     1   0.15241 261918.400000
   1220   1221     1   0.12183 533627.360000
   1220   1222     1   0.13513 334803.680000
   1224   1227     1   0.15375 251793.120000
   1227   1230     1   0.15241 261918.400000
   1230   1231     1   0.12183 533627.360000
   1230   1232     1   0.13513 334803.680000
   1236   1239     1   0.15375 251793.120000
   1236   1266     1   0.14316 258236.480000
   1239   1242     1   0.15375 251793.120000
   1242   1245     1   0.15110 237065.440000
   1245   1246     1   0.15110 237065.440000
   1245   1256     1   0.15110 237065.440000
   1246   1249     1   0.15375 251793.120000
   1249   1252     1   0.15241 261918.400000
   1252   1253     1   0.12183 533627.360000
   1252   1254     1   0.13513 334803.680000
   1256   1259     1   0.15375 251793.120000
   1259   1262     1   0.15241 261918.400000
   1262   1263     1   0.12183 533627.360000
   1262   1264     1   0.13513 334803.680000
   1268   1271     1   0.15375 251793.120000
   1268   1298     1   0.14316 258236.480000
   1271   1274     1   0.15375 251793.120000
   1274   1277     1   0.15110 237065.440000
   1277   1278     1   0.15110 237065.440000
   1277   1288     1   0.15110 237065.440000
   1278   1281     1   0.15375 251793.120000
   1281   1284     1   0.15241 261918.400000
   1284   1285     1   0.12183 533627.360000
   1284   1286     1   0.13513 334803.680000
   1288   1291     1   0.15375 251793.120000
   1291   1294     1   0.15241 261918.400000
   1294   1295     1   0.12183 533627.360000
   1294   1296     1   0.13513 334803.680000
   1300   1303     1   0.15375 251793.120000
   1300   1330     1   0.14316 258236.480000
   1303   1306     1   0.15375 251793.120000
   1306   1309     1   0.15110 237065.440000
   1309   1310     1   0.15110 237065.440000
   1309   1320     1   0.15110 237065.440000
   1310   1313     1   0.15375 251793.120000
   1313   1316     1   0.15241 261918.400000
   1316   1317     1   0.12183 533627.360000
   1316   1318     1   0.13513 334803.680000
   1320   1323     1   0.15375 251793.120000
   1323   1326     1   0.15241 261918.400000
   1326   1327     1   0.12183 533627.360000
   1326   1328     1   0.13513 334803.680000
   1332   1335     1   0.15375 251793.120000
   1332   1362     1   0.14316 258236.480000
   1335   1338     1   0.15375 251793.120000
   1338   1341     1   0.15110 237065.440000
   1341   1342     1   0.15110 237065.440000
   1341   1352     1   0.15110 237065.440000
   1342   1345     1   0.15375 251793.120000
   1345   1348     1   0.15241 261918.400000
   1348   1349     1   0.12183 533627.360000
   1348   1350     1   0.13513 334803.680000
   1352   1355     1   0.15375 251793.120000
   1355   1358     1   0.15241 261918.400000
   1358   1359     1   0.12183 533627.360000
   1358   1360     1   0.13513 334803.680000
   1364   1367     1   0.15375 251793.120000
   1364   1394     1   0.14316 258236.480000
   1367   1370     1   0.15375 251793.120000
   1370   1373     1   0.15110 237065.440000
   1373   1374     1   0.15110 237065.440000
   1373   1384     1   0.15110 237065.440000
   1374   1377     1   0.15375 251793.120000
   1377   1380     1   0.15241 261918.400000
   1380   1381     1   0.12183 533627.360000
   1380   1382     1   0.13513 334803.680000
   1384   1387     1   0.15375 251793.120000
   1387   1390     1   0.15241 261918.400000
   1390   1391     1   0.12183 533627.360000
   1390   1392     1   0.13513 334803.680000
   1396   1399     1   0.15375 251793.120000
   1396   1426     1   0.14316 258236.480000
   1399   1402     1   0.15375 251793.120000
   1402   1405     1   0.15110 237065.440000
   1405   1406     1   0.15110 237065.440000
   1405   1416     1   0.15110 237065.440000
   1406   1409     1   0.15375 251793.120000
   1409   1412     1   0.15241 261918.400000
   1412   1413     1   0.12183 533627.360000
   1412   1414     1   0.13513 334803.680000
   1416   1419     1   0.15375 251793.120000
   1419   1422     1   0.15241 261918.400000
   1422   1423     1   0.12183 533627.360000
   1422   1424     1   0.13513 334803.680000
      1     29     1   0.10304 312293.760000
      2      3     1   0.10910 283424.160000
      2      4     1   0.10910 283424.160000
      5      6     1   0.10910 283424.160000
      5      7     1   0.10910 283424.160000
      8      9     1   0.10910 283424.160000
      8     10     1   0.10910 283424.160000
     11     12     1   0.10969 276646.080000
     11     13     1   0.10969 276646.080000
     14     15     1   0.10969 276646.080000
     14     16     1   0.10969 276646.080000
     17     18     1   0.10969 276646.080000
     17     19     1   0.10969 276646.080000
     20     21     1   0.10969 276646.080000
     20     22     1   0.10969 276646.080000
     23     24     1   0.10969 276646.080000
     23     25     1   0.10969 276646.080000
     26     27     1   0.10969 276646.080000
     26     28     1   0.10969 276646.080000
     30     59     1   0.10304 312293.760000
     31     32     1   0.10910 283424.160000
     31     33     1   0.10910 283424.160000
     34     35     1   0.10910 283424.160000
     34     36     1   0.10910 283424.160000
     37     38     1   0.10910 283424.160000
     37     39     1   0.10910 283424.160000
     40     41     1   0.10969 276646.080000
     40     42     1   0.10969 276646.080000
     43     44     1   0.10969 276646.080000
     43     45     1   0.10969 276646.080000
     46     47     1   0.10969 276646.080000
     46     48     1   0.10969 276646.080000
     49     50     1   0.10969 276646.080000
     49     51     1   0.10969 276646.080000
     52     53     1   0.10969 276646.080000
     52     54     1   0.10969 276646.080000
     55     56     1   0.10969 276646.080000
     55     57     1   0.10969 276646.080000
     60     89     1   0.10304 312293.760000
     61     62     1   0.10910 283424.160000
     61     63     1   0.10910 283424.160000
     64     65     1   0.10910 283424.160000
     64     66     1   0.10910 283424.160000
     67     68     1   0.10910 283424.160000
     67     69     1   0.10910 283424.160000
     70     71     1   0.10969 276646.080000
     70     72     1   0.10969 276646.080000
     73     74     1   0.10969 276646.080000
     73     75     1   0.10969 276646.080000
     76     77     1   0.10969 276646.080000
     76     78     1   0.10969 276646.080000
     79     80     1   0.10969 276646.080000
     79     81     1   0.10969 276646.080000
     82     83     1   0.10969 276646.080000
     82     84     1   0.10969 276646.080000
     85     86     1   0.10969 276646.080000
     85     87     1   0.10969 276646.080000
     90    119     1   0.10304 312293.760000
     91     92     1   0.10910 283424.160000
     91     93     1   0.10910 283424.160000
     94     95     1   0.10910 283424.160000
     94     96     1   0.10910 283424.160000
     97     98     1   0.10910 283424.160000
     97     99     1   0.10910 283424.160000
    100    101     1   0.10969 276646.080000
    100    102     1   0.10969 276646.080000
    103    104     1   0.10969 276646.080000
    103    105     1   0.10969 276646.080000
    106    107     1   0.10969 276646.080000
    106    108     1   0.10969 276646.080000
    109    110     1   0.10969 276646.080000
    109    111     1   0.10969 276646.080000
    112    113     1   0.10969 276646.080000
    112    114     1   0.10969 276646.080000
    115    116     1   0.10969 276646.080000
    115    117     1   0.10969 276646.080000
    120    149     1   0.10304 312293.760000
    121    122     1   0.10910 283424.160000
    121    123     1   0.10910 283424.160000
    124    125     1   0.10910 283424.160000
    124    126     1   0.10910 283424.160000
    127    128     1   0.10910 283424.160000
    127    129     1   0.10910 283424.160000
    130    131     1   0.10969 276646.080000
    130    132     1   0.10969 276646.080000
    133    134     1   0.10969 276646.080000
    133    135     1   0.10969 276646.080000
    136    137     1   0.10969 276646.080000
    136    138     1   0.10969 276646.080000
    139    140     1   0.10969 276646.080000
    139    141     1   0.10969 276646.080000
    142    143     1   0.10969 276646.080000
    142    144     1   0.10969 276646.080000
    145    146     1   0.10969 276646.080000
    145    147     1   0.10969 276646.080000
    150    179     1   0.10304 312293.760000
    151    152     1   0.10910 283424.160000
    151    153     1   0.10910 283424.160000
    154    155     1   0.10910 283424.160000
    154    156     1   0.10910 283424.160000
    157    158     1   0.10910 283424.160000
    157    159     1   0.10910 283424.160000
    160    161     1   0.10969 276646.080000
    160    162     1   0.10969 276646.080000
    163    164     1   0.10969 276646.080000
    163    165     1   0.10969 276646.080000
    166    167     1   0.10969 276646.080000
    166    168     1   0.10969 276646.080000
    169    170     1   0.10969 276646.080000
    169    171     1   0.10969 276646.080000
    172    173     1   0.10969 276646.080000
    172    174     1   0.10969 276646.080000
    175    176     1   0.10969 276646.080000
    175    177     1   0.10969 276646.080000
    180    209     1   0.10304 312293.760000
    181    182     1   0.10910 283424.160000
    181    183     1   0.10910 283424.160000
    184    185     1   0.10910 283424.160000
    184    186     1   0.10910 283424.160000
    187    188     1   0.10910 283424.160000
    187    189     1   0.10910 283424.160000
    190    191     1   0.10969 276646.080000
    190    192     1   0.10969 276646.080000
    193    194     1   0.10969 276646.080000
    193    195     1   0.10969 276646.080000
    196    197     1   0.10969 276646.080000
    196    198     1   0.10969 276646.080000
    199    200     1   0.10969 276646.080000
    199    201     1   0.10969 276646.080000
    202    203     1   0.10969 276646.080000
    202    204     1   0.10969 276646.080000
    205    206     1   0.10969 276646.080000
    205    207     1   0.10969 276646.080000
    210    239     1   0.10304 312293.760000
    211    212     1   0.10910 283424.160000
    211    213     1   0.10910 283424.160000
    214    215     1   0.10910 283424.160000
    214    216     1   0.10910 283424.160000
    217    218     1   0.10910 283424.160000
    217    219     1   0.10910 283424.160000
    220    221     1   0.10969 276646.080000
    220    222     1   0.10969 276646.080000
    223    224     1   0.10969 276646.080000
    223    225     1   0.10969 276646.080000
    226    227     1   0.10969 276646.080000
    226    228     1   0.10969 276646.080000
    229    230     1   0.10969 276646.080000
    229    231     1   0.10969 276646.080000
    232    233     1   0.10969 276646.080000
    232    234     1   0.10969 276646.080000
    235    236     1   0.10969 276646.080000
    235    237     1   0.10969 276646.080000
    240    269     1   0.10304 312293.760000
    241    242     1   0.10910 283424.160000
    241    243     1   0.10910 283424.160000
    244    245     1   0.10910 283424.160000
    244    246     1   0.10910 283424.160000
    247    248     1   0.10910 283424.160000
    247    249     1   0.10910 283424.160000
    250    251     1   0.10969 276646.080000
    250    252     1   0.10969 276646.080000
    253    254     1   0.10969 276646.080000
    253    255     1   0.10969 276646.080000
    256    257     1   0.10969 276646.080000
    256    258     1   0.10969 276646.080000
    259    260     1   0.10969 276646.080000
    259    261     1   0.10969 276646.080000
    262    263     1   0.10969 276646.080000
    262    264     1   0.10969 276646.080000
    265    266     1   0.10969 276646.080000
    265    267     1   0.10969 276646.080000
    270    299     1   0.10304 312293.760000
    271    272     1   0.10910 283424.160000
    271    273     1   0.10910 283424.160000
    274    275     1   0.10910 283424.160000
    274    276     1   0.10910 283424.160000
    277    278     1   0.10910 283424.160000
    277    279     1   0.10910 283424.160000
    280    281     1   0.10969 276646.080000
    280    282     1   0.10969 276646.080000
    283    284     1   0.10969 276646.080000
    283    285     1   0.10969 276646.080000
    286    287     1   0.10969 276646.080000
    286    288     1   0.10969 276646.080000
    289    290     1   0.10969 276646.080000
    289    291     1   0.10969 276646.080000
    292    293     1   0.10969 276646.080000
    292    294     1   0.10969 276646.080000
    295    296     1   0.10969 276646.080000
    295    297     1   0.10969 276646.080000
    300    329     1   0.10304 312293.760000
    301    302     1   0.10910 283424.160000
    301    303     1   0.10910 283424.160000
    304    305     1   0.10910 283424.160000
    304    306     1   0.10910 283424.160000
    307    308     1   0.10910 283424.160000
    307    309     1   0.10910 283424.160000
    310    311     1   0.10969 276646.080000
    310    312     1   0.10969 276646.080000
    313    314     1   0.10969 276646.080000
    313    315     1   0.10969 276646.080000
    316    317     1   0.10969 276646.080000
    316    318     1   0.10969 276646.080000
    319    320     1   0.10969 276646.080000
    319    321     1   0.10969 276646.080000
    322    323     1   0.10969 276646.080000
    322    324     1   0.10969 276646.080000
    325    326     1   0.10969 276646.080000
    325    327     1   0.10969 276646.080000
    330    359     1   0.10304 312293.760000
    331    332     1   0.10910 283424.160000
    331    333     1   0.10910 283424.160000
    334    335     1   0.10910 283424.160000
    334    336     1   0.10910 283424.160000
    337    338     1   0.10910 283424.160000
    337    339     1   0.10910 283424.160000
    340    341     1   0.10969 276646.080000
    340    342     1   0.10969 276646.080000
    343    344     1   0.10969 276646.080000
    343    345     1   0.10969 276646.080000
    346    347     1   0.10969 276646.080000
    346    348     1   0.10969 276646.080000
    349    350     1   0.10969 276646.080000
    349    351     1   0.10969 276646.080000
    352    353     1   0.10969 276646.080000
    352    354     1   0.10969 276646.080000
    355    356     1   0.10969 276646.080000
    355    357     1   0.10969 276646.080000
    360    389     1   0.10304 312293.760000
    361    362     1   0.10910 283424.160000
    361    363     1   0.10910 283424.160000
    364    365     1   0.10910 283424.160000
    364    366     1   0.10910 283424.160000
    367    368     1   0.10910 283424.160000
    367    369     1   0.10910 283424.160000
    370    371     1   0.10969 276646.080000
    370    372     1   0.10969 276646.080000
    373    374     1   0.10969 276646.080000
    373    375     1   0.10969 276646.080000
    376    377     1   0.10969 276646.080000
    376    378     1   0.10969 276646.080000
    379    380     1   0.10969 276646.080000
    379    381     1   0.10969 276646.080000
    382    383     1   0.10969 276646.080000
    382    384     1   0.10969 276646.080000
    385    386     1   0.10969 276646.080000
    385    387     1   0.10969 276646.080000
    390    419     1   0.10304 312293.760000
    391    392     1   0.10910 283424.160000
    391    393     1   0.10910 283424.160000
    394    395     1   0.10910 283424.160000
    394    396     1   0.10910 283424.160000
    397    398     1   0.10910 283424.160000
    397    399     1   0.10910 283424.160000
    400    401     1   0.10969 276646.080000
    400    402     1   0.10969 276646.080000
    403    404     1   0.10969 276646.080000
    403    405     1   0.10969 276646.080000
    406    407     1   0.10969 276646.080000
    406    408     1   0.10969 276646.080000
    409    410     1   0.10969 276646.080000
    409    411     1   0.10969 276646.080000
    412    413     1   0.10969 276646.080000
    412    414     1   0.10969 276646.080000
    415    416     1   0.10969 276646.080000
    415    417     1   0.10969 276646.080000
    420    449     1   0.10304 312293.760000
    421    422     1   0.10910 283424.160000
    421    423     1   0.10910 283424.160000
    424    425     1   0.10910 283424.160000
    424    426     1   0.10910 283424.160000
    427    428     1   0.10910 283424.160000
    427    429     1   0.10910 283424.160000
    430    431     1   0.10969 276646.080000
    430    432     1   0.10969 276646.080000
    433    434     1   0.10969 276646.080000
    433    435     1   0.10969 276646.080000
    436    437     1   0.10969 276646.080000
    436    438     1   0.10969 276646.080000
    439    440     1   0.10969 276646.080000
    439    441     1   0.10969 276646.080000
    442    443     1   0.10969 276646.080000
    442    444     1   0.10969 276646.080000
    445    446     1   0.10969 276646.080000
    445    447     1   0.10969 276646.080000
    450    479     1   0.10304 312293.760000
    451    452     1   0.10910 283424.160000
    451    453     1   0.10910 283424.160000
    454    455     1   0.10910 283424.160000
    454    456     1   0.10910 283424.160000
    457    458     1   0.10910 283424.160000
    457    459     1   0.10910 283424.160000
    460    461     1   0.10969 276646.080000
    460    462     1   0.10969 276646.080000
    463    464     1   0.10969 276646.080000
    463    465     1   0.10969 276646.080000
    466    467     1   0.10969 276646.080000
    466    468     1   0.10969 276646.080000
    469    470     1   0.10969 276646.080000
    469    471     1   0.10969 276646.080000
    472    473     1   0.10969 276646.080000
    472    474     1   0.10969 276646.080000
    475    476     1   0.10969 276646.080000
    475    477     1   0.10969 276646.080000
    480    509     1   0.10304 312293.760000
    481    482     1   0.10910 283424.160000
    481    483     1   0.10910 283424.160000
    484    485     1   0.10910 283424.160000
    484    486     1   0.10910 283424.160000
    487    488     1   0.10910 283424.160000
    487    489     1   0.10910 283424.160000
    490    491     1   0.10969 276646.080000
    490    492     1   0.10969 276646.080000
    493    494     1   0.10969 276646.080000
    493    495     1   0.10969 276646.080000
    496    497     1   0.10969 276646.080000
    496    498     1   0.10969 276646.080000
    499    500     1   0.10969 276646.080000
    499    501     1   0.10969 276646.080000
    502    503     1   0.10969 276646.080000
    502    504     1   0.10969 276646.080000
    505    506     1   0.10969 276646.080000
    505    507     1   0.10969 276646.080000
    510    539     1   0.10304 312293.760000
    511    512     1   0.10910 283424.160000
    511    513     1   0.10910 283424.160000
    514    515     1   0.10910 283424.160000
    514    516     1   0.10910 283424.160000
    517    518     1   0.10910 283424.160000
    517    519     1   0.10910 283424.160000
    520    521     1   0.10969 276646.080000
    520    522     1   0.10969 276646.080000
    523    524     1   0.10969 276646.080000
    523    525     1   0.10969 276646.080000
    526    527     1   0.10969 276646.080000
    526    528     1   0.10969 276646.080000
    529    530     1   0.10969 276646.080000
    529    531     1   0.10969 276646.080000
    532    533     1   0.10969 276646.080000
    532    534     1   0.10969 276646.080000
    535    536     1   0.10969 276646.080000
    535    537     1   0.10969 276646.080000
    540    569     1   0.10304 312293.760000
    541    542     1   0.10910 283424.160000
    541    543     1   0.10910 283424.160000
    544    545     1   0.10910 283424.160000
    544    546     1   0.10910 283424.160000
    547    548     1   0.10910 283424.160000
    547    549     1   0.10910 283424.160000
    550    551     1   0.10969 276646.080000
    550    552     1   0.10969 276646.080000
    553    554     1   0.10969 276646.080000
    553    555     1   0.10969 276646.080000
    556    557     1   0.10969 276646.080000
    556    558     1   0.10969 276646.080000
    559    560     1   0.10969 276646.080000
    559    561     1   0.10969 276646.080000
    562    563     1   0.10969 276646.080000
    562    564     1   0.10969 276646.080000
    565    566     1   0.10969 276646.080000
    565    567     1   0.10969 276646.080000
    570    599     1   0.10304 312293.760000
    571    572     1   0.10910 283424.160000
    571    573     1   0.10910 283424.160000
    574    575     1   0.10910 283424.160000
    574    576     1   0.10910 283424.160000
    577    578     1   0.10910 283424.160000
    577    579     1   0.10910 283424.160000
    580    581     1   0.10969 276646.080000
    580    582     1   0.10969 276646.080000
    583    584     1   0.10969 276646.080000
    583    585     1   0.10969 276646.080000
    586    587     1   0.10969 276646.080000
    586    588     1   0.10969 276646.080000
    589    590     1   0.10969 276646.080000
    589    591     1   0.10969 276646.080000
    592    593     1   0.10969 276646.080000
    592    594     1   0.10969 276646.080000
    595    596     1   0.10969 276646.080000
    595    597     1   0.10969 276646.080000
    600    629     1   0.10304 312293.760000
    601    602     1   0.10910 283424.160000
    601    603     1   0.10910 283424.160000
    604    605     1   0.10910 283424.160000
    604    606     1   0.10910 283424.160000
    607    608     1   0.10910 283424.160000
    607    609     1   0.10910 283424.160000
    610    611     1   0.10969 276646.080000
    610    612     1   0.10969 276646.080000
    613    614     1   0.10969 276646.080000
    613    615     1   0.10969 276646.080000
    616    617     1   0.10969 276646.080000
    616    618     1   0.10969 276646.080000
    619    620     1   0.10969 276646.080000
    619    621     1   0.10969 276646.080000
    622    623     1   0.10969 276646.080000
    622    624     1   0.10969 276646.080000
    625    626     1   0.10969 276646.080000
    625    627     1   0.10969 276646.080000
    630    659     1   0.10304 312293.760000
    631    632     1   0.10910 283424.160000
    631    633     1   0.10910 283424.160000
    634    635     1   0.10910 283424.160000
    634    636     1   0.10910 283424.160000
    637    638     1   0.10910 283424.160000
    637    639     1   0.10910 283424.160000
    640    641     1   0.10969 276646.080000
    640    642     1   0.10969 276646.080000
    643    644     1   0.10969 276646.080000
    643    645     1   0.10969 276646.080000
    646    647     1   0.10969 276646.080000
    646    648     1   0.10969 276646.080000
    649    650     1   0.10969 276646.080000
    649    651     1   0.10969 276646.080000
    652    653     1   0.10969 276646.080000
    652    654     1   0.10969 276646.080000
    655    656     1   0.10969 276646.080000
    655    657     1   0.10969 276646.080000
    660    661     1   0.10969 276646.080000
    660    662     1   0.10969 276646.080000
    663    664     1   0.10969 276646.080000
    663    665     1   0.10969 276646.080000
    666    667     1   0.10910 283424.160000
    666    668     1   0.10910 283424.160000
    669    691     1   0.10304 312293.760000
    670    671     1   0.10910 283424.160000
    670    672     1   0.10910 283424.160000
    673    674     1   0.10969 276646.080000
    673    675     1   0.10969 276646.080000
    678    679     1   0.09730 310787.520000
    680    681     1   0.10910 283424.160000
    680    682     1   0.10910 283424.160000
    683    684     1   0.10969 276646.080000
    683    685     1   0.10969 276646.080000
    688    689     1   0.09730 310787.520000
    692    693     1   0.10969 276646.080000
    692    694     1   0.10969 276646.080000
    695    696     1   0.10969 276646.080000
    695    697     1   0.10969 276646.080000
    698    699     1   0.10910 283424.160000
    698    700     1   0.10910 283424.160000
    701    723     1   0.10304 312293.760000
    702    703     1   0.10910 283424.160000
    702    704     1   0.10910 283424.160000
    705    706     1   0.10969 276646.080000
    705    707     1   0.10969 276646.080000
    710    711     1   0.09730 310787.520000
    712    713     1   0.10910 283424.160000
    712    714     1   0.10910 283424.160000
    715    716     1   0.10969 276646.080000
    715    717     1   0.10969 276646.080000
    720    721     1   0.09730 310787.520000
    724    725     1   0.10969 276646.080000
    724    726     1   0.10969 276646.080000
    727    728     1   0.10969 276646.080000
    727    729     1   0.10969 276646.080000
    730    731     1   0.10910 283424.160000
    730    732     1   0.10910 283424.160000
    733    755     1   0.10304 312293.760000
    734    735     1   0.10910 283424.160000
    734    736     1   0.10910 283424.160000
    737    738     1   0.10969 276646.080000
    737    739     1   0.10969 276646.080000
    742    743     1   0.09730 310787.520000
    744    745     1   0.10910 283424.160000
    744    746     1   0.10910 283424.160000
    747    748     1   0.10969 276646.080000
    747    749     1   0.10969 276646.080000
    752    753     1   0.09730 310787.520000
    756    757     1   0.10969 276646.080000
    756    758     1   0.10969 276646.080000
    759    760     1   0.10969 276646.080000
    759    761     1   0.10969 276646.080000
    762    763     1   0.10910 283424.160000
    762    764     1   0.10910 283424.160000
    765    787     1   0.10304 312293.760000
    766    767     1   0.10910 283424.160000
    766    768     1   0.10910 283424.160000
    769    770     1   0.10969 276646.080000
    769    771     1   0.10969 276646.080000
    774    775     1   0.09730 310787.520000
    776    777     1   0.10910 283424.160000
    776    778     1   0.10910 283424.160000
    779    780     1   0.10969 276646.080000
    779    781     1   0.10969 276646.080000
    784    785     1   0.09730 310787.520000
    788    789     1   0.10969 276646.080000
    788    790     1   0.10969 276646.080000
    791    792     1   0.10969 276646.080000
    791    793     1   0.10969 276646.080000
    794    795     1   0.10910 283424.160000
    794    796     1   0.10910 283424.160000
    797    819     1   0.10304 312293.760000
    798    799     1   0.10910 283424.160000
    798    800     1   0.10910 283424.160000
    801    802     1   0.10969 276646.080000
    801    803     1   0.10969 276646.080000
    806    807     1   0.09730 310787.520000
    808    809     1   0.10910 283424.160000
    808    810     1   0.10910 283424.160000
    811    812     1   0.10969 276646.080000
    811    813     1   0.10969 276646.080000
    816    817     1   0.09730 310787.520000
    820    821     1   0.10969 276646.080000
    820    822     1   0.10969 276646.080000
    823    824     1   0.10969 276646.080000
    823    825     1   0.10969 276646.080000
    826    827     1   0.10910 283424.160000
    826    828     1   0.10910 283424.160000
    829    851     1   0.10304 312293.760000
    830    831     1   0.10910 283424.160000
    830    832     1   0.10910 283424.160000
    833    834     1   0.10969 276646.080000
    833    835     1   0.10969 276646.080000
    838    839     1   0.09730 310787.520000
    840    841     1   0.10910 283424.160000
    840    842     1   0.10910 283424.160000
    843    844     1   0.10969 276646.080000
    843    845     1   0.10969 276646.080000
    848    849     1   0.09730 310787.520000
    852    853     1   0.10969 276646.080000
    852    854     1   0.10969 276646.080000
    855    856     1   0.10969 276646.080000
    855    857     1   0.10969 276646.080000
    858    859     1   0.10910 283424.160000
    858    860     1   0.10910 283424.160000
    861    883     1   0.10304 312293.760000
    862    863     1   0.10910 283424.160000
    862    864     1   0.10910 283424.160000
    865    866     1   0.10969 276646.080000
    865    867     1   0.10969 276646.080000
    870    871     1   0.09730 310787.520000
    872    873     1   0.10910 283424.160000
    872    874     1   0.10910 283424.160000
    875    876     1   0.10969 276646.080000
    875    877     1   0.10969 276646.080000
    880    881     1   0.09730 310787.520000
    884    885     1   0.10969 276646.080000
    884    886     1   0.10969 276646.080000
    887    888     1   0.10969 276646.080000
    887    889     1   0.10969 276646.080000
    890    891     1   0.10910 283424.160000
    890    892     1   0.10910 283424.160000
    893    915     1   0.10304 312293.760000
    894    895     1   0.10910 283424.160000
    894    896     1   0.10910 283424.160000
    897    898     1   0.10969 276646.080000
    897    899     1   0.10969 276646.080000
    902    903     1   0.09730 310787.520000
    904    905     1   0.10910 283424.160000
    904    906     1   0.10910 283424.160000
    907    908     1   0.10969 276646.080000
    907    909     1   0.10969 276646.080000
    912    913     1   0.09730 310787.520000
    916    917     1   0.10969 276646.080000
    916    918     1   0.10969 276646.080000
    919    920     1   0.10969 276646.080000
    919    921     1   0.10969 276646.080000
    922    923     1   0.10910 283424.160000
    922    924     1   0.10910 283424.160000
    925    947     1   0.10304 312293.760000
    926    927     1   0.10910 283424.160000
    926    928     1   0.10910 283424.160000
    929    930     1   0.10969 276646.080000
    929    931     1   0.10969 276646.080000
    934    935     1   0.09730 310787.520000
    936    937     1   0.10910 283424.160000
    936    938     1   0.10910 283424.160000
    939    940     1   0.10969 276646.080000
    939    941     1   0.10969 276646.080000
    944    945     1   0.09730 310787.520000
    948    949     1   0.10969 276646.080000
    948    950     1   0.10969 276646.080000
    951    952     1   0.10969 276646.080000
    951    953     1   0.10969 276646.080000
    954    955     1   0.10910 283424.160000
    954    956     1   0.10910 283424.160000
    957    979     1   0.10304 312293.760000
    958    959     1   0.10910 283424.160000
    958    960     1   0.10910 283424.160000
    961    962     1   0.10969 276646.080000
    961    963     1   0.10969 276646.080000
    966    967     1   0.09730 310787.520000
    968    969     1   0.10910 283424.160000
    968    970     1   0.10910 283424.160000
    971    972     1   0.10969 276646.080000
    971    973     1   0.10969 276646.080000
    976    977     1   0.09730 310787.520000
    980    981     1   0.10969 276646.080000
    980    982     1   0.10969 276646.080000
    983    984     1   0.10969 276646.080000
    983    985     1   0.10969 276646.080000
    986    987     1   0.10910 283424.160000
    986    988     1   0.10910 283424.160000
    989   1011     1   0.10304 312293.760000
    990    991     1   0.10910 283424.160000
    990    992     1   0.10910 283424.160000
    993    994     1   0.10969 276646.080000
    993    995     1   0.10969 276646.080000
    998    999     1   0.09730 310787.520000
   1000   1001     1   0.10910 283424.160000
   1000   1002     1   0.10910 283424.160000
   1003   1004     1   0.10969 276646.080000
   1003   1005     1   0.10969 276646.080000
   1008   1009     1   0.09730 310787.520000
   1012   1013     1   0.10969 276646.080000
   1012   1014     1   0.10969 276646.080000
   1015   1016     1   0.10969 276646.080000
   1015   1017     1   0.10969 276646.080000
   1018   1019     1   0.10910 283424.160000
   1018   1020     1   0.10910 283424.160000
   1021   1043     1   0.10304 312293.760000
   1022   1023     1   0.10910 283424.160000
   1022   1024     1   0.10910 283424.160000
   1025   1026     1   0.10969 276646.080000
   1025   1027     1   0.10969 276646.080000
   1030   1031     1   0.09730 310787.520000
   1032   1033     1   0.10910 283424.160000
   1032   1034     1   0.10910 283424.160000
   1035   1036     1   0.10969 276646.080000
   1035   1037     1   0.10969 276646.080000
   1040   1041     1   0.09730 310787.520000
   1044   1045     1   0.10969 276646.080000
   1044   1046     1   0.10969 276646.080000
   1047   1048     1   0.10969 276646.080000
   1047   1049     1   0.10969 276646.080000
   1050   1051     1   0.10910 283424.160000
   1050   1052     1   0.10910 283424.160000
   1053   1075     1   0.10304 312293.760000
   1054   1055     1   0.10910 283424.160000
   1054   1056     1   0.10910 283424.160000
   1057   1058     1   0.10969 276646.080000
   1057   1059     1   0.10969 276646.080000
   1062   1063     1   0.09730 310787.520000
   1064   1065     1   0.10910 283424.160000
   1064   1066     1   0.10910 283424.160000
   1067   1068     1   0.10969 276646.080000
   1067   1069     1   0.10969 276646.080000
   1072   1073     1   0.09730 310787.520000
   1076   1077     1   0.10969 276646.080000
   1076   1078     1   0.10969 276646.080000
   1079   1080     1   0.10969 276646.080000
   1079   1081     1   0.10969 276646.080000
   1082   1083     1   0.10910 283424.160000
   1082   1084     1   0.10910 283424.160000
   1085   1107     1   0.10304 312293.760000
   1086   1087     1   0.10910 283424.160000
   1086   1088     1   0.10910 283424.160000
   1089   1090     1   0.10969 276646.080000
   1089   1091     1   0.10969 276646.080000
   1094   1095     1   0.09730 310787.520000
   1096   1097     1   0.10910 283424.160000
   1096   1098     1   0.10910 283424.160000
   1099   1100     1   0.10969 276646.080000
   1099   1101     1   0.10969 276646.080000
   1104   1105     1   0.09730 310787.520000
   1108   1109     1   0.10969 276646.080000
   1108   1110     1   0.10969 276646.080000
   1111   1112     1   0.10969 276646.080000
   1111   1113     1   0.10969 276646.080000
   1114   1115     1   0.10910 283424.160000
   1114   1116     1   0.10910 283424.160000
   1117   1139     1   0.10304 312293.760000
   1118   1119     1   0.10910 283424.160000
   1118   1120     1   0.10910 283424.160000
   1121   1122     1   0.10969 276646.080000
   1121   1123     1   0.10969 276646.080000
   1126   1127     1   0.09730 310787.520000
   1128   1129     1   0.10910 283424.160000
   1128   1130     1   0.10910 283424.160000
   1131   1132     1   0.10969 276646.080000
   1131   1133     1   0.10969 276646.080000
   1136   1137     1   0.09730 310787.520000
   1140   1141     1   0.10969 276646.080000
   1140   1142     1   0.10969 276646.080000
   1143   1144     1   0.10969 276646.080000
   1143   1145     1   0.10969 276646.080000
   1146   1147     1   0.10910 283424.160000
   1146   1148     1   0.10910 283424.160000
   1149   1171     1   0.10304 312293.760000
   1150   1151     1   0.10910 283424.160000
   1150   1152     1   0.10910 283424.160000
   1153   1154     1   0.10969 276646.080000
   1153   1155     1   0.10969 276646.080000
   1158   1159     1   0.09730 310787.520000
   1160   1161     1   0.10910 283424.160000
   1160   1162     1   0.10910 283424.160000
   1163   1164     1   0.10969 276646.080000
   1163   1165     1   0.10969 276646.080000
   1168   1169     1   0.09730 310787.520000
   1172   1173     1   0.10969 276646.080000
   1172   1174     1   0.10969 276646.080000
   1175   1176     1   0.10969 276646.080000
   1175   1177     1   0.10969 276646.080000
   1178   1179     1   0.10910 283424.160000
   1178   1180     1   0.10910 283424.160000
   1181   1203     1   0.10304 312293.760000
   1182   1183     1   0.10910 283424.160000
   1182   1184     1   0.10910 283424.160000
   1185   1186     1   0.10969 276646.080000
   1185   1187     1   0.10969 276646.080000
   1190   1191     1   0.09730 310787.520000
   1192   1193     1   0.10910 283424.160000
   1192   1194     1   0.10910 283424.160000
   1195   1196     1   0.10969 276646.080000
   1195   1197     1   0.10969 276646.080000
   1200   1201     1   0.09730 310787.520000
   1204   1205     1   0.10969 276646.080000
   1204   1206     1   0.10969 276646.080000
   1207   1208     1   0.10969 276646.080000
   1207   1209     1   0.10969 276646.080000
   1210   1211     1   0.10910 283424.160000
   1210   1212     1   0.10910 283424.160000
   1213   1235     1   0.10304 312293.760000
   1214   1215     1   0.10910 283424.160000
   1214   1216     1   0.10910 283424.160000
   1217   1218     1   0.10969 276646.080000
   1217   1219     1   0.10969 276646.080000
   1222   1223     1   0.09730 310787.520000
   1224   1225     1   0.10910 283424.160000
   1224   1226     1   0.10910 283424.160000
   1227   1228     1   0.10969 276646.080000
   1227   1229     1   0.10969 276646.080000
   1232   1233     1   0.09730 310787.520000
   1236   1237     1   0.10969 276646.080000
   1236   1238     1   0.10969 276646.080000
   1239   1240     1   0.10969 276646.080000
   1239   1241     1   0.10969 276646.080000
   1242   1243     1   0.10910 283424.160000
   1242   1244     1   0.10910 283424.160000
   1245   1267     1   0.10304 312293.760000
   1246   1247     1   0.10910 283424.160000
   1246   1248     1   0.10910 283424.160000
   1249   1250     1   0.10969 276646.080000
   1249   1251     1   0.10969 276646.080000
   1254   1255     1   0.09730 310787.520000
   1256   1257     1   0.10910 283424.160000
   1256   1258     1   0.10910 283424.160000
   1259   1260     1   0.10969 276646.080000
   1259   1261     1   0.10969 276646.080000
   1264   1265     1   0.09730 310787.520000
   1268   1269     1   0.10969 276646.080000
   1268   1270     1   0.10969 276646.080000
   1271   1272     1   0.10969 276646.080000
   1271   1273     1   0.10969 276646.080000
   1274   1275     1   0.10910 283424.160000
   1274   1276     1   0.10910 283424.160000
   1277   1299     1   0.10304 312293.760000
   1278   1279     1   0.10910 283424.160000
   1278   1280     1   0.10910 283424.160000
   1281   1282     1   0.10969 276646.080000
   1281   1283     1   0.10969 276646.080000
   1286   1287     1   0.09730 310787.520000
   1288   1289     1   0.10910 283424.160000
   1288   1290     1   0.10910 283424.160000
   1291   1292     1   0.10969 276646.080000
   1291   1293     1   0.10969 276646.080000
   1296   1297     1   0.09730 310787.520000
   1300   1301     1   0.10969 276646.080000
   1300   1302     1   0.10969 276646.080000
   1303   1304     1   0.10969 276646.080000
   1303   1305     1   0.10969 276646.080000
   1306   1307     1   0.10910 283424.160000
   1306   1308     1   0.10910 283424.160000
   1309   1331     1   0.10304 312293.760000
   1310   1311     1   0.10910 283424.160000
   1310   1312     1   0.10910 283424.160000
   1313   1314     1   0.10969 276646.080000
   1313   1315     1   0.10969 276646.080000
   1318   1319     1   0.09730 310787.520000
   1320   1321     1   0.10910 283424.160000
   1320   1322     1   0.10910 283424.160000
   1323   1324     1   0.10969 276646.080000
   1323   1325     1   0.10969 276646.080000
   1328   1329     1   0.09730 310787.520000
   1332   1333     1   0.10969 276646.080000
   1332   1334     1   0.10969 276646.080000
   1335   1336     1   0.10969 276646.080000
   1335   1337     1   0.10969 276646.080000
   1338   1339     1   0.10910 283424.160000
   1338   1340     1   0.10910 283424.160000
   1341   1363     1   0.10304 312293.760000
   1342   1343     1   0.10910 283424.160000
   1342   1344     1   0.10910 283424.160000
   1345   1346     1   0.10969 276646.080000
   1345   1347     1   0.10969 276646.080000
   1350   1351     1   0.09730 310787.520000
   1352   1353     1   0.10910 283424.160000
   1352   1354     1   0.10910 283424.160000
   1355   1356     1   0.10969 276646.080000
   1355   1357     1   0.10969 276646.080000
   1360   1361     1   0.09730 310787.520000
   1364   1365     1   0.10969 276646.080000
   1364   1366     1   0.10969 276646.080000
   1367   1368     1   0.10969 276646.080000
   1367   1369     1   0.10969 276646.080000
   1370   1371     1   0.10910 283424.160000
   1370   1372     1   0.10910 283424.160000
   1373   1395     1   0.10304 312293.760000
   1374   1375     1   0.10910 283424.160000
   1374   1376     1   0.10910 283424.160000
   1377   1378     1   0.10969 276646.080000
   1377   1379     1   0.10969 276646.080000
   1382   1383     1   0.09730 310787.520000
   1384   1385     1   0.10910 283424.160000
   1384   1386     1   0.10910 283424.160000
   1387   1388     1   0.10969 276646.080000
   1387   1389     1   0.10969 276646.080000
   1392   1393     1   0.09730 310787.520000
   1396   1397     1   0.10969 276646.080000
   1396   1398     1   0.10969 276646.080000
   1399   1400     1   0.10969 276646.080000
   1399   1401     1   0.10969 276646.080000
   1402   1403     1   0.10910 283424.160000
   1402   1404     1   0.10910 283424.160000
   1405   1427     1   0.10304 312293.760000
   1406   1407     1   0.10910 283424.160000
   1406   1408     1   0.10910 283424.160000
   1409   1410     1   0.10969 276646.080000
   1409   1411     1   0.10969 276646.080000
   1414   1415     1   0.09730 310787.520000
   1416   1417     1   0.10910 283424.160000
   1416   1418     1   0.10910 283424.160000
   1419   1420     1   0.10969 276646.080000
   1419   1421     1   0.10969 276646.080000
   1424   1425     1   0.09730 310787.520000

[ pairs ]
;    ai     aj funct         c0         c1         c2         c3
      1     26     1
      1     20     1
      1     23     1
      2     17     1
      2     11     1
      2    118     1
      5     14     1
      5     11     1
      5     58     1
      8     14     1
      8     17     1
      8     88     1
     11     79     1
     14    109     1
     17     49     1
     20     40     1
     23     70     1
     26    100     1
     30     55     1
     30     52     1
     30     49     1
     31     46     1
     31     40     1
     31    178     1
     34     43     1
     34     40     1
     34    148     1
     37     43     1
     37     46     1
     37     58     1
     43    169     1
     46    139     1
     52    130     1
     55    160     1
     60     85     1
     60     82     1
     60     79     1
     61     76     1
     61     70     1
     61    238     1
     64     73     1
     64     70     1
     64    208     1
     67     73     1
     67     76     1
     67     88     1
     73    229     1
     76    199     1
     82    190     1
     85    220     1
     90    115     1
     90    112     1
     90    109     1
     91    106     1
     91    100     1
     91    298     1
     94    103     1
     94    100     1
     94    268     1
     97    103     1
     97    106     1
     97    118     1
    103    289     1
    106    259     1
    112    250     1
    115    280     1
    120    145     1
    120    142     1
    120    139     1
    121    136     1
    121    130     1
    121    358     1
    124    133     1
    124    130     1
    124    328     1
    127    133     1
    127    136     1
    127    148     1
    133    349     1
    136    319     1
    142    310     1
    145    340     1
    150    175     1
    150    172     1
    150    169     1
    151    166     1
    151    160     1
    151    418     1
    154    163     1
    154    160     1
    154    388     1
    157    163     1
    157    166     1
    157    178     1
    163    409     1
    166    379     1
    172    370     1
    175    400     1
    180    205     1
    180    202     1
    180    199     1
    181    196     1
    181    190     1
    181    478     1
    184    193     1
    184    190     1
    184    448     1
    187    193     1
    187    196     1
    187    208     1
    193    469     1
    196    439     1
    202    430     1
    205    460     1
    210    235     1
    210    232     1
    210    229     1
    211    226     1
    211    220     1
    211    538     1
    214    223     1
    214    220     1
    214    508     1
    217    223     1
    217    226     1
    217    238     1
    223    529     1
    226    499     1
    232    490     1
    235    520     1
    240    265     1
    240    262     1
    240    259     1
    241    256     1
    241    250     1
    241    598     1
    244    253     1
    244    250     1
    244    568     1
    247    253     1
    247    256     1
    247    268     1
    253    589     1
    256    559     1
    262    550     1
    265    580     1
    270    295     1
    270    292     1
    270    289     1
    271    286     1
    271    280     1
    271    658     1
    274    283     1
    274    280     1
    274    628     1
    277    283     1
    277    286     1
    277    298     1
    283    649     1
    286    619     1
    292    610     1
    295    640     1
    300    325     1
    300    322     1
    300    319     1
    301    316     1
    301    310     1
    301    722     1
    304    313     1
    304    310     1
    304    690     1
    307    313     1
    307    316     1
    307    328     1
    313    692     1
    316    660     1
    322    663     1
    325    695     1
    330    355     1
    330    352     1
    330    349     1
    331    346     1
    331    340     1
    331    786     1
    334    343     1
    334    340     1
    334    754     1
    337    343     1
    337    346     1
    337    358     1
    343    756     1
    346    724     1
    352    727     1
    355    759     1
    360    385     1
    360    382     1
    360    379     1
    361    376     1
    361    370     1
    361    850     1
    364    373     1
    364    370     1
    364    818     1
    367    373     1
    367    376     1
    367    388     1
    373    820     1
    376    788     1
    382    791     1
    385    823     1
    390    415     1
    390    412     1
    390    409     1
    391    406     1
    391    400     1
    391    914     1
    394    403     1
    394    400     1
    394    882     1
    397    403     1
    397    406     1
    397    418     1
    403    884     1
    406    852     1
    412    855     1
    415    887     1
    420    445     1
    420    442     1
    420    439     1
    421    436     1
    421    430     1
    421    978     1
    424    433     1
    424    430     1
    424    946     1
    427    433     1
    427    436     1
    427    448     1
    433    948     1
    436    916     1
    442    919     1
    445    951     1
    450    475     1
    450    472     1
    450    469     1
    451    466     1
    451    460     1
    451   1042     1
    454    463     1
    454    460     1
    454   1010     1
    457    463     1
    457    466     1
    457    478     1
    463   1012     1
    466    980     1
    472    983     1
    475   1015     1
    480    505     1
    480    502     1
    480    499     1
    481    496     1
    481    490     1
    481   1106     1
    484    493     1
    484    490     1
    484   1074     1
    487    493     1
    487    496     1
    487    508     1
    493   1076     1
    496   1044     1
    502   1047     1
    505   1079     1
    510    535     1
    510    532     1
    510    529     1
    511    526     1
    511    520     1
    511   1170     1
    514    523     1
    514    520     1
    514   1138     1
    517    523     1
    517    526     1
    517    538     1
    523   1140     1
    526   1108     1
    532   1111     1
    535   1143     1
    540    565     1
    540    562     1
    540    559     1
    541    556     1
    541    550     1
    541   1234     1
    544    553     1
    544    550     1
    544   1202     1
    547    553     1
    547    556     1
    547    568     1
    553   1204     1
    556   1172     1
    562   1175     1
    565   1207     1
    570    595     1
    570    592     1
    570    589     1
    571    586     1
    571    580     1
    571   1298     1
    574    583     1
    574    580     1
    574   1266     1
    577    583     1
    577    586     1
    577    598     1
    583   1268     1
    586   1236     1
    592   1239     1
    595   1271     1
    600    625     1
    600    622     1
    600    619     1
    601    616     1
    601    610     1
    601   1362     1
    604    613     1
    604    610     1
    604   1330     1
    607    613     1
    607    616     1
    607    628     1
    613   1332     1
    616   1300     1
    622   1303     1
    625   1335     1
    630    655     1
    630    652     1
    630    649     1
    631    646     1
    631    640     1
    631   1426     1
    634    643     1
    634    640     1
    634   1394     1
    637    643     1
    637    646     1
    637    658     1
    643   1396     1
    646   1364     1
    652   1367     1
    655   1399     1
    660    669     1
    663    670     1
    663    680     1
    666    690     1
    666    673     1
    666    683     1
    669    676     1
    669    686     1
    670    683     1
    670    677     1
    670    678     1
    673    680     1
    680    687     1
    680    688     1
    692    701     1
    695    702     1
    695    712     1
    698    705     1
    698    715     1
    698    722     1
    701    708     1
    701    718     1
    702    709     1
    702    710     1
    702    715     1
    705    712     1
    712    719     1
    712    720     1
    724    733     1
    727    734     1
    727    744     1
    730    754     1
    730    737     1
    730    747     1
    733    740     1
    733    750     1
    734    747     1
    734    741     1
    734    742     1
    737    744     1
    744    751     1
    744    752     1
    756    765     1
    759    766     1
    759    776     1
    762    769     1
    762    779     1
    762    786     1
    765    772     1
    765    782     1
    766    773     1
    766    774     1
    766    779     1
    769    776     1
    776    783     1
    776    784     1
    788    797     1
    791    798     1
    791    808     1
    794    818     1
    794    801     1
    794    811     1
    797    804     1
    797    814     1
    798    811     1
    798    805     1
    798    806     1
    801    808     1
    808    815     1
    808    816     1
    820    829     1
    823    830     1
    823    840     1
    826    833     1
    826    843     1
    826    850     1
    829    836     1
    829    846     1
    830    837     1
    830    838     1
    830    843     1
    833    840     1
    840    847     1
    840    848     1
    852    861     1
    855    862     1
    855    872     1
    858    882     1
    858    865     1
    858    875     1
    861    868     1
    861    878     1
    862    875     1
    862    869     1
    862    870     1
    865    872     1
    872    879     1
    872    880     1
    884    893     1
    887    894     1
    887    904     1
    890    897     1
    890    907     1
    890    914     1
    893    900     1
    893    910     1
    894    901     1
    894    902     1
    894    907     1
    897    904     1
    904    911     1
    904    912     1
    916    925     1
    919    926     1
    919    936     1
    922    946     1
    922    929     1
    922    939     1
    925    932     1
    925    942     1
    926    939     1
    926    933     1
    926    934     1
    929    936     1
    936    943     1
    936    944     1
    948    957     1
    951    958     1
    951    968     1
    954    961     1
    954    971     1
    954    978     1
    957    964     1
    957    974     1
    958    965     1
    958    966     1
    958    971     1
    961    968     1
    968    975     1
    968    976     1
    980    989     1
    983    990     1
    983   1000     1
    986   1010     1
    986    993     1
    986   1003     1
    989    996     1
    989   1006     1
    990   1003     1
    990    997     1
    990    998     1
    993   1000     1
   1000   1007     1
   1000   1008     1
   1012   1021     1
   1015   1022     1
   1015   1032     1
   1018   1025     1
   1018   1035     1
   1018   1042     1
   1021   1028     1
   1021   1038     1
   1022   1029     1
   1022   1030     1
   1022   1035     1
   1025   1032     1
   1032   1039     1
   1032   1040     1
   1044   1053     1
   1047   1054     1
   1047   1064     1
   1050   1074     1
   1050   1057     1
   1050   1067     1
   1053   1060     1
   1053   1070     1
   1054   1067     1
   1054   1061     1
   1054   1062     1
   1057   1064     1
   1064   1071     1
   1064   1072     1
   1076   1085     1
   1079   1086     1
   1079   1096     1
   1082   1089     1
   1082   1099     1
   1082   1106     1
   1085   1092     1
   1085   1102     1
   1086   1093     1
   1086   1094     1
   1086   1099     1
   1089   1096     1
   1096   1103     1
   1096   1104     1
   1108   1117     1
   1111   1118     1
   1111   1128     1
   1114   1138     1
   1114   1121     1
   1114   1131     1
   1117   1124     1
   1117   1134     1
   1118   1131     1
   1118   1125     1
   1118   1126     1
   1121   1128     1
   1128   1135     1
   1128   1136     1
   1140   1149     1
   1143   1150     1
   1143   1160     1
   1146   1153     1
   1146   1163     1
   1146   1170     1
   1149   1156     1
   1149   1166     1
   1150   1157     1
   1150   1158     1
   1150   1163     1
   1153   1160     1
   1160   1167     1
   1160   1168     1
   1172   1181     1
   1175   1182     1
   1175   1192     1
   1178   1202     1
   1178   1185     1
   1178   1195     1
   1181   1188     1
   1181   1198     1
   1182   1195     1
   1182   1189     1
   1182   1190     1
   1185   1192     1
   1192   1199     1
   1192   1200     1
   1204   1213     1
   1207   1214     1
   1207   1224     1
   1210   1217     1
   1210   1227     1
   1210   1234     1
   1213   1220     1
   1213   1230     1
   1214   1221     1
   1214   1222     1
   1214   1227     1
   1217   1224     1
   1224   1231     1
   1224   1232     1
   1236   1245     1
   1239   1246     1
   1239   1256     1
   1242   1266     1
   1242   1249     1
   1242   1259     1
   1245   1252     1
   1245   1262     1
   1246   1259     1
   1246   1253     1
   1246   1254     1
   1249   1256     1
   1256   1263     1
   1256   1264     1
   1268   1277     1
   1271   1278     1
   1271   1288     1
   1274   1281     1
   1274   1291     1
   1274   1298     1
   1277   1284     1
   1277   1294     1
   1278   1285     1
   1278   1286     1
   1278   1291     1
   1281   1288     1
   1288   1295     1
   1288   1296     1
   1300   1309     1
   1303   1310     1
   1303   1320     1
   1306   1330     1
   1306   1313     1
   1306   1323     1
   1309   1316     1
   1309   1326     1
   1310   1323     1
   1310   1317     1
   1310   1318     1
   1313   1320     1
   1320   1327     1
   1320   1328     1
   1332   1341     1
   1335   1342     1
   1335   1352     1
   1338   1345     1
   1338   1355     1
   1338   1362     1
   1341   1348     1
   1341   1358     1
   1342   1349     1
   1342   1350     1
   1342   1355     1
   1345   1352     1
   1352   1359     1
   1352   1360     1
   1364   1373     1
   1367   1374     1
   1367   1384     1
   1370   1394     1
   1370   1377     1
   1370   1387     1
   1373   1380     1
   1373   1390     1
   1374   1387     1
   1374   1381     1
   1374   1382     1
   1377   1384     1
   1384   1391     1
   1384   1392     1
   1396   1405     1
   1399   1406     1
   1399   1416     1
   1402   1409     1
   1402   1419     1
   1402   1426     1
   1405   1412     1
   1405   1422     1
   1406   1413     1
   1406   1414     1
   1406   1419     1
   1409   1416     1
   1416   1423     1
   1416   1424     1
      1     15     1
      1     16     1
      1     18     1
      1     19     1
      1     12     1
      1     13     1
      2      6     1
      2      7     1
      2      9     1
      2     10     1
      2     27     1
      2     28     1
      5      3     1
      8      3     1
     29      3     1
      3     26     1
      3     15     1
      3     16     1
      5      4     1
      8      4     1
     29      4     1
      4     26     1
      4     15     1
      4     16     1
      5      9     1
      5     10     1
      5     21     1
      5     22     1
      8      6     1
     29      6     1
      6     20     1
      6     18     1
      6     19     1
      8      7     1
     29      7     1
      7     20     1
      7     18     1
      7     19     1
      8     24     1
      8     25     1
     29      9     1
      9     23     1
      9     12     1
      9     13     1
     29     10     1
     10     23     1
     10     12     1
     10     13     1
     29     11     1
     12     88     1
     12     24     1
     12     25     1
     13     88     1
     13     24     1
     13     25     1
     29     14     1
     15    118     1
     15     27     1
     15     28     1
     16    118     1
     16     27     1
     16     28     1
     29     17     1
     18     58     1
     18     21     1
     18     22     1
     19     58     1
     19     21     1
     19     22     1
     20     50     1
     20     51     1
     21     49     1
     22     49     1
     23     80     1
     23     81     1
     24     79     1
     25     79     1
     26    110     1
     26    111     1
     27    109     1
     28    109     1
     30     44     1
     30     45     1
     30     47     1
     30     48     1
     30     41     1
     30     42     1
     31     35     1
     31     36     1
     31     38     1
     31     39     1
     31     56     1
     31     57     1
     32     34     1
     32     37     1
     32     59     1
     32     55     1
     32     44     1
     32     45     1
     33     34     1
     33     37     1
     33     59     1
     33     55     1
     33     44     1
     33     45     1
     34     38     1
     34     39     1
     34     53     1
     34     54     1
     35     37     1
     35     59     1
     35     52     1
     35     47     1
     35     48     1
     36     37     1
     36     59     1
     36     52     1
     36     47     1
     36     48     1
     37     50     1
     37     51     1
     38     59     1
     38     49     1
     38     41     1
     38     42     1
     39     59     1
     39     49     1
     39     41     1
     39     42     1
     40     59     1
     41     58     1
     41     50     1
     41     51     1
     42     58     1
     42     50     1
     42     51     1
     43     59     1
     44    178     1
     44     56     1
     44     57     1
     45    178     1
     45     56     1
     45     57     1
     46     59     1
     47    148     1
     47     53     1
     47     54     1
     48    148     1
     48     53     1
     48     54     1
     52    140     1
     52    141     1
     53    139     1
     54    139     1
     55    170     1
     55    171     1
     56    169     1
     57    169     1
     60     74     1
     60     75     1
     60     77     1
     60     78     1
     60     71     1
     60     72     1
     61     65     1
     61     66     1
     61     68     1
     61     69     1
     61     86     1
     61     87     1
     62     64     1
     62     67     1
     62     89     1
     62     85     1
     62     74     1
     62     75     1
     63     64     1
     63     67     1
     63     89     1
     63     85     1
     63     74     1
     63     75     1
     64     68     1
     64     69     1
     64     83     1
     64     84     1
     65     67     1
     65     89     1
     65     82     1
     65     77     1
     65     78     1
     66     67     1
     66     89     1
     66     82     1
     66     77     1
     66     78     1
     67     80     1
     67     81     1
     68     89     1
     68     79     1
     68     71     1
     68     72     1
     69     89     1
     69     79     1
     69     71     1
     69     72     1
     70     89     1
     71     88     1
     71     80     1
     71     81     1
     72     88     1
     72     80     1
     72     81     1
     73     89     1
     74    238     1
     74     86     1
     74     87     1
     75    238     1
     75     86     1
     75     87     1
     76     89     1
     77    208     1
     77     83     1
     77     84     1
     78    208     1
     78     83     1
     78     84     1
     82    200     1
     82    201     1
     83    199     1
     84    199     1
     85    230     1
     85    231     1
     86    229     1
     87    229     1
     90    104     1
     90    105     1
     90    107     1
     90    108     1
     90    101     1
     90    102     1
     91     95     1
     91     96     1
     91     98     1
     91     99     1
     91    116     1
     91    117     1
     92     94     1
     92     97     1
     92    119     1
     92    115     1
     92    104     1
     92    105     1
     93     94     1
     93     97     1
     93    119     1
     93    115     1
     93    104     1
     93    105     1
     94     98     1
     94     99     1
     94    113     1
     94    114     1
     95     97     1
     95    119     1
     95    112     1
     95    107     1
     95    108     1
     96     97     1
     96    119     1
     96    112     1
     96    107     1
     96    108     1
     97    110     1
     97    111     1
     98    119     1
     98    109     1
     98    101     1
     98    102     1
     99    119     1
     99    109     1
     99    101     1
     99    102     1
    100    119     1
    101    118     1
    101    110     1
    101    111     1
    102    118     1
    102    110     1
    102    111     1
    103    119     1
    104    298     1
    104    116     1
    104    117     1
    105    298     1
    105    116     1
    105    117     1
    106    119     1
    107    268     1
    107    113     1
    107    114     1
    108    268     1
    108    113     1
    108    114     1
    112    260     1
    112    261     1
    113    259     1
    114    259     1
    115    290     1
    115    291     1
    116    289     1
    117    289     1
    120    134     1
    120    135     1
    120    137     1
    120    138     1
    120    131     1
    120    132     1
    121    125     1
    121    126     1
    121    128     1
    121    129     1
    121    146     1
    121    147     1
    122    124     1
    122    127     1
    122    149     1
    122    145     1
    122    134     1
    122    135     1
    123    124     1
    123    127     1
    123    149     1
    123    145     1
    123    134     1
    123    135     1
    124    128     1
    124    129     1
    124    143     1
    124    144     1
    125    127     1
    125    149     1
    125    142     1
    125    137     1
    125    138     1
    126    127     1
    126    149     1
    126    142     1
    126    137     1
    126    138     1
    127    140     1
    127    141     1
    128    149     1
    128    139     1
    128    131     1
    128    132     1
    129    149     1
    129    139     1
    129    131     1
    129    132     1
    130    149     1
    131    148     1
    131    140     1
    131    141     1
    132    148     1
    132    140     1
    132    141     1
    133    149     1
    134    358     1
    134    146     1
    134    147     1
    135    358     1
    135    146     1
    135    147     1
    136    149     1
    137    328     1
    137    143     1
    137    144     1
    138    328     1
    138    143     1
    138    144     1
    142    320     1
    142    321     1
    143    319     1
    144    319     1
    145    350     1
    145    351     1
    146    349     1
    147    349     1
    150    164     1
    150    165     1
    150    167     1
    150    168     1
    150    161     1
    150    162     1
    151    155     1
    151    156     1
    151    158     1
    151    159     1
    151    176     1
    151    177     1
    152    154     1
    152    157     1
    152    179     1
    152    175     1
    152    164     1
    152    165     1
    153    154     1
    153    157     1
    153    179     1
    153    175     1
    153    164     1
    153    165     1
    154    158     1
    154    159     1
    154    173     1
    154    174     1
    155    157     1
    155    179     1
    155    172     1
    155    167     1
    155    168     1
    156    157     1
    156    179     1
    156    172     1
    156    167     1
    156    168     1
    157    170     1
    157    171     1
    158    179     1
    158    169     1
    158    161     1
    158    162     1
    159    179     1
    159    169     1
    159    161     1
    159    162     1
    160    179     1
    161    178     1
    161    170     1
    161    171     1
    162    178     1
    162    170     1
    162    171     1
    163    179     1
    164    418     1
    164    176     1
    164    177     1
    165    418     1
    165    176     1
    165    177     1
    166    179     1
    167    388     1
    167    173     1
    167    174     1
    168    388     1
    168    173     1
    168    174     1
    172    380     1
    172    381     1
    173    379     1
    174    379     1
    175    410     1
    175    411     1
    176    409     1
    177    409     1
    180    194     1
    180    195     1
    180    197     1
    180    198     1
    180    191     1
    180    192     1
    181    185     1
    181    186     1
    181    188     1
    181    189     1
    181    206     1
    181    207     1
    182    184     1
    182    187     1
    182    209     1
    182    205     1
    182    194     1
    182    195     1
    183    184     1
    183    187     1
    183    209     1
    183    205     1
    183    194     1
    183    195     1
    184    188     1
    184    189     1
    184    203     1
    184    204     1
    185    187     1
    185    209     1
    185    202     1
    185    197     1
    185    198     1
    186    187     1
    186    209     1
    186    202     1
    186    197     1
    186    198     1
    187    200     1
    187    201     1
    188    209     1
    188    199     1
    188    191     1
    188    192     1
    189    209     1
    189    199     1
    189    191     1
    189    192     1
    190    209     1
    191    208     1
    191    200     1
    191    201     1
    192    208     1
    192    200     1
    192    201     1
    193    209     1
    194    478     1
    194    206     1
    194    207     1
    195    478     1
    195    206     1
    195    207     1
    196    209     1
    197    448     1
    197    203     1
    197    204     1
    198    448     1
    198    203     1
    198    204     1
    202    440     1
    202    441     1
    203    439     1
    204    439     1
    205    470     1
    205    471     1
    206    469     1
    207    469     1
    210    224     1
    210    225     1
    210    227     1
    210    228     1
    210    221     1
    210    222     1
    211    215     1
    211    216     1
    211    218     1
    211    219     1
    211    236     1
    211    237     1
    212    214     1
    212    217     1
    212    239     1
    212    235     1
    212    224     1
    212    225     1
    213    214     1
    213    217     1
    213    239     1
    213    235     1
    213    224     1
    213    225     1
    214    218     1
    214    219     1
    214    233     1
    214    234     1
    215    217     1
    215    239     1
    215    232     1
    215    227     1
    215    228     1
    216    217     1
    216    239     1
    216    232     1
    216    227     1
    216    228     1
    217    230     1
    217    231     1
    218    239     1
    218    229     1
    218    221     1
    218    222     1
    219    239     1
    219    229     1
    219    221     1
    219    222     1
    220    239     1
    221    238     1
    221    230     1
    221    231     1
    222    238     1
    222    230     1
    222    231     1
    223    239     1
    224    538     1
    224    236     1
    224    237     1
    225    538     1
    225    236     1
    225    237     1
    226    239     1
    227    508     1
    227    233     1
    227    234     1
    228    508     1
    228    233     1
    228    234     1
    232    500     1
    232    501     1
    233    499     1
    234    499     1
    235    530     1
    235    531     1
    236    529     1
    237    529     1
    240    254     1
    240    255     1
    240    257     1
    240    258     1
    240    251     1
    240    252     1
    241    245     1
    241    246     1
    241    248     1
    241    249     1
    241    266     1
    241    267     1
    242    244     1
    242    247     1
    242    269     1
    242    265     1
    242    254     1
    242    255     1
    243    244     1
    243    247     1
    243    269     1
    243    265     1
    243    254     1
    243    255     1
    244    248     1
    244    249     1
    244    263     1
    244    264     1
    245    247     1
    245    269     1
    245    262     1
    245    257     1
    245    258     1
    246    247     1
    246    269     1
    246    262     1
    246    257     1
    246    258     1
    247    260     1
    247    261     1
    248    269     1
    248    259     1
    248    251     1
    248    252     1
    249    269     1
    249    259     1
    249    251     1
    249    252     1
    250    269     1
    251    268     1
    251    260     1
    251    261     1
    252    268     1
    252    260     1
    252    261     1
    253    269     1
    254    598     1
    254    266     1
    254    267     1
    255    598     1
    255    266     1
    255    267     1
    256    269     1
    257    568     1
    257    263     1
    257    264     1
    258    568     1
    258    263     1
    258    264     1
    262    560     1
    262    561     1
    263    559     1
    264    559     1
    265    590     1
    265    591     1
    266    589     1
    267    589     1
    270    284     1
    270    285     1
    270    287     1
    270    288     1
    270    281     1
    270    282     1
    271    275     1
    271    276     1
    271    278     1
    271    279     1
    271    296     1
    271    297     1
    272    274     1
    272    277     1
    272    299     1
    272    295     1
    272    284     1
    272    285     1
    273    274     1
    273    277     1
    273    299     1
    273    295     1
    273    284     1
    273    285     1
    274    278     1
    274    279     1
    274    293     1
    274    294     1
    275    277     1
    275    299     1
    275    292     1
    275    287     1
    275    288     1
    276    277     1
    276    299     1
    276    292     1
    276    287     1
    276    288     1
    277    290     1
    277    291     1
    278    299     1
    278    289     1
    278    281     1
    278    282     1
    279    299     1
    279    289     1
    279    281     1
    279    282     1
    280    299     1
    281    298     1
    281    290     1
    281    291     1
    282    298     1
    282    290     1
    282    291     1
    283    299     1
    284    658     1
    284    296     1
    284    297     1
    285    658     1
    285    296     1
    285    297     1
    286    299     1
    287    628     1
    287    293     1
    287    294     1
    288    628     1
    288    293     1
    288    294     1
    292    620     1
    292    621     1
    293    619     1
    294    619     1
    295    650     1
    295    651     1
    296    649     1
    297    649     1
    300    314     1
    300    315     1
    300    317     1
    300    318     1
    300    311     1
    300    312     1
    301    305     1
    301    306     1
    301    308     1
    301    309     1
    301    326     1
    301    327     1
    302    304     1
    302    307     1
    302    329     1
    302    325     1
    302    314     1
    302    315     1
    303    304     1
    303    307     1
    303    329     1
    303    325     1
    303    314     1
    303    315     1
    304    308     1
    304    309     1
    304    323     1
    304    324     1
    305    307     1
    305    329     1
    305    322     1
    305    317     1
    305    318     1
    306    307     1
    306    329     1
    306    322     1
    306    317     1
    306    318     1
    307    320     1
    307    321     1
    308    329     1
    308    319     1
    308    311     1
    308    312     1
    309    329     1
    309    319     1
    309    311     1
    309    312     1
    310    329     1
    311    328     1
    311    320     1
    311    321     1
    312    328     1
    312    320     1
    312    321     1
    313    329     1
    314    722     1
    314    326     1
    314    327     1
    315    722     1
    315    326     1
    315    327     1
    316    329     1
    317    690     1
    317    323     1
    317    324     1
    318    690     1
    318    323     1
    318    324     1
    322    661     1
    322    662     1
    323    660     1
    324    660     1
    325    693     1
    325    694     1
    326    692     1
    327    692     1
    330    344     1
    330    345     1
    330    347     1
    330    348     1
    330    341     1
    330    342     1
    331    335     1
    331    336     1
    331    338     1
    331    339     1
    331    356     1
    331    357     1
    332    334     1
    332    337     1
    332    359     1
    332    355     1
    332    344     1
    332    345     1
    333    334     1
    333    337     1
    333    359     1
    333    355     1
    333    344     1
    333    345     1
    334    338     1
    334    339     1
    334    353     1
    334    354     1
    335    337     1
    335    359     1
    335    352     1
    335    347     1
    335    348     1
    336    337     1
    336    359     1
    336    352     1
    336    347     1
    336    348     1
    337    350     1
    337    351     1
    338    359     1
    338    349     1
    338    341     1
    338    342     1
    339    359     1
    339    349     1
    339    341     1
    339    342     1
    340    359     1
    341    358     1
    341    350     1
    341    351     1
    342    358     1
    342    350     1
    342    351     1
    343    359     1
    344    786     1
    344    356     1
    344    357     1
    345    786     1
    345    356     1
    345    357     1
    346    359     1
    347    754     1
    347    353     1
    347    354     1
    348    754     1
    348    353     1
    348    354     1
    352    725     1
    352    726     1
    353    724     1
    354    724     1
    355    757     1
    355    758     1
    356    756     1
    357    756     1
    360    374     1
    360    375     1
    360    377     1
    360    378     1
    360    371     1
    360    372     1
    361    365     1
    361    366     1
    361    368     1
    361    369     1
    361    386     1
    361    387     1
    362    364     1
    362    367     1
    362    389     1
    362    385     1
    362    374     1
    362    375     1
    363    364     1
    363    367     1
    363    389     1
    363    385     1
    363    374     1
    363    375     1
    364    368     1
    364    369     1
    364    383     1
    364    384     1
    365    367     1
    365    389     1
    365    382     1
    365    377     1
    365    378     1
    366    367     1
    366    389     1
    366    382     1
    366    377     1
    366    378     1
    367    380     1
    367    381     1
    368    389     1
    368    379     1
    368    371     1
    368    372     1
    369    389     1
    369    379     1
    369    371     1
    369    372     1
    370    389     1
    371    388     1
    371    380     1
    371    381     1
    372    388     1
    372    380     1
    372    381     1
    373    389     1
    374    850     1
    374    386     1
    374    387     1
    375    850     1
    375    386     1
    375    387     1
    376    389     1
    377    818     1
    377    383     1
    377    384     1
    378    818     1
    378    383     1
    378    384     1
    382    789     1
    382    790     1
    383    788     1
    384    788     1
    385    821     1
    385    822     1
    386    820     1
    387    820     1
    390    404     1
    390    405     1
    390    407     1
    390    408     1
    390    401     1
    390    402     1
    391    395     1
    391    396     1
    391    398     1
    391    399     1
    391    416     1
    391    417     1
    392    394     1
    392    397     1
    392    419     1
    392    415     1
    392    404     1
    392    405     1
    393    394     1
    393    397     1
    393    419     1
    393    415     1
    393    404     1
    393    405     1
    394    398     1
    394    399     1
    394    413     1
    394    414     1
    395    397     1
    395    419     1
    395    412     1
    395    407     1
    395    408     1
    396    397     1
    396    419     1
    396    412     1
    396    407     1
    396    408     1
    397    410     1
    397    411     1
    398    419     1
    398    409     1
    398    401     1
    398    402     1
    399    419     1
    399    409     1
    399    401     1
    399    402     1
    400    419     1
    401    418     1
    401    410     1
    401    411     1
    402    418     1
    402    410     1
    402    411     1
    403    419     1
    404    914     1
    404    416     1
    404    417     1
    405    914     1
    405    416     1
    405    417     1
    406    419     1
    407    882     1
    407    413     1
    407    414     1
    408    882     1
    408    413     1
    408    414     1
    412    853     1
    412    854     1
    413    852     1
    414    852     1
    415    885     1
    415    886     1
    416    884     1
    417    884     1
    420    434     1
    420    435     1
    420    437     1
    420    438     1
    420    431     1
    420    432     1
    421    425     1
    421    426     1
    421    428     1
    421    429     1
    421    446     1
    421    447     1
    422    424     1
    422    427     1
    422    449     1
    422    445     1
    422    434     1
    422    435     1
    423    424     1
    423    427     1
    423    449     1
    423    445     1
    423    434     1
    423    435     1
    424    428     1
    424    429     1
    424    443     1
    424    444     1
    425    427     1
    425    449     1
    425    442     1
    425    437     1
    425    438     1
    426    427     1
    426    449     1
    426    442     1
    426    437     1
    426    438     1
    427    440     1
    427    441     1
    428    449     1
    428    439     1
    428    431     1
    428    432     1
    429    449     1
    429    439     1
    429    431     1
    429    432     1
    430    449     1
    431    448     1
    431    440     1
    431    441     1
    432    448     1
    432    440     1
    432    441     1
    433    449     1
    434    978     1
    434    446     1
    434    447     1
    435    978     1
    435    446     1
    435    447     1
    436    449     1
    437    946     1
    437    443     1
    437    444     1
    438    946     1
    438    443     1
    438    444     1
    442    917     1
    442    918     1
    443    916     1
    444    916     1
    445    949     1
    445    950     1
    446    948     1
    447    948     1
    450    464     1
    450    465     1
    450    467     1
    450    468     1
    450    461     1
    450    462     1
    451    455     1
    451    456     1
    451    458     1
    451    459     1
    451    476     1
    451    477     1
    452    454     1
    452    457     1
    452    479     1
    452    475     1
    452    464     1
    452    465     1
    453    454     1
    453    457     1
    453    479     1
    453    475     1
    453    464     1
    453    465     1
    454    458     1
    454    459     1
    454    473     1
    454    474     1
    455    457     1
    455    479     1
    455    472     1
    455    467     1
    455    468     1
    456    457     1
    456    479     1
    456    472     1
    456    467     1
    456    468     1
    457    470     1
    457    471     1
    458    479     1
    458    469     1
    458    461     1
    458    462     1
    459    479     1
    459    469     1
    459    461     1
    459    462     1
    460    479     1
    461    478     1
    461    470     1
    461    471     1
    462    478     1
    462    470     1
    462    471     1
    463    479     1
    464   1042     1
    464    476     1
    464    477     1
    465   1042     1
    465    476     1
    465    477     1
    466    479     1
    467   1010     1
    467    473     1
    467    474     1
    468   1010     1
    468    473     1
    468    474     1
    472    981     1
    472    982     1
    473    980     1
    474    980     1
    475   1013     1
    475   1014     1
    476   1012     1
    477   1012     1
    480    494     1
    480    495     1
    480    497     1
    480    498     1
    480    491     1
    480    492     1
    481    485     1
    481    486     1
    481    488     1
    481    489     1
    481    506     1
    481    507     1
    482    484     1
    482    487     1
    482    509     1
    482    505     1
    482    494     1
    482    495     1
    483    484     1
    483    487     1
    483    509     1
    483    505     1
    483    494     1
    483    495     1
    484    488     1
    484    489     1
    484    503     1
    484    504     1
    485    487     1
    485    509     1
    485    502     1
    485    497     1
    485    498     1
    486    487     1
    486    509     1
    486    502     1
    486    497     1
    486    498     1
    487    500     1
    487    501     1
    488    509     1
    488    499     1
    488    491     1
    488    492     1
    489    509     1
    489    499     1
    489    491     1
    489    492     1
    490    509     1
    491    508     1
    491    500     1
    491    501     1
    492    508     1
    492    500     1
    492    501     1
    493    509     1
    494   1106     1
    494    506     1
    494    507     1
    495   1106     1
    495    506     1
    495    507     1
    496    509     1
    497   1074     1
    497    503     1
    497    504     1
    498   1074     1
    498    503     1
    498    504     1
    502   1045     1
    502   1046     1
    503   1044     1
    504   1044     1
    505   1077     1
    505   1078     1
    506   1076     1
    507   1076     1
    510    524     1
    510    525     1
    510    527     1
    510    528     1
    510    521     1
    510    522     1
    511    515     1
    511    516     1
    511    518     1
    511    519     1
    511    536     1
    511    537     1
    512    514     1
    512    517     1
    512    539     1
    512    535     1
    512    524     1
    512    525     1
    513    514     1
    513    517     1
    513    539     1
    513    535     1
    513    524     1
    513    525     1
    514    518     1
    514    519     1
    514    533     1
    514    534     1
    515    517     1
    515    539     1
    515    532     1
    515    527     1
    515    528     1
    516    517     1
    516    539     1
    516    532     1
    516    527     1
    516    528     1
    517    530     1
    517    531     1
    518    539     1
    518    529     1
    518    521     1
    518    522     1
    519    539     1
    519    529     1
    519    521     1
    519    522     1
    520    539     1
    521    538     1
    521    530     1
    521    531     1
    522    538     1
    522    530     1
    522    531     1
    523    539     1
    524   1170     1
    524    536     1
    524    537     1
    525   1170     1
    525    536     1
    525    537     1
    526    539     1
    527   1138     1
    527    533     1
    527    534     1
    528   1138     1
    528    533     1
    528    534     1
    532   1109     1
    532   1110     1
    533   1108     1
    534   1108     1
    535   1141     1
    535   1142     1
    536   1140     1
    537   1140     1
    540    554     1
    540    555     1
    540    557     1
    540    558     1
    540    551     1
    540    552     1
    541    545     1
    541    546     1
    541    548     1
    541    549     1
    541    566     1
    541    567     1
    542    544     1
    542    547     1
    542    569     1
    542    565     1
    542    554     1
    542    555     1
    543    544     1
    543    547     1
    543    569     1
    543    565     1
    543    554     1
    543    555     1
    544    548     1
    544    549     1
    544    563     1
    544    564     1
    545    547     1
    545    569     1
    545    562     1
    545    557     1
    545    558     1
    546    547     1
    546    569     1
    546    562     1
    546    557     1
    546    558     1
    547    560     1
    547    561     1
    548    569     1
    548    559     1
    548    551     1
    548    552     1
    549    569     1
    549    559     1
    549    551     1
    549    552     1
    550    569     1
    551    568     1
    551    560     1
    551    561     1
    552    568     1
    552    560     1
    552    561     1
    553    569     1
    554   1234     1
    554    566     1
    554    567     1
    555   1234     1
    555    566     1
    555    567     1
    556    569     1
    557   1202     1
    557    563     1
    557    564     1
    558   1202     1
    558    563     1
    558    564     1
    562   1173     1
    562   1174     1
    563   1172     1
    564   1172     1
    565   1205     1
    565   1206     1
    566   1204     1
    567   1204     1
    570    584     1
    570    585     1
    570    587     1
    570    588     1
    570    581     1
    570    582     1
    571    575     1
    571    576     1
    571    578     1
    571    579     1
    571    596     1
    571    597     1
    572    574     1
    572    577     1
    572    599     1
    572    595     1
    572    584     1
    572    585     1
    573    574     1
    573    577     1
    573    599     1
    573    595     1
    573    584     1
    573    585     1
    574    578     1
    574    579     1
    574    593     1
    574    594     1
    575    577     1
    575    599     1
    575    592     1
    575    587     1
    575    588     1
    576    577     1
    576    599     1
    576    592     1
    576    587     1
    576    588     1
    577    590     1
    577    591     1
    578    599     1
    578    589     1
    578    581     1
    578    582     1
    579    599     1
    579    589     1
    579    581     1
    579    582     1
    580    599     1
    581    598     1
    581    590     1
    581    591     1
    582    598     1
    582    590     1
    582    591     1
    583    599     1
    584   1298     1
    584    596     1
    584    597     1
    585   1298     1
    585    596     1
    585    597     1
    586    599     1
    587   1266     1
    587    593     1
    587    594     1
    588   1266     1
    588    593     1
    588    594     1
    592   1237     1
    592   1238     1
    593   1236     1
    594   1236     1
    595   1269     1
    595   1270     1
    596   1268     1
    597   1268     1
    600    614     1
    600    615     1
    600    617     1
    600    618     1
    600    611     1
    600    612     1
    601    605     1
    601    606     1
    601    608     1
    601    609     1
    601    626     1
    601    627     1
    602    604     1
    602    607     1
    602    629     1
    602    625     1
    602    614     1
    602    615     1
    603    604     1
    603    607     1
    603    629     1
    603    625     1
    603    614     1
    603    615     1
    604    608     1
    604    609     1
    604    623     1
    604    624     1
    605    607     1
    605    629     1
    605    622     1
    605    617     1
    605    618     1
    606    607     1
    606    629     1
    606    622     1
    606    617     1
    606    618     1
    607    620     1
    607    621     1
    608    629     1
    608    619     1
    608    611     1
    608    612     1
    609    629     1
    609    619     1
    609    611     1
    609    612     1
    610    629     1
    611    628     1
    611    620     1
    611    621     1
    612    628     1
    612    620     1
    612    621     1
    613    629     1
    614   1362     1
    614    626     1
    614    627     1
    615   1362     1
    615    626     1
    615    627     1
    616    629     1
    617   1330     1
    617    623     1
    617    624     1
    618   1330     1
    618    623     1
    618    624     1
    622   1301     1
    622   1302     1
    623   1300     1
    624   1300     1
    625   1333     1
    625   1334     1
    626   1332     1
    627   1332     1
    630    644     1
    630    645     1
    630    647     1
    630    648     1
    630    641     1
    630    642     1
    631    635     1
    631    636     1
    631    638     1
    631    639     1
    631    656     1
    631    657     1
    632    634     1
    632    637     1
    632    659     1
    632    655     1
    632    644     1
    632    645     1
    633    634     1
    633    637     1
    633    659     1
    633    655     1
    633    644     1
    633    645     1
    634    638     1
    634    639     1
    634    653     1
    634    654     1
    635    637     1
    635    659     1
    635    652     1
    635    647     1
    635    648     1
    636    637     1
    636    659     1
    636    652     1
    636    647     1
    636    648     1
    637    650     1
    637    651     1
    638    659     1
    638    649     1
    638    641     1
    638    642     1
    639    659     1
    639    649     1
    639    641     1
    639    642     1
    640    659     1
    641    658     1
    641    650     1
    641    651     1
    642    658     1
    642    650     1
    642    651     1
    643    659     1
    644   1426     1
    644    656     1
    644    657     1
    645   1426     1
    645    656     1
    645    657     1
    646    659     1
    647   1394     1
    647    653     1
    647    654     1
    648   1394     1
    648    653     1
    648    654     1
    652   1365     1
    652   1366     1
    653   1364     1
    654   1364     1
    655   1397     1
    655   1398     1
    656   1396     1
    657   1396     1
    660    667     1
    660    668     1
    661    666     1
    661    664     1
    661    665     1
    662    666     1
    662    664     1
    662    665     1
    663    691     1
    664    690     1
    664    669     1
    664    667     1
    664    668     1
    665    690     1
    665    669     1
    665    667     1
    665    668     1
    666    671     1
    666    672     1
    666    681     1
    666    682     1
    667    670     1
    667    680     1
    667    691     1
    668    670     1
    668    680     1
    668    691     1
    669    674     1
    669    675     1
    669    684     1
    669    685     1
    670    681     1
    670    682     1
    671    680     1
    671    691     1
    671    676     1
    671    674     1
    671    675     1
    672    680     1
    672    691     1
    672    676     1
    672    674     1
    672    675     1
    673    691     1
    673    679     1
    674    677     1
    674    678     1
    675    677     1
    675    678     1
    677    679     1
    681    691     1
    681    686     1
    681    684     1
    681    685     1
    682    691     1
    682    686     1
    682    684     1
    682    685     1
    683    691     1
    683    689     1
    684    687     1
    684    688     1
    685    687     1
    685    688     1
    687    689     1
    692    699     1
    692    700     1
    693    698     1
    693    696     1
    693    697     1
    694    698     1
    694    696     1
    694    697     1
    695    723     1
    696    701     1
    696    699     1
    696    700     1
    696    722     1
    697    701     1
    697    699     1
    697    700     1
    697    722     1
    698    703     1
    698    704     1
    698    713     1
    698    714     1
    699    702     1
    699    712     1
    699    723     1
    700    702     1
    700    712     1
    700    723     1
    701    706     1
    701    707     1
    701    716     1
    701    717     1
    702    713     1
    702    714     1
    703    708     1
    703    706     1
    703    707     1
    703    712     1
    703    723     1
    704    708     1
    704    706     1
    704    707     1
    704    712     1
    704    723     1
    705    711     1
    705    723     1
    706    709     1
    706    710     1
    707    709     1
    707    710     1
    709    711     1
    713    718     1
    713    716     1
    713    717     1
    713    723     1
    714    718     1
    714    716     1
    714    717     1
    714    723     1
    715    721     1
    715    723     1
    716    719     1
    716    720     1
    717    719     1
    717    720     1
    719    721     1
    724    731     1
    724    732     1
    725    730     1
    725    728     1
    725    729     1
    726    730     1
    726    728     1
    726    729     1
    727    755     1
    728    754     1
    728    733     1
    728    731     1
    728    732     1
    729    754     1
    729    733     1
    729    731     1
    729    732     1
    730    735     1
    730    736     1
    730    745     1
    730    746     1
    731    734     1
    731    744     1
    731    755     1
    732    734     1
    732    744     1
    732    755     1
    733    738     1
    733    739     1
    733    748     1
    733    749     1
    734    745     1
    734    746     1
    735    744     1
    735    755     1
    735    740     1
    735    738     1
    735    739     1
    736    744     1
    736    755     1
    736    740     1
    736    738     1
    736    739     1
    737    755     1
    737    743     1
    738    741     1
    738    742     1
    739    741     1
    739    742     1
    741    743     1
    745    755     1
    745    750     1
    745    748     1
    745    749     1
    746    755     1
    746    750     1
    746    748     1
    746    749     1
    747    755     1
    747    753     1
    748    751     1
    748    752     1
    749    751     1
    749    752     1
    751    753     1
    756    763     1
    756    764     1
    757    762     1
    757    760     1
    757    761     1
    758    762     1
    758    760     1
    758    761     1
    759    787     1
    760    765     1
    760    763     1
    760    764     1
    760    786     1
    761    765     1
    761    763     1
    761    764     1
    761    786     1
    762    767     1
    762    768     1
    762    777     1
    762    778     1
    763    766     1
    763    776     1
    763    787     1
    764    766     1
    764    776     1
    764    787     1
    765    770     1
    765    771     1
    765    780     1
    765    781     1
    766    777     1
    766    778     1
    767    772     1
    767    770     1
    767    771     1
    767    776     1
    767    787     1
    768    772     1
    768    770     1
    768    771     1
    768    776     1
    768    787     1
    769    775     1
    769    787     1
    770    773     1
    770    774     1
    771    773     1
    771    774     1
    773    775     1
    777    782     1
    777    780     1
    777    781     1
    777    787     1
    778    782     1
    778    780     1
    778    781     1
    778    787     1
    779    785     1
    779    787     1
    780    783     1
    780    784     1
    781    783     1
    781    784     1
    783    785     1
    788    795     1
    788    796     1
    789    794     1
    789    792     1
    789    793     1
    790    794     1
    790    792     1
    790    793     1
    791    819     1
    792    818     1
    792    797     1
    792    795     1
    792    796     1
    793    818     1
    793    797     1
    793    795     1
    793    796     1
    794    799     1
    794    800     1
    794    809     1
    794    810     1
    795    798     1
    795    808     1
    795    819     1
    796    798     1
    796    808     1
    796    819     1
    797    802     1
    797    803     1
    797    812     1
    797    813     1
    798    809     1
    798    810     1
    799    808     1
    799    819     1
    799    804     1
    799    802     1
    799    803     1
    800    808     1
    800    819     1
    800    804     1
    800    802     1
    800    803     1
    801    819     1
    801    807     1
    802    805     1
    802    806     1
    803    805     1
    803    806     1
    805    807     1
    809    819     1
    809    814     1
    809    812     1
    809    813     1
    810    819     1
    810    814     1
    810    812     1
    810    813     1
    811    819     1
    811    817     1
    812    815     1
    812    816     1
    813    815     1
    813    816     1
    815    817     1
    820    827     1
    820    828     1
    821    826     1
    821    824     1
    821    825     1
    822    826     1
    822    824     1
    822    825     1
    823    851     1
    824    829     1
    824    827     1
    824    828     1
    824    850     1
    825    829     1
    825    827     1
    825    828     1
    825    850     1
    826    831     1
    826    832     1
    826    841     1
    826    842     1
    827    830     1
    827    840     1
    827    851     1
    828    830     1
    828    840     1
    828    851     1
    829    834     1
    829    835     1
    829    844     1
    829    845     1
    830    841     1
    830    842     1
    831    836     1
    831    834     1
    831    835     1
    831    840     1
    831    851     1
    832    836     1
    832    834     1
    832    835     1
    832    840     1
    832    851     1
    833    839     1
    833    851     1
    834    837     1
    834    838     1
    835    837     1
    835    838     1
    837    839     1
    841    846     1
    841    844     1
    841    845     1
    841    851     1
    842    846     1
    842    844     1
    842    845     1
    842    851     1
    843    849     1
    843    851     1
    844    847     1
    844    848     1
    845    847     1
    845    848     1
    847    849     1
    852    859     1
    852    860     1
    853    858     1
    853    856     1
    853    857     1
    854    858     1
    854    856     1
    854    857     1
    855    883     1
    856    882     1
    856    861     1
    856    859     1
    856    860     1
    857    882     1
    857    861     1
    857    859     1
    857    860     1
    858    863     1
    858    864     1
    858    873     1
    858    874     1
    859    862     1
    859    872     1
    859    883     1
    860    862     1
    860    872     1
    860    883     1
    861    866     1
    861    867     1
    861    876     1
    861    877     1
    862    873     1
    862    874     1
    863    872     1
    863    883     1
    863    868     1
    863    866     1
    863    867     1
    864    872     1
    864    883     1
    864    868     1
    864    866     1
    864    867     1
    865    883     1
    865    871     1
    866    869     1
    866    870     1
    867    869     1
    867    870     1
    869    871     1
    873    883     1
    873    878     1
    873    876     1
    873    877     1
    874    883     1
    874    878     1
    874    876     1
    874    877     1
    875    883     1
    875    881     1
    876    879     1
    876    880     1
    877    879     1
    877    880     1
    879    881     1
    884    891     1
    884    892     1
    885    890     1
    885    888     1
    885    889     1
    886    890     1
    886    888     1
    886    889     1
    887    915     1
    888    893     1
    888    891     1
    888    892     1
    888    914     1
    889    893     1
    889    891     1
    889    892     1
    889    914     1
    890    895     1
    890    896     1
    890    905     1
    890    906     1
    891    894     1
    891    904     1
    891    915     1
    892    894     1
    892    904     1
    892    915     1
    893    898     1
    893    899     1
    893    908     1
    893    909     1
    894    905     1
    894    906     1
    895    900     1
    895    898     1
    895    899     1
    895    904     1
    895    915     1
    896    900     1
    896    898     1
    896    899     1
    896    904     1
    896    915     1
    897    903     1
    897    915     1
    898    901     1
    898    902     1
    899    901     1
    899    902     1
    901    903     1
    905    910     1
    905    908     1
    905    909     1
    905    915     1
    906    910     1
    906    908     1
    906    909     1
    906    915     1
    907    913     1
    907    915     1
    908    911     1
    908    912     1
    909    911     1
    909    912     1
    911    913     1
    916    923     1
    916    924     1
    917    922     1
    917    920     1
    917    921     1
    918    922     1
    918    920     1
    918    921     1
    919    947     1
    920    946     1
    920    925     1
    920    923     1
    920    924     1
    921    946     1
    921    925     1
    921    923     1
    921    924     1
    922    927     1
    922    928     1
    922    937     1
    922    938     1
    923    926     1
    923    936     1
    923    947     1
    924    926     1
    924    936     1
    924    947     1
    925    930     1
    925    931     1
    925    940     1
    925    941     1
    926    937     1
    926    938     1
    927    936     1
    927    947     1
    927    932     1
    927    930     1
    927    931     1
    928    936     1
    928    947     1
    928    932     1
    928    930     1
    928    931     1
    929    947     1
    929    935     1
    930    933     1
    930    934     1
    931    933     1
    931    934     1
    933    935     1
    937    947     1
    937    942     1
    937    940     1
    937    941     1
    938    947     1
    938    942     1
    938    940     1
    938    941     1
    939    947     1
    939    945     1
    940    943     1
    940    944     1
    941    943     1
    941    944     1
    943    945     1
    948    955     1
    948    956     1
    949    954     1
    949    952     1
    949    953     1
    950    954     1
    950    952     1
    950    953     1
    951    979     1
    952    957     1
    952    955     1
    952    956     1
    952    978     1
    953    957     1
    953    955     1
    953    956     1
    953    978     1
    954    959     1
    954    960     1
    954    969     1
    954    970     1
    955    958     1
    955    968     1
    955    979     1
    956    958     1
    956    968     1
    956    979     1
    957    962     1
    957    963     1
    957    972     1
    957    973     1
    958    969     1
    958    970     1
    959    964     1
    959    962     1
    959    963     1
    959    968     1
    959    979     1
    960    964     1
    960    962     1
    960    963     1
    960    968     1
    960    979     1
    961    967     1
    961    979     1
    962    965     1
    962    966     1
    963    965     1
    963    966     1
    965    967     1
    969    974     1
    969    972     1
    969    973     1
    969    979     1
    970    974     1
    970    972     1
    970    973     1
    970    979     1
    971    977     1
    971    979     1
    972    975     1
    972    976     1
    973    975     1
    973    976     1
    975    977     1
    980    987     1
    980    988     1
    981    986     1
    981    984     1
    981    985     1
    982    986     1
    982    984     1
    982    985     1
    983   1011     1
    984   1010     1
    984    989     1
    984    987     1
    984    988     1
    985   1010     1
    985    989     1
    985    987     1
    985    988     1
    986    991     1
    986    992     1
    986   1001     1
    986   1002     1
    987    990     1
    987   1000     1
    987   1011     1
    988    990     1
    988   1000     1
    988   1011     1
    989    994     1
    989    995     1
    989   1004     1
    989   1005     1
    990   1001     1
    990   1002     1
    991   1000     1
    991   1011     1
    991    996     1
    991    994     1
    991    995     1
    992   1000     1
    992   1011     1
    992    996     1
    992    994     1
    992    995     1
    993   1011     1
    993    999     1
    994    997     1
    994    998     1
    995    997     1
    995    998     1
    997    999     1
   1001   1011     1
   1001   1006     1
   1001   1004     1
   1001   1005     1
   1002   1011     1
   1002   1006     1
   1002   1004     1
   1002   1005     1
   1003   1011     1
   1003   1009     1
   1004   1007     1
   1004   1008     1
   1005   1007     1
   1005   1008     1
   1007   1009     1
   1012   1019     1
   1012   1020     1
   1013   1018     1
   1013   1016     1
   1013   1017     1
   1014   1018     1
   1014   1016     1
   1014   1017     1
   1015   1043     1
   1016   1021     1
   1016   1019     1
   1016   1020     1
   1016   1042     1
   1017   1021     1
   1017   1019     1
   1017   1020     1
   1017   1042     1
   1018   1023     1
   1018   1024     1
   1018   1033     1
   1018   1034     1
   1019   1022     1
   1019   1032     1
   1019   1043     1
   1020   1022     1
   1020   1032     1
   1020   1043     1
   1021   1026     1
   1021   1027     1
   1021   1036     1
   1021   1037     1
   1022   1033     1
   1022   1034     1
   1023   1028     1
   1023   1026     1
   1023   1027     1
   1023   1032     1
   1023   1043     1
   1024   1028     1
   1024   1026     1
   1024   1027     1
   1024   1032     1
   1024   1043     1
   1025   1031     1
   1025   1043     1
   1026   1029     1
   1026   1030     1
   1027   1029     1
   1027   1030     1
   1029   1031     1
   1033   1038     1
   1033   1036     1
   1033   1037     1
   1033   1043     1
   1034   1038     1
   1034   1036     1
   1034   1037     1
   1034   1043     1
   1035   1041     1
   1035   1043     1
   1036   1039     1
   1036   1040     1
   1037   1039     1
   1037   1040     1
   1039   1041     1
   1044   1051     1
   1044   1052     1
   1045   1050     1
   1045   1048     1
   1045   1049     1
   1046   1050     1
   1046   1048     1
   1046   1049     1
   1047   1075     1
   1048   1074     1
   1048   1053     1
   1048   1051     1
   1048   1052     1
   1049   1074     1
   1049   1053     1
   1049   1051     1
   1049   1052     1
   1050   1055     1
   1050   1056     1
   1050   1065     1
   1050   1066     1
   1051   1054     1
   1051   1064     1
   1051   1075     1
   1052   1054     1
   1052   1064     1
   1052   1075     1
   1053   1058     1
   1053   1059     1
   1053   1068     1
   1053   1069     1
   1054   1065     1
   1054   1066     1
   1055   1064     1
   1055   1075     1
   1055   1060     1
   1055   1058     1
   1055   1059     1
   1056   1064     1
   1056   1075     1
   1056   1060     1
   1056   1058     1
   1056   1059     1
   1057   1075     1
   1057   1063     1
   1058   1061     1
   1058   1062     1
   1059   1061     1
   1059   1062     1
   1061   1063     1
   1065   1075     1
   1065   1070     1
   1065   1068     1
   1065   1069     1
   1066   1075     1
   1066   1070     1
   1066   1068     1
   1066   1069     1
   1067   1075     1
   1067   1073     1
   1068   1071     1
   1068   1072     1
   1069   1071     1
   1069   1072     1
   1071   1073     1
   1076   1083     1
   1076   1084     1
   1077   1082     1
   1077   1080     1
   1077   1081     1
   1078   1082     1
   1078   1080     1
   1078   1081     1
   1079   1107     1
   1080   1085     1
   1080   1083     1
   1080   1084     1
   1080   1106     1
   1081   1085     1
   1081   1083     1
   1081   1084     1
   1081   1106     1
   1082   1087     1
   1082   1088     1
   1082   1097     1
   1082   1098     1
   1083   1086     1
   1083   1096     1
   1083   1107     1
   1084   1086     1
   1084   1096     1
   1084   1107     1
   1085   1090     1
   1085   1091     1
   1085   1100     1
   1085   1101     1
   1086   1097     1
   1086   1098     1
   1087   1092     1
   1087   1090     1
   1087   1091     1
   1087   1096     1
   1087   1107     1
   1088   1092     1
   1088   1090     1
   1088   1091     1
   1088   1096     1
   1088   1107     1
   1089   1095     1
   1089   1107     1
   1090   1093     1
   1090   1094     1
   1091   1093     1
   1091   1094     1
   1093   1095     1
   1097   1102     1
   1097   1100     1
   1097   1101     1
   1097   1107     1
   1098   1102     1
   1098   1100     1
   1098   1101     1
   1098   1107     1
   1099   1105     1
   1099   1107     1
   1100   1103     1
   1100   1104     1
   1101   1103     1
   1101   1104     1
   1103   1105     1
   1108   1115     1
   1108   1116     1
   1109   1114     1
   1109   1112     1
   1109   1113     1
   1110   1114     1
   1110   1112     1
   1110   1113     1
   1111   1139     1
   1112   1138     1
   1112   1117     1
   1112   1115     1
   1112   1116     1
   1113   1138     1
   1113   1117     1
   1113   1115     1
   1113   1116     1
   1114   1119     1
   1114   1120     1
   1114   1129     1
   1114   1130     1
   1115   1118     1
   1115   1128     1
   1115   1139     1
   1116   1118     1
   1116   1128     1
   1116   1139     1
   1117   1122     1
   1117   1123     1
   1117   1132     1
   1117   1133     1
   1118   1129     1
   1118   1130     1
   1119   1128     1
   1119   1139     1
   1119   1124     1
   1119   1122     1
   1119   1123     1
   1120   1128     1
   1120   1139     1
   1120   1124     1
   1120   1122     1
   1120   1123     1
   1121   1139     1
   1121   1127     1
   1122   1125     1
   1122   1126     1
   1123   1125     1
   1123   1126     1
   1125   1127     1
   1129   1139     1
   1129   1134     1
   1129   1132     1
   1129   1133     1
   1130   1139     1
   1130   1134     1
   1130   1132     1
   1130   1133     1
   1131   1139     1
   1131   1137     1
   1132   1135     1
   1132   1136     1
   1133   1135     1
   1133   1136     1
   1135   1137     1
   1140   1147     1
   1140   1148     1
   1141   1146     1
   1141   1144     1
   1141   1145     1
   1142   1146     1
   1142   1144     1
   1142   1145     1
   1143   1171     1
   1144   1149     1
   1144   1147     1
   1144   1148     1
   1144   1170     1
   1145   1149     1
   1145   1147     1
   1145   1148     1
   1145   1170     1
   1146   1151     1
   1146   1152     1
   1146   1161     1
   1146   1162     1
   1147   1150     1
   1147   1160     1
   1147   1171     1
   1148   1150     1
   1148   1160     1
   1148   1171     1
   1149   1154     1
   1149   1155     1
   1149   1164     1
   1149   1165     1
   1150   1161     1
   1150   1162     1
   1151   1156     1
   1151   1154     1
   1151   1155     1
   1151   1160     1
   1151   1171     1
   1152   1156     1
   1152   1154     1
   1152   1155     1
   1152   1160     1
   1152   1171     1
   1153   1159     1
   1153   1171     1
   1154   1157     1
   1154   1158     1
   1155   1157     1
   1155   1158     1
   1157   1159     1
   1161   1166     1
   1161   1164     1
   1161   1165     1
   1161   1171     1
   1162   1166     1
   1162   1164     1
   1162   1165     1
   1162   1171     1
   1163   1169     1
   1163   1171     1
   1164   1167     1
   1164   1168     1
   1165   1167     1
   1165   1168     1
   1167   1169     1
   1172   1179     1
   1172   1180     1
   1173   1178     1
   1173   1176     1
   1173   1177     1
   1174   1178     1
   1174   1176     1
   1174   1177     1
   1175   1203     1
   1176   1202     1
   1176   1181     1
   1176   1179     1
   1176   1180     1
   1177   1202     1
   1177   1181     1
   1177   1179     1
   1177   1180     1
   1178   1183     1
   1178   1184     1
   1178   1193     1
   1178   1194     1
   1179   1182     1
   1179   1192     1
   1179   1203     1
   1180   1182     1
   1180   1192     1
   1180   1203     1
   1181   1186     1
   1181   1187     1
   1181   1196     1
   1181   1197     1
   1182   1193     1
   1182   1194     1
   1183   1192     1
   1183   1203     1
   1183   1188     1
   1183   1186     1
   1183   1187     1
   1184   1192     1
   1184   1203     1
   1184   1188     1
   1184   1186     1
   1184   1187     1
   1185   1203     1
   1185   1191     1
   1186   1189     1
   1186   1190     1
   1187   1189     1
   1187   1190     1
   1189   1191     1
   1193   1203     1
   1193   1198     1
   1193   1196     1
   1193   1197     1
   1194   1203     1
   1194   1198     1
   1194   1196     1
   1194   1197     1
   1195   1203     1
   1195   1201     1
   1196   1199     1
   1196   1200     1
   1197   1199     1
   1197   1200     1
   1199   1201     1
   1204   1211     1
   1204   1212     1
   1205   1210     1
   1205   1208     1
   1205   1209     1
   1206   1210     1
   1206   1208     1
   1206   1209     1
   1207   1235     1
   1208   1213     1
   1208   1211     1
   1208   1212     1
   1208   1234     1
   1209   1213     1
   1209   1211     1
   1209   1212     1
   1209   1234     1
   1210   1215     1
   1210   1216     1
   1210   1225     1
   1210   1226     1
   1211   1214     1
   1211   1224     1
   1211   1235     1
   1212   1214     1
   1212   1224     1
   1212   1235     1
   1213   1218     1
   1213   1219     1
   1213   1228     1
   1213   1229     1
   1214   1225     1
   1214   1226     1
   1215   1220     1
   1215   1218     1
   1215   1219     1
   1215   1224     1
   1215   1235     1
   1216   1220     1
   1216   1218     1
   1216   1219     1
   1216   1224     1
   1216   1235     1
   1217   1223     1
   1217   1235     1
   1218   1221     1
   1218   1222     1
   1219   1221     1
   1219   1222     1
   1221   1223     1
   1225   1230     1
   1225   1228     1
   1225   1229     1
   1225   1235     1
   1226   1230     1
   1226   1228     1
   1226   1229     1
   1226   1235     1
   1227   1233     1
   1227   1235     1
   1228   1231     1
   1228   1232     1
   1229   1231     1
   1229   1232     1
   1231   1233     1
   1236   1243     1
   1236   1244     1
   1237   1242     1
   1237   1240     1
   1237   1241     1
   1238   1242     1
   1238   1240     1
   1238   1241     1
   1239   1267     1
   1240   1266     1
   1240   1245     1
   1240   1243     1
   1240   1244     1
   1241   1266     1
   1241   1245     1
   1241   1243     1
   1241   1244     1
   1242   1247     1
   1242   1248     1
   1242   1257     1
   1242   1258     1
   1243   1246     1
   1243   1256     1
   1243   1267     1
   1244   1246     1
   1244   1256     1
   1244   1267     1
   1245   1250     1
   1245   1251     1
   1245   1260     1
   1245   1261     1
   1246   1257     1
   1246   1258     1
   1247   1256     1
   1247   1267     1
   1247   1252     1
   1247   1250     1
   1247   1251     1
   1248   1256     1
   1248   1267     1
   1248   1252     1
   1248   1250     1
   1248   1251     1
   1249   1267     1
   1249   1255     1
   1250   1253     1
   1250   1254     1
   1251   1253     1
   1251   1254     1
   1253   1255     1
   1257   1267     1
   1257   1262     1
   1257   1260     1
   1257   1261     1
   1258   1267     1
   1258   1262     1
   1258   1260     1
   1258   1261     1
   1259   1267     1
   1259   1265     1
   1260   1263     1
   1260   1264     1
   1261   1263     1
   1261   1264     1
   1263   1265     1
   1268   1275     1
   1268   1276     1
   1269   1274     1
   1269   1272     1
   1269   1273     1
   1270   1274     1
   1270   1272     1
   1270   1273     1
   1271   1299     1
   1272   1277     1
   1272   1275     1
   1272   1276     1
   1272   1298     1
   1273   1277     1
   1273   1275     1
   1273   1276     1
   1273   1298     1
   1274   1279     1
   1274   1280     1
   1274   1289     1
   1274   1290     1
   1275   1278     1
   1275   1288     1
   1275   1299     1
   1276   1278     1
   1276   1288     1
   1276   1299     1
   1277   1282     1
   1277   1283     1
   1277   1292     1
   1277   1293     1
   1278   1289     1
   1278   1290     1
   1279   1284     1
   1279   1282     1
   1279   1283     1
   1279   1288     1
   1279   1299     1
   1280   1284     1
   1280   1282     1
   1280   1283     1
   1280   1288     1
   1280   1299     1
   1281   1287     1
   1281   1299     1
   1282   1285     1
   1282   1286     1
   1283   1285     1
   1283   1286     1
   1285   1287     1
   1289   1294     1
   1289   1292     1
   1289   1293     1
   1289   1299     1
   1290   1294     1
   1290   1292     1
   1290   1293     1
   1290   1299     1
   1291   1297     1
   1291   1299     1
   1292   1295     1
   1292   1296     1
   1293   1295     1
   1293   1296     1
   1295   1297     1
   1300   1307     1
   1300   1308     1
   1301   1306     1
   1301   1304     1
   1301   1305     1
   1302   1306     1
   1302   1304     1
   1302   1305     1
   1303   1331     1
   1304   1330     1
   1304   1309     1
   1304   1307     1
   1304   1308     1
   1305   1330     1
   1305   1309     1
   1305   1307     1
   1305   1308     1
   1306   1311     1
   1306   1312     1
   1306   1321     1
   1306   1322     1
   1307   1310     1
   1307   1320     1
   1307   1331     1
   1308   1310     1
   1308   1320     1
   1308   1331     1
   1309   1314     1
   1309   1315     1
   1309   1324     1
   1309   1325     1
   1310   1321     1
   1310   1322     1
   1311   1320     1
   1311   1331     1
   1311   1316     1
   1311   1314     1
   1311   1315     1
   1312   1320     1
   1312   1331     1
   1312   1316     1
   1312   1314     1
   1312   1315     1
   1313   1331     1
   1313   1319     1
   1314   1317     1
   1314   1318     1
   1315   1317     1
   1315   1318     1
   1317   1319     1
   1321   1331     1
   1321   1326     1
   1321   1324     1
   1321   1325     1
   1322   1331     1
   1322   1326     1
   1322   1324     1
   1322   1325     1
   1323   1331     1
   1323   1329     1
   1324   1327     1
   1324   1328     1
   1325   1327     1
   1325   1328     1
   1327   1329     1
   1332   1339     1
   1332   1340     1
   1333   1338     1
   1333   1336     1
   1333   1337     1
   1334   1338     1
   1334   1336     1
   1334   1337     1
   1335   1363     1
   1336   1341     1
   1336   1339     1
   1336   1340     1
   1336   1362     1
   1337   1341     1
   1337   1339     1
   1337   1340     1
   1337   1362     1
   1338   1343     1
   1338   1344     1
   1338   1353     1
   1338   1354     1
   1339   1342     1
   1339   1352     1
   1339   1363     1
   1340   1342     1
   1340   1352     1
   1340   1363     1
   1341   1346     1
   1341   1347     1
   1341   1356     1
   1341   1357     1
   1342   1353     1
   1342   1354     1
   1343   1348     1
   1343   1346     1
   1343   1347     1
   1343   1352     1
   1343   1363     1
   1344   1348     1
   1344   1346     1
   1344   1347     1
   1344   1352     1
   1344   1363     1
   1345   1351     1
   1345   1363     1
   1346   1349     1
   1346   1350     1
   1347   1349     1
   1347   1350     1
   1349   1351     1
   1353   1358     1
   1353   1356     1
   1353   1357     1
   1353   1363     1
   1354   1358     1
   1354   1356     1
   1354   1357     1
   1354   1363     1
   1355   1361     1
   1355   1363     1
   1356   1359     1
   1356   1360     1
   1357   1359     1
   1357   1360     1
   1359   1361     1
   1364   1371     1
   1364   1372     1
   1365   1370     1
   1365   1368     1
   1365   1369     1
   1366   1370     1
   1366   1368     1
   1366   1369     1
   1367   1395     1
   1368   1394     1
   1368   1373     1
   1368   1371     1
   1368   1372     1
   1369   1394     1
   1369   1373     1
   1369   1371     1
   1369   1372     1
   1370   1375     1
   1370   1376     1
   1370   1385     1
   1370   1386     1
   1371   1374     1
   1371   1384     1
   1371   1395     1
   1372   1374     1
   1372   1384     1
   1372   1395     1
   1373   1378     1
   1373   1379     1
   1373   1388     1
   1373   1389     1
   1374   1385     1
   1374   1386     1
   1375   1384     1
   1375   1395     1
   1375   1380     1
   1375   1378     1
   1375   1379     1
   1376   1384     1
   1376   1395     1
   1376   1380     1
   1376   1378     1
   1376   1379     1
   1377   1395     1
   1377   1383     1
   1378   1381     1
   1378   1382     1
   1379   1381     1
   1379   1382     1
   1381   1383     1
   1385   1395     1
   1385   1390     1
   1385   1388     1
   1385   1389     1
   1386   1395     1
   1386   1390     1
   1386   1388     1
   1386   1389     1
   1387   1395     1
   1387   1393     1
   1388   1391     1
   1388   1392     1
   1389   1391     1
   1389   1392     1
   1391   1393     1
   1396   1403     1
   1396   1404     1
   1397   1402     1
   1397   1400     1
   1397   1401     1
   1398   1402     1
   1398   1400     1
   1398   1401     1
   1399   1427     1
   1400   1405     1
   1400   1403     1
   1400   1404     1
   1400   1426     1
   1401   1405     1
   1401   1403     1
   1401   1404     1
   1401   1426     1
   1402   1407     1
   1402   1408     1
   1402   1417     1
   1402   1418     1
   1403   1406     1
   1403   1416     1
   1403   1427     1
   1404   1406     1
   1404   1416     1
   1404   1427     1
   1405   1410     1
   1405   1411     1
   1405   1420     1
   1405   1421     1
   1406   1417     1
   1406   1418     1
   1407   1412     1
   1407   1410     1
   1407   1411     1
   1407   1416     1
   1407   1427     1
   1408   1412     1
   1408   1410     1
   1408   1411     1
   1408   1416     1
   1408   1427     1
   1409   1415     1
   1409   1427     1
   1410   1413     1
   1410   1414     1
   1411   1413     1
   1411   1414     1
   1413   1415     1
   1417   1422     1
   1417   1420     1
   1417   1421     1
   1417   1427     1
   1418   1422     1
   1418   1420     1
   1418   1421     1
   1418   1427     1
   1419   1425     1
   1419   1427     1
   1420   1423     1
   1420   1424     1
   1421   1423     1
   1421   1424     1
   1423   1425     1

[ angles ]
;    ai     aj     ak funct         c0         c1         c2         c3
      1      2     14     1   114.2100488 537.225600
      1      5     17     1   114.2100488 537.225600
      1      8     11     1   114.2100488 537.225600
      2      1      5     1   109.6600471 523.836800
      2      1      8     1   109.6600471 523.836800
      2     14     26     1   111.5100476 526.347200
      5      1      8     1   109.6600471 523.836800
      5     17     20     1   111.5100476 526.347200
      8     11     23     1   111.5100476 526.347200
     11     23     88     1   107.9700462 569.024000
     14     26    118     1   107.9700462 569.024000
     17     20     58     1   107.9700462 569.024000
     20     58     49     1   112.4800480 524.673600
     23     88     79     1   112.4800480 524.673600
     26    118    109     1   112.4800480 524.673600
     30     31     43     1   114.2100488 537.225600
     30     34     46     1   114.2100488 537.225600
     30     37     40     1   114.2100488 537.225600
     31     30     34     1   109.6600471 523.836800
     31     30     37     1   109.6600471 523.836800
     31     43     55     1   111.5100476 526.347200
     34     30     37     1   109.6600471 523.836800
     34     46     52     1   111.5100476 526.347200
     37     40     49     1   111.5100476 526.347200
     40     49     58     1   107.9700462 569.024000
     43     55    178     1   107.9700462 569.024000
     46     52    148     1   107.9700462 569.024000
     52    148    139     1   112.4800480 524.673600
     55    178    169     1   112.4800480 524.673600
     60     61     73     1   114.2100488 537.225600
     60     64     76     1   114.2100488 537.225600
     60     67     70     1   114.2100488 537.225600
     61     60     64     1   109.6600471 523.836800
     61     60     67     1   109.6600471 523.836800
     61     73     85     1   111.5100476 526.347200
     64     60     67     1   109.6600471 523.836800
     64     76     82     1   111.5100476 526.347200
     67     70     79     1   111.5100476 526.347200
     70     79     88     1   107.9700462 569.024000
     73     85    238     1   107.9700462 569.024000
     76     82    208     1   107.9700462 569.024000
     82    208    199     1   112.4800480 524.673600
     85    238    229     1   112.4800480 524.673600
     90     91    103     1   114.2100488 537.225600
     90     94    106     1   114.2100488 537.225600
     90     97    100     1   114.2100488 537.225600
     91     90     94     1   109.6600471 523.836800
     91     90     97     1   109.6600471 523.836800
     91    103    115     1   111.5100476 526.347200
     94     90     97     1   109.6600471 523.836800
     94    106    112     1   111.5100476 526.347200
     97    100    109     1   111.5100476 526.347200
    100    109    118     1   107.9700462 569.024000
    103    115    298     1   107.9700462 569.024000
    106    112    268     1   107.9700462 569.024000
    112    268    259     1   112.4800480 524.673600
    115    298    289     1   112.4800480 524.673600
    120    121    133     1   114.2100488 537.225600
    120    124    136     1   114.2100488 537.225600
    120    127    130     1   114.2100488 537.225600
    121    120    124     1   109.6600471 523.836800
    121    120    127     1   109.6600471 523.836800
    121    133    145     1   111.5100476 526.347200
    124    120    127     1   109.6600471 523.836800
    124    136    142     1   111.5100476 526.347200
    127    130    139     1   111.5100476 526.347200
    130    139    148     1   107.9700462 569.024000
    133    145    358     1   107.9700462 569.024000
    136    142    328     1   107.9700462 569.024000
    142    328    319     1   112.4800480 524.673600
    145    358    349     1   112.4800480 524.673600
    150    151    163     1   114.2100488 537.225600
    150    154    166     1   114.2100488 537.225600
    150    157    160     1   114.2100488 537.225600
    151    150    154     1   109.6600471 523.836800
    151    150    157     1   109.6600471 523.836800
    151    163    175     1   111.5100476 526.347200
    154    150    157     1   109.6600471 523.836800
    154    166    172     1   111.5100476 526.347200
    157    160    169     1   111.5100476 526.347200
    160    169    178     1   107.9700462 569.024000
    163    175    418     1   107.9700462 569.024000
    166    172    388     1   107.9700462 569.024000
    172    388    379     1   112.4800480 524.673600
    175    418    409     1   112.4800480 524.673600
    180    181    193     1   114.2100488 537.225600
    180    184    196     1   114.2100488 537.225600
    180    187    190     1   114.2100488 537.225600
    181    180    184     1   109.6600471 523.836800
    181    180    187     1   109.6600471 523.836800
    181    193    205     1   111.5100476 526.347200
    184    180    187     1   109.6600471 523.836800
    184    196    202     1   111.5100476 526.347200
    187    190    199     1   111.5100476 526.347200
    190    199    208     1   107.9700462 569.024000
    193    205    478     1   107.9700462 569.024000
    196    202    448     1   107.9700462 569.024000
    202    448    439     1   112.4800480 524.673600
    205    478    469     1   112.4800480 524.673600
    210    211    223     1   114.2100488 537.225600
    210    214    226     1   114.2100488 537.225600
    210    217    220     1   114.2100488 537.225600
    211    210    214     1   109.6600471 523.836800
    211    210    217     1   109.6600471 523.836800
    211    223    235     1   111.5100476 526.347200
    214    210    217     1   109.6600471 523.836800
    214    226    232     1   111.5100476 526.347200
    217    220    229     1   111.5100476 526.347200
    220    229    238     1   107.9700462 569.024000
    223    235    538     1   107.9700462 569.024000
    226    232    508     1   107.9700462 569.024000
    232    508    499     1   112.4800480 524.673600
    235    538    529     1   112.4800480 524.673600
    240    241    253     1   114.2100488 537.225600
    240    244    256     1   114.2100488 537.225600
    240    247    250     1   114.2100488 537.225600
    241    240    244     1   109.6600471 523.836800
    241    240    247     1   109.6600471 523.836800
    241    253    265     1   111.5100476 526.347200
    244    240    247     1   109.6600471 523.836800
    244    256    262     1   111.5100476 526.347200
    247    250    259     1   111.5100476 526.347200
    250    259    268     1   107.9700462 569.024000
    253    265    598     1   107.9700462 569.024000
    256    262    568     1   107.9700462 569.024000
    262    568    559     1   112.4800480 524.673600
    265    598    589     1   112.4800480 524.673600
    270    271    283     1   114.2100488 537.225600
    270    274    286     1   114.2100488 537.225600
    270    277    280     1   114.2100488 537.225600
    271    270    274     1   109.6600471 523.836800
    271    270    277     1   109.6600471 523.836800
    271    283    295     1   111.5100476 526.347200
    274    270    277     1   109.6600471 523.836800
    274    286    292     1   111.5100476 526.347200
    277    280    289     1   111.5100476 526.347200
    280    289    298     1   107.9700462 569.024000
    283    295    658     1   107.9700462 569.024000
    286    292    628     1   107.9700462 569.024000
    292    628    619     1   112.4800480 524.673600
    295    658    649     1   112.4800480 524.673600
    300    301    313     1   114.2100488 537.225600
    300    304    316     1   114.2100488 537.225600
    300    307    310     1   114.2100488 537.225600
    301    300    304     1   109.6600471 523.836800
    301    300    307     1   109.6600471 523.836800
    301    313    325     1   111.5100476 526.347200
    304    300    307     1   109.6600471 523.836800
    304    316    322     1   111.5100476 526.347200
    307    310    319     1   111.5100476 526.347200
    310    319    328     1   107.9700462 569.024000
    313    325    722     1   107.9700462 569.024000
    316    322    690     1   107.9700462 569.024000
    322    690    660     1   112.4800480 524.673600
    325    722    692     1   112.4800480 524.673600
    330    331    343     1   114.2100488 537.225600
    330    334    346     1   114.2100488 537.225600
    330    337    340     1   114.2100488 537.225600
    331    330    334     1   109.6600471 523.836800
    331    330    337     1   109.6600471 523.836800
    331    343    355     1   111.5100476 526.347200
    334    330    337     1   109.6600471 523.836800
    334    346    352     1   111.5100476 526.347200
    337    340    349     1   111.5100476 526.347200
    340    349    358     1   107.9700462 569.024000
    343    355    786     1   107.9700462 569.024000
    346    352    754     1   107.9700462 569.024000
    352    754    724     1   112.4800480 524.673600
    355    786    756     1   112.4800480 524.673600
    360    361    373     1   114.2100488 537.225600
    360    364    376     1   114.2100488 537.225600
    360    367    370     1   114.2100488 537.225600
    361    360    364     1   109.6600471 523.836800
    361    360    367     1   109.6600471 523.836800
    361    373    385     1   111.5100476 526.347200
    364    360    367     1   109.6600471 523.836800
    364    376    382     1   111.5100476 526.347200
    367    370    379     1   111.5100476 526.347200
    370    379    388     1   107.9700462 569.024000
    373    385    850     1   107.9700462 569.024000
    376    382    818     1   107.9700462 569.024000
    382    818    788     1   112.4800480 524.673600
    385    850    820     1   112.4800480 524.673600
    390    391    403     1   114.2100488 537.225600
    390    394    406     1   114.2100488 537.225600
    390    397    400     1   114.2100488 537.225600
    391    390    394     1   109.6600471 523.836800
    391    390    397     1   109.6600471 523.836800
    391    403    415     1   111.5100476 526.347200
    394    390    397     1   109.6600471 523.836800
    394    406    412     1   111.5100476 526.347200
    397    400    409     1   111.5100476 526.347200
    400    409    418     1   107.9700462 569.024000
    403    415    914     1   107.9700462 569.024000
    406    412    882     1   107.9700462 569.024000
    412    882    852     1   112.4800480 524.673600
    415    914    884     1   112.4800480 524.673600
    420    421    433     1   114.2100488 537.225600
    420    424    436     1   114.2100488 537.225600
    420    427    430     1   114.2100488 537.225600
    421    420    424     1   109.6600471 523.836800
    421    420    427     1   109.6600471 523.836800
    421    433    445     1   111.5100476 526.347200
    424    420    427     1   109.6600471 523.836800
    424    436    442     1   111.5100476 526.347200
    427    430    439     1   111.5100476 526.347200
    430    439    448     1   107.9700462 569.024000
    433    445    978     1   107.9700462 569.024000
    436    442    946     1   107.9700462 569.024000
    442    946    916     1   112.4800480 524.673600
    445    978    948     1   112.4800480 524.673600
    450    451    463     1   114.2100488 537.225600
    450    454    466     1   114.2100488 537.225600
    450    457    460     1   114.2100488 537.225600
    451    450    454     1   109.6600471 523.836800
    451    450    457     1   109.6600471 523.836800
    451    463    475     1   111.5100476 526.347200
    454    450    457     1   109.6600471 523.836800
    454    466    472     1   111.5100476 526.347200
    457    460    469     1   111.5100476 526.347200
    460    469    478     1   107.9700462 569.024000
    463    475   1042     1   107.9700462 569.024000
    466    472   1010     1   107.9700462 569.024000
    472   1010    980     1   112.4800480 524.673600
    475   1042   1012     1   112.4800480 524.673600
    480    481    493     1   114.2100488 537.225600
    480    484    496     1   114.2100488 537.225600
    480    487    490     1   114.2100488 537.225600
    481    480    484     1   109.6600471 523.836800
    481    480    487     1   109.6600471 523.836800
    481    493    505     1   111.5100476 526.347200
    484    480    487     1   109.6600471 523.836800
    484    496    502     1   111.5100476 526.347200
    487    490    499     1   111.5100476 526.347200
    490    499    508     1   107.9700462 569.024000
    493    505   1106     1   107.9700462 569.024000
    496    502   1074     1   107.9700462 569.024000
    502   1074   1044     1   112.4800480 524.673600
    505   1106   1076     1   112.4800480 524.673600
    510    511    523     1   114.2100488 537.225600
    510    514    526     1   114.2100488 537.225600
    510    517    520     1   114.2100488 537.225600
    511    510    514     1   109.6600471 523.836800
    511    510    517     1   109.6600471 523.836800
    511    523    535     1   111.5100476 526.347200
    514    510    517     1   109.6600471 523.836800
    514    526    532     1   111.5100476 526.347200
    517    520    529     1   111.5100476 526.347200
    520    529    538     1   107.9700462 569.024000
    523    535   1170     1   107.9700462 569.024000
    526    532   1138     1   107.9700462 569.024000
    532   1138   1108     1   112.4800480 524.673600
    535   1170   1140     1   112.4800480 524.673600
    540    541    553     1   114.2100488 537.225600
    540    544    556     1   114.2100488 537.225600
    540    547    550     1   114.2100488 537.225600
    541    540    544     1   109.6600471 523.836800
    541    540    547     1   109.6600471 523.836800
    541    553    565     1   111.5100476 526.347200
    544    540    547     1   109.6600471 523.836800
    544    556    562     1   111.5100476 526.347200
    547    550    559     1   111.5100476 526.347200
    550    559    568     1   107.9700462 569.024000
    553    565   1234     1   107.9700462 569.024000
    556    562   1202     1   107.9700462 569.024000
    562   1202   1172     1   112.4800480 524.673600
    565   1234   1204     1   112.4800480 524.673600
    570    571    583     1   114.2100488 537.225600
    570    574    586     1   114.2100488 537.225600
    570    577    580     1   114.2100488 537.225600
    571    570    574     1   109.6600471 523.836800
    571    570    577     1   109.6600471 523.836800
    571    583    595     1   111.5100476 526.347200
    574    570    577     1   109.6600471 523.836800
    574    586    592     1   111.5100476 526.347200
    577    580    589     1   111.5100476 526.347200
    580    589    598     1   107.9700462 569.024000
    583    595   1298     1   107.9700462 569.024000
    586    592   1266     1   107.9700462 569.024000
    592   1266   1236     1   112.4800480 524.673600
    595   1298   1268     1   112.4800480 524.673600
    600    601    613     1   114.2100488 537.225600
    600    604    616     1   114.2100488 537.225600
    600    607    610     1   114.2100488 537.225600
    601    600    604     1   109.6600471 523.836800
    601    600    607     1   109.6600471 523.836800
    601    613    625     1   111.5100476 526.347200
    604    600    607     1   109.6600471 523.836800
    604    616    622     1   111.5100476 526.347200
    607    610    619     1   111.5100476 526.347200
    610    619    628     1   107.9700462 569.024000
    613    625   1362     1   107.9700462 569.024000
    616    622   1330     1   107.9700462 569.024000
    622   1330   1300     1   112.4800480 524.673600
    625   1362   1332     1   112.4800480 524.673600
    630    631    643     1   114.2100488 537.225600
    630    634    646     1   114.2100488 537.225600
    630    637    640     1   114.2100488 537.225600
    631    630    634     1   109.6600471 523.836800
    631    630    637     1   109.6600471 523.836800
    631    643    655     1   111.5100476 526.347200
    634    630    637     1   109.6600471 523.836800
    634    646    652     1   111.5100476 526.347200
    637    640    649     1   111.5100476 526.347200
    640    649    658     1   107.9700462 569.024000
    643    655   1426     1   107.9700462 569.024000
    646    652   1394     1   107.9700462 569.024000
    652   1394   1364     1   112.4800480 524.673600
    655   1426   1396     1   112.4800480 524.673600
    660    663    666     1   111.5100476 526.347200
    663    660    690     1   107.9700462 569.024000
    663    666    669     1   114.2100488 537.225600
    666    669    670     1   109.6600471 523.836800
    666    669    680     1   109.6600471 523.836800
    669    670    673     1   114.2100488 537.225600
    669    680    683     1   114.2100488 537.225600
    670    669    680     1   109.6600471 523.836800
    670    673    676     1   111.0400475 529.694400
    673    676    677     1   123.2000528 564.003200
    673    676    678     1   112.7300484 572.371200
    677    676    678     1   122.1000523 635.131200
    680    683    686     1   111.0400475 529.694400
    683    686    687     1   123.2000528 564.003200
    683    686    688     1   112.7300484 572.371200
    687    686    688     1   122.1000523 635.131200
    692    695    698     1   111.5100476 526.347200
    695    698    701     1   114.2100488 537.225600
    695    692    722     1   107.9700462 569.024000
    698    701    702     1   109.6600471 523.836800
    698    701    712     1   109.6600471 523.836800
    701    702    705     1   114.2100488 537.225600
    701    712    715     1   114.2100488 537.225600
    702    705    708     1   111.0400475 529.694400
    702    701    712     1   109.6600471 523.836800
    705    708    709     1   123.2000528 564.003200
    705    708    710     1   112.7300484 572.371200
    709    708    710     1   122.1000523 635.131200
    712    715    718     1   111.0400475 529.694400
    715    718    719     1   123.2000528 564.003200
    715    718    720     1   112.7300484 572.371200
    719    718    720     1   122.1000523 635.131200
    724    727    730     1   111.5100476 526.347200
    727    724    754     1   107.9700462 569.024000
    727    730    733     1   114.2100488 537.225600
    730    733    734     1   109.6600471 523.836800
    730    733    744     1   109.6600471 523.836800
    733    734    737     1   114.2100488 537.225600
    733    744    747     1   114.2100488 537.225600
    734    733    744     1   109.6600471 523.836800
    734    737    740     1   111.0400475 529.694400
    737    740    741     1   123.2000528 564.003200
    737    740    742     1   112.7300484 572.371200
    741    740    742     1   122.1000523 635.131200
    744    747    750     1   111.0400475 529.694400
    747    750    751     1   123.2000528 564.003200
    747    750    752     1   112.7300484 572.371200
    751    750    752     1   122.1000523 635.131200
    756    759    762     1   111.5100476 526.347200
    759    762    765     1   114.2100488 537.225600
    759    756    786     1   107.9700462 569.024000
    762    765    766     1   109.6600471 523.836800
    762    765    776     1   109.6600471 523.836800
    765    766    769     1   114.2100488 537.225600
    765    776    779     1   114.2100488 537.225600
    766    769    772     1   111.0400475 529.694400
    766    765    776     1   109.6600471 523.836800
    769    772    773     1   123.2000528 564.003200
    769    772    774     1   112.7300484 572.371200
    773    772    774     1   122.1000523 635.131200
    776    779    782     1   111.0400475 529.694400
    779    782    783     1   123.2000528 564.003200
    779    782    784     1   112.7300484 572.371200
    783    782    784     1   122.1000523 635.131200
    788    791    794     1   111.5100476 526.347200
    791    788    818     1   107.9700462 569.024000
    791    794    797     1   114.2100488 537.225600
    794    797    798     1   109.6600471 523.836800
    794    797    808     1   109.6600471 523.836800
    797    798    801     1   114.2100488 537.225600
    797    808    811     1   114.2100488 537.225600
    798    797    808     1   109.6600471 523.836800
    798    801    804     1   111.0400475 529.694400
    801    804    805     1   123.2000528 564.003200
    801    804    806     1   112.7300484 572.371200
    805    804    806     1   122.1000523 635.131200
    808    811    814     1   111.0400475 529.694400
    811    814    815     1   123.2000528 564.003200
    811    814    816     1   112.7300484 572.371200
    815    814    816     1   122.1000523 635.131200
    820    823    826     1   111.5100476 526.347200
    823    826    829     1   114.2100488 537.225600
    823    820    850     1   107.9700462 569.024000
    826    829    830     1   109.6600471 523.836800
    826    829    840     1   109.6600471 523.836800
    829    830    833     1   114.2100488 537.225600
    829    840    843     1   114.2100488 537.225600
    830    833    836     1   111.0400475 529.694400
    830    829    840     1   109.6600471 523.836800
    833    836    837     1   123.2000528 564.003200
    833    836    838     1   112.7300484 572.371200
    837    836    838     1   122.1000523 635.131200
    840    843    846     1   111.0400475 529.694400
    843    846    847     1   123.2000528 564.003200
    843    846    848     1   112.7300484 572.371200
    847    846    848     1   122.1000523 635.131200
    852    855    858     1   111.5100476 526.347200
    855    852    882     1   107.9700462 569.024000
    855    858    861     1   114.2100488 537.225600
    858    861    862     1   109.6600471 523.836800
    858    861    872     1   109.6600471 523.836800
    861    862    865     1   114.2100488 537.225600
    861    872    875     1   114.2100488 537.225600
    862    861    872     1   109.6600471 523.836800
    862    865    868     1   111.0400475 529.694400
    865    868    869     1   123.2000528 564.003200
    865    868    870     1   112.7300484 572.371200
    869    868    870     1   122.1000523 635.131200
    872    875    878     1   111.0400475 529.694400
    875    878    879     1   123.2000528 564.003200
    875    878    880     1   112.7300484 572.371200
    879    878    880     1   122.1000523 635.131200
    884    887    890     1   111.5100476 526.347200
    887    890    893     1   114.2100488 537.225600
    887    884    914     1   107.9700462 569.024000
    890    893    894     1   109.6600471 523.836800
    890    893    904     1   109.6600471 523.836800
    893    894    897     1   114.2100488 537.225600
    893    904    907     1   114.2100488 537.225600
    894    897    900     1   111.0400475 529.694400
    894    893    904     1   109.6600471 523.836800
    897    900    901     1   123.2000528 564.003200
    897    900    902     1   112.7300484 572.371200
    901    900    902     1   122.1000523 635.131200
    904    907    910     1   111.0400475 529.694400
    907    910    911     1   123.2000528 564.003200
    907    910    912     1   112.7300484 572.371200
    911    910    912     1   122.1000523 635.131200
    916    919    922     1   111.5100476 526.347200
    919    916    946     1   107.9700462 569.024000
    919    922    925     1   114.2100488 537.225600
    922    925    926     1   109.6600471 523.836800
    922    925    936     1   109.6600471 523.836800
    925    926    929     1   114.2100488 537.225600
    925    936    939     1   114.2100488 537.225600
    926    925    936     1   109.6600471 523.836800
    926    929    932     1   111.0400475 529.694400
    929    932    933     1   123.2000528 564.003200
    929    932    934     1   112.7300484 572.371200
    933    932    934     1   122.1000523 635.131200
    936    939    942     1   111.0400475 529.694400
    939    942    943     1   123.2000528 564.003200
    939    942    944     1   112.7300484 572.371200
    943    942    944     1   122.1000523 635.131200
    948    951    954     1   111.5100476 526.347200
    951    954    957     1   114.2100488 537.225600
    951    948    978     1   107.9700462 569.024000
    954    957    958     1   109.6600471 523.836800
    954    957    968     1   109.6600471 523.836800
    957    958    961     1   114.2100488 537.225600
    957    968    971     1   114.2100488 537.225600
    958    961    964     1   111.0400475 529.694400
    958    957    968     1   109.6600471 523.836800
    961    964    965     1   123.2000528 564.003200
    961    964    966     1   112.7300484 572.371200
    965    964    966     1   122.1000523 635.131200
    968    971    974     1   111.0400475 529.694400
    971    974    975     1   123.2000528 564.003200
    971    974    976     1   112.7300484 572.371200
    975    974    976     1   122.1000523 635.131200
    980    983    986     1   111.5100476 526.347200
    983    980   1010     1   107.9700462 569.024000
    983    986    989     1   114.2100488 537.225600
    986    989    990     1   109.6600471 523.836800
    986    989   1000     1   109.6600471 523.836800
    989    990    993     1   114.2100488 537.225600
    989   1000   1003     1   114.2100488 537.225600
    990    989   1000     1   109.6600471 523.836800
    990    993    996     1   111.0400475 529.694400
    993    996    997     1   123.2000528 564.003200
    993    996    998     1   112.7300484 572.371200
    997    996    998     1   122.1000523 635.131200
   1000   1003   1006     1   111.0400475 529.694400
   1003   1006   1007     1   123.2000528 564.003200
   1003   1006   1008     1   112.7300484 572.371200
   1007   1006   1008     1   122.1000523 635.131200
   1012   1015   1018     1   111.5100476 526.347200
   1015   1018   1021     1   114.2100488 537.225600
   1015   1012   1042     1   107.9700462 569.024000
   1018   1021   1022     1   109.6600471 523.836800
   1018   1021   1032     1   109.6600471 523.836800
   1021   1022   1025     1   114.2100488 537.225600
   1021   1032   1035     1   114.2100488 537.225600
   1022   1025   1028     1   111.0400475 529.694400
   1022   1021   1032     1   109.6600471 523.836800
   1025   1028   1029     1   123.2000528 564.003200
   1025   1028   1030     1   112.7300484 572.371200
   1029   1028   1030     1   122.1000523 635.131200
   1032   1035   1038     1   111.0400475 529.694400
   1035   1038   1039     1   123.2000528 564.003200
   1035   1038   1040     1   112.7300484 572.371200
   1039   1038   1040     1   122.1000523 635.131200
   1044   1047   1050     1   111.5100476 526.347200
   1047   1044   1074     1   107.9700462 569.024000
   1047   1050   1053     1   114.2100488 537.225600
   1050   1053   1054     1   109.6600471 523.836800
   1050   1053   1064     1   109.6600471 523.836800
   1053   1054   1057     1   114.2100488 537.225600
   1053   1064   1067     1   114.2100488 537.225600
   1054   1053   1064     1   109.6600471 523.836800
   1054   1057   1060     1   111.0400475 529.694400
   1057   1060   1061     1   123.2000528 564.003200
   1057   1060   1062     1   112.7300484 572.371200
   1061   1060   1062     1   122.1000523 635.131200
   1064   1067   1070     1   111.0400475 529.694400
   1067   1070   1071     1   123.2000528 564.003200
   1067   1070   1072     1   112.7300484 572.371200
   1071   1070   1072     1   122.1000523 635.131200
   1076   1079   1082     1   111.5100476 526.347200
   1079   1082   1085     1   114.2100488 537.225600
   1079   1076   1106     1   107.9700462 569.024000
   1082   1085   1086     1   109.6600471 523.836800
   1082   1085   1096     1   109.6600471 523.836800
   1085   1086   1089     1   114.2100488 537.225600
   1085   1096   1099     1   114.2100488 537.225600
   1086   1089   1092     1   111.0400475 529.694400
   1086   1085   1096     1   109.6600471 523.836800
   1089   1092   1093     1   123.2000528 564.003200
   1089   1092   1094     1   112.7300484 572.371200
   1093   1092   1094     1   122.1000523 635.131200
   1096   1099   1102     1   111.0400475 529.694400
   1099   1102   1103     1   123.2000528 564.003200
   1099   1102   1104     1   112.7300484 572.371200
   1103   1102   1104     1   122.1000523 635.131200
   1108   1111   1114     1   111.5100476 526.347200
   1111   1108   1138     1   107.9700462 569.024000
   1111   1114   1117     1   114.2100488 537.225600
   1114   1117   1118     1   109.6600471 523.836800
   1114   1117   1128     1   109.6600471 523.836800
   1117   1118   1121     1   114.2100488 537.225600
   1117   1128   1131     1   114.2100488 537.225600
   1118   1117   1128     1   109.6600471 523.836800
   1118   1121   1124     1   111.0400475 529.694400
   1121   1124   1125     1   123.2000528 564.003200
   1121   1124   1126     1   112.7300484 572.371200
   1125   1124   1126     1   122.1000523 635.131200
   1128   1131   1134     1   111.0400475 529.694400
   1131   1134   1135     1   123.2000528 564.003200
   1131   1134   1136     1   112.7300484 572.371200
   1135   1134   1136     1   122.1000523 635.131200
   1140   1143   1146     1   111.5100476 526.347200
   1143   1146   1149     1   114.2100488 537.225600
   1143   1140   1170     1   107.9700462 569.024000
   1146   1149   1150     1   109.6600471 523.836800
   1146   1149   1160     1   109.6600471 523.836800
   1149   1150   1153     1   114.2100488 537.225600
   1149   1160   1163     1   114.2100488 537.225600
   1150   1153   1156     1   111.0400475 529.694400
   1150   1149   1160     1   109.6600471 523.836800
   1153   1156   1157     1   123.2000528 564.003200
   1153   1156   1158     1   112.7300484 572.371200
   1157   1156   1158     1   122.1000523 635.131200
   1160   1163   1166     1   111.0400475 529.694400
   1163   1166   1167     1   123.2000528 564.003200
   1163   1166   1168     1   112.7300484 572.371200
   1167   1166   1168     1   122.1000523 635.131200
   1172   1175   1178     1   111.5100476 526.347200
   1175   1172   1202     1   107.9700462 569.024000
   1175   1178   1181     1   114.2100488 537.225600
   1178   1181   1182     1   109.6600471 523.836800
   1178   1181   1192     1   109.6600471 523.836800
   1181   1182   1185     1   114.2100488 537.225600
   1181   1192   1195     1   114.2100488 537.225600
   1182   1181   1192     1   109.6600471 523.836800
   1182   1185   1188     1   111.0400475 529.694400
   1185   1188   1189     1   123.2000528 564.003200
   1185   1188   1190     1   112.7300484 572.371200
   1189   1188   1190     1   122.1000523 635.131200
   1192   1195   1198     1   111.0400475 529.694400
   1195   1198   1199     1   123.2000528 564.003200
   1195   1198   1200     1   112.7300484 572.371200
   1199   1198   1200     1   122.1000523 635.131200
   1204   1207   1210     1   111.5100476 526.347200
   1207   1210   1213     1   114.2100488 537.225600
   1207   1204   1234     1   107.9700462 569.024000
   1210   1213   1214     1   109.6600471 523.836800
   1210   1213   1224     1   109.6600471 523.836800
   1213   1214   1217     1   114.2100488 537.225600
   1213   1224   1227     1   114.2100488 537.225600
   1214   1217   1220     1   111.0400475 529.694400
   1214   1213   1224     1   109.6600471 523.836800
   1217   1220   1221     1   123.2000528 564.003200
   1217   1220   1222     1   112.7300484 572.371200
   1221   1220   1222     1   122.1000523 635.131200
   1224   1227   1230     1   111.0400475 529.694400
   1227   1230   1231     1   123.2000528 564.003200
   1227   1230   1232     1   112.7300484 572.371200
   1231   1230   1232     1   122.1000523 635.131200
   1236   1239   1242     1   111.5100476 526.347200
   1239   1236   1266     1   107.9700462 569.024000
   1239   1242   1245     1   114.2100488 537.225600
   1242   1245   1246     1   109.6600471 523.836800
   1242   1245   1256     1   109.6600471 523.836800
   1245   1246   1249     1   114.2100488 537.225600
   1245   1256   1259     1   114.2100488 537.225600
   1246   1245   1256     1   109.6600471 523.836800
   1246   1249   1252     1   111.0400475 529.694400
   1249   1252   1253     1   123.2000528 564.003200
   1249   1252   1254     1   112.7300484 572.371200
   1253   1252   1254     1   122.1000523 635.131200
   1256   1259   1262     1   111.0400475 529.694400
   1259   1262   1263     1   123.2000528 564.003200
   1259   1262   1264     1   112.7300484 572.371200
   1263   1262   1264     1   122.1000523 635.131200
   1268   1271   1274     1   111.5100476 526.347200
   1271   1274   1277     1   114.2100488 537.225600
   1271   1268   1298     1   107.9700462 569.024000
   1274   1277   1278     1   109.6600471 523.836800
   1274   1277   1288     1   109.6600471 523.836800
   1277   1278   1281     1   114.2100488 537.225600
   1277   1288   1291     1   114.2100488 537.225600
   1278   1281   1284     1   111.0400475 529.694400
   1278   1277   1288     1   109.6600471 523.836800
   1281   1284   1285     1   123.2000528 564.003200
   1281   1284   1286     1   112.7300484 572.371200
   1285   1284   1286     1   122.1000523 635.131200
   1288   1291   1294     1   111.0400475 529.694400
   1291   1294   1295     1   123.2000528 564.003200
   1291   1294   1296     1   112.7300484 572.371200
   1295   1294   1296     1   122.1000523 635.131200
   1300   1303   1306     1   111.5100476 526.347200
   1303   1300   1330     1   107.9700462 569.024000
   1303   1306   1309     1   114.2100488 537.225600
   1306   1309   1310     1   109.6600471 523.836800
   1306   1309   1320     1   109.6600471 523.836800
   1309   1310   1313     1   114.2100488 537.225600
   1309   1320   1323     1   114.2100488 537.225600
   1310   1309   1320     1   109.6600471 523.836800
   1310   1313   1316     1   111.0400475 529.694400
   1313   1316   1317     1   123.2000528 564.003200
   1313   1316   1318     1   112.7300484 572.371200
   1317   1316   1318     1   122.1000523 635.131200
   1320   1323   1326     1   111.0400475 529.694400
   1323   1326   1327     1   123.2000528 564.003200
   1323   1326   1328     1   112.7300484 572.371200
   1327   1326   1328     1   122.1000523 635.131200
   1332   1335   1338     1   111.5100476 526.347200
   1335   1338   1341     1   114.2100488 537.225600
   1335   1332   1362     1   107.9700462 569.024000
   1338   1341   1342     1   109.6600471 523.836800
   1338   1341   1352     1   109.6600471 523.836800
   1341   1342   1345     1   114.2100488 537.225600
   1341   1352   1355     1   114.2100488 537.225600
   1342   1345   1348     1   111.0400475 529.694400
   1342   1341   1352     1   109.6600471 523.836800
   1345   1348   1349     1   123.2000528 564.003200
   1345   1348   1350     1   112.7300484 572.371200
   1349   1348   1350     1   122.1000523 635.131200
   1352   1355   1358     1   111.0400475 529.694400
   1355   1358   1359     1   123.2000528 564.003200
   1355   1358   1360     1   112.7300484 572.371200
   1359   1358   1360     1   122.1000523 635.131200
   1364   1367   1370     1   111.5100476 526.347200
   1367   1364   1394     1   107.9700462 569.024000
   1367   1370   1373     1   114.2100488 537.225600
   1370   1373   1374     1   109.6600471 523.836800
   1370   1373   1384     1   109.6600471 523.836800
   1373   1374   1377     1   114.2100488 537.225600
   1373   1384   1387     1   114.2100488 537.225600
   1374   1373   1384     1   109.6600471 523.836800
   1374   1377   1380     1   111.0400475 529.694400
   1377   1380   1381     1   123.2000528 564.003200
   1377   1380   1382     1   112.7300484 572.371200
   1381   1380   1382     1   122.1000523 635.131200
   1384   1387   1390     1   111.0400475 529.694400
   1387   1390   1391     1   123.2000528 564.003200
   1387   1390   1392     1   112.7300484 572.371200
   1391   1390   1392     1   122.1000523 635.131200
   1396   1399   1402     1   111.5100476 526.347200
   1399   1402   1405     1   114.2100488 537.225600
   1399   1396   1426     1   107.9700462 569.024000
   1402   1405   1406     1   109.6600471 523.836800
   1402   1405   1416     1   109.6600471 523.836800
   1405   1406   1409     1   114.2100488 537.225600
   1405   1416   1419     1   114.2100488 537.225600
   1406   1409   1412     1   111.0400475 529.694400
   1406   1405   1416     1   109.6600471 523.836800
   1409   1412   1413     1   123.2000528 564.003200
   1409   1412   1414     1   112.7300484 572.371200
   1413   1412   1414     1   122.1000523 635.131200
   1416   1419   1422     1   111.0400475 529.694400
   1419   1422   1423     1   123.2000528 564.003200
   1419   1422   1424     1   112.7300484 572.371200
   1423   1422   1424     1   122.1000523 635.131200
      1      2      3     1   108.0100461 406.684800
      1      2      4     1   108.0100461 406.684800
      1      5      6     1   108.0100461 406.684800
      1      5      7     1   108.0100461 406.684800
      1      8      9     1   108.0100461 406.684800
      1      8     10     1   108.0100461 406.684800
      2      1     29     1   110.1100470 384.091200
      2     14     15     1   109.8000471 387.438400
      2     14     16     1   109.8000471 387.438400
      3      2     14     1   110.5600475 386.601600
      3      2      4     1   109.7500473 328.025600
      4      2     14     1   110.5600475 386.601600
      5      1     29     1   110.1100470 384.091200
      5     17     18     1   109.8000471 387.438400
      5     17     19     1   109.8000471 387.438400
      6      5     17     1   110.5600475 386.601600
      6      5      7     1   109.7500473 328.025600
      7      5     17     1   110.5600475 386.601600
      8      1     29     1   110.1100470 384.091200
      8     11     12     1   109.8000471 387.438400
      8     11     13     1   109.8000471 387.438400
      9      8     11     1   110.5600475 386.601600
      9      8     10     1   109.7500473 328.025600
     10      8     11     1   110.5600475 386.601600
     11     23     24     1   109.5600471 388.275200
     11     23     25     1   109.5600471 388.275200
     12     11     23     1   109.8000471 387.438400
     12     11     13     1   107.5800459 329.699200
     13     11     23     1   109.8000471 387.438400
     14     26     27     1   109.5600471 388.275200
     14     26     28     1   109.5600471 388.275200
     15     14     26     1   109.8000471 387.438400
     15     14     16     1   107.5800459 329.699200
     16     14     26     1   109.8000471 387.438400
     17     20     21     1   109.5600471 388.275200
     17     20     22     1   109.5600471 388.275200
     18     17     20     1   109.8000471 387.438400
     18     17     19     1   107.5800459 329.699200
     19     17     20     1   109.8000471 387.438400
     21     20     58     1   109.7800468 425.094400
     21     20     22     1   108.4600466 328.025600
     22     20     58     1   109.7800468 425.094400
     24     23     88     1   109.7800468 425.094400
     24     23     25     1   108.4600466 328.025600
     25     23     88     1   109.7800468 425.094400
     27     26    118     1   109.7800468 425.094400
     27     26     28     1   108.4600466 328.025600
     28     26    118     1   109.7800468 425.094400
     30     31     32     1   108.0100461 406.684800
     30     31     33     1   108.0100461 406.684800
     30     34     35     1   108.0100461 406.684800
     30     34     36     1   108.0100461 406.684800
     30     37     38     1   108.0100461 406.684800
     30     37     39     1   108.0100461 406.684800
     31     30     59     1   110.1100470 384.091200
     31     43     44     1   109.8000471 387.438400
     31     43     45     1   109.8000471 387.438400
     32     31     43     1   110.5600475 386.601600
     32     31     33     1   109.7500473 328.025600
     33     31     43     1   110.5600475 386.601600
     34     30     59     1   110.1100470 384.091200
     34     46     47     1   109.8000471 387.438400
     34     46     48     1   109.8000471 387.438400
     35     34     46     1   110.5600475 386.601600
     35     34     36     1   109.7500473 328.025600
     36     34     46     1   110.5600475 386.601600
     37     30     59     1   110.1100470 384.091200
     37     40     41     1   109.8000471 387.438400
     37     40     42     1   109.8000471 387.438400
     38     37     40     1   110.5600475 386.601600
     38     37     39     1   109.7500473 328.025600
     39     37     40     1   110.5600475 386.601600
     40     49     50     1   109.5600471 388.275200
     40     49     51     1   109.5600471 388.275200
     41     40     49     1   109.8000471 387.438400
     41     40     42     1   107.5800459 329.699200
     42     40     49     1   109.8000471 387.438400
     43     55     56     1   109.5600471 388.275200
     43     55     57     1   109.5600471 388.275200
     44     43     55     1   109.8000471 387.438400
     44     43     45     1   107.5800459 329.699200
     45     43     55     1   109.8000471 387.438400
     46     52     53     1   109.5600471 388.275200
     46     52     54     1   109.5600471 388.275200
     47     46     52     1   109.8000471 387.438400
     47     46     48     1   107.5800459 329.699200
     48     46     52     1   109.8000471 387.438400
     50     49     58     1   109.7800468 425.094400
     50     49     51     1   108.4600466 328.025600
     51     49     58     1   109.7800468 425.094400
     53     52    148     1   109.7800468 425.094400
     53     52     54     1   108.4600466 328.025600
     54     52    148     1   109.7800468 425.094400
     56     55    178     1   109.7800468 425.094400
     56     55     57     1   108.4600466 328.025600
     57     55    178     1   109.7800468 425.094400
     60     61     62     1   108.0100461 406.684800
     60     61     63     1   108.0100461 406.684800
     60     64     65     1   108.0100461 406.684800
     60     64     66     1   108.0100461 406.684800
     60     67     68     1   108.0100461 406.684800
     60     67     69     1   108.0100461 406.684800
     61     60     89     1   110.1100470 384.091200
     61     73     74     1   109.8000471 387.438400
     61     73     75     1   109.8000471 387.438400
     62     61     73     1   110.5600475 386.601600
     62     61     63     1   109.7500473 328.025600
     63     61     73     1   110.5600475 386.601600
     64     60     89     1   110.1100470 384.091200
     64     76     77     1   109.8000471 387.438400
     64     76     78     1   109.8000471 387.438400
     65     64     76     1   110.5600475 386.601600
     65     64     66     1   109.7500473 328.025600
     66     64     76     1   110.5600475 386.601600
     67     60     89     1   110.1100470 384.091200
     67     70     71     1   109.8000471 387.438400
     67     70     72     1   109.8000471 387.438400
     68     67     70     1   110.5600475 386.601600
     68     67     69     1   109.7500473 328.025600
     69     67     70     1   110.5600475 386.601600
     70     79     80     1   109.5600471 388.275200
     70     79     81     1   109.5600471 388.275200
     71     70     79     1   109.8000471 387.438400
     71     70     72     1   107.5800459 329.699200
     72     70     79     1   109.8000471 387.438400
     73     85     86     1   109.5600471 388.275200
     73     85     87     1   109.5600471 388.275200
     74     73     85     1   109.8000471 387.438400
     74     73     75     1   107.5800459 329.699200
     75     73     85     1   109.8000471 387.438400
     76     82     83     1   109.5600471 388.275200
     76     82     84     1   109.5600471 388.275200
     77     76     82     1   109.8000471 387.438400
     77     76     78     1   107.5800459 329.699200
     78     76     82     1   109.8000471 387.438400
     80     79     88     1   109.7800468 425.094400
     80     79     81     1   108.4600466 328.025600
     81     79     88     1   109.7800468 425.094400
     83     82    208     1   109.7800468 425.094400
     83     82     84     1   108.4600466 328.025600
     84     82    208     1   109.7800468 425.094400
     86     85    238     1   109.7800468 425.094400
     86     85     87     1   108.4600466 328.025600
     87     85    238     1   109.7800468 425.094400
     90     91     92     1   108.0100461 406.684800
     90     91     93     1   108.0100461 406.684800
     90     94     95     1   108.0100461 406.684800
     90     94     96     1   108.0100461 406.684800
     90     97     98     1   108.0100461 406.684800
     90     97     99     1   108.0100461 406.684800
     91     90    119     1   110.1100470 384.091200
     91    103    104     1   109.8000471 387.438400
     91    103    105     1   109.8000471 387.438400
     92     91    103     1   110.5600475 386.601600
     92     91     93     1   109.7500473 328.025600
     93     91    103     1   110.5600475 386.601600
     94     90    119     1   110.1100470 384.091200
     94    106    107     1   109.8000471 387.438400
     94    106    108     1   109.8000471 387.438400
     95     94    106     1   110.5600475 386.601600
     95     94     96     1   109.7500473 328.025600
     96     94    106     1   110.5600475 386.601600
     97     90    119     1   110.1100470 384.091200
     97    100    101     1   109.8000471 387.438400
     97    100    102     1   109.8000471 387.438400
     98     97    100     1   110.5600475 386.601600
     98     97     99     1   109.7500473 328.025600
     99     97    100     1   110.5600475 386.601600
    100    109    110     1   109.5600471 388.275200
    100    109    111     1   109.5600471 388.275200
    101    100    109     1   109.8000471 387.438400
    101    100    102     1   107.5800459 329.699200
    102    100    109     1   109.8000471 387.438400
    103    115    116     1   109.5600471 388.275200
    103    115    117     1   109.5600471 388.275200
    104    103    115     1   109.8000471 387.438400
    104    103    105     1   107.5800459 329.699200
    105    103    115     1   109.8000471 387.438400
    106    112    113     1   109.5600471 388.275200
    106    112    114     1   109.5600471 388.275200
    107    106    112     1   109.8000471 387.438400
    107    106    108     1   107.5800459 329.699200
    108    106    112     1   109.8000471 387.438400
    110    109    118     1   109.7800468 425.094400
    110    109    111     1   108.4600466 328.025600
    111    109    118     1   109.7800468 425.094400
    113    112    268     1   109.7800468 425.094400
    113    112    114     1   108.4600466 328.025600
    114    112    268     1   109.7800468 425.094400
    116    115    298     1   109.7800468 425.094400
    116    115    117     1   108.4600466 328.025600
    117    115    298     1   109.7800468 425.094400
    120    121    122     1   108.0100461 406.684800
    120    121    123     1   108.0100461 406.684800
    120    124    125     1   108.0100461 406.684800
    120    124    126     1   108.0100461 406.684800
    120    127    128     1   108.0100461 406.684800
    120    127    129     1   108.0100461 406.684800
    121    120    149     1   110.1100470 384.091200
    121    133    134     1   109.8000471 387.438400
    121    133    135     1   109.8000471 387.438400
    122    121    133     1   110.5600475 386.601600
    122    121    123     1   109.7500473 328.025600
    123    121    133     1   110.5600475 386.601600
    124    120    149     1   110.1100470 384.091200
    124    136    137     1   109.8000471 387.438400
    124    136    138     1   109.8000471 387.438400
    125    124    136     1   110.5600475 386.601600
    125    124    126     1   109.7500473 328.025600
    126    124    136     1   110.5600475 386.601600
    127    120    149     1   110.1100470 384.091200
    127    130    131     1   109.8000471 387.438400
    127    130    132     1   109.8000471 387.438400
    128    127    130     1   110.5600475 386.601600
    128    127    129     1   109.7500473 328.025600
    129    127    130     1   110.5600475 386.601600
    130    139    140     1   109.5600471 388.275200
    130    139    141     1   109.5600471 388.275200
    131    130    139     1   109.8000471 387.438400
    131    130    132     1   107.5800459 329.699200
    132    130    139     1   109.8000471 387.438400
    133    145    146     1   109.5600471 388.275200
    133    145    147     1   109.5600471 388.275200
    134    133    145     1   109.8000471 387.438400
    134    133    135     1   107.5800459 329.699200
    135    133    145     1   109.8000471 387.438400
    136    142    143     1   109.5600471 388.275200
    136    142    144     1   109.5600471 388.275200
    137    136    142     1   109.8000471 387.438400
    137    136    138     1   107.5800459 329.699200
    138    136    142     1   109.8000471 387.438400
    140    139    148     1   109.7800468 425.094400
    140    139    141     1   108.4600466 328.025600
    141    139    148     1   109.7800468 425.094400
    143    142    328     1   109.7800468 425.094400
    143    142    144     1   108.4600466 328.025600
    144    142    328     1   109.7800468 425.094400
    146    145    358     1   109.7800468 425.094400
    146    145    147     1   108.4600466 328.025600
    147    145    358     1   109.7800468 425.094400
    150    151    152     1   108.0100461 406.684800
    150    151    153     1   108.0100461 406.684800
    150    154    155     1   108.0100461 406.684800
    150    154    156     1   108.0100461 406.684800
    150    157    158     1   108.0100461 406.684800
    150    157    159     1   108.0100461 406.684800
    151    150    179     1   110.1100470 384.091200
    151    163    164     1   109.8000471 387.438400
    151    163    165     1   109.8000471 387.438400
    152    151    163     1   110.5600475 386.601600
    152    151    153     1   109.7500473 328.025600
    153    151    163     1   110.5600475 386.601600
    154    150    179     1   110.1100470 384.091200
    154    166    167     1   109.8000471 387.438400
    154    166    168     1   109.8000471 387.438400
    155    154    166     1   110.5600475 386.601600
    155    154    156     1   109.7500473 328.025600
    156    154    166     1   110.5600475 386.601600
    157    150    179     1   110.1100470 384.091200
    157    160    161     1   109.8000471 387.438400
    157    160    162     1   109.8000471 387.438400
    158    157    160     1   110.5600475 386.601600
    158    157    159     1   109.7500473 328.025600
    159    157    160     1   110.5600475 386.601600
    160    169    170     1   109.5600471 388.275200
    160    169    171     1   109.5600471 388.275200
    161    160    169     1   109.8000471 387.438400
    161    160    162     1   107.5800459 329.699200
    162    160    169     1   109.8000471 387.438400
    163    175    176     1   109.5600471 388.275200
    163    175    177     1   109.5600471 388.275200
    164    163    175     1   109.8000471 387.438400
    164    163    165     1   107.5800459 329.699200
    165    163    175     1   109.8000471 387.438400
    166    172    173     1   109.5600471 388.275200
    166    172    174     1   109.5600471 388.275200
    167    166    172     1   109.8000471 387.438400
    167    166    168     1   107.5800459 329.699200
    168    166    172     1   109.8000471 387.438400
    170    169    178     1   109.7800468 425.094400
    170    169    171     1   108.4600466 328.025600
    171    169    178     1   109.7800468 425.094400
    173    172    388     1   109.7800468 425.094400
    173    172    174     1   108.4600466 328.025600
    174    172    388     1   109.7800468 425.094400
    176    175    418     1   109.7800468 425.094400
    176    175    177     1   108.4600466 328.025600
    177    175    418     1   109.7800468 425.094400
    180    181    182     1   108.0100461 406.684800
    180    181    183     1   108.0100461 406.684800
    180    184    185     1   108.0100461 406.684800
    180    184    186     1   108.0100461 406.684800
    180    187    188     1   108.0100461 406.684800
    180    187    189     1   108.0100461 406.684800
    181    180    209     1   110.1100470 384.091200
    181    193    194     1   109.8000471 387.438400
    181    193    195     1   109.8000471 387.438400
    182    181    193     1   110.5600475 386.601600
    182    181    183     1   109.7500473 328.025600
    183    181    193     1   110.5600475 386.601600
    184    180    209     1   110.1100470 384.091200
    184    196    197     1   109.8000471 387.438400
    184    196    198     1   109.8000471 387.438400
    185    184    196     1   110.5600475 386.601600
    185    184    186     1   109.7500473 328.025600
    186    184    196     1   110.5600475 386.601600
    187    180    209     1   110.1100470 384.091200
    187    190    191     1   109.8000471 387.438400
    187    190    192     1   109.8000471 387.438400
    188    187    190     1   110.5600475 386.601600
    188    187    189     1   109.7500473 328.025600
    189    187    190     1   110.5600475 386.601600
    190    199    200     1   109.5600471 388.275200
    190    199    201     1   109.5600471 388.275200
    191    190    199     1   109.8000471 387.438400
    191    190    192     1   107.5800459 329.699200
    192    190    199     1   109.8000471 387.438400
    193    205    206     1   109.5600471 388.275200
    193    205    207     1   109.5600471 388.275200
    194    193    205     1   109.8000471 387.438400
    194    193    195     1   107.5800459 329.699200
    195    193    205     1   109.8000471 387.438400
    196    202    203     1   109.5600471 388.275200
    196    202    204     1   109.5600471 388.275200
    197    196    202     1   109.8000471 387.438400
    197    196    198     1   107.5800459 329.699200
    198    196    202     1   109.8000471 387.438400
    200    199    208     1   109.7800468 425.094400
    200    199    201     1   108.4600466 328.025600
    201    199    208     1   109.7800468 425.094400
    203    202    448     1   109.7800468 425.094400
    203    202    204     1   108.4600466 328.025600
    204    202    448     1   109.7800468 425.094400
    206    205    478     1   109.7800468 425.094400
    206    205    207     1   108.4600466 328.025600
    207    205    478     1   109.7800468 425.094400
    210    211    212     1   108.0100461 406.684800
    210    211    213     1   108.0100461 406.684800
    210    214    215     1   108.0100461 406.684800
    210    214    216     1   108.0100461 406.684800
    210    217    218     1   108.0100461 406.684800
    210    217    219     1   108.0100461 406.684800
    211    210    239     1   110.1100470 384.091200
    211    223    224     1   109.8000471 387.438400
    211    223    225     1   109.8000471 387.438400
    212    211    223     1   110.5600475 386.601600
    212    211    213     1   109.7500473 328.025600
    213    211    223     1   110.5600475 386.601600
    214    210    239     1   110.1100470 384.091200
    214    226    227     1   109.8000471 387.438400
    214    226    228     1   109.8000471 387.438400
    215    214    226     1   110.5600475 386.601600
    215    214    216     1   109.7500473 328.025600
    216    214    226     1   110.5600475 386.601600
    217    210    239     1   110.1100470 384.091200
    217    220    221     1   109.8000471 387.438400
    217    220    222     1   109.8000471 387.438400
    218    217    220     1   110.5600475 386.601600
    218    217    219     1   109.7500473 328.025600
    219    217    220     1   110.5600475 386.601600
    220    229    230     1   109.5600471 388.275200
    220    229    231     1   109.5600471 388.275200
    221    220    229     1   109.8000471 387.438400
    221    220    222     1   107.5800459 329.699200
    222    220    229     1   109.8000471 387.438400
    223    235    236     1   109.5600471 388.275200
    223    235    237     1   109.5600471 388.275200
    224    223    235     1   109.8000471 387.438400
    224    223    225     1   107.5800459 329.699200
    225    223    235     1   109.8000471 387.438400
    226    232    233     1   109.5600471 388.275200
    226    232    234     1   109.5600471 388.275200
    227    226    232     1   109.8000471 387.438400
    227    226    228     1   107.5800459 329.699200
    228    226    232     1   109.8000471 387.438400
    230    229    238     1   109.7800468 425.094400
    230    229    231     1   108.4600466 328.025600
    231    229    238     1   109.7800468 425.094400
    233    232    508     1   109.7800468 425.094400
    233    232    234     1   108.4600466 328.025600
    234    232    508     1   109.7800468 425.094400
    236    235    538     1   109.7800468 425.094400
    236    235    237     1   108.4600466 328.025600
    237    235    538     1   109.7800468 425.094400
    240    241    242     1   108.0100461 406.684800
    240    241    243     1   108.0100461 406.684800
    240    244    245     1   108.0100461 406.684800
    240    244    246     1   108.0100461 406.684800
    240    247    248     1   108.0100461 406.684800
    240    247    249     1   108.0100461 406.684800
    241    240    269     1   110.1100470 384.091200
    241    253    254     1   109.8000471 387.438400
    241    253    255     1   109.8000471 387.438400
    242    241    253     1   110.5600475 386.601600
    242    241    243     1   109.7500473 328.025600
    243    241    253     1   110.5600475 386.601600
    244    240    269     1   110.1100470 384.091200
    244    256    257     1   109.8000471 387.438400
    244    256    258     1   109.8000471 387.438400
    245    244    256     1   110.5600475 386.601600
    245    244    246     1   109.7500473 328.025600
    246    244    256     1   110.5600475 386.601600
    247    240    269     1   110.1100470 384.091200
    247    250    251     1   109.8000471 387.438400
    247    250    252     1   109.8000471 387.438400
    248    247    250     1   110.5600475 386.601600
    248    247    249     1   109.7500473 328.025600
    249    247    250     1   110.5600475 386.601600
    250    259    260     1   109.5600471 388.275200
    250    259    261     1   109.5600471 388.275200
    251    250    259     1   109.8000471 387.438400
    251    250    252     1   107.5800459 329.699200
    252    250    259     1   109.8000471 387.438400
    253    265    266     1   109.5600471 388.275200
    253    265    267     1   109.5600471 388.275200
    254    253    265     1   109.8000471 387.438400
    254    253    255     1   107.5800459 329.699200
    255    253    265     1   109.8000471 387.438400
    256    262    263     1   109.5600471 388.275200
    256    262    264     1   109.5600471 388.275200
    257    256    262     1   109.8000471 387.438400
    257    256    258     1   107.5800459 329.699200
    258    256    262     1   109.8000471 387.438400
    260    259    268     1   109.7800468 425.094400
    260    259    261     1   108.4600466 328.025600
    261    259    268     1   109.7800468 425.094400
    263    262    568     1   109.7800468 425.094400
    263    262    264     1   108.4600466 328.025600
    264    262    568     1   109.7800468 425.094400
    266    265    598     1   109.7800468 425.094400
    266    265    267     1   108.4600466 328.025600
    267    265    598     1   109.7800468 425.094400
    270    271    272     1   108.0100461 406.684800
    270    271    273     1   108.0100461 406.684800
    270    274    275     1   108.0100461 406.684800
    270    274    276     1   108.0100461 406.684800
    270    277    278     1   108.0100461 406.684800
    270    277    279     1   108.0100461 406.684800
    271    270    299     1   110.1100470 384.091200
    271    283    284     1   109.8000471 387.438400
    271    283    285     1   109.8000471 387.438400
    272    271    283     1   110.5600475 386.601600
    272    271    273     1   109.7500473 328.025600
    273    271    283     1   110.5600475 386.601600
    274    270    299     1   110.1100470 384.091200
    274    286    287     1   109.8000471 387.438400
    274    286    288     1   109.8000471 387.438400
    275    274    286     1   110.5600475 386.601600
    275    274    276     1   109.7500473 328.025600
    276    274    286     1   110.5600475 386.601600
    277    270    299     1   110.1100470 384.091200
    277    280    281     1   109.8000471 387.438400
    277    280    282     1   109.8000471 387.438400
    278    277    280     1   110.5600475 386.601600
    278    277    279     1   109.7500473 328.025600
    279    277    280     1   110.5600475 386.601600
    280    289    290     1   109.5600471 388.275200
    280    289    291     1   109.5600471 388.275200
    281    280    289     1   109.8000471 387.438400
    281    280    282     1   107.5800459 329.699200
    282    280    289     1   109.8000471 387.438400
    283    295    296     1   109.5600471 388.275200
    283    295    297     1   109.5600471 388.275200
    284    283    295     1   109.8000471 387.438400
    284    283    285     1   107.5800459 329.699200
    285    283    295     1   109.8000471 387.438400
    286    292    293     1   109.5600471 388.275200
    286    292    294     1   109.5600471 388.275200
    287    286    292     1   109.8000471 387.438400
    287    286    288     1   107.5800459 329.699200
    288    286    292     1   109.8000471 387.438400
    290    289    298     1   109.7800468 425.094400
    290    289    291     1   108.4600466 328.025600
    291    289    298     1   109.7800468 425.094400
    293    292    628     1   109.7800468 425.094400
    293    292    294     1   108.4600466 328.025600
    294    292    628     1   109.7800468 425.094400
    296    295    658     1   109.7800468 425.094400
    296    295    297     1   108.4600466 328.025600
    297    295    658     1   109.7800468 425.094400
    300    301    302     1   108.0100461 406.684800
    300    301    303     1   108.0100461 406.684800
    300    304    305     1   108.0100461 406.684800
    300    304    306     1   108.0100461 406.684800
    300    307    308     1   108.0100461 406.684800
    300    307    309     1   108.0100461 406.684800
    301    300    329     1   110.1100470 384.091200
    301    313    314     1   109.8000471 387.438400
    301    313    315     1   109.8000471 387.438400
    302    301    313     1   110.5600475 386.601600
    302    301    303     1   109.7500473 328.025600
    303    301    313     1   110.5600475 386.601600
    304    300    329     1   110.1100470 384.091200
    304    316    317     1   109.8000471 387.438400
    304    316    318     1   109.8000471 387.438400
    305    304    316     1   110.5600475 386.601600
    305    304    306     1   109.7500473 328.025600
    306    304    316     1   110.5600475 386.601600
    307    300    329     1   110.1100470 384.091200
    307    310    311     1   109.8000471 387.438400
    307    310    312     1   109.8000471 387.438400
    308    307    310     1   110.5600475 386.601600
    308    307    309     1   109.7500473 328.025600
    309    307    310     1   110.5600475 386.601600
    310    319    320     1   109.5600471 388.275200
    310    319    321     1   109.5600471 388.275200
    311    310    319     1   109.8000471 387.438400
    311    310    312     1   107.5800459 329.699200
    312    310    319     1   109.8000471 387.438400
    313    325    326     1   109.5600471 388.275200
    313    325    327     1   109.5600471 388.275200
    314    313    325     1   109.8000471 387.438400
    314    313    315     1   107.5800459 329.699200
    315    313    325     1   109.8000471 387.438400
    316    322    323     1   109.5600471 388.275200
    316    322    324     1   109.5600471 388.275200
    317    316    322     1   109.8000471 387.438400
    317    316    318     1   107.5800459 329.699200
    318    316    322     1   109.8000471 387.438400
    320    319    328     1   109.7800468 425.094400
    320    319    321     1   108.4600466 328.025600
    321    319    328     1   109.7800468 425.094400
    323    322    690     1   109.7800468 425.094400
    323    322    324     1   108.4600466 328.025600
    324    322    690     1   109.7800468 425.094400
    326    325    722     1   109.7800468 425.094400
    326    325    327     1   108.4600466 328.025600
    327    325    722     1   109.7800468 425.094400
    330    331    332     1   108.0100461 406.684800
    330    331    333     1   108.0100461 406.684800
    330    334    335     1   108.0100461 406.684800
    330    334    336     1   108.0100461 406.684800
    330    337    338     1   108.0100461 406.684800
    330    337    339     1   108.0100461 406.684800
    331    330    359     1   110.1100470 384.091200
    331    343    344     1   109.8000471 387.438400
    331    343    345     1   109.8000471 387.438400
    332    331    343     1   110.5600475 386.601600
    332    331    333     1   109.7500473 328.025600
    333    331    343     1   110.5600475 386.601600
    334    330    359     1   110.1100470 384.091200
    334    346    347     1   109.8000471 387.438400
    334    346    348     1   109.8000471 387.438400
    335    334    346     1   110.5600475 386.601600
    335    334    336     1   109.7500473 328.025600
    336    334    346     1   110.5600475 386.601600
    337    330    359     1   110.1100470 384.091200
    337    340    341     1   109.8000471 387.438400
    337    340    342     1   109.8000471 387.438400
    338    337    340     1   110.5600475 386.601600
    338    337    339     1   109.7500473 328.025600
    339    337    340     1   110.5600475 386.601600
    340    349    350     1   109.5600471 388.275200
    340    349    351     1   109.5600471 388.275200
    341    340    349     1   109.8000471 387.438400
    341    340    342     1   107.5800459 329.699200
    342    340    349     1   109.8000471 387.438400
    343    355    356     1   109.5600471 388.275200
    343    355    357     1   109.5600471 388.275200
    344    343    355     1   109.8000471 387.438400
    344    343    345     1   107.5800459 329.699200
    345    343    355     1   109.8000471 387.438400
    346    352    353     1   109.5600471 388.275200
    346    352    354     1   109.5600471 388.275200
    347    346    352     1   109.8000471 387.438400
    347    346    348     1   107.5800459 329.699200
    348    346    352     1   109.8000471 387.438400
    350    349    358     1   109.7800468 425.094400
    350    349    351     1   108.4600466 328.025600
    351    349    358     1   109.7800468 425.094400
    353    352    754     1   109.7800468 425.094400
    353    352    354     1   108.4600466 328.025600
    354    352    754     1   109.7800468 425.094400
    356    355    786     1   109.7800468 425.094400
    356    355    357     1   108.4600466 328.025600
    357    355    786     1   109.7800468 425.094400
    360    361    362     1   108.0100461 406.684800
    360    361    363     1   108.0100461 406.684800
    360    364    365     1   108.0100461 406.684800
    360    364    366     1   108.0100461 406.684800
    360    367    368     1   108.0100461 406.684800
    360    367    369     1   108.0100461 406.684800
    361    360    389     1   110.1100470 384.091200
    361    373    374     1   109.8000471 387.438400
    361    373    375     1   109.8000471 387.438400
    362    361    373     1   110.5600475 386.601600
    362    361    363     1   109.7500473 328.025600
    363    361    373     1   110.5600475 386.601600
    364    360    389     1   110.1100470 384.091200
    364    376    377     1   109.8000471 387.438400
    364    376    378     1   109.8000471 387.438400
    365    364    376     1   110.5600475 386.601600
    365    364    366     1   109.7500473 328.025600
    366    364    376     1   110.5600475 386.601600
    367    360    389     1   110.1100470 384.091200
    367    370    371     1   109.8000471 387.438400
    367    370    372     1   109.8000471 387.438400
    368    367    370     1   110.5600475 386.601600
    368    367    369     1   109.7500473 328.025600
    369    367    370     1   110.5600475 386.601600
    370    379    380     1   109.5600471 388.275200
    370    379    381     1   109.5600471 388.275200
    371    370    379     1   109.8000471 387.438400
    371    370    372     1   107.5800459 329.699200
    372    370    379     1   109.8000471 387.438400
    373    385    386     1   109.5600471 388.275200
    373    385    387     1   109.5600471 388.275200
    374    373    385     1   109.8000471 387.438400
    374    373    375     1   107.5800459 329.699200
    375    373    385     1   109.8000471 387.438400
    376    382    383     1   109.5600471 388.275200
    376    382    384     1   109.5600471 388.275200
    377    376    382     1   109.8000471 387.438400
    377    376    378     1   107.5800459 329.699200
    378    376    382     1   109.8000471 387.438400
    380    379    388     1   109.7800468 425.094400
    380    379    381     1   108.4600466 328.025600
    381    379    388     1   109.7800468 425.094400
    383    382    818     1   109.7800468 425.094400
    383    382    384     1   108.4600466 328.025600
    384    382    818     1   109.7800468 425.094400
    386    385    850     1   109.7800468 425.094400
    386    385    387     1   108.4600466 328.025600
    387    385    850     1   109.7800468 425.094400
    390    391    392     1   108.0100461 406.684800
    390    391    393     1   108.0100461 406.684800
    390    394    395     1   108.0100461 406.684800
    390    394    396     1   108.0100461 406.684800
    390    397    398     1   108.0100461 406.684800
    390    397    399     1   108.0100461 406.684800
    391    390    419     1   110.1100470 384.091200
    391    403    404     1   109.8000471 387.438400
    391    403    405     1   109.8000471 387.438400
    392    391    403     1   110.5600475 386.601600
    392    391    393     1   109.7500473 328.025600
    393    391    403     1   110.5600475 386.601600
    394    390    419     1   110.1100470 384.091200
    394    406    407     1   109.8000471 387.438400
    394    406    408     1   109.8000471 387.438400
    395    394    406     1   110.5600475 386.601600
    395    394    396     1   109.7500473 328.025600
    396    394    406     1   110.5600475 386.601600
    397    390    419     1   110.1100470 384.091200
    397    400    401     1   109.8000471 387.438400
    397    400    402     1   109.8000471 387.438400
    398    397    400     1   110.5600475 386.601600
    398    397    399     1   109.7500473 328.025600
    399    397    400     1   110.5600475 386.601600
    400    409    410     1   109.5600471 388.275200
    400    409    411     1   109.5600471 388.275200
    401    400    409     1   109.8000471 387.438400
    401    400    402     1   107.5800459 329.699200
    402    400    409     1   109.8000471 387.438400
    403    415    416     1   109.5600471 388.275200
    403    415    417     1   109.5600471 388.275200
    404    403    415     1   109.8000471 387.438400
    404    403    405     1   107.5800459 329.699200
    405    403    415     1   109.8000471 387.438400
    406    412    413     1   109.5600471 388.275200
    406    412    414     1   109.5600471 388.275200
    407    406    412     1   109.8000471 387.438400
    407    406    408     1   107.5800459 329.699200
    408    406    412     1   109.8000471 387.438400
    410    409    418     1   109.7800468 425.094400
    410    409    411     1   108.4600466 328.025600
    411    409    418     1   109.7800468 425.094400
    413    412    882     1   109.7800468 425.094400
    413    412    414     1   108.4600466 328.025600
    414    412    882     1   109.7800468 425.094400
    416    415    914     1   109.7800468 425.094400
    416    415    417     1   108.4600466 328.025600
    417    415    914     1   109.7800468 425.094400
    420    421    422     1   108.0100461 406.684800
    420    421    423     1   108.0100461 406.684800
    420    424    425     1   108.0100461 406.684800
    420    424    426     1   108.0100461 406.684800
    420    427    428     1   108.0100461 406.684800
    420    427    429     1   108.0100461 406.684800
    421    420    449     1   110.1100470 384.091200
    421    433    434     1   109.8000471 387.438400
    421    433    435     1   109.8000471 387.438400
    422    421    433     1   110.5600475 386.601600
    422    421    423     1   109.7500473 328.025600
    423    421    433     1   110.5600475 386.601600
    424    420    449     1   110.1100470 384.091200
    424    436    437     1   109.8000471 387.438400
    424    436    438     1   109.8000471 387.438400
    425    424    436     1   110.5600475 386.601600
    425    424    426     1   109.7500473 328.025600
    426    424    436     1   110.5600475 386.601600
    427    420    449     1   110.1100470 384.091200
    427    430    431     1   109.8000471 387.438400
    427    430    432     1   109.8000471 387.438400
    428    427    430     1   110.5600475 386.601600
    428    427    429     1   109.7500473 328.025600
    429    427    430     1   110.5600475 386.601600
    430    439    440     1   109.5600471 388.275200
    430    439    441     1   109.5600471 388.275200
    431    430    439     1   109.8000471 387.438400
    431    430    432     1   107.5800459 329.699200
    432    430    439     1   109.8000471 387.438400
    433    445    446     1   109.5600471 388.275200
    433    445    447     1   109.5600471 388.275200
    434    433    445     1   109.8000471 387.438400
    434    433    435     1   107.5800459 329.699200
    435    433    445     1   109.8000471 387.438400
    436    442    443     1   109.5600471 388.275200
    436    442    444     1   109.5600471 388.275200
    437    436    442     1   109.8000471 387.438400
    437    436    438     1   107.5800459 329.699200
    438    436    442     1   109.8000471 387.438400
    440    439    448     1   109.7800468 425.094400
    440    439    441     1   108.4600466 328.025600
    441    439    448     1   109.7800468 425.094400
    443    442    946     1   109.7800468 425.094400
    443    442    444     1   108.4600466 328.025600
    444    442    946     1   109.7800468 425.094400
    446    445    978     1   109.7800468 425.094400
    446    445    447     1   108.4600466 328.025600
    447    445    978     1   109.7800468 425.094400
    450    451    452     1   108.0100461 406.684800
    450    451    453     1   108.0100461 406.684800
    450    454    455     1   108.0100461 406.684800
    450    454    456     1   108.0100461 406.684800
    450    457    458     1   108.0100461 406.684800
    450    457    459     1   108.0100461 406.684800
    451    450    479     1   110.1100470 384.091200
    451    463    464     1   109.8000471 387.438400
    451    463    465     1   109.8000471 387.438400
    452    451    463     1   110.5600475 386.601600
    452    451    453     1   109.7500473 328.025600
    453    451    463     1   110.5600475 386.601600
    454    450    479     1   110.1100470 384.091200
    454    466    467     1   109.8000471 387.438400
    454    466    468     1   109.8000471 387.438400
    455    454    466     1   110.5600475 386.601600
    455    454    456     1   109.7500473 328.025600
    456    454    466     1   110.5600475 386.601600
    457    450    479     1   110.1100470 384.091200
    457    460    461     1   109.8000471 387.438400
    457    460    462     1   109.8000471 387.438400
    458    457    460     1   110.5600475 386.601600
    458    457    459     1   109.7500473 328.025600
    459    457    460     1   110.5600475 386.601600
    460    469    470     1   109.5600471 388.275200
    460    469    471     1   109.5600471 388.275200
    461    460    469     1   109.8000471 387.438400
    461    460    462     1   107.5800459 329.699200
    462    460    469     1   109.8000471 387.438400
    463    475    476     1   109.5600471 388.275200
    463    475    477     1   109.5600471 388.275200
    464    463    475     1   109.8000471 387.438400
    464    463    465     1   107.5800459 329.699200
    465    463    475     1   109.8000471 387.438400
    466    472    473     1   109.5600471 388.275200
    466    472    474     1   109.5600471 388.275200
    467    466    472     1   109.8000471 387.438400
    467    466    468     1   107.5800459 329.699200
    468    466    472     1   109.8000471 387.438400
    470    469    478     1   109.7800468 425.094400
    470    469    471     1   108.4600466 328.025600
    471    469    478     1   109.7800468 425.094400
    473    472   1010     1   109.7800468 425.094400
    473    472    474     1   108.4600466 328.025600
    474    472   1010     1   109.7800468 425.094400
    476    475   1042     1   109.7800468 425.094400
    476    475    477     1   108.4600466 328.025600
    477    475   1042     1   109.7800468 425.094400
    480    481    482     1   108.0100461 406.684800
    480    481    483     1   108.0100461 406.684800
    480    484    485     1   108.0100461 406.684800
    480    484    486     1   108.0100461 406.684800
    480    487    488     1   108.0100461 406.684800
    480    487    489     1   108.0100461 406.684800
    481    480    509     1   110.1100470 384.091200
    481    493    494     1   109.8000471 387.438400
    481    493    495     1   109.8000471 387.438400
    482    481    493     1   110.5600475 386.601600
    482    481    483     1   109.7500473 328.025600
    483    481    493     1   110.5600475 386.601600
    484    480    509     1   110.1100470 384.091200
    484    496    497     1   109.8000471 387.438400
    484    496    498     1   109.8000471 387.438400
    485    484    496     1   110.5600475 386.601600
    485    484    486     1   109.7500473 328.025600
    486    484    496     1   110.5600475 386.601600
    487    480    509     1   110.1100470 384.091200
    487    490    491     1   109.8000471 387.438400
    487    490    492     1   109.8000471 387.438400
    488    487    490     1   110.5600475 386.601600
    488    487    489     1   109.7500473 328.025600
    489    487    490     1   110.5600475 386.601600
    490    499    500     1   109.5600471 388.275200
    490    499    501     1   109.5600471 388.275200
    491    490    499     1   109.8000471 387.438400
    491    490    492     1   107.5800459 329.699200
    492    490    499     1   109.8000471 387.438400
    493    505    506     1   109.5600471 388.275200
    493    505    507     1   109.5600471 388.275200
    494    493    505     1   109.8000471 387.438400
    494    493    495     1   107.5800459 329.699200
    495    493    505     1   109.8000471 387.438400
    496    502    503     1   109.5600471 388.275200
    496    502    504     1   109.5600471 388.275200
    497    496    502     1   109.8000471 387.438400
    497    496    498     1   107.5800459 329.699200
    498    496    502     1   109.8000471 387.438400
    500    499    508     1   109.7800468 425.094400
    500    499    501     1   108.4600466 328.025600
    501    499    508     1   109.7800468 425.094400
    503    502   1074     1   109.7800468 425.094400
    503    502    504     1   108.4600466 328.025600
    504    502   1074     1   109.7800468 425.094400
    506    505   1106     1   109.7800468 425.094400
    506    505    507     1   108.4600466 328.025600
    507    505   1106     1   109.7800468 425.094400
    510    511    512     1   108.0100461 406.684800
    510    511    513     1   108.0100461 406.684800
    510    514    515     1   108.0100461 406.684800
    510    514    516     1   108.0100461 406.684800
    510    517    518     1   108.0100461 406.684800
    510    517    519     1   108.0100461 406.684800
    511    510    539     1   110.1100470 384.091200
    511    523    524     1   109.8000471 387.438400
    511    523    525     1   109.8000471 387.438400
    512    511    523     1   110.5600475 386.601600
    512    511    513     1   109.7500473 328.025600
    513    511    523     1   110.5600475 386.601600
    514    510    539     1   110.1100470 384.091200
    514    526    527     1   109.8000471 387.438400
    514    526    528     1   109.8000471 387.438400
    515    514    526     1   110.5600475 386.601600
    515    514    516     1   109.7500473 328.025600
    516    514    526     1   110.5600475 386.601600
    517    510    539     1   110.1100470 384.091200
    517    520    521     1   109.8000471 387.438400
    517    520    522     1   109.8000471 387.438400
    518    517    520     1   110.5600475 386.601600
    518    517    519     1   109.7500473 328.025600
    519    517    520     1   110.5600475 386.601600
    520    529    530     1   109.5600471 388.275200
    520    529    531     1   109.5600471 388.275200
    521    520    529     1   109.8000471 387.438400
    521    520    522     1   107.5800459 329.699200
    522    520    529     1   109.8000471 387.438400
    523    535    536     1   109.5600471 388.275200
    523    535    537     1   109.5600471 388.275200
    524    523    535     1   109.8000471 387.438400
    524    523    525     1   107.5800459 329.699200
    525    523    535     1   109.8000471 387.438400
    526    532    533     1   109.5600471 388.275200
    526    532    534     1   109.5600471 388.275200
    527    526    532     1   109.8000471 387.438400
    527    526    528     1   107.5800459 329.699200
    528    526    532     1   109.8000471 387.438400
    530    529    538     1   109.7800468 425.094400
    530    529    531     1   108.4600466 328.025600
    531    529    538     1   109.7800468 425.094400
    533    532   1138     1   109.7800468 425.094400
    533    532    534     1   108.4600466 328.025600
    534    532   1138     1   109.7800468 425.094400
    536    535   1170     1   109.7800468 425.094400
    536    535    537     1   108.4600466 328.025600
    537    535   1170     1   109.7800468 425.094400
    540    541    542     1   108.0100461 406.684800
    540    541    543     1   108.0100461 406.684800
    540    544    545     1   108.0100461 406.684800
    540    544    546     1   108.0100461 406.684800
    540    547    548     1   108.0100461 406.684800
    540    547    549     1   108.0100461 406.684800
    541    540    569     1   110.1100470 384.091200
    541    553    554     1   109.8000471 387.438400
    541    553    555     1   109.8000471 387.438400
    542    541    553     1   110.5600475 386.601600
    542    541    543     1   109.7500473 328.025600
    543    541    553     1   110.5600475 386.601600
    544    540    569     1   110.1100470 384.091200
    544    556    557     1   109.8000471 387.438400
    544    556    558     1   109.8000471 387.438400
    545    544    556     1   110.5600475 386.601600
    545    544    546     1   109.7500473 328.025600
    546    544    556     1   110.5600475 386.601600
    547    540    569     1   110.1100470 384.091200
    547    550    551     1   109.8000471 387.438400
    547    550    552     1   109.8000471 387.438400
    548    547    550     1   110.5600475 386.601600
    548    547    549     1   109.7500473 328.025600
    549    547    550     1   110.5600475 386.601600
    550    559    560     1   109.5600471 388.275200
    550    559    561     1   109.5600471 388.275200
    551    550    559     1   109.8000471 387.438400
    551    550    552     1   107.5800459 329.699200
    552    550    559     1   109.8000471 387.438400
    553    565    566     1   109.5600471 388.275200
    553    565    567     1   109.5600471 388.275200
    554    553    565     1   109.8000471 387.438400
    554    553    555     1   107.5800459 329.699200
    555    553    565     1   109.8000471 387.438400
    556    562    563     1   109.5600471 388.275200
    556    562    564     1   109.5600471 388.275200
    557    556    562     1   109.8000471 387.438400
    557    556    558     1   107.5800459 329.699200
    558    556    562     1   109.8000471 387.438400
    560    559    568     1   109.7800468 425.094400
    560    559    561     1   108.4600466 328.025600
    561    559    568     1   109.7800468 425.094400
    563    562   1202     1   109.7800468 425.094400
    563    562    564     1   108.4600466 328.025600
    564    562   1202     1   109.7800468 425.094400
    566    565   1234     1   109.7800468 425.094400
    566    565    567     1   108.4600466 328.025600
    567    565   1234     1   109.7800468 425.094400
    570    571    572     1   108.0100461 406.684800
    570    571    573     1   108.0100461 406.684800
    570    574    575     1   108.0100461 406.684800
    570    574    576     1   108.0100461 406.684800
    570    577    578     1   108.0100461 406.684800
    570    577    579     1   108.0100461 406.684800
    571    570    599     1   110.1100470 384.091200
    571    583    584     1   109.8000471 387.438400
    571    583    585     1   109.8000471 387.438400
    572    571    583     1   110.5600475 386.601600
    572    571    573     1   109.7500473 328.025600
    573    571    583     1   110.5600475 386.601600
    574    570    599     1   110.1100470 384.091200
    574    586    587     1   109.8000471 387.438400
    574    586    588     1   109.8000471 387.438400
    575    574    586     1   110.5600475 386.601600
    575    574    576     1   109.7500473 328.025600
    576    574    586     1   110.5600475 386.601600
    577    570    599     1   110.1100470 384.091200
    577    580    581     1   109.8000471 387.438400
    577    580    582     1   109.8000471 387.438400
    578    577    580     1   110.5600475 386.601600
    578    577    579     1   109.7500473 328.025600
    579    577    580     1   110.5600475 386.601600
    580    589    590     1   109.5600471 388.275200
    580    589    591     1   109.5600471 388.275200
    581    580    589     1   109.8000471 387.438400
    581    580    582     1   107.5800459 329.699200
    582    580    589     1   109.8000471 387.438400
    583    595    596     1   109.5600471 388.275200
    583    595    597     1   109.5600471 388.275200
    584    583    595     1   109.8000471 387.438400
    584    583    585     1   107.5800459 329.699200
    585    583    595     1   109.8000471 387.438400
    586    592    593     1   109.5600471 388.275200
    586    592    594     1   109.5600471 388.275200
    587    586    592     1   109.8000471 387.438400
    587    586    588     1   107.5800459 329.699200
    588    586    592     1   109.8000471 387.438400
    590    589    598     1   109.7800468 425.094400
    590    589    591     1   108.4600466 328.025600
    591    589    598     1   109.7800468 425.094400
    593    592   1266     1   109.7800468 425.094400
    593    592    594     1   108.4600466 328.025600
    594    592   1266     1   109.7800468 425.094400
    596    595   1298     1   109.7800468 425.094400
    596    595    597     1   108.4600466 328.025600
    597    595   1298     1   109.7800468 425.094400
    600    601    602     1   108.0100461 406.684800
    600    601    603     1   108.0100461 406.684800
    600    604    605     1   108.0100461 406.684800
    600    604    606     1   108.0100461 406.684800
    600    607    608     1   108.0100461 406.684800
    600    607    609     1   108.0100461 406.684800
    601    600    629     1   110.1100470 384.091200
    601    613    614     1   109.8000471 387.438400
    601    613    615     1   109.8000471 387.438400
    602    601    613     1   110.5600475 386.601600
    602    601    603     1   109.7500473 328.025600
    603    601    613     1   110.5600475 386.601600
    604    600    629     1   110.1100470 384.091200
    604    616    617     1   109.8000471 387.438400
    604    616    618     1   109.8000471 387.438400
    605    604    616     1   110.5600475 386.601600
    605    604    606     1   109.7500473 328.025600
    606    604    616     1   110.5600475 386.601600
    607    600    629     1   110.1100470 384.091200
    607    610    611     1   109.8000471 387.438400
    607    610    612     1   109.8000471 387.438400
    608    607    610     1   110.5600475 386.601600
    608    607    609     1   109.7500473 328.025600
    609    607    610     1   110.5600475 386.601600
    610    619    620     1   109.5600471 388.275200
    610    619    621     1   109.5600471 388.275200
    611    610    619     1   109.8000471 387.438400
    611    610    612     1   107.5800459 329.699200
    612    610    619     1   109.8000471 387.438400
    613    625    626     1   109.5600471 388.275200
    613    625    627     1   109.5600471 388.275200
    614    613    625     1   109.8000471 387.438400
    614    613    615     1   107.5800459 329.699200
    615    613    625     1   109.8000471 387.438400
    616    622    623     1   109.5600471 388.275200
    616    622    624     1   109.5600471 388.275200
    617    616    622     1   109.8000471 387.438400
    617    616    618     1   107.5800459 329.699200
    618    616    622     1   109.8000471 387.438400
    620    619    628     1   109.7800468 425.094400
    620    619    621     1   108.4600466 328.025600
    621    619    628     1   109.7800468 425.094400
    623    622   1330     1   109.7800468 425.094400
    623    622    624     1   108.4600466 328.025600
    624    622   1330     1   109.7800468 425.094400
    626    625   1362     1   109.7800468 425.094400
    626    625    627     1   108.4600466 328.025600
    627    625   1362     1   109.7800468 425.094400
    630    631    632     1   108.0100461 406.684800
    630    631    633     1   108.0100461 406.684800
    630    634    635     1   108.0100461 406.684800
    630    634    636     1   108.0100461 406.684800
    630    637    638     1   108.0100461 406.684800
    630    637    639     1   108.0100461 406.684800
    631    630    659     1   110.1100470 384.091200
    631    643    644     1   109.8000471 387.438400
    631    643    645     1   109.8000471 387.438400
    632    631    643     1   110.5600475 386.601600
    632    631    633     1   109.7500473 328.025600
    633    631    643     1   110.5600475 386.601600
    634    630    659     1   110.1100470 384.091200
    634    646    647     1   109.8000471 387.438400
    634    646    648     1   109.8000471 387.438400
    635    634    646     1   110.5600475 386.601600
    635    634    636     1   109.7500473 328.025600
    636    634    646     1   110.5600475 386.601600
    637    630    659     1   110.1100470 384.091200
    637    640    641     1   109.8000471 387.438400
    637    640    642     1   109.8000471 387.438400
    638    637    640     1   110.5600475 386.601600
    638    637    639     1   109.7500473 328.025600
    639    637    640     1   110.5600475 386.601600
    640    649    650     1   109.5600471 388.275200
    640    649    651     1   109.5600471 388.275200
    641    640    649     1   109.8000471 387.438400
    641    640    642     1   107.5800459 329.699200
    642    640    649     1   109.8000471 387.438400
    643    655    656     1   109.5600471 388.275200
    643    655    657     1   109.5600471 388.275200
    644    643    655     1   109.8000471 387.438400
    644    643    645     1   107.5800459 329.699200
    645    643    655     1   109.8000471 387.438400
    646    652    653     1   109.5600471 388.275200
    646    652    654     1   109.5600471 388.275200
    647    646    652     1   109.8000471 387.438400
    647    646    648     1   107.5800459 329.699200
    648    646    652     1   109.8000471 387.438400
    650    649    658     1   109.7800468 425.094400
    650    649    651     1   108.4600466 328.025600
    651    649    658     1   109.7800468 425.094400
    653    652   1394     1   109.7800468 425.094400
    653    652    654     1   108.4600466 328.025600
    654    652   1394     1   109.7800468 425.094400
    656    655   1426     1   109.7800468 425.094400
    656    655    657     1   108.4600466 328.025600
    657    655   1426     1   109.7800468 425.094400
    660    663    664     1   109.8000471 387.438400
    660    663    665     1   109.8000471 387.438400
    661    660    663     1   109.5600471 388.275200
    661    660    690     1   109.7800468 425.094400
    661    660    662     1   108.4600466 328.025600
    662    660    663     1   109.5600471 388.275200
    662    660    690     1   109.7800468 425.094400
    663    666    667     1   110.5600475 386.601600
    663    666    668     1   110.5600475 386.601600
    664    663    666     1   109.8000471 387.438400
    664    663    665     1   107.5800459 329.699200
    665    663    666     1   109.8000471 387.438400
    666    669    691     1   110.1100470 384.091200
    667    666    669     1   108.0100461 406.684800
    667    666    668     1   109.7500473 328.025600
    668    666    669     1   108.0100461 406.684800
    669    670    671     1   108.0100461 406.684800
    669    670    672     1   108.0100461 406.684800
    669    680    681     1   108.0100461 406.684800
    669    680    682     1   108.0100461 406.684800
    670    669    691     1   110.1100470 384.091200
    670    673    674     1   109.8000471 387.438400
    670    673    675     1   109.8000471 387.438400
    671    670    673     1   110.5600475 386.601600
    671    670    672     1   109.7500473 328.025600
    672    670    673     1   110.5600475 386.601600
    674    673    676     1   108.7700466 392.459200
    674    673    675     1   107.5800459 329.699200
    675    673    676     1   108.7700466 392.459200
    676    678    679     1   106.5500460 417.563200
    680    669    691     1   110.1100470 384.091200
    680    683    684     1   109.8000471 387.438400
    680    683    685     1   109.8000471 387.438400
    681    680    683     1   110.5600475 386.601600
    681    680    682     1   109.7500473 328.025600
    682    680    683     1   110.5600475 386.601600
    684    683    686     1   108.7700466 392.459200
    684    683    685     1   107.5800459 329.699200
    685    683    686     1   108.7700466 392.459200
    686    688    689     1   106.5500460 417.563200
    692    695    696     1   109.8000471 387.438400
    692    695    697     1   109.8000471 387.438400
    693    692    695     1   109.5600471 388.275200
    693    692    722     1   109.7800468 425.094400
    693    692    694     1   108.4600466 328.025600
    694    692    695     1   109.5600471 388.275200
    694    692    722     1   109.7800468 425.094400
    695    698    699     1   110.5600475 386.601600
    695    698    700     1   110.5600475 386.601600
    696    695    698     1   109.8000471 387.438400
    696    695    697     1   107.5800459 329.699200
    697    695    698     1   109.8000471 387.438400
    698    701    723     1   110.1100470 384.091200
    699    698    701     1   108.0100461 406.684800
    699    698    700     1   109.7500473 328.025600
    700    698    701     1   108.0100461 406.684800
    701    702    703     1   108.0100461 406.684800
    701    702    704     1   108.0100461 406.684800
    701    712    713     1   108.0100461 406.684800
    701    712    714     1   108.0100461 406.684800
    702    705    706     1   109.8000471 387.438400
    702    705    707     1   109.8000471 387.438400
    702    701    723     1   110.1100470 384.091200
    703    702    705     1   110.5600475 386.601600
    703    702    704     1   109.7500473 328.025600
    704    702    705     1   110.5600475 386.601600
    706    705    708     1   108.7700466 392.459200
    706    705    707     1   107.5800459 329.699200
    707    705    708     1   108.7700466 392.459200
    708    710    711     1   106.5500460 417.563200
    712    715    716     1   109.8000471 387.438400
    712    715    717     1   109.8000471 387.438400
    712    701    723     1   110.1100470 384.091200
    713    712    715     1   110.5600475 386.601600
    713    712    714     1   109.7500473 328.025600
    714    712    715     1   110.5600475 386.601600
    716    715    718     1   108.7700466 392.459200
    716    715    717     1   107.5800459 329.699200
    717    715    718     1   108.7700466 392.459200
    718    720    721     1   106.5500460 417.563200
    724    727    728     1   109.8000471 387.438400
    724    727    729     1   109.8000471 387.438400
    725    724    727     1   109.5600471 388.275200
    725    724    754     1   109.7800468 425.094400
    725    724    726     1   108.4600466 328.025600
    726    724    727     1   109.5600471 388.275200
    726    724    754     1   109.7800468 425.094400
    727    730    731     1   110.5600475 386.601600
    727    730    732     1   110.5600475 386.601600
    728    727    730     1   109.8000471 387.438400
    728    727    729     1   107.5800459 329.699200
    729    727    730     1   109.8000471 387.438400
    730    733    755     1   110.1100470 384.091200
    731    730    733     1   108.0100461 406.684800
    731    730    732     1   109.7500473 328.025600
    732    730    733     1   108.0100461 406.684800
    733    734    735     1   108.0100461 406.684800
    733    734    736     1   108.0100461 406.684800
    733    744    745     1   108.0100461 406.684800
    733    744    746     1   108.0100461 406.684800
    734    733    755     1   110.1100470 384.091200
    734    737    738     1   109.8000471 387.438400
    734    737    739     1   109.8000471 387.438400
    735    734    737     1   110.5600475 386.601600
    735    734    736     1   109.7500473 328.025600
    736    734    737     1   110.5600475 386.601600
    738    737    740     1   108.7700466 392.459200
    738    737    739     1   107.5800459 329.699200
    739    737    740     1   108.7700466 392.459200
    740    742    743     1   106.5500460 417.563200
    744    733    755     1   110.1100470 384.091200
    744    747    748     1   109.8000471 387.438400
    744    747    749     1   109.8000471 387.438400
    745    744    747     1   110.5600475 386.601600
    745    744    746     1   109.7500473 328.025600
    746    744    747     1   110.5600475 386.601600
    748    747    750     1   108.7700466 392.459200
    748    747    749     1   107.5800459 329.699200
    749    747    750     1   108.7700466 392.459200
    750    752    753     1   106.5500460 417.563200
    756    759    760     1   109.8000471 387.438400
    756    759    761     1   109.8000471 387.438400
    757    756    759     1   109.5600471 388.275200
    757    756    786     1   109.7800468 425.094400
    757    756    758     1   108.4600466 328.025600
    758    756    759     1   109.5600471 388.275200
    758    756    786     1   109.7800468 425.094400
    759    762    763     1   110.5600475 386.601600
    759    762    764     1   110.5600475 386.601600
    760    759    762     1   109.8000471 387.438400
    760    759    761     1   107.5800459 329.699200
    761    759    762     1   109.8000471 387.438400
    762    765    787     1   110.1100470 384.091200
    763    762    765     1   108.0100461 406.684800
    763    762    764     1   109.7500473 328.025600
    764    762    765     1   108.0100461 406.684800
    765    766    767     1   108.0100461 406.684800
    765    766    768     1   108.0100461 406.684800
    765    776    777     1   108.0100461 406.684800
    765    776    778     1   108.0100461 406.684800
    766    769    770     1   109.8000471 387.438400
    766    769    771     1   109.8000471 387.438400
    766    765    787     1   110.1100470 384.091200
    767    766    769     1   110.5600475 386.601600
    767    766    768     1   109.7500473 328.025600
    768    766    769     1   110.5600475 386.601600
    770    769    772     1   108.7700466 392.459200
    770    769    771     1   107.5800459 329.699200
    771    769    772     1   108.7700466 392.459200
    772    774    775     1   106.5500460 417.563200
    776    779    780     1   109.8000471 387.438400
    776    779    781     1   109.8000471 387.438400
    776    765    787     1   110.1100470 384.091200
    777    776    779     1   110.5600475 386.601600
    777    776    778     1   109.7500473 328.025600
    778    776    779     1   110.5600475 386.601600
    780    779    782     1   108.7700466 392.459200
    780    779    781     1   107.5800459 329.699200
    781    779    782     1   108.7700466 392.459200
    782    784    785     1   106.5500460 417.563200
    788    791    792     1   109.8000471 387.438400
    788    791    793     1   109.8000471 387.438400
    789    788    791     1   109.5600471 388.275200
    789    788    818     1   109.7800468 425.094400
    789    788    790     1   108.4600466 328.025600
    790    788    791     1   109.5600471 388.275200
    790    788    818     1   109.7800468 425.094400
    791    794    795     1   110.5600475 386.601600
    791    794    796     1   110.5600475 386.601600
    792    791    794     1   109.8000471 387.438400
    792    791    793     1   107.5800459 329.699200
    793    791    794     1   109.8000471 387.438400
    794    797    819     1   110.1100470 384.091200
    795    794    797     1   108.0100461 406.684800
    795    794    796     1   109.7500473 328.025600
    796    794    797     1   108.0100461 406.684800
    797    798    799     1   108.0100461 406.684800
    797    798    800     1   108.0100461 406.684800
    797    808    809     1   108.0100461 406.684800
    797    808    810     1   108.0100461 406.684800
    798    797    819     1   110.1100470 384.091200
    798    801    802     1   109.8000471 387.438400
    798    801    803     1   109.8000471 387.438400
    799    798    801     1   110.5600475 386.601600
    799    798    800     1   109.7500473 328.025600
    800    798    801     1   110.5600475 386.601600
    802    801    804     1   108.7700466 392.459200
    802    801    803     1   107.5800459 329.699200
    803    801    804     1   108.7700466 392.459200
    804    806    807     1   106.5500460 417.563200
    808    797    819     1   110.1100470 384.091200
    808    811    812     1   109.8000471 387.438400
    808    811    813     1   109.8000471 387.438400
    809    808    811     1   110.5600475 386.601600
    809    808    810     1   109.7500473 328.025600
    810    808    811     1   110.5600475 386.601600
    812    811    814     1   108.7700466 392.459200
    812    811    813     1   107.5800459 329.699200
    813    811    814     1   108.7700466 392.459200
    814    816    817     1   106.5500460 417.563200
    820    823    824     1   109.8000471 387.438400
    820    823    825     1   109.8000471 387.438400
    821    820    823     1   109.5600471 388.275200
    821    820    850     1   109.7800468 425.094400
    821    820    822     1   108.4600466 328.025600
    822    820    823     1   109.5600471 388.275200
    822    820    850     1   109.7800468 425.094400
    823    826    827     1   110.5600475 386.601600
    823    826    828     1   110.5600475 386.601600
    824    823    826     1   109.8000471 387.438400
    824    823    825     1   107.5800459 329.699200
    825    823    826     1   109.8000471 387.438400
    826    829    851     1   110.1100470 384.091200
    827    826    829     1   108.0100461 406.684800
    827    826    828     1   109.7500473 328.025600
    828    826    829     1   108.0100461 406.684800
    829    830    831     1   108.0100461 406.684800
    829    830    832     1   108.0100461 406.684800
    829    840    841     1   108.0100461 406.684800
    829    840    842     1   108.0100461 406.684800
    830    833    834     1   109.8000471 387.438400
    830    833    835     1   109.8000471 387.438400
    830    829    851     1   110.1100470 384.091200
    831    830    833     1   110.5600475 386.601600
    831    830    832     1   109.7500473 328.025600
    832    830    833     1   110.5600475 386.601600
    834    833    836     1   108.7700466 392.459200
    834    833    835     1   107.5800459 329.699200
    835    833    836     1   108.7700466 392.459200
    836    838    839     1   106.5500460 417.563200
    840    843    844     1   109.8000471 387.438400
    840    843    845     1   109.8000471 387.438400
    840    829    851     1   110.1100470 384.091200
    841    840    843     1   110.5600475 386.601600
    841    840    842     1   109.7500473 328.025600
    842    840    843     1   110.5600475 386.601600
    844    843    846     1   108.7700466 392.459200
    844    843    845     1   107.5800459 329.699200
    845    843    846     1   108.7700466 392.459200
    846    848    849     1   106.5500460 417.563200
    852    855    856     1   109.8000471 387.438400
    852    855    857     1   109.8000471 387.438400
    853    852    855     1   109.5600471 388.275200
    853    852    882     1   109.7800468 425.094400
    853    852    854     1   108.4600466 328.025600
    854    852    855     1   109.5600471 388.275200
    854    852    882     1   109.7800468 425.094400
    855    858    859     1   110.5600475 386.601600
    855    858    860     1   110.5600475 386.601600
    856    855    858     1   109.8000471 387.438400
    856    855    857     1   107.5800459 329.699200
    857    855    858     1   109.8000471 387.438400
    858    861    883     1   110.1100470 384.091200
    859    858    861     1   108.0100461 406.684800
    859    858    860     1   109.7500473 328.025600
    860    858    861     1   108.0100461 406.684800
    861    862    863     1   108.0100461 406.684800
    861    862    864     1   108.0100461 406.684800
    861    872    873     1   108.0100461 406.684800
    861    872    874     1   108.0100461 406.684800
    862    861    883     1   110.1100470 384.091200
    862    865    866     1   109.8000471 387.438400
    862    865    867     1   109.8000471 387.438400
    863    862    865     1   110.5600475 386.601600
    863    862    864     1   109.7500473 328.025600
    864    862    865     1   110.5600475 386.601600
    866    865    868     1   108.7700466 392.459200
    866    865    867     1   107.5800459 329.699200
    867    865    868     1   108.7700466 392.459200
    868    870    871     1   106.5500460 417.563200
    872    861    883     1   110.1100470 384.091200
    872    875    876     1   109.8000471 387.438400
    872    875    877     1   109.8000471 387.438400
    873    872    875     1   110.5600475 386.601600
    873    872    874     1   109.7500473 328.025600
    874    872    875     1   110.5600475 386.601600
    876    875    878     1   108.7700466 392.459200
    876    875    877     1   107.5800459 329.699200
    877    875    878     1   108.7700466 392.459200
    878    880    881     1   106.5500460 417.563200
    884    887    888     1   109.8000471 387.438400
    884    887    889     1   109.8000471 387.438400
    885    884    887     1   109.5600471 388.275200
    885    884    914     1   109.7800468 425.094400
    885    884    886     1   108.4600466 328.025600
    886    884    887     1   109.5600471 388.275200
    886    884    914     1   109.7800468 425.094400
    887    890    891     1   110.5600475 386.601600
    887    890    892     1   110.5600475 386.601600
    888    887    890     1   109.8000471 387.438400
    888    887    889     1   107.5800459 329.699200
    889    887    890     1   109.8000471 387.438400
    890    893    915     1   110.1100470 384.091200
    891    890    893     1   108.0100461 406.684800
    891    890    892     1   109.7500473 328.025600
    892    890    893     1   108.0100461 406.684800
    893    894    895     1   108.0100461 406.684800
    893    894    896     1   108.0100461 406.684800
    893    904    905     1   108.0100461 406.684800
    893    904    906     1   108.0100461 406.684800
    894    897    898     1   109.8000471 387.438400
    894    897    899     1   109.8000471 387.438400
    894    893    915     1   110.1100470 384.091200
    895    894    897     1   110.5600475 386.601600
    895    894    896     1   109.7500473 328.025600
    896    894    897     1   110.5600475 386.601600
    898    897    900     1   108.7700466 392.459200
    898    897    899     1   107.5800459 329.699200
    899    897    900     1   108.7700466 392.459200
    900    902    903     1   106.5500460 417.563200
    904    907    908     1   109.8000471 387.438400
    904    907    909     1   109.8000471 387.438400
    904    893    915     1   110.1100470 384.091200
    905    904    907     1   110.5600475 386.601600
    905    904    906     1   109.7500473 328.025600
    906    904    907     1   110.5600475 386.601600
    908    907    910     1   108.7700466 392.459200
    908    907    909     1   107.5800459 329.699200
    909    907    910     1   108.7700466 392.459200
    910    912    913     1   106.5500460 417.563200
    916    919    920     1   109.8000471 387.438400
    916    919    921     1   109.8000471 387.438400
    917    916    919     1   109.5600471 388.275200
    917    916    946     1   109.7800468 425.094400
    917    916    918     1   108.4600466 328.025600
    918    916    919     1   109.5600471 388.275200
    918    916    946     1   109.7800468 425.094400
    919    922    923     1   110.5600475 386.601600
    919    922    924     1   110.5600475 386.601600
    920    919    922     1   109.8000471 387.438400
    920    919    921     1   107.5800459 329.699200
    921    919    922     1   109.8000471 387.438400
    922    925    947     1   110.1100470 384.091200
    923    922    925     1   108.0100461 406.684800
    923    922    924     1   109.7500473 328.025600
    924    922    925     1   108.0100461 406.684800
    925    926    927     1   108.0100461 406.684800
    925    926    928     1   108.0100461 406.684800
    925    936    937     1   108.0100461 406.684800
    925    936    938     1   108.0100461 406.684800
    926    925    947     1   110.1100470 384.091200
    926    929    930     1   109.8000471 387.438400
    926    929    931     1   109.8000471 387.438400
    927    926    929     1   110.5600475 386.601600
    927    926    928     1   109.7500473 328.025600
    928    926    929     1   110.5600475 386.601600
    930    929    932     1   108.7700466 392.459200
    930    929    931     1   107.5800459 329.699200
    931    929    932     1   108.7700466 392.459200
    932    934    935     1   106.5500460 417.563200
    936    925    947     1   110.1100470 384.091200
    936    939    940     1   109.8000471 387.438400
    936    939    941     1   109.8000471 387.438400
    937    936    939     1   110.5600475 386.601600
    937    936    938     1   109.7500473 328.025600
    938    936    939     1   110.5600475 386.601600
    940    939    942     1   108.7700466 392.459200
    940    939    941     1   107.5800459 329.699200
    941    939    942     1   108.7700466 392.459200
    942    944    945     1   106.5500460 417.563200
    948    951    952     1   109.8000471 387.438400
    948    951    953     1   109.8000471 387.438400
    949    948    951     1   109.5600471 388.275200
    949    948    978     1   109.7800468 425.094400
    949    948    950     1   108.4600466 328.025600
    950    948    951     1   109.5600471 388.275200
    950    948    978     1   109.7800468 425.094400
    951    954    955     1   110.5600475 386.601600
    951    954    956     1   110.5600475 386.601600
    952    951    954     1   109.8000471 387.438400
    952    951    953     1   107.5800459 329.699200
    953    951    954     1   109.8000471 387.438400
    954    957    979     1   110.1100470 384.091200
    955    954    957     1   108.0100461 406.684800
    955    954    956     1   109.7500473 328.025600
    956    954    957     1   108.0100461 406.684800
    957    958    959     1   108.0100461 406.684800
    957    958    960     1   108.0100461 406.684800
    957    968    969     1   108.0100461 406.684800
    957    968    970     1   108.0100461 406.684800
    958    961    962     1   109.8000471 387.438400
    958    961    963     1   109.8000471 387.438400
    958    957    979     1   110.1100470 384.091200
    959    958    961     1   110.5600475 386.601600
    959    958    960     1   109.7500473 328.025600
    960    958    961     1   110.5600475 386.601600
    962    961    964     1   108.7700466 392.459200
    962    961    963     1   107.5800459 329.699200
    963    961    964     1   108.7700466 392.459200
    964    966    967     1   106.5500460 417.563200
    968    971    972     1   109.8000471 387.438400
    968    971    973     1   109.8000471 387.438400
    968    957    979     1   110.1100470 384.091200
    969    968    971     1   110.5600475 386.601600
    969    968    970     1   109.7500473 328.025600
    970    968    971     1   110.5600475 386.601600
    972    971    974     1   108.7700466 392.459200
    972    971    973     1   107.5800459 329.699200
    973    971    974     1   108.7700466 392.459200
    974    976    977     1   106.5500460 417.563200
    980    983    984     1   109.8000471 387.438400
    980    983    985     1   109.8000471 387.438400
    981    980    983     1   109.5600471 388.275200
    981    980   1010     1   109.7800468 425.094400
    981    980    982     1   108.4600466 328.025600
    982    980    983     1   109.5600471 388.275200
    982    980   1010     1   109.7800468 425.094400
    983    986    987     1   110.5600475 386.601600
    983    986    988     1   110.5600475 386.601600
    984    983    986     1   109.8000471 387.438400
    984    983    985     1   107.5800459 329.699200
    985    983    986     1   109.8000471 387.438400
    986    989   1011     1   110.1100470 384.091200
    987    986    989     1   108.0100461 406.684800
    987    986    988     1   109.7500473 328.025600
    988    986    989     1   108.0100461 406.684800
    989    990    991     1   108.0100461 406.684800
    989    990    992     1   108.0100461 406.684800
    989   1000   1001     1   108.0100461 406.684800
    989   1000   1002     1   108.0100461 406.684800
    990    989   1011     1   110.1100470 384.091200
    990    993    994     1   109.8000471 387.438400
    990    993    995     1   109.8000471 387.438400
    991    990    993     1   110.5600475 386.601600
    991    990    992     1   109.7500473 328.025600
    992    990    993     1   110.5600475 386.601600
    994    993    996     1   108.7700466 392.459200
    994    993    995     1   107.5800459 329.699200
    995    993    996     1   108.7700466 392.459200
    996    998    999     1   106.5500460 417.563200
   1000    989   1011     1   110.1100470 384.091200
   1000   1003   1004     1   109.8000471 387.438400
   1000   1003   1005     1   109.8000471 387.438400
   1001   1000   1003     1   110.5600475 386.601600
   1001   1000   1002     1   109.7500473 328.025600
   1002   1000   1003     1   110.5600475 386.601600
   1004   1003   1006     1   108.7700466 392.459200
   1004   1003   1005     1   107.5800459 329.699200
   1005   1003   1006     1   108.7700466 392.459200
   1006   1008   1009     1   106.5500460 417.563200
   1012   1015   1016     1   109.8000471 387.438400
   1012   1015   1017     1   109.8000471 387.438400
   1013   1012   1015     1   109.5600471 388.275200
   1013   1012   1042     1   109.7800468 425.094400
   1013   1012   1014     1   108.4600466 328.025600
   1014   1012   1015     1   109.5600471 388.275200
   1014   1012   1042     1   109.7800468 425.094400
   1015   1018   1019     1   110.5600475 386.601600
   1015   1018   1020     1   110.5600475 386.601600
   1016   1015   1018     1   109.8000471 387.438400
   1016   1015   1017     1   107.5800459 329.699200
   1017   1015   1018     1   109.8000471 387.438400
   1018   1021   1043     1   110.1100470 384.091200
   1019   1018   1021     1   108.0100461 406.684800
   1019   1018   1020     1   109.7500473 328.025600
   1020   1018   1021     1   108.0100461 406.684800
   1021   1022   1023     1   108.0100461 406.684800
   1021   1022   1024     1   108.0100461 406.684800
   1021   1032   1033     1   108.0100461 406.684800
   1021   1032   1034     1   108.0100461 406.684800
   1022   1025   1026     1   109.8000471 387.438400
   1022   1025   1027     1   109.8000471 387.438400
   1022   1021   1043     1   110.1100470 384.091200
   1023   1022   1025     1   110.5600475 386.601600
   1023   1022   1024     1   109.7500473 328.025600
   1024   1022   1025     1   110.5600475 386.601600
   1026   1025   1028     1   108.7700466 392.459200
   1026   1025   1027     1   107.5800459 329.699200
   1027   1025   1028     1   108.7700466 392.459200
   1028   1030   1031     1   106.5500460 417.563200
   1032   1035   1036     1   109.8000471 387.438400
   1032   1035   1037     1   109.8000471 387.438400
   1032   1021   1043     1   110.1100470 384.091200
   1033   1032   1035     1   110.5600475 386.601600
   1033   1032   1034     1   109.7500473 328.025600
   1034   1032   1035     1   110.5600475 386.601600
   1036   1035   1038     1   108.7700466 392.459200
   1036   1035   1037     1   107.5800459 329.699200
   1037   1035   1038     1   108.7700466 392.459200
   1038   1040   1041     1   106.5500460 417.563200
   1044   1047   1048     1   109.8000471 387.438400
   1044   1047   1049     1   109.8000471 387.438400
   1045   1044   1047     1   109.5600471 388.275200
   1045   1044   1074     1   109.7800468 425.094400
   1045   1044   1046     1   108.4600466 328.025600
   1046   1044   1047     1   109.5600471 388.275200
   1046   1044   1074     1   109.7800468 425.094400
   1047   1050   1051     1   110.5600475 386.601600
   1047   1050   1052     1   110.5600475 386.601600
   1048   1047   1050     1   109.8000471 387.438400
   1048   1047   1049     1   107.5800459 329.699200
   1049   1047   1050     1   109.8000471 387.438400
   1050   1053   1075     1   110.1100470 384.091200
   1051   1050   1053     1   108.0100461 406.684800
   1051   1050   1052     1   109.7500473 328.025600
   1052   1050   1053     1   108.0100461 406.684800
   1053   1054   1055     1   108.0100461 406.684800
   1053   1054   1056     1   108.0100461 406.684800
   1053   1064   1065     1   108.0100461 406.684800
   1053   1064   1066     1   108.0100461 406.684800
   1054   1053   1075     1   110.1100470 384.091200
   1054   1057   1058     1   109.8000471 387.438400
   1054   1057   1059     1   109.8000471 387.438400
   1055   1054   1057     1   110.5600475 386.601600
   1055   1054   1056     1   109.7500473 328.025600
   1056   1054   1057     1   110.5600475 386.601600
   1058   1057   1060     1   108.7700466 392.459200
   1058   1057   1059     1   107.5800459 329.699200
   1059   1057   1060     1   108.7700466 392.459200
   1060   1062   1063     1   106.5500460 417.563200
   1064   1053   1075     1   110.1100470 384.091200
   1064   1067   1068     1   109.8000471 387.438400
   1064   1067   1069     1   109.8000471 387.438400
   1065   1064   1067     1   110.5600475 386.601600
   1065   1064   1066     1   109.7500473 328.025600
   1066   1064   1067     1   110.5600475 386.601600
   1068   1067   1070     1   108.7700466 392.459200
   1068   1067   1069     1   107.5800459 329.699200
   1069   1067   1070     1   108.7700466 392.459200
   1070   1072   1073     1   106.5500460 417.563200
   1076   1079   1080     1   109.8000471 387.438400
   1076   1079   1081     1   109.8000471 387.438400
   1077   1076   1079     1   109.5600471 388.275200
   1077   1076   1106     1   109.7800468 425.094400
   1077   1076   1078     1   108.4600466 328.025600
   1078   1076   1079     1   109.5600471 388.275200
   1078   1076   1106     1   109.7800468 425.094400
   1079   1082   1083     1   110.5600475 386.601600
   1079   1082   1084     1   110.5600475 386.601600
   1080   1079   1082     1   109.8000471 387.438400
   1080   1079   1081     1   107.5800459 329.699200
   1081   1079   1082     1   109.8000471 387.438400
   1082   1085   1107     1   110.1100470 384.091200
   1083   1082   1085     1   108.0100461 406.684800
   1083   1082   1084     1   109.7500473 328.025600
   1084   1082   1085     1   108.0100461 406.684800
   1085   1086   1087     1   108.0100461 406.684800
   1085   1086   1088     1   108.0100461 406.684800
   1085   1096   1097     1   108.0100461 406.684800
   1085   1096   1098     1   108.0100461 406.684800
   1086   1089   1090     1   109.8000471 387.438400
   1086   1089   1091     1   109.8000471 387.438400
   1086   1085   1107     1   110.1100470 384.091200
   1087   1086   1089     1   110.5600475 386.601600
   1087   1086   1088     1   109.7500473 328.025600
   1088   1086   1089     1   110.5600475 386.601600
   1090   1089   1092     1   108.7700466 392.459200
   1090   1089   1091     1   107.5800459 329.699200
   1091   1089   1092     1   108.7700466 392.459200
   1092   1094   1095     1   106.5500460 417.563200
   1096   1099   1100     1   109.8000471 387.438400
   1096   1099   1101     1   109.8000471 387.438400
   1096   1085   1107     1   110.1100470 384.091200
   1097   1096   1099     1   110.5600475 386.601600
   1097   1096   1098     1   109.7500473 328.025600
   1098   1096   1099     1   110.5600475 386.601600
   1100   1099   1102     1   108.7700466 392.459200
   1100   1099   1101     1   107.5800459 329.699200
   1101   1099   1102     1   108.7700466 392.459200
   1102   1104   1105     1   106.5500460 417.563200
   1108   1111   1112     1   109.8000471 387.438400
   1108   1111   1113     1   109.8000471 387.438400
   1109   1108   1111     1   109.5600471 388.275200
   1109   1108   1138     1   109.7800468 425.094400
   1109   1108   1110     1   108.4600466 328.025600
   1110   1108   1111     1   109.5600471 388.275200
   1110   1108   1138     1   109.7800468 425.094400
   1111   1114   1115     1   110.5600475 386.601600
   1111   1114   1116     1   110.5600475 386.601600
   1112   1111   1114     1   109.8000471 387.438400
   1112   1111   1113     1   107.5800459 329.699200
   1113   1111   1114     1   109.8000471 387.438400
   1114   1117   1139     1   110.1100470 384.091200
   1115   1114   1117     1   108.0100461 406.684800
   1115   1114   1116     1   109.7500473 328.025600
   1116   1114   1117     1   108.0100461 406.684800
   1117   1118   1119     1   108.0100461 406.684800
   1117   1118   1120     1   108.0100461 406.684800
   1117   1128   1129     1   108.0100461 406.684800
   1117   1128   1130     1   108.0100461 406.684800
   1118   1117   1139     1   110.1100470 384.091200
   1118   1121   1122     1   109.8000471 387.438400
   1118   1121   1123     1   109.8000471 387.438400
   1119   1118   1121     1   110.5600475 386.601600
   1119   1118   1120     1   109.7500473 328.025600
   1120   1118   1121     1   110.5600475 386.601600
   1122   1121   1124     1   108.7700466 392.459200
   1122   1121   1123     1   107.5800459 329.699200
   1123   1121   1124     1   108.7700466 392.459200
   1124   1126   1127     1   106.5500460 417.563200
   1128   1117   1139     1   110.1100470 384.091200
   1128   1131   1132     1   109.8000471 387.438400
   1128   1131   1133     1   109.8000471 387.438400
   1129   1128   1131     1   110.5600475 386.601600
   1129   1128   1130     1   109.7500473 328.025600
   1130   1128   1131     1   110.5600475 386.601600
   1132   1131   1134     1   108.7700466 392.459200
   1132   1131   1133     1   107.5800459 329.699200
   1133   1131   1134     1   108.7700466 392.459200
   1134   1136   1137     1   106.5500460 417.563200
   1140   1143   1144     1   109.8000471 387.438400
   1140   1143   1145     1   109.8000471 387.438400
   1141   1140   1143     1   109.5600471 388.275200
   1141   1140   1170     1   109.7800468 425.094400
   1141   1140   1142     1   108.4600466 328.025600
   1142   1140   1143     1   109.5600471 388.275200
   1142   1140   1170     1   109.7800468 425.094400
   1143   1146   1147     1   110.5600475 386.601600
   1143   1146   1148     1   110.5600475 386.601600
   1144   1143   1146     1   109.8000471 387.438400
   1144   1143   1145     1   107.5800459 329.699200
   1145   1143   1146     1   109.8000471 387.438400
   1146   1149   1171     1   110.1100470 384.091200
   1147   1146   1149     1   108.0100461 406.684800
   1147   1146   1148     1   109.7500473 328.025600
   1148   1146   1149     1   108.0100461 406.684800
   1149   1150   1151     1   108.0100461 406.684800
   1149   1150   1152     1   108.0100461 406.684800
   1149   1160   1161     1   108.0100461 406.684800
   1149   1160   1162     1   108.0100461 406.684800
   1150   1153   1154     1   109.8000471 387.438400
   1150   1153   1155     1   109.8000471 387.438400
   1150   1149   1171     1   110.1100470 384.091200
   1151   1150   1153     1   110.5600475 386.601600
   1151   1150   1152     1   109.7500473 328.025600
   1152   1150   1153     1   110.5600475 386.601600
   1154   1153   1156     1   108.7700466 392.459200
   1154   1153   1155     1   107.5800459 329.699200
   1155   1153   1156     1   108.7700466 392.459200
   1156   1158   1159     1   106.5500460 417.563200
   1160   1163   1164     1   109.8000471 387.438400
   1160   1163   1165     1   109.8000471 387.438400
   1160   1149   1171     1   110.1100470 384.091200
   1161   1160   1163     1   110.5600475 386.601600
   1161   1160   1162     1   109.7500473 328.025600
   1162   1160   1163     1   110.5600475 386.601600
   1164   1163   1166     1   108.7700466 392.459200
   1164   1163   1165     1   107.5800459 329.699200
   1165   1163   1166     1   108.7700466 392.459200
   1166   1168   1169     1   106.5500460 417.563200
   1172   1175   1176     1   109.8000471 387.438400
   1172   1175   1177     1   109.8000471 387.438400
   1173   1172   1175     1   109.5600471 388.275200
   1173   1172   1202     1   109.7800468 425.094400
   1173   1172   1174     1   108.4600466 328.025600
   1174   1172   1175     1   109.5600471 388.275200
   1174   1172   1202     1   109.7800468 425.094400
   1175   1178   1179     1   110.5600475 386.601600
   1175   1178   1180     1   110.5600475 386.601600
   1176   1175   1178     1   109.8000471 387.438400
   1176   1175   1177     1   107.5800459 329.699200
   1177   1175   1178     1   109.8000471 387.438400
   1178   1181   1203     1   110.1100470 384.091200
   1179   1178   1181     1   108.0100461 406.684800
   1179   1178   1180     1   109.7500473 328.025600
   1180   1178   1181     1   108.0100461 406.684800
   1181   1182   1183     1   108.0100461 406.684800
   1181   1182   1184     1   108.0100461 406.684800
   1181   1192   1193     1   108.0100461 406.684800
   1181   1192   1194     1   108.0100461 406.684800
   1182   1181   1203     1   110.1100470 384.091200
   1182   1185   1186     1   109.8000471 387.438400
   1182   1185   1187     1   109.8000471 387.438400
   1183   1182   1185     1   110.5600475 386.601600
   1183   1182   1184     1   109.7500473 328.025600
   1184   1182   1185     1   110.5600475 386.601600
   1186   1185   1188     1   108.7700466 392.459200
   1186   1185   1187     1   107.5800459 329.699200
   1187   1185   1188     1   108.7700466 392.459200
   1188   1190   1191     1   106.5500460 417.563200
   1192   1181   1203     1   110.1100470 384.091200
   1192   1195   1196     1   109.8000471 387.438400
   1192   1195   1197     1   109.8000471 387.438400
   1193   1192   1195     1   110.5600475 386.601600
   1193   1192   1194     1   109.7500473 328.025600
   1194   1192   1195     1   110.5600475 386.601600
   1196   1195   1198     1   108.7700466 392.459200
   1196   1195   1197     1   107.5800459 329.699200
   1197   1195   1198     1   108.7700466 392.459200
   1198   1200   1201     1   106.5500460 417.563200
   1204   1207   1208     1   109.8000471 387.438400
   1204   1207   1209     1   109.8000471 387.438400
   1205   1204   1207     1   109.5600471 388.275200
   1205   1204   1234     1   109.7800468 425.094400
   1205   1204   1206     1   108.4600466 328.025600
   1206   1204   1207     1   109.5600471 388.275200
   1206   1204   1234     1   109.7800468 425.094400
   1207   1210   1211     1   110.5600475 386.601600
   1207   1210   1212     1   110.5600475 386.601600
   1208   1207   1210     1   109.8000471 387.438400
   1208   1207   1209     1   107.5800459 329.699200
   1209   1207   1210     1   109.8000471 387.438400
   1210   1213   1235     1   110.1100470 384.091200
   1211   1210   1213     1   108.0100461 406.684800
   1211   1210   1212     1   109.7500473 328.025600
   1212   1210   1213     1   108.0100461 406.684800
   1213   1214   1215     1   108.0100461 406.684800
   1213   1214   1216     1   108.0100461 406.684800
   1213   1224   1225     1   108.0100461 406.684800
   1213   1224   1226     1   108.0100461 406.684800
   1214   1217   1218     1   109.8000471 387.438400
   1214   1217   1219     1   109.8000471 387.438400
   1214   1213   1235     1   110.1100470 384.091200
   1215   1214   1217     1   110.5600475 386.601600
   1215   1214   1216     1   109.7500473 328.025600
   1216   1214   1217     1   110.5600475 386.601600
   1218   1217   1220     1   108.7700466 392.459200
   1218   1217   1219     1   107.5800459 329.699200
   1219   1217   1220     1   108.7700466 392.459200
   1220   1222   1223     1   106.5500460 417.563200
   1224   1227   1228     1   109.8000471 387.438400
   1224   1227   1229     1   109.8000471 387.438400
   1224   1213   1235     1   110.1100470 384.091200
   1225   1224   1227     1   110.5600475 386.601600
   1225   1224   1226     1   109.7500473 328.025600
   1226   1224   1227     1   110.5600475 386.601600
   1228   1227   1230     1   108.7700466 392.459200
   1228   1227   1229     1   107.5800459 329.699200
   1229   1227   1230     1   108.7700466 392.459200
   1230   1232   1233     1   106.5500460 417.563200
   1236   1239   1240     1   109.8000471 387.438400
   1236   1239   1241     1   109.8000471 387.438400
   1237   1236   1239     1   109.5600471 388.275200
   1237   1236   1266     1   109.7800468 425.094400
   1237   1236   1238     1   108.4600466 328.025600
   1238   1236   1239     1   109.5600471 388.275200
   1238   1236   1266     1   109.7800468 425.094400
   1239   1242   1243     1   110.5600475 386.601600
   1239   1242   1244     1   110.5600475 386.601600
   1240   1239   1242     1   109.8000471 387.438400
   1240   1239   1241     1   107.5800459 329.699200
   1241   1239   1242     1   109.8000471 387.438400
   1242   1245   1267     1   110.1100470 384.091200
   1243   1242   1245     1   108.0100461 406.684800
   1243   1242   1244     1   109.7500473 328.025600
   1244   1242   1245     1   108.0100461 406.684800
   1245   1246   1247     1   108.0100461 406.684800
   1245   1246   1248     1   108.0100461 406.684800
   1245   1256   1257     1   108.0100461 406.684800
   1245   1256   1258     1   108.0100461 406.684800
   1246   1245   1267     1   110.1100470 384.091200
   1246   1249   1250     1   109.8000471 387.438400
   1246   1249   1251     1   109.8000471 387.438400
   1247   1246   1249     1   110.5600475 386.601600
   1247   1246   1248     1   109.7500473 328.025600
   1248   1246   1249     1   110.5600475 386.601600
   1250   1249   1252     1   108.7700466 392.459200
   1250   1249   1251     1   107.5800459 329.699200
   1251   1249   1252     1   108.7700466 392.459200
   1252   1254   1255     1   106.5500460 417.563200
   1256   1245   1267     1   110.1100470 384.091200
   1256   1259   1260     1   109.8000471 387.438400
   1256   1259   1261     1   109.8000471 387.438400
   1257   1256   1259     1   110.5600475 386.601600
   1257   1256   1258     1   109.7500473 328.025600
   1258   1256   1259     1   110.5600475 386.601600
   1260   1259   1262     1   108.7700466 392.459200
   1260   1259   1261     1   107.5800459 329.699200
   1261   1259   1262     1   108.7700466 392.459200
   1262   1264   1265     1   106.5500460 417.563200
   1268   1271   1272     1   109.8000471 387.438400
   1268   1271   1273     1   109.8000471 387.438400
   1269   1268   1271     1   109.5600471 388.275200
   1269   1268   1298     1   109.7800468 425.094400
   1269   1268   1270     1   108.4600466 328.025600
   1270   1268   1271     1   109.5600471 388.275200
   1270   1268   1298     1   109.7800468 425.094400
   1271   1274   1275     1   110.5600475 386.601600
   1271   1274   1276     1   110.5600475 386.601600
   1272   1271   1274     1   109.8000471 387.438400
   1272   1271   1273     1   107.5800459 329.699200
   1273   1271   1274     1   109.8000471 387.438400
   1274   1277   1299     1   110.1100470 384.091200
   1275   1274   1277     1   108.0100461 406.684800
   1275   1274   1276     1   109.7500473 328.025600
   1276   1274   1277     1   108.0100461 406.684800
   1277   1278   1279     1   108.0100461 406.684800
   1277   1278   1280     1   108.0100461 406.684800
   1277   1288   1289     1   108.0100461 406.684800
   1277   1288   1290     1   108.0100461 406.684800
   1278   1281   1282     1   109.8000471 387.438400
   1278   1281   1283     1   109.8000471 387.438400
   1278   1277   1299     1   110.1100470 384.091200
   1279   1278   1281     1   110.5600475 386.601600
   1279   1278   1280     1   109.7500473 328.025600
   1280   1278   1281     1   110.5600475 386.601600
   1282   1281   1284     1   108.7700466 392.459200
   1282   1281   1283     1   107.5800459 329.699200
   1283   1281   1284     1   108.7700466 392.459200
   1284   1286   1287     1   106.5500460 417.563200
   1288   1291   1292     1   109.8000471 387.438400
   1288   1291   1293     1   109.8000471 387.438400
   1288   1277   1299     1   110.1100470 384.091200
   1289   1288   1291     1   110.5600475 386.601600
   1289   1288   1290     1   109.7500473 328.025600
   1290   1288   1291     1   110.5600475 386.601600
   1292   1291   1294     1   108.7700466 392.459200
   1292   1291   1293     1   107.5800459 329.699200
   1293   1291   1294     1   108.7700466 392.459200
   1294   1296   1297     1   106.5500460 417.563200
   1300   1303   1304     1   109.8000471 387.438400
   1300   1303   1305     1   109.8000471 387.438400
   1301   1300   1303     1   109.5600471 388.275200
   1301   1300   1330     1   109.7800468 425.094400
   1301   1300   1302     1   108.4600466 328.025600
   1302   1300   1303     1   109.5600471 388.275200
   1302   1300   1330     1   109.7800468 425.094400
   1303   1306   1307     1   110.5600475 386.601600
   1303   1306   1308     1   110.5600475 386.601600
   1304   1303   1306     1   109.8000471 387.438400
   1304   1303   1305     1   107.5800459 329.699200
   1305   1303   1306     1   109.8000471 387.438400
   1306   1309   1331     1   110.1100470 384.091200
   1307   1306   1309     1   108.0100461 406.684800
   1307   1306   1308     1   109.7500473 328.025600
   1308   1306   1309     1   108.0100461 406.684800
   1309   1310   1311     1   108.0100461 406.684800
   1309   1310   1312     1   108.0100461 406.684800
   1309   1320   1321     1   108.0100461 406.684800
   1309   1320   1322     1   108.0100461 406.684800
   1310   1309   1331     1   110.1100470 384.091200
   1310   1313   1314     1   109.8000471 387.438400
   1310   1313   1315     1   109.8000471 387.438400
   1311   1310   1313     1   110.5600475 386.601600
   1311   1310   1312     1   109.7500473 328.025600
   1312   1310   1313     1   110.5600475 386.601600
   1314   1313   1316     1   108.7700466 392.459200
   1314   1313   1315     1   107.5800459 329.699200
   1315   1313   1316     1   108.7700466 392.459200
   1316   1318   1319     1   106.5500460 417.563200
   1320   1309   1331     1   110.1100470 384.091200
   1320   1323   1324     1   109.8000471 387.438400
   1320   1323   1325     1   109.8000471 387.438400
   1321   1320   1323     1   110.5600475 386.601600
   1321   1320   1322     1   109.7500473 328.025600
   1322   1320   1323     1   110.5600475 386.601600
   1324   1323   1326     1   108.7700466 392.459200
   1324   1323   1325     1   107.5800459 329.699200
   1325   1323   1326     1   108.7700466 392.459200
   1326   1328   1329     1   106.5500460 417.563200
   1332   1335   1336     1   109.8000471 387.438400
   1332   1335   1337     1   109.8000471 387.438400
   1333   1332   1335     1   109.5600471 388.275200
   1333   1332   1362     1   109.7800468 425.094400
   1333   1332   1334     1   108.4600466 328.025600
   1334   1332   1335     1   109.5600471 388.275200
   1334   1332   1362     1   109.7800468 425.094400
   1335   1338   1339     1   110.5600475 386.601600
   1335   1338   1340     1   110.5600475 386.601600
   1336   1335   1338     1   109.8000471 387.438400
   1336   1335   1337     1   107.5800459 329.699200
   1337   1335   1338     1   109.8000471 387.438400
   1338   1341   1363     1   110.1100470 384.091200
   1339   1338   1341     1   108.0100461 406.684800
   1339   1338   1340     1   109.7500473 328.025600
   1340   1338   1341     1   108.0100461 406.684800
   1341   1342   1343     1   108.0100461 406.684800
   1341   1342   1344     1   108.0100461 406.684800
   1341   1352   1353     1   108.0100461 406.684800
   1341   1352   1354     1   108.0100461 406.684800
   1342   1345   1346     1   109.8000471 387.438400
   1342   1345   1347     1   109.8000471 387.438400
   1342   1341   1363     1   110.1100470 384.091200
   1343   1342   1345     1   110.5600475 386.601600
   1343   1342   1344     1   109.7500473 328.025600
   1344   1342   1345     1   110.5600475 386.601600
   1346   1345   1348     1   108.7700466 392.459200
   1346   1345   1347     1   107.5800459 329.699200
   1347   1345   1348     1   108.7700466 392.459200
   1348   1350   1351     1   106.5500460 417.563200
   1352   1355   1356     1   109.8000471 387.438400
   1352   1355   1357     1   109.8000471 387.438400
   1352   1341   1363     1   110.1100470 384.091200
   1353   1352   1355     1   110.5600475 386.601600
   1353   1352   1354     1   109.7500473 328.025600
   1354   1352   1355     1   110.5600475 386.601600
   1356   1355   1358     1   108.7700466 392.459200
   1356   1355   1357     1   107.5800459 329.699200
   1357   1355   1358     1   108.7700466 392.459200
   1358   1360   1361     1   106.5500460 417.563200
   1364   1367   1368     1   109.8000471 387.438400
   1364   1367   1369     1   109.8000471 387.438400
   1365   1364   1367     1   109.5600471 388.275200
   1365   1364   1394     1   109.7800468 425.094400
   1365   1364   1366     1   108.4600466 328.025600
   1366   1364   1367     1   109.5600471 388.275200
   1366   1364   1394     1   109.7800468 425.094400
   1367   1370   1371     1   110.5600475 386.601600
   1367   1370   1372     1   110.5600475 386.601600
   1368   1367   1370     1   109.8000471 387.438400
   1368   1367   1369     1   107.5800459 329.699200
   1369   1367   1370     1   109.8000471 387.438400
   1370   1373   1395     1   110.1100470 384.091200
   1371   1370   1373     1   108.0100461 406.684800
   1371   1370   1372     1   109.7500473 328.025600
   1372   1370   1373     1   108.0100461 406.684800
   1373   1374   1375     1   108.0100461 406.684800
   1373   1374   1376     1   108.0100461 406.684800
   1373   1384   1385     1   108.0100461 406.684800
   1373   1384   1386     1   108.0100461 406.684800
   1374   1373   1395     1   110.1100470 384.091200
   1374   1377   1378     1   109.8000471 387.438400
   1374   1377   1379     1   109.8000471 387.438400
   1375   1374   1377     1   110.5600475 386.601600
   1375   1374   1376     1   109.7500473 328.025600
   1376   1374   1377     1   110.5600475 386.601600
   1378   1377   1380     1   108.7700466 392.459200
   1378   1377   1379     1   107.5800459 329.699200
   1379   1377   1380     1   108.7700466 392.459200
   1380   1382   1383     1   106.5500460 417.563200
   1384   1373   1395     1   110.1100470 384.091200
   1384   1387   1388     1   109.8000471 387.438400
   1384   1387   1389     1   109.8000471 387.438400
   1385   1384   1387     1   110.5600475 386.601600
   1385   1384   1386     1   109.7500473 328.025600
   1386   1384   1387     1   110.5600475 386.601600
   1388   1387   1390     1   108.7700466 392.459200
   1388   1387   1389     1   107.5800459 329.699200
   1389   1387   1390     1   108.7700466 392.459200
   1390   1392   1393     1   106.5500460 417.563200
   1396   1399   1400     1   109.8000471 387.438400
   1396   1399   1401     1   109.8000471 387.438400
   1397   1396   1399     1   109.5600471 388.275200
   1397   1396   1426     1   109.7800468 425.094400
   1397   1396   1398     1   108.4600466 328.025600
   1398   1396   1399     1   109.5600471 388.275200
   1398   1396   1426     1   109.7800468 425.094400
   1399   1402   1403     1   110.5600475 386.601600
   1399   1402   1404     1   110.5600475 386.601600
   1400   1399   1402     1   109.8000471 387.438400
   1400   1399   1401     1   107.5800459 329.699200
   1401   1399   1402     1   109.8000471 387.438400
   1402   1405   1427     1   110.1100470 384.091200
   1403   1402   1405     1   108.0100461 406.684800
   1403   1402   1404     1   109.7500473 328.025600
   1404   1402   1405     1   108.0100461 406.684800
   1405   1406   1407     1   108.0100461 406.684800
   1405   1406   1408     1   108.0100461 406.684800
   1405   1416   1417     1   108.0100461 406.684800
   1405   1416   1418     1   108.0100461 406.684800
   1406   1409   1410     1   109.8000471 387.438400
   1406   1409   1411     1   109.8000471 387.438400
   1406   1405   1427     1   110.1100470 384.091200
   1407   1406   1409     1   110.5600475 386.601600
   1407   1406   1408     1   109.7500473 328.025600
   1408   1406   1409     1   110.5600475 386.601600
   1410   1409   1412     1   108.7700466 392.459200
   1410   1409   1411     1   107.5800459 329.699200
   1411   1409   1412     1   108.7700466 392.459200
   1412   1414   1415     1   106.5500460 417.563200
   1416   1419   1420     1   109.8000471 387.438400
   1416   1419   1421     1   109.8000471 387.438400
   1416   1405   1427     1   110.1100470 384.091200
   1417   1416   1419     1   110.5600475 386.601600
   1417   1416   1418     1   109.7500473 328.025600
   1418   1416   1419     1   110.5600475 386.601600
   1420   1419   1422     1   108.7700466 392.459200
   1420   1419   1421     1   107.5800459 329.699200
   1421   1419   1422     1   108.7700466 392.459200
   1422   1424   1425     1   106.5500460 417.563200

[ dihedrals ]
;    ai     aj     ak     al funct         c0         c1         c2         c3         c4         c5
      1      2     14     26     1  0.0000000  0.6508444  3
      1      5     17     20     1  0.0000000  0.6508444  3
      1      8     11     23     1  0.0000000  0.6508444  3
      2      1      5     17     1  0.0000000  0.6508444  3
      2      1      8     11     1  0.0000000  0.6508444  3
      2     14     26    118     1  0.0000000  0.6508444  3
      5      1      2     14     1  0.0000000  0.6508444  3
      5      1      8     11     1  0.0000000  0.6508444  3
      5     17     20     58     1  0.0000000  0.6508444  3
      8      1      2     14     1  0.0000000  0.6508444  3
      8      1      5     17     1  0.0000000  0.6508444  3
      8     11     23     88     1  0.0000000  0.6508444  3
     11     23     88     79     1  180.0000771  0.4184000  2
     11     23     88     79     1  0.0000000  1.6024720  3
     14     26    118    109     1  180.0000771  0.4184000  2
     14     26    118    109     1  0.0000000  1.6024720  3
     17     20     58     49     1  180.0000771  0.4184000  2
     17     20     58     49     1  0.0000000  1.6024720  3
     20     58     49     40     1  180.0000771  0.4184000  2
     20     58     49     40     1  0.0000000  1.6024720  3
     23     88     79     70     1  180.0000771  0.4184000  2
     23     88     79     70     1  0.0000000  1.6024720  3
     26    118    109    100     1  180.0000771  0.4184000  2
     26    118    109    100     1  0.0000000  1.6024720  3
     30     31     43     55     1  0.0000000  0.6508444  3
     30     34     46     52     1  0.0000000  0.6508444  3
     30     37     40     49     1  0.0000000  0.6508444  3
     31     30     34     46     1  0.0000000  0.6508444  3
     31     30     37     40     1  0.0000000  0.6508444  3
     31     43     55    178     1  0.0000000  0.6508444  3
     34     30     31     43     1  0.0000000  0.6508444  3
     34     30     37     40     1  0.0000000  0.6508444  3
     34     46     52    148     1  0.0000000  0.6508444  3
     37     30     31     43     1  0.0000000  0.6508444  3
     37     30     34     46     1  0.0000000  0.6508444  3
     37     40     49     58     1  0.0000000  0.6508444  3
     43     55    178    169     1  180.0000771  0.4184000  2
     43     55    178    169     1  0.0000000  1.6024720  3
     46     52    148    139     1  180.0000771  0.4184000  2
     46     52    148    139     1  0.0000000  1.6024720  3
     52    148    139    130     1  180.0000771  0.4184000  2
     52    148    139    130     1  0.0000000  1.6024720  3
     55    178    169    160     1  180.0000771  0.4184000  2
     55    178    169    160     1  0.0000000  1.6024720  3
     60     61     73     85     1  0.0000000  0.6508444  3
     60     64     76     82     1  0.0000000  0.6508444  3
     60     67     70     79     1  0.0000000  0.6508444  3
     61     60     64     76     1  0.0000000  0.6508444  3
     61     60     67     70     1  0.0000000  0.6508444  3
     61     73     85    238     1  0.0000000  0.6508444  3
     64     60     61     73     1  0.0000000  0.6508444  3
     64     60     67     70     1  0.0000000  0.6508444  3
     64     76     82    208     1  0.0000000  0.6508444  3
     67     60     61     73     1  0.0000000  0.6508444  3
     67     60     64     76     1  0.0000000  0.6508444  3
     67     70     79     88     1  0.0000000  0.6508444  3
     73     85    238    229     1  180.0000771  0.4184000  2
     73     85    238    229     1  0.0000000  1.6024720  3
     76     82    208    199     1  180.0000771  0.4184000  2
     76     82    208    199     1  0.0000000  1.6024720  3
     82    208    199    190     1  180.0000771  0.4184000  2
     82    208    199    190     1  0.0000000  1.6024720  3
     85    238    229    220     1  180.0000771  0.4184000  2
     85    238    229    220     1  0.0000000  1.6024720  3
     90     91    103    115     1  0.0000000  0.6508444  3
     90     94    106    112     1  0.0000000  0.6508444  3
     90     97    100    109     1  0.0000000  0.6508444  3
     91     90     94    106     1  0.0000000  0.6508444  3
     91     90     97    100     1  0.0000000  0.6508444  3
     91    103    115    298     1  0.0000000  0.6508444  3
     94     90     91    103     1  0.0000000  0.6508444  3
     94     90     97    100     1  0.0000000  0.6508444  3
     94    106    112    268     1  0.0000000  0.6508444  3
     97     90     91    103     1  0.0000000  0.6508444  3
     97     90     94    106     1  0.0000000  0.6508444  3
     97    100    109    118     1  0.0000000  0.6508444  3
    103    115    298    289     1  180.0000771  0.4184000  2
    103    115    298    289     1  0.0000000  1.6024720  3
    106    112    268    259     1  180.0000771  0.4184000  2
    106    112    268    259     1  0.0000000  1.6024720  3
    112    268    259    250     1  180.0000771  0.4184000  2
    112    268    259    250     1  0.0000000  1.6024720  3
    115    298    289    280     1  180.0000771  0.4184000  2
    115    298    289    280     1  0.0000000  1.6024720  3
    120    121    133    145     1  0.0000000  0.6508444  3
    120    124    136    142     1  0.0000000  0.6508444  3
    120    127    130    139     1  0.0000000  0.6508444  3
    121    120    124    136     1  0.0000000  0.6508444  3
    121    120    127    130     1  0.0000000  0.6508444  3
    121    133    145    358     1  0.0000000  0.6508444  3
    124    120    121    133     1  0.0000000  0.6508444  3
    124    120    127    130     1  0.0000000  0.6508444  3
    124    136    142    328     1  0.0000000  0.6508444  3
    127    120    121    133     1  0.0000000  0.6508444  3
    127    120    124    136     1  0.0000000  0.6508444  3
    127    130    139    148     1  0.0000000  0.6508444  3
    133    145    358    349     1  180.0000771  0.4184000  2
    133    145    358    349     1  0.0000000  1.6024720  3
    136    142    328    319     1  180.0000771  0.4184000  2
    136    142    328    319     1  0.0000000  1.6024720  3
    142    328    319    310     1  180.0000771  0.4184000  2
    142    328    319    310     1  0.0000000  1.6024720  3
    145    358    349    340     1  180.0000771  0.4184000  2
    145    358    349    340     1  0.0000000  1.6024720  3
    150    151    163    175     1  0.0000000  0.6508444  3
    150    154    166    172     1  0.0000000  0.6508444  3
    150    157    160    169     1  0.0000000  0.6508444  3
    151    150    154    166     1  0.0000000  0.6508444  3
    151    150    157    160     1  0.0000000  0.6508444  3
    151    163    175    418     1  0.0000000  0.6508444  3
    154    150    151    163     1  0.0000000  0.6508444  3
    154    150    157    160     1  0.0000000  0.6508444  3
    154    166    172    388     1  0.0000000  0.6508444  3
    157    150    151    163     1  0.0000000  0.6508444  3
    157    150    154    166     1  0.0000000  0.6508444  3
    157    160    169    178     1  0.0000000  0.6508444  3
    163    175    418    409     1  180.0000771  0.4184000  2
    163    175    418    409     1  0.0000000  1.6024720  3
    166    172    388    379     1  180.0000771  0.4184000  2
    166    172    388    379     1  0.0000000  1.6024720  3
    172    388    379    370     1  180.0000771  0.4184000  2
    172    388    379    370     1  0.0000000  1.6024720  3
    175    418    409    400     1  180.0000771  0.4184000  2
    175    418    409    400     1  0.0000000  1.6024720  3
    180    181    193    205     1  0.0000000  0.6508444  3
    180    184    196    202     1  0.0000000  0.6508444  3
    180    187    190    199     1  0.0000000  0.6508444  3
    181    180    184    196     1  0.0000000  0.6508444  3
    181    180    187    190     1  0.0000000  0.6508444  3
    181    193    205    478     1  0.0000000  0.6508444  3
    184    180    181    193     1  0.0000000  0.6508444  3
    184    180    187    190     1  0.0000000  0.6508444  3
    184    196    202    448     1  0.0000000  0.6508444  3
    187    180    181    193     1  0.0000000  0.6508444  3
    187    180    184    196     1  0.0000000  0.6508444  3
    187    190    199    208     1  0.0000000  0.6508444  3
    193    205    478    469     1  180.0000771  0.4184000  2
    193    205    478    469     1  0.0000000  1.6024720  3
    196    202    448    439     1  180.0000771  0.4184000  2
    196    202    448    439     1  0.0000000  1.6024720  3
    202    448    439    430     1  180.0000771  0.4184000  2
    202    448    439    430     1  0.0000000  1.6024720  3
    205    478    469    460     1  180.0000771  0.4184000  2
    205    478    469    460     1  0.0000000  1.6024720  3
    210    211    223    235     1  0.0000000  0.6508444  3
    210    214    226    232     1  0.0000000  0.6508444  3
    210    217    220    229     1  0.0000000  0.6508444  3
    211    210    214    226     1  0.0000000  0.6508444  3
    211    210    217    220     1  0.0000000  0.6508444  3
    211    223    235    538     1  0.0000000  0.6508444  3
    214    210    211    223     1  0.0000000  0.6508444  3
    214    210    217    220     1  0.0000000  0.6508444  3
    214    226    232    508     1  0.0000000  0.6508444  3
    217    210    211    223     1  0.0000000  0.6508444  3
    217    210    214    226     1  0.0000000  0.6508444  3
    217    220    229    238     1  0.0000000  0.6508444  3
    223    235    538    529     1  180.0000771  0.4184000  2
    223    235    538    529     1  0.0000000  1.6024720  3
    226    232    508    499     1  180.0000771  0.4184000  2
    226    232    508    499     1  0.0000000  1.6024720  3
    232    508    499    490     1  180.0000771  0.4184000  2
    232    508    499    490     1  0.0000000  1.6024720  3
    235    538    529    520     1  180.0000771  0.4184000  2
    235    538    529    520     1  0.0000000  1.6024720  3
    240    241    253    265     1  0.0000000  0.6508444  3
    240    244    256    262     1  0.0000000  0.6508444  3
    240    247    250    259     1  0.0000000  0.6508444  3
    241    240    244    256     1  0.0000000  0.6508444  3
    241    240    247    250     1  0.0000000  0.6508444  3
    241    253    265    598     1  0.0000000  0.6508444  3
    244    240    241    253     1  0.0000000  0.6508444  3
    244    240    247    250     1  0.0000000  0.6508444  3
    244    256    262    568     1  0.0000000  0.6508444  3
    247    240    241    253     1  0.0000000  0.6508444  3
    247    240    244    256     1  0.0000000  0.6508444  3
    247    250    259    268     1  0.0000000  0.6508444  3
    253    265    598    589     1  180.0000771  0.4184000  2
    253    265    598    589     1  0.0000000  1.6024720  3
    256    262    568    559     1  180.0000771  0.4184000  2
    256    262    568    559     1  0.0000000  1.6024720  3
    262    568    559    550     1  180.0000771  0.4184000  2
    262    568    559    550     1  0.0000000  1.6024720  3
    265    598    589    580     1  180.0000771  0.4184000  2
    265    598    589    580     1  0.0000000  1.6024720  3
    270    271    283    295     1  0.0000000  0.6508444  3
    270    274    286    292     1  0.0000000  0.6508444  3
    270    277    280    289     1  0.0000000  0.6508444  3
    271    270    274    286     1  0.0000000  0.6508444  3
    271    270    277    280     1  0.0000000  0.6508444  3
    271    283    295    658     1  0.0000000  0.6508444  3
    274    270    271    283     1  0.0000000  0.6508444  3
    274    270    277    280     1  0.0000000  0.6508444  3
    274    286    292    628     1  0.0000000  0.6508444  3
    277    270    271    283     1  0.0000000  0.6508444  3
    277    270    274    286     1  0.0000000  0.6508444  3
    277    280    289    298     1  0.0000000  0.6508444  3
    283    295    658    649     1  180.0000771  0.4184000  2
    283    295    658    649     1  0.0000000  1.6024720  3
    286    292    628    619     1  180.0000771  0.4184000  2
    286    292    628    619     1  0.0000000  1.6024720  3
    292    628    619    610     1  180.0000771  0.4184000  2
    292    628    619    610     1  0.0000000  1.6024720  3
    295    658    649    640     1  180.0000771  0.4184000  2
    295    658    649    640     1  0.0000000  1.6024720  3
    300    301    313    325     1  0.0000000  0.6508444  3
    300    304    316    322     1  0.0000000  0.6508444  3
    300    307    310    319     1  0.0000000  0.6508444  3
    301    300    304    316     1  0.0000000  0.6508444  3
    301    300    307    310     1  0.0000000  0.6508444  3
    301    313    325    722     1  0.0000000  0.6508444  3
    304    300    301    313     1  0.0000000  0.6508444  3
    304    300    307    310     1  0.0000000  0.6508444  3
    304    316    322    690     1  0.0000000  0.6508444  3
    307    300    301    313     1  0.0000000  0.6508444  3
    307    300    304    316     1  0.0000000  0.6508444  3
    307    310    319    328     1  0.0000000  0.6508444  3
    313    325    722    692     1  180.0000771  0.4184000  2
    313    325    722    692     1  0.0000000  1.6024720  3
    316    322    690    660     1  180.0000771  0.4184000  2
    316    322    690    660     1  0.0000000  1.6024720  3
    322    690    660    663     1  180.0000771  0.4184000  2
    322    690    660    663     1  0.0000000  1.6024720  3
    325    722    692    695     1  180.0000771  0.4184000  2
    325    722    692    695     1  0.0000000  1.6024720  3
    330    331    343    355     1  0.0000000  0.6508444  3
    330    334    346    352     1  0.0000000  0.6508444  3
    330    337    340    349     1  0.0000000  0.6508444  3
    331    330    334    346     1  0.0000000  0.6508444  3
    331    330    337    340     1  0.0000000  0.6508444  3
    331    343    355    786     1  0.0000000  0.6508444  3
    334    330    331    343     1  0.0000000  0.6508444  3
    334    330    337    340     1  0.0000000  0.6508444  3
    334    346    352    754     1  0.0000000  0.6508444  3
    337    330    331    343     1  0.0000000  0.6508444  3
    337    330    334    346     1  0.0000000  0.6508444  3
    337    340    349    358     1  0.0000000  0.6508444  3
    343    355    786    756     1  180.0000771  0.4184000  2
    343    355    786    756     1  0.0000000  1.6024720  3
    346    352    754    724     1  180.0000771  0.4184000  2
    346    352    754    724     1  0.0000000  1.6024720  3
    352    754    724    727     1  180.0000771  0.4184000  2
    352    754    724    727     1  0.0000000  1.6024720  3
    355    786    756    759     1  180.0000771  0.4184000  2
    355    786    756    759     1  0.0000000  1.6024720  3
    360    361    373    385     1  0.0000000  0.6508444  3
    360    364    376    382     1  0.0000000  0.6508444  3
    360    367    370    379     1  0.0000000  0.6508444  3
    361    360    364    376     1  0.0000000  0.6508444  3
    361    360    367    370     1  0.0000000  0.6508444  3
    361    373    385    850     1  0.0000000  0.6508444  3
    364    360    361    373     1  0.0000000  0.6508444  3
    364    360    367    370     1  0.0000000  0.6508444  3
    364    376    382    818     1  0.0000000  0.6508444  3
    367    360    361    373     1  0.0000000  0.6508444  3
    367    360    364    376     1  0.0000000  0.6508444  3
    367    370    379    388     1  0.0000000  0.6508444  3
    373    385    850    820     1  180.0000771  0.4184000  2
    373    385    850    820     1  0.0000000  1.6024720  3
    376    382    818    788     1  180.0000771  0.4184000  2
    376    382    818    788     1  0.0000000  1.6024720  3
    382    818    788    791     1  180.0000771  0.4184000  2
    382    818    788    791     1  0.0000000  1.6024720  3
    385    850    820    823     1  180.0000771  0.4184000  2
    385    850    820    823     1  0.0000000  1.6024720  3
    390    391    403    415     1  0.0000000  0.6508444  3
    390    394    406    412     1  0.0000000  0.6508444  3
    390    397    400    409     1  0.0000000  0.6508444  3
    391    390    394    406     1  0.0000000  0.6508444  3
    391    390    397    400     1  0.0000000  0.6508444  3
    391    403    415    914     1  0.0000000  0.6508444  3
    394    390    391    403     1  0.0000000  0.6508444  3
    394    390    397    400     1  0.0000000  0.6508444  3
    394    406    412    882     1  0.0000000  0.6508444  3
    397    390    391    403     1  0.0000000  0.6508444  3
    397    390    394    406     1  0.0000000  0.6508444  3
    397    400    409    418     1  0.0000000  0.6508444  3
    403    415    914    884     1  180.0000771  0.4184000  2
    403    415    914    884     1  0.0000000  1.6024720  3
    406    412    882    852     1  180.0000771  0.4184000  2
    406    412    882    852     1  0.0000000  1.6024720  3
    412    882    852    855     1  180.0000771  0.4184000  2
    412    882    852    855     1  0.0000000  1.6024720  3
    415    914    884    887     1  180.0000771  0.4184000  2
    415    914    884    887     1  0.0000000  1.6024720  3
    420    421    433    445     1  0.0000000  0.6508444  3
    420    424    436    442     1  0.0000000  0.6508444  3
    420    427    430    439     1  0.0000000  0.6508444  3
    421    420    424    436     1  0.0000000  0.6508444  3
    421    420    427    430     1  0.0000000  0.6508444  3
    421    433    445    978     1  0.0000000  0.6508444  3
    424    420    421    433     1  0.0000000  0.6508444  3
    424    420    427    430     1  0.0000000  0.6508444  3
    424    436    442    946     1  0.0000000  0.6508444  3
    427    420    421    433     1  0.0000000  0.6508444  3
    427    420    424    436     1  0.0000000  0.6508444  3
    427    430    439    448     1  0.0000000  0.6508444  3
    433    445    978    948     1  180.0000771  0.4184000  2
    433    445    978    948     1  0.0000000  1.6024720  3
    436    442    946    916     1  180.0000771  0.4184000  2
    436    442    946    916     1  0.0000000  1.6024720  3
    442    946    916    919     1  180.0000771  0.4184000  2
    442    946    916    919     1  0.0000000  1.6024720  3
    445    978    948    951     1  180.0000771  0.4184000  2
    445    978    948    951     1  0.0000000  1.6024720  3
    450    451    463    475     1  0.0000000  0.6508444  3
    450    454    466    472     1  0.0000000  0.6508444  3
    450    457    460    469     1  0.0000000  0.6508444  3
    451    450    454    466     1  0.0000000  0.6508444  3
    451    450    457    460     1  0.0000000  0.6508444  3
    451    463    475   1042     1  0.0000000  0.6508444  3
    454    450    451    463     1  0.0000000  0.6508444  3
    454    450    457    460     1  0.0000000  0.6508444  3
    454    466    472   1010     1  0.0000000  0.6508444  3
    457    450    451    463     1  0.0000000  0.6508444  3
    457    450    454    466     1  0.0000000  0.6508444  3
    457    460    469    478     1  0.0000000  0.6508444  3
    463    475   1042   1012     1  180.0000771  0.4184000  2
    463    475   1042   1012     1  0.0000000  1.6024720  3
    466    472   1010    980     1  180.0000771  0.4184000  2
    466    472   1010    980     1  0.0000000  1.6024720  3
    472   1010    980    983     1  180.0000771  0.4184000  2
    472   1010    980    983     1  0.0000000  1.6024720  3
    475   1042   1012   1015     1  180.0000771  0.4184000  2
    475   1042   1012   1015     1  0.0000000  1.6024720  3
    480    481    493    505     1  0.0000000  0.6508444  3
    480    484    496    502     1  0.0000000  0.6508444  3
    480    487    490    499     1  0.0000000  0.6508444  3
    481    480    484    496     1  0.0000000  0.6508444  3
    481    480    487    490     1  0.0000000  0.6508444  3
    481    493    505   1106     1  0.0000000  0.6508444  3
    484    480    481    493     1  0.0000000  0.6508444  3
    484    480    487    490     1  0.0000000  0.6508444  3
    484    496    502   1074     1  0.0000000  0.6508444  3
    487    480    481    493     1  0.0000000  0.6508444  3
    487    480    484    496     1  0.0000000  0.6508444  3
    487    490    499    508     1  0.0000000  0.6508444  3
    493    505   1106   1076     1  180.0000771  0.4184000  2
    493    505   1106   1076     1  0.0000000  1.6024720  3
    496    502   1074   1044     1  180.0000771  0.4184000  2
    496    502   1074   1044     1  0.0000000  1.6024720  3
    502   1074   1044   1047     1  180.0000771  0.4184000  2
    502   1074   1044   1047     1  0.0000000  1.6024720  3
    505   1106   1076   1079     1  180.0000771  0.4184000  2
    505   1106   1076   1079     1  0.0000000  1.6024720  3
    510    511    523    535     1  0.0000000  0.6508444  3
    510    514    526    532     1  0.0000000  0.6508444  3
    510    517    520    529     1  0.0000000  0.6508444  3
    511    510    514    526     1  0.0000000  0.6508444  3
    511    510    517    520     1  0.0000000  0.6508444  3
    511    523    535   1170     1  0.0000000  0.6508444  3
    514    510    511    523     1  0.0000000  0.6508444  3
    514    510    517    520     1  0.0000000  0.6508444  3
    514    526    532   1138     1  0.0000000  0.6508444  3
    517    510    511    523     1  0.0000000  0.6508444  3
    517    510    514    526     1  0.0000000  0.6508444  3
    517    520    529    538     1  0.0000000  0.6508444  3
    523    535   1170   1140     1  180.0000771  0.4184000  2
    523    535   1170   1140     1  0.0000000  1.6024720  3
    526    532   1138   1108     1  180.0000771  0.4184000  2
    526    532   1138   1108     1  0.0000000  1.6024720  3
    532   1138   1108   1111     1  180.0000771  0.4184000  2
    532   1138   1108   1111     1  0.0000000  1.6024720  3
    535   1170   1140   1143     1  180.0000771  0.4184000  2
    535   1170   1140   1143     1  0.0000000  1.6024720  3
    540    541    553    565     1  0.0000000  0.6508444  3
    540    544    556    562     1  0.0000000  0.6508444  3
    540    547    550    559     1  0.0000000  0.6508444  3
    541    540    544    556     1  0.0000000  0.6508444  3
    541    540    547    550     1  0.0000000  0.6508444  3
    541    553    565   1234     1  0.0000000  0.6508444  3
    544    540    541    553     1  0.0000000  0.6508444  3
    544    540    547    550     1  0.0000000  0.6508444  3
    544    556    562   1202     1  0.0000000  0.6508444  3
    547    540    541    553     1  0.0000000  0.6508444  3
    547    540    544    556     1  0.0000000  0.6508444  3
    547    550    559    568     1  0.0000000  0.6508444  3
    553    565   1234   1204     1  180.0000771  0.4184000  2
    553    565   1234   1204     1  0.0000000  1.6024720  3
    556    562   1202   1172     1  180.0000771  0.4184000  2
    556    562   1202   1172     1  0.0000000  1.6024720  3
    562   1202   1172   1175     1  180.0000771  0.4184000  2
    562   1202   1172   1175     1  0.0000000  1.6024720  3
    565   1234   1204   1207     1  180.0000771  0.4184000  2
    565   1234   1204   1207     1  0.0000000  1.6024720  3
    570    571    583    595     1  0.0000000  0.6508444  3
    570    574    586    592     1  0.0000000  0.6508444  3
    570    577    580    589     1  0.0000000  0.6508444  3
    571    570    574    586     1  0.0000000  0.6508444  3
    571    570    577    580     1  0.0000000  0.6508444  3
    571    583    595   1298     1  0.0000000  0.6508444  3
    574    570    571    583     1  0.0000000  0.6508444  3
    574    570    577    580     1  0.0000000  0.6508444  3
    574    586    592   1266     1  0.0000000  0.6508444  3
    577    570    571    583     1  0.0000000  0.6508444  3
    577    570    574    586     1  0.0000000  0.6508444  3
    577    580    589    598     1  0.0000000  0.6508444  3
    583    595   1298   1268     1  180.0000771  0.4184000  2
    583    595   1298   1268     1  0.0000000  1.6024720  3
    586    592   1266   1236     1  180.0000771  0.4184000  2
    586    592   1266   1236     1  0.0000000  1.6024720  3
    592   1266   1236   1239     1  180.0000771  0.4184000  2
    592   1266   1236   1239     1  0.0000000  1.6024720  3
    595   1298   1268   1271     1  180.0000771  0.4184000  2
    595   1298   1268   1271     1  0.0000000  1.6024720  3
    600    601    613    625     1  0.0000000  0.6508444  3
    600    604    616    622     1  0.0000000  0.6508444  3
    600    607    610    619     1  0.0000000  0.6508444  3
    601    600    604    616     1  0.0000000  0.6508444  3
    601    600    607    610     1  0.0000000  0.6508444  3
    601    613    625   1362     1  0.0000000  0.6508444  3
    604    600    601    613     1  0.0000000  0.6508444  3
    604    600    607    610     1  0.0000000  0.6508444  3
    604    616    622   1330     1  0.0000000  0.6508444  3
    607    600    601    613     1  0.0000000  0.6508444  3
    607    600    604    616     1  0.0000000  0.6508444  3
    607    610    619    628     1  0.0000000  0.6508444  3
    613    625   1362   1332     1  180.0000771  0.4184000  2
    613    625   1362   1332     1  0.0000000  1.6024720  3
    616    622   1330   1300     1  180.0000771  0.4184000  2
    616    622   1330   1300     1  0.0000000  1.6024720  3
    622   1330   1300   1303     1  180.0000771  0.4184000  2
    622   1330   1300   1303     1  0.0000000  1.6024720  3
    625   1362   1332   1335     1  180.0000771  0.4184000  2
    625   1362   1332   1335     1  0.0000000  1.6024720  3
    630    631    643    655     1  0.0000000  0.6508444  3
    630    634    646    652     1  0.0000000  0.6508444  3
    630    637    640    649     1  0.0000000  0.6508444  3
    631    630    634    646     1  0.0000000  0.6508444  3
    631    630    637    640     1  0.0000000  0.6508444  3
    631    643    655   1426     1  0.0000000  0.6508444  3
    634    630    631    643     1  0.0000000  0.6508444  3
    634    630    637    640     1  0.0000000  0.6508444  3
    634    646    652   1394     1  0.0000000  0.6508444  3
    637    630    631    643     1  0.0000000  0.6508444  3
    637    630    634    646     1  0.0000000  0.6508444  3
    637    640    649    658     1  0.0000000  0.6508444  3
    643    655   1426   1396     1  180.0000771  0.4184000  2
    643    655   1426   1396     1  0.0000000  1.6024720  3
    646    652   1394   1364     1  180.0000771  0.4184000  2
    646    652   1394   1364     1  0.0000000  1.6024720  3
    652   1394   1364   1367     1  180.0000771  0.4184000  2
    652   1394   1364   1367     1  0.0000000  1.6024720  3
    655   1426   1396   1399     1  180.0000771  0.4184000  2
    655   1426   1396   1399     1  0.0000000  1.6024720  3
    660    663    666    669     1  0.0000000  0.6508444  3
    663    666    669    670     1  0.0000000  0.6508444  3
    663    666    669    680     1  0.0000000  0.6508444  3
    666    663    660    690     1  0.0000000  0.6508444  3
    666    669    670    673     1  0.0000000  0.6508444  3
    666    669    680    683     1  0.0000000  0.6508444  3
    669    670    673    676     1  0.0000000  0.6508444  3
    669    680    683    686     1  0.0000000  0.6508444  3
    670    669    680    683     1  0.0000000  0.6508444  3
    670    673    676    677     1  180.0000771  0.0000000  2
    670    673    676    678     1  180.0000771  0.0000000  2
    673    670    669    680     1  0.0000000  0.6508444  3
    680    683    686    687     1  180.0000771  0.0000000  2
    680    683    686    688     1  180.0000771  0.0000000  2
    692    695    698    701     1  0.0000000  0.6508444  3
    695    698    701    702     1  0.0000000  0.6508444  3
    695    698    701    712     1  0.0000000  0.6508444  3
    698    701    702    705     1  0.0000000  0.6508444  3
    698    701    712    715     1  0.0000000  0.6508444  3
    698    695    692    722     1  0.0000000  0.6508444  3
    701    702    705    708     1  0.0000000  0.6508444  3
    701    712    715    718     1  0.0000000  0.6508444  3
    702    705    708    709     1  180.0000771  0.0000000  2
    702    705    708    710     1  180.0000771  0.0000000  2
    702    701    712    715     1  0.0000000  0.6508444  3
    705    702    701    712     1  0.0000000  0.6508444  3
    712    715    718    719     1  180.0000771  0.0000000  2
    712    715    718    720     1  180.0000771  0.0000000  2
    724    727    730    733     1  0.0000000  0.6508444  3
    727    730    733    734     1  0.0000000  0.6508444  3
    727    730    733    744     1  0.0000000  0.6508444  3
    730    727    724    754     1  0.0000000  0.6508444  3
    730    733    734    737     1  0.0000000  0.6508444  3
    730    733    744    747     1  0.0000000  0.6508444  3
    733    734    737    740     1  0.0000000  0.6508444  3
    733    744    747    750     1  0.0000000  0.6508444  3
    734    733    744    747     1  0.0000000  0.6508444  3
    734    737    740    741     1  180.0000771  0.0000000  2
    734    737    740    742     1  180.0000771  0.0000000  2
    737    734    733    744     1  0.0000000  0.6508444  3
    744    747    750    751     1  180.0000771  0.0000000  2
    744    747    750    752     1  180.0000771  0.0000000  2
    756    759    762    765     1  0.0000000  0.6508444  3
    759    762    765    766     1  0.0000000  0.6508444  3
    759    762    765    776     1  0.0000000  0.6508444  3
    762    765    766    769     1  0.0000000  0.6508444  3
    762    765    776    779     1  0.0000000  0.6508444  3
    762    759    756    786     1  0.0000000  0.6508444  3
    765    766    769    772     1  0.0000000  0.6508444  3
    765    776    779    782     1  0.0000000  0.6508444  3
    766    769    772    773     1  180.0000771  0.0000000  2
    766    769    772    774     1  180.0000771  0.0000000  2
    766    765    776    779     1  0.0000000  0.6508444  3
    769    766    765    776     1  0.0000000  0.6508444  3
    776    779    782    783     1  180.0000771  0.0000000  2
    776    779    782    784     1  180.0000771  0.0000000  2
    788    791    794    797     1  0.0000000  0.6508444  3
    791    794    797    798     1  0.0000000  0.6508444  3
    791    794    797    808     1  0.0000000  0.6508444  3
    794    791    788    818     1  0.0000000  0.6508444  3
    794    797    798    801     1  0.0000000  0.6508444  3
    794    797    808    811     1  0.0000000  0.6508444  3
    797    798    801    804     1  0.0000000  0.6508444  3
    797    808    811    814     1  0.0000000  0.6508444  3
    798    797    808    811     1  0.0000000  0.6508444  3
    798    801    804    805     1  180.0000771  0.0000000  2
    798    801    804    806     1  180.0000771  0.0000000  2
    801    798    797    808     1  0.0000000  0.6508444  3
    808    811    814    815     1  180.0000771  0.0000000  2
    808    811    814    816     1  180.0000771  0.0000000  2
    820    823    826    829     1  0.0000000  0.6508444  3
    823    826    829    830     1  0.0000000  0.6508444  3
    823    826    829    840     1  0.0000000  0.6508444  3
    826    829    830    833     1  0.0000000  0.6508444  3
    826    829    840    843     1  0.0000000  0.6508444  3
    826    823    820    850     1  0.0000000  0.6508444  3
    829    830    833    836     1  0.0000000  0.6508444  3
    829    840    843    846     1  0.0000000  0.6508444  3
    830    833    836    837     1  180.0000771  0.0000000  2
    830    833    836    838     1  180.0000771  0.0000000  2
    830    829    840    843     1  0.0000000  0.6508444  3
    833    830    829    840     1  0.0000000  0.6508444  3
    840    843    846    847     1  180.0000771  0.0000000  2
    840    843    846    848     1  180.0000771  0.0000000  2
    852    855    858    861     1  0.0000000  0.6508444  3
    855    858    861    862     1  0.0000000  0.6508444  3
    855    858    861    872     1  0.0000000  0.6508444  3
    858    855    852    882     1  0.0000000  0.6508444  3
    858    861    862    865     1  0.0000000  0.6508444  3
    858    861    872    875     1  0.0000000  0.6508444  3
    861    862    865    868     1  0.0000000  0.6508444  3
    861    872    875    878     1  0.0000000  0.6508444  3
    862    861    872    875     1  0.0000000  0.6508444  3
    862    865    868    869     1  180.0000771  0.0000000  2
    862    865    868    870     1  180.0000771  0.0000000  2
    865    862    861    872     1  0.0000000  0.6508444  3
    872    875    878    879     1  180.0000771  0.0000000  2
    872    875    878    880     1  180.0000771  0.0000000  2
    884    887    890    893     1  0.0000000  0.6508444  3
    887    890    893    894     1  0.0000000  0.6508444  3
    887    890    893    904     1  0.0000000  0.6508444  3
    890    893    894    897     1  0.0000000  0.6508444  3
    890    893    904    907     1  0.0000000  0.6508444  3
    890    887    884    914     1  0.0000000  0.6508444  3
    893    894    897    900     1  0.0000000  0.6508444  3
    893    904    907    910     1  0.0000000  0.6508444  3
    894    897    900    901     1  180.0000771  0.0000000  2
    894    897    900    902     1  180.0000771  0.0000000  2
    894    893    904    907     1  0.0000000  0.6508444  3
    897    894    893    904     1  0.0000000  0.6508444  3
    904    907    910    911     1  180.0000771  0.0000000  2
    904    907    910    912     1  180.0000771  0.0000000  2
    916    919    922    925     1  0.0000000  0.6508444  3
    919    922    925    926     1  0.0000000  0.6508444  3
    919    922    925    936     1  0.0000000  0.6508444  3
    922    919    916    946     1  0.0000000  0.6508444  3
    922    925    926    929     1  0.0000000  0.6508444  3
    922    925    936    939     1  0.0000000  0.6508444  3
    925    926    929    932     1  0.0000000  0.6508444  3
    925    936    939    942     1  0.0000000  0.6508444  3
    926    925    936    939     1  0.0000000  0.6508444  3
    926    929    932    933     1  180.0000771  0.0000000  2
    926    929    932    934     1  180.0000771  0.0000000  2
    929    926    925    936     1  0.0000000  0.6508444  3
    936    939    942    943     1  180.0000771  0.0000000  2
    936    939    942    944     1  180.0000771  0.0000000  2
    948    951    954    957     1  0.0000000  0.6508444  3
    951    954    957    958     1  0.0000000  0.6508444  3
    951    954    957    968     1  0.0000000  0.6508444  3
    954    957    958    961     1  0.0000000  0.6508444  3
    954    957    968    971     1  0.0000000  0.6508444  3
    954    951    948    978     1  0.0000000  0.6508444  3
    957    958    961    964     1  0.0000000  0.6508444  3
    957    968    971    974     1  0.0000000  0.6508444  3
    958    961    964    965     1  180.0000771  0.0000000  2
    958    961    964    966     1  180.0000771  0.0000000  2
    958    957    968    971     1  0.0000000  0.6508444  3
    961    958    957    968     1  0.0000000  0.6508444  3
    968    971    974    975     1  180.0000771  0.0000000  2
    968    971    974    976     1  180.0000771  0.0000000  2
    980    983    986    989     1  0.0000000  0.6508444  3
    983    986    989    990     1  0.0000000  0.6508444  3
    983    986    989   1000     1  0.0000000  0.6508444  3
    986    983    980   1010     1  0.0000000  0.6508444  3
    986    989    990    993     1  0.0000000  0.6508444  3
    986    989   1000   1003     1  0.0000000  0.6508444  3
    989    990    993    996     1  0.0000000  0.6508444  3
    989   1000   1003   1006     1  0.0000000  0.6508444  3
    990    989   1000   1003     1  0.0000000  0.6508444  3
    990    993    996    997     1  180.0000771  0.0000000  2
    990    993    996    998     1  180.0000771  0.0000000  2
    993    990    989   1000     1  0.0000000  0.6508444  3
   1000   1003   1006   1007     1  180.0000771  0.0000000  2
   1000   1003   1006   1008     1  180.0000771  0.0000000  2
   1012   1015   1018   1021     1  0.0000000  0.6508444  3
   1015   1018   1021   1022     1  0.0000000  0.6508444  3
   1015   1018   1021   1032     1  0.0000000  0.6508444  3
   1018   1021   1022   1025     1  0.0000000  0.6508444  3
   1018   1021   1032   1035     1  0.0000000  0.6508444  3
   1018   1015   1012   1042     1  0.0000000  0.6508444  3
   1021   1022   1025   1028     1  0.0000000  0.6508444  3
   1021   1032   1035   1038     1  0.0000000  0.6508444  3
   1022   1025   1028   1029     1  180.0000771  0.0000000  2
   1022   1025   1028   1030     1  180.0000771  0.0000000  2
   1022   1021   1032   1035     1  0.0000000  0.6508444  3
   1025   1022   1021   1032     1  0.0000000  0.6508444  3
   1032   1035   1038   1039     1  180.0000771  0.0000000  2
   1032   1035   1038   1040     1  180.0000771  0.0000000  2
   1044   1047   1050   1053     1  0.0000000  0.6508444  3
   1047   1050   1053   1054     1  0.0000000  0.6508444  3
   1047   1050   1053   1064     1  0.0000000  0.6508444  3
   1050   1047   1044   1074     1  0.0000000  0.6508444  3
   1050   1053   1054   1057     1  0.0000000  0.6508444  3
   1050   1053   1064   1067     1  0.0000000  0.6508444  3
   1053   1054   1057   1060     1  0.0000000  0.6508444  3
   1053   1064   1067   1070     1  0.0000000  0.6508444  3
   1054   1053   1064   1067     1  0.0000000  0.6508444  3
   1054   1057   1060   1061     1  180.0000771  0.0000000  2
   1054   1057   1060   1062     1  180.0000771  0.0000000  2
   1057   1054   1053   1064     1  0.0000000  0.6508444  3
   1064   1067   1070   1071     1  180.0000771  0.0000000  2
   1064   1067   1070   1072     1  180.0000771  0.0000000  2
   1076   1079   1082   1085     1  0.0000000  0.6508444  3
   1079   1082   1085   1086     1  0.0000000  0.6508444  3
   1079   1082   1085   1096     1  0.0000000  0.6508444  3
   1082   1085   1086   1089     1  0.0000000  0.6508444  3
   1082   1085   1096   1099     1  0.0000000  0.6508444  3
   1082   1079   1076   1106     1  0.0000000  0.6508444  3
   1085   1086   1089   1092     1  0.0000000  0.6508444  3
   1085   1096   1099   1102     1  0.0000000  0.6508444  3
   1086   1089   1092   1093     1  180.0000771  0.0000000  2
   1086   1089   1092   1094     1  180.0000771  0.0000000  2
   1086   1085   1096   1099     1  0.0000000  0.6508444  3
   1089   1086   1085   1096     1  0.0000000  0.6508444  3
   1096   1099   1102   1103     1  180.0000771  0.0000000  2
   1096   1099   1102   1104     1  180.0000771  0.0000000  2
   1108   1111   1114   1117     1  0.0000000  0.6508444  3
   1111   1114   1117   1118     1  0.0000000  0.6508444  3
   1111   1114   1117   1128     1  0.0000000  0.6508444  3
   1114   1111   1108   1138     1  0.0000000  0.6508444  3
   1114   1117   1118   1121     1  0.0000000  0.6508444  3
   1114   1117   1128   1131     1  0.0000000  0.6508444  3
   1117   1118   1121   1124     1  0.0000000  0.6508444  3
   1117   1128   1131   1134     1  0.0000000  0.6508444  3
   1118   1117   1128   1131     1  0.0000000  0.6508444  3
   1118   1121   1124   1125     1  180.0000771  0.0000000  2
   1118   1121   1124   1126     1  180.0000771  0.0000000  2
   1121   1118   1117   1128     1  0.0000000  0.6508444  3
   1128   1131   1134   1135     1  180.0000771  0.0000000  2
   1128   1131   1134   1136     1  180.0000771  0.0000000  2
   1140   1143   1146   1149     1  0.0000000  0.6508444  3
   1143   1146   1149   1150     1  0.0000000  0.6508444  3
   1143   1146   1149   1160     1  0.0000000  0.6508444  3
   1146   1149   1150   1153     1  0.0000000  0.6508444  3
   1146   1149   1160   1163     1  0.0000000  0.6508444  3
   1146   1143   1140   1170     1  0.0000000  0.6508444  3
   1149   1150   1153   1156     1  0.0000000  0.6508444  3
   1149   1160   1163   1166     1  0.0000000  0.6508444  3
   1150   1153   1156   1157     1  180.0000771  0.0000000  2
   1150   1153   1156   1158     1  180.0000771  0.0000000  2
   1150   1149   1160   1163     1  0.0000000  0.6508444  3
   1153   1150   1149   1160     1  0.0000000  0.6508444  3
   1160   1163   1166   1167     1  180.0000771  0.0000000  2
   1160   1163   1166   1168     1  180.0000771  0.0000000  2
   1172   1175   1178   1181     1  0.0000000  0.6508444  3
   1175   1178   1181   1182     1  0.0000000  0.6508444  3
   1175   1178   1181   1192     1  0.0000000  0.6508444  3
   1178   1175   1172   1202     1  0.0000000  0.6508444  3
   1178   1181   1182   1185     1  0.0000000  0.6508444  3
   1178   1181   1192   1195     1  0.0000000  0.6508444  3
   1181   1182   1185   1188     1  0.0000000  0.6508444  3
   1181   1192   1195   1198     1  0.0000000  0.6508444  3
   1182   1181   1192   1195     1  0.0000000  0.6508444  3
   1182   1185   1188   1189     1  180.0000771  0.0000000  2
   1182   1185   1188   1190     1  180.0000771  0.0000000  2
   1185   1182   1181   1192     1  0.0000000  0.6508444  3
   1192   1195   1198   1199     1  180.0000771  0.0000000  2
   1192   1195   1198   1200     1  180.0000771  0.0000000  2
   1204   1207   1210   1213     1  0.0000000  0.6508444  3
   1207   1210   1213   1214     1  0.0000000  0.6508444  3
   1207   1210   1213   1224     1  0.0000000  0.6508444  3
   1210   1213   1214   1217     1  0.0000000  0.6508444  3
   1210   1213   1224   1227     1  0.0000000  0.6508444  3
   1210   1207   1204   1234     1  0.0000000  0.6508444  3
   1213   1214   1217   1220     1  0.0000000  0.6508444  3
   1213   1224   1227   1230     1  0.0000000  0.6508444  3
   1214   1217   1220   1221     1  180.0000771  0.0000000  2
   1214   1217   1220   1222     1  180.0000771  0.0000000  2
   1214   1213   1224   1227     1  0.0000000  0.6508444  3
   1217   1214   1213   1224     1  0.0000000  0.6508444  3
   1224   1227   1230   1231     1  180.0000771  0.0000000  2
   1224   1227   1230   1232     1  180.0000771  0.0000000  2
   1236   1239   1242   1245     1  0.0000000  0.6508444  3
   1239   1242   1245   1246     1  0.0000000  0.6508444  3
   1239   1242   1245   1256     1  0.0000000  0.6508444  3
   1242   1239   1236   1266     1  0.0000000  0.6508444  3
   1242   1245   1246   1249     1  0.0000000  0.6508444  3
   1242   1245   1256   1259     1  0.0000000  0.6508444  3
   1245   1246   1249   1252     1  0.0000000  0.6508444  3
   1245   1256   1259   1262     1  0.0000000  0.6508444  3
   1246   1245   1256   1259     1  0.0000000  0.6508444  3
   1246   1249   1252   1253     1  180.0000771  0.0000000  2
   1246   1249   1252   1254     1  180.0000771  0.0000000  2
   1249   1246   1245   1256     1  0.0000000  0.6508444  3
   1256   1259   1262   1263     1  180.0000771  0.0000000  2
   1256   1259   1262   1264     1  180.0000771  0.0000000  2
   1268   1271   1274   1277     1  0.0000000  0.6508444  3
   1271   1274   1277   1278     1  0.0000000  0.6508444  3
   1271   1274   1277   1288     1  0.0000000  0.6508444  3
   1274   1277   1278   1281     1  0.0000000  0.6508444  3
   1274   1277   1288   1291     1  0.0000000  0.6508444  3
   1274   1271   1268   1298     1  0.0000000  0.6508444  3
   1277   1278   1281   1284     1  0.0000000  0.6508444  3
   1277   1288   1291   1294     1  0.0000000  0.6508444  3
   1278   1281   1284   1285     1  180.0000771  0.0000000  2
   1278   1281   1284   1286     1  180.0000771  0.0000000  2
   1278   1277   1288   1291     1  0.0000000  0.6508444  3
   1281   1278   1277   1288     1  0.0000000  0.6508444  3
   1288   1291   1294   1295     1  180.0000771  0.0000000  2
   1288   1291   1294   1296     1  180.0000771  0.0000000  2
   1300   1303   1306   1309     1  0.0000000  0.6508444  3
   1303   1306   1309   1310     1  0.0000000  0.6508444  3
   1303   1306   1309   1320     1  0.0000000  0.6508444  3
   1306   1303   1300   1330     1  0.0000000  0.6508444  3
   1306   1309   1310   1313     1  0.0000000  0.6508444  3
   1306   1309   1320   1323     1  0.0000000  0.6508444  3
   1309   1310   1313   1316     1  0.0000000  0.6508444  3
   1309   1320   1323   1326     1  0.0000000  0.6508444  3
   1310   1309   1320   1323     1  0.0000000  0.6508444  3
   1310   1313   1316   1317     1  180.0000771  0.0000000  2
   1310   1313   1316   1318     1  180.0000771  0.0000000  2
   1313   1310   1309   1320     1  0.0000000  0.6508444  3
   1320   1323   1326   1327     1  180.0000771  0.0000000  2
   1320   1323   1326   1328     1  180.0000771  0.0000000  2
   1332   1335   1338   1341     1  0.0000000  0.6508444  3
   1335   1338   1341   1342     1  0.0000000  0.6508444  3
   1335   1338   1341   1352     1  0.0000000  0.6508444  3
   1338   1341   1342   1345     1  0.0000000  0.6508444  3
   1338   1341   1352   1355     1  0.0000000  0.6508444  3
   1338   1335   1332   1362     1  0.0000000  0.6508444  3
   1341   1342   1345   1348     1  0.0000000  0.6508444  3
   1341   1352   1355   1358     1  0.0000000  0.6508444  3
   1342   1345   1348   1349     1  180.0000771  0.0000000  2
   1342   1345   1348   1350     1  180.0000771  0.0000000  2
   1342   1341   1352   1355     1  0.0000000  0.6508444  3
   1345   1342   1341   1352     1  0.0000000  0.6508444  3
   1352   1355   1358   1359     1  180.0000771  0.0000000  2
   1352   1355   1358   1360     1  180.0000771  0.0000000  2
   1364   1367   1370   1373     1  0.0000000  0.6508444  3
   1367   1370   1373   1374     1  0.0000000  0.6508444  3
   1367   1370   1373   1384     1  0.0000000  0.6508444  3
   1370   1367   1364   1394     1  0.0000000  0.6508444  3
   1370   1373   1374   1377     1  0.0000000  0.6508444  3
   1370   1373   1384   1387     1  0.0000000  0.6508444  3
   1373   1374   1377   1380     1  0.0000000  0.6508444  3
   1373   1384   1387   1390     1  0.0000000  0.6508444  3
   1374   1373   1384   1387     1  0.0000000  0.6508444  3
   1374   1377   1380   1381     1  180.0000771  0.0000000  2
   1374   1377   1380   1382     1  180.0000771  0.0000000  2
   1377   1374   1373   1384     1  0.0000000  0.6508444  3
   1384   1387   1390   1391     1  180.0000771  0.0000000  2
   1384   1387   1390   1392     1  180.0000771  0.0000000  2
   1396   1399   1402   1405     1  0.0000000  0.6508444  3
   1399   1402   1405   1406     1  0.0000000  0.6508444  3
   1399   1402   1405   1416     1  0.0000000  0.6508444  3
   1402   1405   1406   1409     1  0.0000000  0.6508444  3
   1402   1405   1416   1419     1  0.0000000  0.6508444  3
   1402   1399   1396   1426     1  0.0000000  0.6508444  3
   1405   1406   1409   1412     1  0.0000000  0.6508444  3
   1405   1416   1419   1422     1  0.0000000  0.6508444  3
   1406   1409   1412   1413     1  180.0000771  0.0000000  2
   1406   1409   1412   1414     1  180.0000771  0.0000000  2
   1406   1405   1416   1419     1  0.0000000  0.6508444  3
   1409   1406   1405   1416     1  0.0000000  0.6508444  3
   1416   1419   1422   1423     1  180.0000771  0.0000000  2
   1416   1419   1422   1424     1  180.0000771  0.0000000  2
    673    677    676    678     4  180.0000771  4.6024000  2
    683    687    686    688     4  180.0000771  4.6024000  2
    705    709    708    710     4  180.0000771  4.6024000  2
    715    719    718    720     4  180.0000771  4.6024000  2
    737    741    740    742     4  180.0000771  4.6024000  2
    747    751    750    752     4  180.0000771  4.6024000  2
    769    773    772    774     4  180.0000771  4.6024000  2
    779    783    782    784     4  180.0000771  4.6024000  2
    801    805    804    806     4  180.0000771  4.6024000  2
    811    815    814    816     4  180.0000771  4.6024000  2
    833    837    836    838     4  180.0000771  4.6024000  2
    843    847    846    848     4  180.0000771  4.6024000  2
    865    869    868    870     4  180.0000771  4.6024000  2
    875    879    878    880     4  180.0000771  4.6024000  2
    897    901    900    902     4  180.0000771  4.6024000  2
    907    911    910    912     4  180.0000771  4.6024000  2
    929    933    932    934     4  180.0000771  4.6024000  2
    939    943    942    944     4  180.0000771  4.6024000  2
    961    965    964    966     4  180.0000771  4.6024000  2
    971    975    974    976     4  180.0000771  4.6024000  2
    993    997    996    998     4  180.0000771  4.6024000  2
   1003   1007   1006   1008     4  180.0000771  4.6024000  2
   1025   1029   1028   1030     4  180.0000771  4.6024000  2
   1035   1039   1038   1040     4  180.0000771  4.6024000  2
   1057   1061   1060   1062     4  180.0000771  4.6024000  2
   1067   1071   1070   1072     4  180.0000771  4.6024000  2
   1089   1093   1092   1094     4  180.0000771  4.6024000  2
   1099   1103   1102   1104     4  180.0000771  4.6024000  2
   1121   1125   1124   1126     4  180.0000771  4.6024000  2
   1131   1135   1134   1136     4  180.0000771  4.6024000  2
   1153   1157   1156   1158     4  180.0000771  4.6024000  2
   1163   1167   1166   1168     4  180.0000771  4.6024000  2
   1185   1189   1188   1190     4  180.0000771  4.6024000  2
   1195   1199   1198   1200     4  180.0000771  4.6024000  2
   1217   1221   1220   1222     4  180.0000771  4.6024000  2
   1227   1231   1230   1232     4  180.0000771  4.6024000  2
   1249   1253   1252   1254     4  180.0000771  4.6024000  2
   1259   1263   1262   1264     4  180.0000771  4.6024000  2
   1281   1285   1284   1286     4  180.0000771  4.6024000  2
   1291   1295   1294   1296     4  180.0000771  4.6024000  2
   1313   1317   1316   1318     4  180.0000771  4.6024000  2
   1323   1327   1326   1328     4  180.0000771  4.6024000  2
   1345   1349   1348   1350     4  180.0000771  4.6024000  2
   1355   1359   1358   1360     4  180.0000771  4.6024000  2
   1377   1381   1380   1382     4  180.0000771  4.6024000  2
   1387   1391   1390   1392     4  180.0000771  4.6024000  2
   1409   1413   1412   1414     4  180.0000771  4.6024000  2
   1419   1423   1422   1424     4  180.0000771  4.6024000  2
      1      2     14     15     1  0.0000000  0.6508444  3
      1      2     14     16     1  0.0000000  0.6508444  3
      1      5     17     18     1  0.0000000  0.6508444  3
      1      5     17     19     1  0.0000000  0.6508444  3
      1      8     11     12     1  0.0000000  0.6508444  3
      1      8     11     13     1  0.0000000  0.6508444  3
      2      1      5      6     1  0.0000000  0.6508444  3
      2      1      5      7     1  0.0000000  0.6508444  3
      2      1      8      9     1  0.0000000  0.6508444  3
      2      1      8     10     1  0.0000000  0.6508444  3
      2     14     26     27     1  0.0000000  0.6508444  3
      2     14     26     28     1  0.0000000  0.6508444  3
      5      1      2      3     1  0.0000000  0.6508444  3
      8      1      2      3     1  0.0000000  0.6508444  3
     29      1      2      3     1  0.0000000  0.6508444  3
      3      2     14     26     1  0.0000000  0.6508444  3
      3      2     14     15     1  0.0000000  0.6508444  3
      3      2     14     16     1  0.0000000  0.6508444  3
      5      1      2      4     1  0.0000000  0.6508444  3
      8      1      2      4     1  0.0000000  0.6508444  3
     29      1      2      4     1  0.0000000  0.6508444  3
      4      2     14     26     1  0.0000000  0.6508444  3
      4      2     14     15     1  0.0000000  0.6508444  3
      4      2     14     16     1  0.0000000  0.6508444  3
      5      1      8      9     1  0.0000000  0.6508444  3
      5      1      8     10     1  0.0000000  0.6508444  3
      5     17     20     21     1  0.0000000  0.6508444  3
      5     17     20     22     1  0.0000000  0.6508444  3
      8      1      5      6     1  0.0000000  0.6508444  3
     29      1      5      6     1  0.0000000  0.6508444  3
      6      5     17     20     1  0.0000000  0.6508444  3
      6      5     17     18     1  0.0000000  0.6508444  3
      6      5     17     19     1  0.0000000  0.6508444  3
      8      1      5      7     1  0.0000000  0.6508444  3
     29      1      5      7     1  0.0000000  0.6508444  3
      7      5     17     20     1  0.0000000  0.6508444  3
      7      5     17     18     1  0.0000000  0.6508444  3
      7      5     17     19     1  0.0000000  0.6508444  3
      8     11     23     24     1  0.0000000  0.6508444  3
      8     11     23     25     1  0.0000000  0.6508444  3
     29      1      8      9     1  0.0000000  0.6508444  3
      9      8     11     23     1  0.0000000  0.6508444  3
      9      8     11     12     1  0.0000000  0.6508444  3
      9      8     11     13     1  0.0000000  0.6508444  3
     29      1      8     10     1  0.0000000  0.6508444  3
     10      8     11     23     1  0.0000000  0.6508444  3
     10      8     11     12     1  0.0000000  0.6508444  3
     10      8     11     13     1  0.0000000  0.6508444  3
     29      1      8     11     1  0.0000000  0.6508444  3
     12     11     23     88     1  0.0000000  1.0460000  1
     12     11     23     88     1  0.0000000  0.0000000  3
     12     11     23     24     1  0.0000000  0.6508444  3
     12     11     23     25     1  0.0000000  0.6508444  3
     13     11     23     88     1  0.0000000  1.0460000  1
     13     11     23     88     1  0.0000000  0.0000000  3
     13     11     23     24     1  0.0000000  0.6508444  3
     13     11     23     25     1  0.0000000  0.6508444  3
     29      1      2     14     1  0.0000000  0.6508444  3
     15     14     26    118     1  0.0000000  1.0460000  1
     15     14     26    118     1  0.0000000  0.0000000  3
     15     14     26     27     1  0.0000000  0.6508444  3
     15     14     26     28     1  0.0000000  0.6508444  3
     16     14     26    118     1  0.0000000  1.0460000  1
     16     14     26    118     1  0.0000000  0.0000000  3
     16     14     26     27     1  0.0000000  0.6508444  3
     16     14     26     28     1  0.0000000  0.6508444  3
     29      1      5     17     1  0.0000000  0.6508444  3
     18     17     20     58     1  0.0000000  1.0460000  1
     18     17     20     58     1  0.0000000  0.0000000  3
     18     17     20     21     1  0.0000000  0.6508444  3
     18     17     20     22     1  0.0000000  0.6508444  3
     19     17     20     58     1  0.0000000  1.0460000  1
     19     17     20     58     1  0.0000000  0.0000000  3
     19     17     20     21     1  0.0000000  0.6508444  3
     19     17     20     22     1  0.0000000  0.6508444  3
     20     58     49     50     1  0.0000000  1.6038667  3
     20     58     49     51     1  0.0000000  1.6038667  3
     21     20     58     49     1  0.0000000  1.6038667  3
     22     20     58     49     1  0.0000000  1.6038667  3
     23     88     79     80     1  0.0000000  1.6038667  3
     23     88     79     81     1  0.0000000  1.6038667  3
     24     23     88     79     1  0.0000000  1.6038667  3
     25     23     88     79     1  0.0000000  1.6038667  3
     26    118    109    110     1  0.0000000  1.6038667  3
     26    118    109    111     1  0.0000000  1.6038667  3
     27     26    118    109     1  0.0000000  1.6038667  3
     28     26    118    109     1  0.0000000  1.6038667  3
     30     31     43     44     1  0.0000000  0.6508444  3
     30     31     43     45     1  0.0000000  0.6508444  3
     30     34     46     47     1  0.0000000  0.6508444  3
     30     34     46     48     1  0.0000000  0.6508444  3
     30     37     40     41     1  0.0000000  0.6508444  3
     30     37     40     42     1  0.0000000  0.6508444  3
     31     30     34     35     1  0.0000000  0.6508444  3
     31     30     34     36     1  0.0000000  0.6508444  3
     31     30     37     38     1  0.0000000  0.6508444  3
     31     30     37     39     1  0.0000000  0.6508444  3
     31     43     55     56     1  0.0000000  0.6508444  3
     31     43     55     57     1  0.0000000  0.6508444  3
     32     31     30     34     1  0.0000000  0.6508444  3
     32     31     30     37     1  0.0000000  0.6508444  3
     32     31     30     59     1  0.0000000  0.6508444  3
     32     31     43     55     1  0.0000000  0.6508444  3
     32     31     43     44     1  0.0000000  0.6508444  3
     32     31     43     45     1  0.0000000  0.6508444  3
     33     31     30     34     1  0.0000000  0.6508444  3
     33     31     30     37     1  0.0000000  0.6508444  3
     33     31     30     59     1  0.0000000  0.6508444  3
     33     31     43     55     1  0.0000000  0.6508444  3
     33     31     43     44     1  0.0000000  0.6508444  3
     33     31     43     45     1  0.0000000  0.6508444  3
     34     30     37     38     1  0.0000000  0.6508444  3
     34     30     37     39     1  0.0000000  0.6508444  3
     34     46     52     53     1  0.0000000  0.6508444  3
     34     46     52     54     1  0.0000000  0.6508444  3
     35     34     30     37     1  0.0000000  0.6508444  3
     35     34     30     59     1  0.0000000  0.6508444  3
     35     34     46     52     1  0.0000000  0.6508444  3
     35     34     46     47     1  0.0000000  0.6508444  3
     35     34     46     48     1  0.0000000  0.6508444  3
     36     34     30     37     1  0.0000000  0.6508444  3
     36     34     30     59     1  0.0000000  0.6508444  3
     36     34     46     52     1  0.0000000  0.6508444  3
     36     34     46     47     1  0.0000000  0.6508444  3
     36     34     46     48     1  0.0000000  0.6508444  3
     37     40     49     50     1  0.0000000  0.6508444  3
     37     40     49     51     1  0.0000000  0.6508444  3
     38     37     30     59     1  0.0000000  0.6508444  3
     38     37     40     49     1  0.0000000  0.6508444  3
     38     37     40     41     1  0.0000000  0.6508444  3
     38     37     40     42     1  0.0000000  0.6508444  3
     39     37     30     59     1  0.0000000  0.6508444  3
     39     37     40     49     1  0.0000000  0.6508444  3
     39     37     40     41     1  0.0000000  0.6508444  3
     39     37     40     42     1  0.0000000  0.6508444  3
     40     37     30     59     1  0.0000000  0.6508444  3
     41     40     49     58     1  0.0000000  1.0460000  1
     41     40     49     58     1  0.0000000  0.0000000  3
     41     40     49     50     1  0.0000000  0.6508444  3
     41     40     49     51     1  0.0000000  0.6508444  3
     42     40     49     58     1  0.0000000  1.0460000  1
     42     40     49     58     1  0.0000000  0.0000000  3
     42     40     49     50     1  0.0000000  0.6508444  3
     42     40     49     51     1  0.0000000  0.6508444  3
     43     31     30     59     1  0.0000000  0.6508444  3
     44     43     55    178     1  0.0000000  1.0460000  1
     44     43     55    178     1  0.0000000  0.0000000  3
     44     43     55     56     1  0.0000000  0.6508444  3
     44     43     55     57     1  0.0000000  0.6508444  3
     45     43     55    178     1  0.0000000  1.0460000  1
     45     43     55    178     1  0.0000000  0.0000000  3
     45     43     55     56     1  0.0000000  0.6508444  3
     45     43     55     57     1  0.0000000  0.6508444  3
     46     34     30     59     1  0.0000000  0.6508444  3
     47     46     52    148     1  0.0000000  1.0460000  1
     47     46     52    148     1  0.0000000  0.0000000  3
     47     46     52     53     1  0.0000000  0.6508444  3
     47     46     52     54     1  0.0000000  0.6508444  3
     48     46     52    148     1  0.0000000  1.0460000  1
     48     46     52    148     1  0.0000000  0.0000000  3
     48     46     52     53     1  0.0000000  0.6508444  3
     48     46     52     54     1  0.0000000  0.6508444  3
     52    148    139    140     1  0.0000000  1.6038667  3
     52    148    139    141     1  0.0000000  1.6038667  3
     53     52    148    139     1  0.0000000  1.6038667  3
     54     52    148    139     1  0.0000000  1.6038667  3
     55    178    169    170     1  0.0000000  1.6038667  3
     55    178    169    171     1  0.0000000  1.6038667  3
     56     55    178    169     1  0.0000000  1.6038667  3
     57     55    178    169     1  0.0000000  1.6038667  3
     60     61     73     74     1  0.0000000  0.6508444  3
     60     61     73     75     1  0.0000000  0.6508444  3
     60     64     76     77     1  0.0000000  0.6508444  3
     60     64     76     78     1  0.0000000  0.6508444  3
     60     67     70     71     1  0.0000000  0.6508444  3
     60     67     70     72     1  0.0000000  0.6508444  3
     61     60     64     65     1  0.0000000  0.6508444  3
     61     60     64     66     1  0.0000000  0.6508444  3
     61     60     67     68     1  0.0000000  0.6508444  3
     61     60     67     69     1  0.0000000  0.6508444  3
     61     73     85     86     1  0.0000000  0.6508444  3
     61     73     85     87     1  0.0000000  0.6508444  3
     62     61     60     64     1  0.0000000  0.6508444  3
     62     61     60     67     1  0.0000000  0.6508444  3
     62     61     60     89     1  0.0000000  0.6508444  3
     62     61     73     85     1  0.0000000  0.6508444  3
     62     61     73     74     1  0.0000000  0.6508444  3
     62     61     73     75     1  0.0000000  0.6508444  3
     63     61     60     64     1  0.0000000  0.6508444  3
     63     61     60     67     1  0.0000000  0.6508444  3
     63     61     60     89     1  0.0000000  0.6508444  3
     63     61     73     85     1  0.0000000  0.6508444  3
     63     61     73     74     1  0.0000000  0.6508444  3
     63     61     73     75     1  0.0000000  0.6508444  3
     64     60     67     68     1  0.0000000  0.6508444  3
     64     60     67     69     1  0.0000000  0.6508444  3
     64     76     82     83     1  0.0000000  0.6508444  3
     64     76     82     84     1  0.0000000  0.6508444  3
     65     64     60     67     1  0.0000000  0.6508444  3
     65     64     60     89     1  0.0000000  0.6508444  3
     65     64     76     82     1  0.0000000  0.6508444  3
     65     64     76     77     1  0.0000000  0.6508444  3
     65     64     76     78     1  0.0000000  0.6508444  3
     66     64     60     67     1  0.0000000  0.6508444  3
     66     64     60     89     1  0.0000000  0.6508444  3
     66     64     76     82     1  0.0000000  0.6508444  3
     66     64     76     77     1  0.0000000  0.6508444  3
     66     64     76     78     1  0.0000000  0.6508444  3
     67     70     79     80     1  0.0000000  0.6508444  3
     67     70     79     81     1  0.0000000  0.6508444  3
     68     67     60     89     1  0.0000000  0.6508444  3
     68     67     70     79     1  0.0000000  0.6508444  3
     68     67     70     71     1  0.0000000  0.6508444  3
     68     67     70     72     1  0.0000000  0.6508444  3
     69     67     60     89     1  0.0000000  0.6508444  3
     69     67     70     79     1  0.0000000  0.6508444  3
     69     67     70     71     1  0.0000000  0.6508444  3
     69     67     70     72     1  0.0000000  0.6508444  3
     70     67     60     89     1  0.0000000  0.6508444  3
     71     70     79     88     1  0.0000000  1.0460000  1
     71     70     79     88     1  0.0000000  0.0000000  3
     71     70     79     80     1  0.0000000  0.6508444  3
     71     70     79     81     1  0.0000000  0.6508444  3
     72     70     79     88     1  0.0000000  1.0460000  1
     72     70     79     88     1  0.0000000  0.0000000  3
     72     70     79     80     1  0.0000000  0.6508444  3
     72     70     79     81     1  0.0000000  0.6508444  3
     73     61     60     89     1  0.0000000  0.6508444  3
     74     73     85    238     1  0.0000000  1.0460000  1
     74     73     85    238     1  0.0000000  0.0000000  3
     74     73     85     86     1  0.0000000  0.6508444  3
     74     73     85     87     1  0.0000000  0.6508444  3
     75     73     85    238     1  0.0000000  1.0460000  1
     75     73     85    238     1  0.0000000  0.0000000  3
     75     73     85     86     1  0.0000000  0.6508444  3
     75     73     85     87     1  0.0000000  0.6508444  3
     76     64     60     89     1  0.0000000  0.6508444  3
     77     76     82    208     1  0.0000000  1.0460000  1
     77     76     82    208     1  0.0000000  0.0000000  3
     77     76     82     83     1  0.0000000  0.6508444  3
     77     76     82     84     1  0.0000000  0.6508444  3
     78     76     82    208     1  0.0000000  1.0460000  1
     78     76     82    208     1  0.0000000  0.0000000  3
     78     76     82     83     1  0.0000000  0.6508444  3
     78     76     82     84     1  0.0000000  0.6508444  3
     82    208    199    200     1  0.0000000  1.6038667  3
     82    208    199    201     1  0.0000000  1.6038667  3
     83     82    208    199     1  0.0000000  1.6038667  3
     84     82    208    199     1  0.0000000  1.6038667  3
     85    238    229    230     1  0.0000000  1.6038667  3
     85    238    229    231     1  0.0000000  1.6038667  3
     86     85    238    229     1  0.0000000  1.6038667  3
     87     85    238    229     1  0.0000000  1.6038667  3
     90     91    103    104     1  0.0000000  0.6508444  3
     90     91    103    105     1  0.0000000  0.6508444  3
     90     94    106    107     1  0.0000000  0.6508444  3
     90     94    106    108     1  0.0000000  0.6508444  3
     90     97    100    101     1  0.0000000  0.6508444  3
     90     97    100    102     1  0.0000000  0.6508444  3
     91     90     94     95     1  0.0000000  0.6508444  3
     91     90     94     96     1  0.0000000  0.6508444  3
     91     90     97     98     1  0.0000000  0.6508444  3
     91     90     97     99     1  0.0000000  0.6508444  3
     91    103    115    116     1  0.0000000  0.6508444  3
     91    103    115    117     1  0.0000000  0.6508444  3
     92     91     90     94     1  0.0000000  0.6508444  3
     92     91     90     97     1  0.0000000  0.6508444  3
     92     91     90    119     1  0.0000000  0.6508444  3
     92     91    103    115     1  0.0000000  0.6508444  3
     92     91    103    104     1  0.0000000  0.6508444  3
     92     91    103    105     1  0.0000000  0.6508444  3
     93     91     90     94     1  0.0000000  0.6508444  3
     93     91     90     97     1  0.0000000  0.6508444  3
     93     91     90    119     1  0.0000000  0.6508444  3
     93     91    103    115     1  0.0000000  0.6508444  3
     93     91    103    104     1  0.0000000  0.6508444  3
     93     91    103    105     1  0.0000000  0.6508444  3
     94     90     97     98     1  0.0000000  0.6508444  3
     94     90     97     99     1  0.0000000  0.6508444  3
     94    106    112    113     1  0.0000000  0.6508444  3
     94    106    112    114     1  0.0000000  0.6508444  3
     95     94     90     97     1  0.0000000  0.6508444  3
     95     94     90    119     1  0.0000000  0.6508444  3
     95     94    106    112     1  0.0000000  0.6508444  3
     95     94    106    107     1  0.0000000  0.6508444  3
     95     94    106    108     1  0.0000000  0.6508444  3
     96     94     90     97     1  0.0000000  0.6508444  3
     96     94     90    119     1  0.0000000  0.6508444  3
     96     94    106    112     1  0.0000000  0.6508444  3
     96     94    106    107     1  0.0000000  0.6508444  3
     96     94    106    108     1  0.0000000  0.6508444  3
     97    100    109    110     1  0.0000000  0.6508444  3
     97    100    109    111     1  0.0000000  0.6508444  3
     98     97     90    119     1  0.0000000  0.6508444  3
     98     97    100    109     1  0.0000000  0.6508444  3
     98     97    100    101     1  0.0000000  0.6508444  3
     98     97    100    102     1  0.0000000  0.6508444  3
     99     97     90    119     1  0.0000000  0.6508444  3
     99     97    100    109     1  0.0000000  0.6508444  3
     99     97    100    101     1  0.0000000  0.6508444  3
     99     97    100    102     1  0.0000000  0.6508444  3
    100     97     90    119     1  0.0000000  0.6508444  3
    101    100    109    118     1  0.0000000  1.0460000  1
    101    100    109    118     1  0.0000000  0.0000000  3
    101    100    109    110     1  0.0000000  0.6508444  3
    101    100    109    111     1  0.0000000  0.6508444  3
    102    100    109    118     1  0.0000000  1.0460000  1
    102    100    109    118     1  0.0000000  0.0000000  3
    102    100    109    110     1  0.0000000  0.6508444  3
    102    100    109    111     1  0.0000000  0.6508444  3
    103     91     90    119     1  0.0000000  0.6508444  3
    104    103    115    298     1  0.0000000  1.0460000  1
    104    103    115    298     1  0.0000000  0.0000000  3
    104    103    115    116     1  0.0000000  0.6508444  3
    104    103    115    117     1  0.0000000  0.6508444  3
    105    103    115    298     1  0.0000000  1.0460000  1
    105    103    115    298     1  0.0000000  0.0000000  3
    105    103    115    116     1  0.0000000  0.6508444  3
    105    103    115    117     1  0.0000000  0.6508444  3
    106     94     90    119     1  0.0000000  0.6508444  3
    107    106    112    268     1  0.0000000  1.0460000  1
    107    106    112    268     1  0.0000000  0.0000000  3
    107    106    112    113     1  0.0000000  0.6508444  3
    107    106    112    114     1  0.0000000  0.6508444  3
    108    106    112    268     1  0.0000000  1.0460000  1
    108    106    112    268     1  0.0000000  0.0000000  3
    108    106    112    113     1  0.0000000  0.6508444  3
    108    106    112    114     1  0.0000000  0.6508444  3
    112    268    259    260     1  0.0000000  1.6038667  3
    112    268    259    261     1  0.0000000  1.6038667  3
    113    112    268    259     1  0.0000000  1.6038667  3
    114    112    268    259     1  0.0000000  1.6038667  3
    115    298    289    290     1  0.0000000  1.6038667  3
    115    298    289    291     1  0.0000000  1.6038667  3
    116    115    298    289     1  0.0000000  1.6038667  3
    117    115    298    289     1  0.0000000  1.6038667  3
    120    121    133    134     1  0.0000000  0.6508444  3
    120    121    133    135     1  0.0000000  0.6508444  3
    120    124    136    137     1  0.0000000  0.6508444  3
    120    124    136    138     1  0.0000000  0.6508444  3
    120    127    130    131     1  0.0000000  0.6508444  3
    120    127    130    132     1  0.0000000  0.6508444  3
    121    120    124    125     1  0.0000000  0.6508444  3
    121    120    124    126     1  0.0000000  0.6508444  3
    121    120    127    128     1  0.0000000  0.6508444  3
    121    120    127    129     1  0.0000000  0.6508444  3
    121    133    145    146     1  0.0000000  0.6508444  3
    121    133    145    147     1  0.0000000  0.6508444  3
    122    121    120    124     1  0.0000000  0.6508444  3
    122    121    120    127     1  0.0000000  0.6508444  3
    122    121    120    149     1  0.0000000  0.6508444  3
    122    121    133    145     1  0.0000000  0.6508444  3
    122    121    133    134     1  0.0000000  0.6508444  3
    122    121    133    135     1  0.0000000  0.6508444  3
    123    121    120    124     1  0.0000000  0.6508444  3
    123    121    120    127     1  0.0000000  0.6508444  3
    123    121    120    149     1  0.0000000  0.6508444  3
    123    121    133    145     1  0.0000000  0.6508444  3
    123    121    133    134     1  0.0000000  0.6508444  3
    123    121    133    135     1  0.0000000  0.6508444  3
    124    120    127    128     1  0.0000000  0.6508444  3
    124    120    127    129     1  0.0000000  0.6508444  3
    124    136    142    143     1  0.0000000  0.6508444  3
    124    136    142    144     1  0.0000000  0.6508444  3
    125    124    120    127     1  0.0000000  0.6508444  3
    125    124    120    149     1  0.0000000  0.6508444  3
    125    124    136    142     1  0.0000000  0.6508444  3
    125    124    136    137     1  0.0000000  0.6508444  3
    125    124    136    138     1  0.0000000  0.6508444  3
    126    124    120    127     1  0.0000000  0.6508444  3
    126    124    120    149     1  0.0000000  0.6508444  3
    126    124    136    142     1  0.0000000  0.6508444  3
    126    124    136    137     1  0.0000000  0.6508444  3
    126    124    136    138     1  0.0000000  0.6508444  3
    127    130    139    140     1  0.0000000  0.6508444  3
    127    130    139    141     1  0.0000000  0.6508444  3
    128    127    120    149     1  0.0000000  0.6508444  3
    128    127    130    139     1  0.0000000  0.6508444  3
    128    127    130    131     1  0.0000000  0.6508444  3
    128    127    130    132     1  0.0000000  0.6508444  3
    129    127    120    149     1  0.0000000  0.6508444  3
    129    127    130    139     1  0.0000000  0.6508444  3
    129    127    130    131     1  0.0000000  0.6508444  3
    129    127    130    132     1  0.0000000  0.6508444  3
    130    127    120    149     1  0.0000000  0.6508444  3
    131    130    139    148     1  0.0000000  1.0460000  1
    131    130    139    148     1  0.0000000  0.0000000  3
    131    130    139    140     1  0.0000000  0.6508444  3
    131    130    139    141     1  0.0000000  0.6508444  3
    132    130    139    148     1  0.0000000  1.0460000  1
    132    130    139    148     1  0.0000000  0.0000000  3
    132    130    139    140     1  0.0000000  0.6508444  3
    132    130    139    141     1  0.0000000  0.6508444  3
    133    121    120    149     1  0.0000000  0.6508444  3
    134    133    145    358     1  0.0000000  1.0460000  1
    134    133    145    358     1  0.0000000  0.0000000  3
    134    133    145    146     1  0.0000000  0.6508444  3
    134    133    145    147     1  0.0000000  0.6508444  3
    135    133    145    358     1  0.0000000  1.0460000  1
    135    133    145    358     1  0.0000000  0.0000000  3
    135    133    145    146     1  0.0000000  0.6508444  3
    135    133    145    147     1  0.0000000  0.6508444  3
    136    124    120    149     1  0.0000000  0.6508444  3
    137    136    142    328     1  0.0000000  1.0460000  1
    137    136    142    328     1  0.0000000  0.0000000  3
    137    136    142    143     1  0.0000000  0.6508444  3
    137    136    142    144     1  0.0000000  0.6508444  3
    138    136    142    328     1  0.0000000  1.0460000  1
    138    136    142    328     1  0.0000000  0.0000000  3
    138    136    142    143     1  0.0000000  0.6508444  3
    138    136    142    144     1  0.0000000  0.6508444  3
    142    328    319    320     1  0.0000000  1.6038667  3
    142    328    319    321     1  0.0000000  1.6038667  3
    143    142    328    319     1  0.0000000  1.6038667  3
    144    142    328    319     1  0.0000000  1.6038667  3
    145    358    349    350     1  0.0000000  1.6038667  3
    145    358    349    351     1  0.0000000  1.6038667  3
    146    145    358    349     1  0.0000000  1.6038667  3
    147    145    358    349     1  0.0000000  1.6038667  3
    150    151    163    164     1  0.0000000  0.6508444  3
    150    151    163    165     1  0.0000000  0.6508444  3
    150    154    166    167     1  0.0000000  0.6508444  3
    150    154    166    168     1  0.0000000  0.6508444  3
    150    157    160    161     1  0.0000000  0.6508444  3
    150    157    160    162     1  0.0000000  0.6508444  3
    151    150    154    155     1  0.0000000  0.6508444  3
    151    150    154    156     1  0.0000000  0.6508444  3
    151    150    157    158     1  0.0000000  0.6508444  3
    151    150    157    159     1  0.0000000  0.6508444  3
    151    163    175    176     1  0.0000000  0.6508444  3
    151    163    175    177     1  0.0000000  0.6508444  3
    152    151    150    154     1  0.0000000  0.6508444  3
    152    151    150    157     1  0.0000000  0.6508444  3
    152    151    150    179     1  0.0000000  0.6508444  3
    152    151    163    175     1  0.0000000  0.6508444  3
    152    151    163    164     1  0.0000000  0.6508444  3
    152    151    163    165     1  0.0000000  0.6508444  3
    153    151    150    154     1  0.0000000  0.6508444  3
    153    151    150    157     1  0.0000000  0.6508444  3
    153    151    150    179     1  0.0000000  0.6508444  3
    153    151    163    175     1  0.0000000  0.6508444  3
    153    151    163    164     1  0.0000000  0.6508444  3
    153    151    163    165     1  0.0000000  0.6508444  3
    154    150    157    158     1  0.0000000  0.6508444  3
    154    150    157    159     1  0.0000000  0.6508444  3
    154    166    172    173     1  0.0000000  0.6508444  3
    154    166    172    174     1  0.0000000  0.6508444  3
    155    154    150    157     1  0.0000000  0.6508444  3
    155    154    150    179     1  0.0000000  0.6508444  3
    155    154    166    172     1  0.0000000  0.6508444  3
    155    154    166    167     1  0.0000000  0.6508444  3
    155    154    166    168     1  0.0000000  0.6508444  3
    156    154    150    157     1  0.0000000  0.6508444  3
    156    154    150    179     1  0.0000000  0.6508444  3
    156    154    166    172     1  0.0000000  0.6508444  3
    156    154    166    167     1  0.0000000  0.6508444  3
    156    154    166    168     1  0.0000000  0.6508444  3
    157    160    169    170     1  0.0000000  0.6508444  3
    157    160    169    171     1  0.0000000  0.6508444  3
    158    157    150    179     1  0.0000000  0.6508444  3
    158    157    160    169     1  0.0000000  0.6508444  3
    158    157    160    161     1  0.0000000  0.6508444  3
    158    157    160    162     1  0.0000000  0.6508444  3
    159    157    150    179     1  0.0000000  0.6508444  3
    159    157    160    169     1  0.0000000  0.6508444  3
    159    157    160    161     1  0.0000000  0.6508444  3
    159    157    160    162     1  0.0000000  0.6508444  3
    160    157    150    179     1  0.0000000  0.6508444  3
    161    160    169    178     1  0.0000000  1.0460000  1
    161    160    169    178     1  0.0000000  0.0000000  3
    161    160    169    170     1  0.0000000  0.6508444  3
    161    160    169    171     1  0.0000000  0.6508444  3
    162    160    169    178     1  0.0000000  1.0460000  1
    162    160    169    178     1  0.0000000  0.0000000  3
    162    160    169    170     1  0.0000000  0.6508444  3
    162    160    169    171     1  0.0000000  0.6508444  3
    163    151    150    179     1  0.0000000  0.6508444  3
    164    163    175    418     1  0.0000000  1.0460000  1
    164    163    175    418     1  0.0000000  0.0000000  3
    164    163    175    176     1  0.0000000  0.6508444  3
    164    163    175    177     1  0.0000000  0.6508444  3
    165    163    175    418     1  0.0000000  1.0460000  1
    165    163    175    418     1  0.0000000  0.0000000  3
    165    163    175    176     1  0.0000000  0.6508444  3
    165    163    175    177     1  0.0000000  0.6508444  3
    166    154    150    179     1  0.0000000  0.6508444  3
    167    166    172    388     1  0.0000000  1.0460000  1
    167    166    172    388     1  0.0000000  0.0000000  3
    167    166    172    173     1  0.0000000  0.6508444  3
    167    166    172    174     1  0.0000000  0.6508444  3
    168    166    172    388     1  0.0000000  1.0460000  1
    168    166    172    388     1  0.0000000  0.0000000  3
    168    166    172    173     1  0.0000000  0.6508444  3
    168    166    172    174     1  0.0000000  0.6508444  3
    172    388    379    380     1  0.0000000  1.6038667  3
    172    388    379    381     1  0.0000000  1.6038667  3
    173    172    388    379     1  0.0000000  1.6038667  3
    174    172    388    379     1  0.0000000  1.6038667  3
    175    418    409    410     1  0.0000000  1.6038667  3
    175    418    409    411     1  0.0000000  1.6038667  3
    176    175    418    409     1  0.0000000  1.6038667  3
    177    175    418    409     1  0.0000000  1.6038667  3
    180    181    193    194     1  0.0000000  0.6508444  3
    180    181    193    195     1  0.0000000  0.6508444  3
    180    184    196    197     1  0.0000000  0.6508444  3
    180    184    196    198     1  0.0000000  0.6508444  3
    180    187    190    191     1  0.0000000  0.6508444  3
    180    187    190    192     1  0.0000000  0.6508444  3
    181    180    184    185     1  0.0000000  0.6508444  3
    181    180    184    186     1  0.0000000  0.6508444  3
    181    180    187    188     1  0.0000000  0.6508444  3
    181    180    187    189     1  0.0000000  0.6508444  3
    181    193    205    206     1  0.0000000  0.6508444  3
    181    193    205    207     1  0.0000000  0.6508444  3
    182    181    180    184     1  0.0000000  0.6508444  3
    182    181    180    187     1  0.0000000  0.6508444  3
    182    181    180    209     1  0.0000000  0.6508444  3
    182    181    193    205     1  0.0000000  0.6508444  3
    182    181    193    194     1  0.0000000  0.6508444  3
    182    181    193    195     1  0.0000000  0.6508444  3
    183    181    180    184     1  0.0000000  0.6508444  3
    183    181    180    187     1  0.0000000  0.6508444  3
    183    181    180    209     1  0.0000000  0.6508444  3
    183    181    193    205     1  0.0000000  0.6508444  3
    183    181    193    194     1  0.0000000  0.6508444  3
    183    181    193    195     1  0.0000000  0.6508444  3
    184    180    187    188     1  0.0000000  0.6508444  3
    184    180    187    189     1  0.0000000  0.6508444  3
    184    196    202    203     1  0.0000000  0.6508444  3
    184    196    202    204     1  0.0000000  0.6508444  3
    185    184    180    187     1  0.0000000  0.6508444  3
    185    184    180    209     1  0.0000000  0.6508444  3
    185    184    196    202     1  0.0000000  0.6508444  3
    185    184    196    197     1  0.0000000  0.6508444  3
    185    184    196    198     1  0.0000000  0.6508444  3
    186    184    180    187     1  0.0000000  0.6508444  3
    186    184    180    209     1  0.0000000  0.6508444  3
    186    184    196    202     1  0.0000000  0.6508444  3
    186    184    196    197     1  0.0000000  0.6508444  3
    186    184    196    198     1  0.0000000  0.6508444  3
    187    190    199    200     1  0.0000000  0.6508444  3
    187    190    199    201     1  0.0000000  0.6508444  3
    188    187    180    209     1  0.0000000  0.6508444  3
    188    187    190    199     1  0.0000000  0.6508444  3
    188    187    190    191     1  0.0000000  0.6508444  3
    188    187    190    192     1  0.0000000  0.6508444  3
    189    187    180    209     1  0.0000000  0.6508444  3
    189    187    190    199     1  0.0000000  0.6508444  3
    189    187    190    191     1  0.0000000  0.6508444  3
    189    187    190    192     1  0.0000000  0.6508444  3
    190    187    180    209     1  0.0000000  0.6508444  3
    191    190    199    208     1  0.0000000  1.0460000  1
    191    190    199    208     1  0.0000000  0.0000000  3
    191    190    199    200     1  0.0000000  0.6508444  3
    191    190    199    201     1  0.0000000  0.6508444  3
    192    190    199    208     1  0.0000000  1.0460000  1
    192    190    199    208     1  0.0000000  0.0000000  3
    192    190    199    200     1  0.0000000  0.6508444  3
    192    190    199    201     1  0.0000000  0.6508444  3
    193    181    180    209     1  0.0000000  0.6508444  3
    194    193    205    478     1  0.0000000  1.0460000  1
    194    193    205    478     1  0.0000000  0.0000000  3
    194    193    205    206     1  0.0000000  0.6508444  3
    194    193    205    207     1  0.0000000  0.6508444  3
    195    193    205    478     1  0.0000000  1.0460000  1
    195    193    205    478     1  0.0000000  0.0000000  3
    195    193    205    206     1  0.0000000  0.6508444  3
    195    193    205    207     1  0.0000000  0.6508444  3
    196    184    180    209     1  0.0000000  0.6508444  3
    197    196    202    448     1  0.0000000  1.0460000  1
    197    196    202    448     1  0.0000000  0.0000000  3
    197    196    202    203     1  0.0000000  0.6508444  3
    197    196    202    204     1  0.0000000  0.6508444  3
    198    196    202    448     1  0.0000000  1.0460000  1
    198    196    202    448     1  0.0000000  0.0000000  3
    198    196    202    203     1  0.0000000  0.6508444  3
    198    196    202    204     1  0.0000000  0.6508444  3
    202    448    439    440     1  0.0000000  1.6038667  3
    202    448    439    441     1  0.0000000  1.6038667  3
    203    202    448    439     1  0.0000000  1.6038667  3
    204    202    448    439     1  0.0000000  1.6038667  3
    205    478    469    470     1  0.0000000  1.6038667  3
    205    478    469    471     1  0.0000000  1.6038667  3
    206    205    478    469     1  0.0000000  1.6038667  3
    207    205    478    469     1  0.0000000  1.6038667  3
    210    211    223    224     1  0.0000000  0.6508444  3
    210    211    223    225     1  0.0000000  0.6508444  3
    210    214    226    227     1  0.0000000  0.6508444  3
    210    214    226    228     1  0.0000000  0.6508444  3
    210    217    220    221     1  0.0000000  0.6508444  3
    210    217    220    222     1  0.0000000  0.6508444  3
    211    210    214    215     1  0.0000000  0.6508444  3
    211    210    214    216     1  0.0000000  0.6508444  3
    211    210    217    218     1  0.0000000  0.6508444  3
    211    210    217    219     1  0.0000000  0.6508444  3
    211    223    235    236     1  0.0000000  0.6508444  3
    211    223    235    237     1  0.0000000  0.6508444  3
    212    211    210    214     1  0.0000000  0.6508444  3
    212    211    210    217     1  0.0000000  0.6508444  3
    212    211    210    239     1  0.0000000  0.6508444  3
    212    211    223    235     1  0.0000000  0.6508444  3
    212    211    223    224     1  0.0000000  0.6508444  3
    212    211    223    225     1  0.0000000  0.6508444  3
    213    211    210    214     1  0.0000000  0.6508444  3
    213    211    210    217     1  0.0000000  0.6508444  3
    213    211    210    239     1  0.0000000  0.6508444  3
    213    211    223    235     1  0.0000000  0.6508444  3
    213    211    223    224     1  0.0000000  0.6508444  3
    213    211    223    225     1  0.0000000  0.6508444  3
    214    210    217    218     1  0.0000000  0.6508444  3
    214    210    217    219     1  0.0000000  0.6508444  3
    214    226    232    233     1  0.0000000  0.6508444  3
    214    226    232    234     1  0.0000000  0.6508444  3
    215    214    210    217     1  0.0000000  0.6508444  3
    215    214    210    239     1  0.0000000  0.6508444  3
    215    214    226    232     1  0.0000000  0.6508444  3
    215    214    226    227     1  0.0000000  0.6508444  3
    215    214    226    228     1  0.0000000  0.6508444  3
    216    214    210    217     1  0.0000000  0.6508444  3
    216    214    210    239     1  0.0000000  0.6508444  3
    216    214    226    232     1  0.0000000  0.6508444  3
    216    214    226    227     1  0.0000000  0.6508444  3
    216    214    226    228     1  0.0000000  0.6508444  3
    217    220    229    230     1  0.0000000  0.6508444  3
    217    220    229    231     1  0.0000000  0.6508444  3
    218    217    210    239     1  0.0000000  0.6508444  3
    218    217    220    229     1  0.0000000  0.6508444  3
    218    217    220    221     1  0.0000000  0.6508444  3
    218    217    220    222     1  0.0000000  0.6508444  3
    219    217    210    239     1  0.0000000  0.6508444  3
    219    217    220    229     1  0.0000000  0.6508444  3
    219    217    220    221     1  0.0000000  0.6508444  3
    219    217    220    222     1  0.0000000  0.6508444  3
    220    217    210    239     1  0.0000000  0.6508444  3
    221    220    229    238     1  0.0000000  1.0460000  1
    221    220    229    238     1  0.0000000  0.0000000  3
    221    220    229    230     1  0.0000000  0.6508444  3
    221    220    229    231     1  0.0000000  0.6508444  3
    222    220    229    238     1  0.0000000  1.0460000  1
    222    220    229    238     1  0.0000000  0.0000000  3
    222    220    229    230     1  0.0000000  0.6508444  3
    222    220    229    231     1  0.0000000  0.6508444  3
    223    211    210    239     1  0.0000000  0.6508444  3
    224    223    235    538     1  0.0000000  1.0460000  1
    224    223    235    538     1  0.0000000  0.0000000  3
    224    223    235    236     1  0.0000000  0.6508444  3
    224    223    235    237     1  0.0000000  0.6508444  3
    225    223    235    538     1  0.0000000  1.0460000  1
    225    223    235    538     1  0.0000000  0.0000000  3
    225    223    235    236     1  0.0000000  0.6508444  3
    225    223    235    237     1  0.0000000  0.6508444  3
    226    214    210    239     1  0.0000000  0.6508444  3
    227    226    232    508     1  0.0000000  1.0460000  1
    227    226    232    508     1  0.0000000  0.0000000  3
    227    226    232    233     1  0.0000000  0.6508444  3
    227    226    232    234     1  0.0000000  0.6508444  3
    228    226    232    508     1  0.0000000  1.0460000  1
    228    226    232    508     1  0.0000000  0.0000000  3
    228    226    232    233     1  0.0000000  0.6508444  3
    228    226    232    234     1  0.0000000  0.6508444  3
    232    508    499    500     1  0.0000000  1.6038667  3
    232    508    499    501     1  0.0000000  1.6038667  3
    233    232    508    499     1  0.0000000  1.6038667  3
    234    232    508    499     1  0.0000000  1.6038667  3
    235    538    529    530     1  0.0000000  1.6038667  3
    235    538    529    531     1  0.0000000  1.6038667  3
    236    235    538    529     1  0.0000000  1.6038667  3
    237    235    538    529     1  0.0000000  1.6038667  3
    240    241    253    254     1  0.0000000  0.6508444  3
    240    241    253    255     1  0.0000000  0.6508444  3
    240    244    256    257     1  0.0000000  0.6508444  3
    240    244    256    258     1  0.0000000  0.6508444  3
    240    247    250    251     1  0.0000000  0.6508444  3
    240    247    250    252     1  0.0000000  0.6508444  3
    241    240    244    245     1  0.0000000  0.6508444  3
    241    240    244    246     1  0.0000000  0.6508444  3
    241    240    247    248     1  0.0000000  0.6508444  3
    241    240    247    249     1  0.0000000  0.6508444  3
    241    253    265    266     1  0.0000000  0.6508444  3
    241    253    265    267     1  0.0000000  0.6508444  3
    242    241    240    244     1  0.0000000  0.6508444  3
    242    241    240    247     1  0.0000000  0.6508444  3
    242    241    240    269     1  0.0000000  0.6508444  3
    242    241    253    265     1  0.0000000  0.6508444  3
    242    241    253    254     1  0.0000000  0.6508444  3
    242    241    253    255     1  0.0000000  0.6508444  3
    243    241    240    244     1  0.0000000  0.6508444  3
    243    241    240    247     1  0.0000000  0.6508444  3
    243    241    240    269     1  0.0000000  0.6508444  3
    243    241    253    265     1  0.0000000  0.6508444  3
    243    241    253    254     1  0.0000000  0.6508444  3
    243    241    253    255     1  0.0000000  0.6508444  3
    244    240    247    248     1  0.0000000  0.6508444  3
    244    240    247    249     1  0.0000000  0.6508444  3
    244    256    262    263     1  0.0000000  0.6508444  3
    244    256    262    264     1  0.0000000  0.6508444  3
    245    244    240    247     1  0.0000000  0.6508444  3
    245    244    240    269     1  0.0000000  0.6508444  3
    245    244    256    262     1  0.0000000  0.6508444  3
    245    244    256    257     1  0.0000000  0.6508444  3
    245    244    256    258     1  0.0000000  0.6508444  3
    246    244    240    247     1  0.0000000  0.6508444  3
    246    244    240    269     1  0.0000000  0.6508444  3
    246    244    256    262     1  0.0000000  0.6508444  3
    246    244    256    257     1  0.0000000  0.6508444  3
    246    244    256    258     1  0.0000000  0.6508444  3
    247    250    259    260     1  0.0000000  0.6508444  3
    247    250    259    261     1  0.0000000  0.6508444  3
    248    247    240    269     1  0.0000000  0.6508444  3
    248    247    250    259     1  0.0000000  0.6508444  3
    248    247    250    251     1  0.0000000  0.6508444  3
    248    247    250    252     1  0.0000000  0.6508444  3
    249    247    240    269     1  0.0000000  0.6508444  3
    249    247    250    259     1  0.0000000  0.6508444  3
    249    247    250    251     1  0.0000000  0.6508444  3
    249    247    250    252     1  0.0000000  0.6508444  3
    250    247    240    269     1  0.0000000  0.6508444  3
    251    250    259    268     1  0.0000000  1.0460000  1
    251    250    259    268     1  0.0000000  0.0000000  3
    251    250    259    260     1  0.0000000  0.6508444  3
    251    250    259    261     1  0.0000000  0.6508444  3
    252    250    259    268     1  0.0000000  1.0460000  1
    252    250    259    268     1  0.0000000  0.0000000  3
    252    250    259    260     1  0.0000000  0.6508444  3
    252    250    259    261     1  0.0000000  0.6508444  3
    253    241    240    269     1  0.0000000  0.6508444  3
    254    253    265    598     1  0.0000000  1.0460000  1
    254    253    265    598     1  0.0000000  0.0000000  3
    254    253    265    266     1  0.0000000  0.6508444  3
    254    253    265    267     1  0.0000000  0.6508444  3
    255    253    265    598     1  0.0000000  1.0460000  1
    255    253    265    598     1  0.0000000  0.0000000  3
    255    253    265    266     1  0.0000000  0.6508444  3
    255    253    265    267     1  0.0000000  0.6508444  3
    256    244    240    269     1  0.0000000  0.6508444  3
    257    256    262    568     1  0.0000000  1.0460000  1
    257    256    262    568     1  0.0000000  0.0000000  3
    257    256    262    263     1  0.0000000  0.6508444  3
    257    256    262    264     1  0.0000000  0.6508444  3
    258    256    262    568     1  0.0000000  1.0460000  1
    258    256    262    568     1  0.0000000  0.0000000  3
    258    256    262    263     1  0.0000000  0.6508444  3
    258    256    262    264     1  0.0000000  0.6508444  3
    262    568    559    560     1  0.0000000  1.6038667  3
    262    568    559    561     1  0.0000000  1.6038667  3
    263    262    568    559     1  0.0000000  1.6038667  3
    264    262    568    559     1  0.0000000  1.6038667  3
    265    598    589    590     1  0.0000000  1.6038667  3
    265    598    589    591     1  0.0000000  1.6038667  3
    266    265    598    589     1  0.0000000  1.6038667  3
    267    265    598    589     1  0.0000000  1.6038667  3
    270    271    283    284     1  0.0000000  0.6508444  3
    270    271    283    285     1  0.0000000  0.6508444  3
    270    274    286    287     1  0.0000000  0.6508444  3
    270    274    286    288     1  0.0000000  0.6508444  3
    270    277    280    281     1  0.0000000  0.6508444  3
    270    277    280    282     1  0.0000000  0.6508444  3
    271    270    274    275     1  0.0000000  0.6508444  3
    271    270    274    276     1  0.0000000  0.6508444  3
    271    270    277    278     1  0.0000000  0.6508444  3
    271    270    277    279     1  0.0000000  0.6508444  3
    271    283    295    296     1  0.0000000  0.6508444  3
    271    283    295    297     1  0.0000000  0.6508444  3
    272    271    270    274     1  0.0000000  0.6508444  3
    272    271    270    277     1  0.0000000  0.6508444  3
    272    271    270    299     1  0.0000000  0.6508444  3
    272    271    283    295     1  0.0000000  0.6508444  3
    272    271    283    284     1  0.0000000  0.6508444  3
    272    271    283    285     1  0.0000000  0.6508444  3
    273    271    270    274     1  0.0000000  0.6508444  3
    273    271    270    277     1  0.0000000  0.6508444  3
    273    271    270    299     1  0.0000000  0.6508444  3
    273    271    283    295     1  0.0000000  0.6508444  3
    273    271    283    284     1  0.0000000  0.6508444  3
    273    271    283    285     1  0.0000000  0.6508444  3
    274    270    277    278     1  0.0000000  0.6508444  3
    274    270    277    279     1  0.0000000  0.6508444  3
    274    286    292    293     1  0.0000000  0.6508444  3
    274    286    292    294     1  0.0000000  0.6508444  3
    275    274    270    277     1  0.0000000  0.6508444  3
    275    274    270    299     1  0.0000000  0.6508444  3
    275    274    286    292     1  0.0000000  0.6508444  3
    275    274    286    287     1  0.0000000  0.6508444  3
    275    274    286    288     1  0.0000000  0.6508444  3
    276    274    270    277     1  0.0000000  0.6508444  3
    276    274    270    299     1  0.0000000  0.6508444  3
    276    274    286    292     1  0.0000000  0.6508444  3
    276    274    286    287     1  0.0000000  0.6508444  3
    276    274    286    288     1  0.0000000  0.6508444  3
    277    280    289    290     1  0.0000000  0.6508444  3
    277    280    289    291     1  0.0000000  0.6508444  3
    278    277    270    299     1  0.0000000  0.6508444  3
    278    277    280    289     1  0.0000000  0.6508444  3
    278    277    280    281     1  0.0000000  0.6508444  3
    278    277    280    282     1  0.0000000  0.6508444  3
    279    277    270    299     1  0.0000000  0.6508444  3
    279    277    280    289     1  0.0000000  0.6508444  3
    279    277    280    281     1  0.0000000  0.6508444  3
    279    277    280    282     1  0.0000000  0.6508444  3
    280    277    270    299     1  0.0000000  0.6508444  3
    281    280    289    298     1  0.0000000  1.0460000  1
    281    280    289    298     1  0.0000000  0.0000000  3
    281    280    289    290     1  0.0000000  0.6508444  3
    281    280    289    291     1  0.0000000  0.6508444  3
    282    280    289    298     1  0.0000000  1.0460000  1
    282    280    289    298     1  0.0000000  0.0000000  3
    282    280    289    290     1  0.0000000  0.6508444  3
    282    280    289    291     1  0.0000000  0.6508444  3
    283    271    270    299     1  0.0000000  0.6508444  3
    284    283    295    658     1  0.0000000  1.0460000  1
    284    283    295    658     1  0.0000000  0.0000000  3
    284    283    295    296     1  0.0000000  0.6508444  3
    284    283    295    297     1  0.0000000  0.6508444  3
    285    283    295    658     1  0.0000000  1.0460000  1
    285    283    295    658     1  0.0000000  0.0000000  3
    285    283    295    296     1  0.0000000  0.6508444  3
    285    283    295    297     1  0.0000000  0.6508444  3
    286    274    270    299     1  0.0000000  0.6508444  3
    287    286    292    628     1  0.0000000  1.0460000  1
    287    286    292    628     1  0.0000000  0.0000000  3
    287    286    292    293     1  0.0000000  0.6508444  3
    287    286    292    294     1  0.0000000  0.6508444  3
    288    286    292    628     1  0.0000000  1.0460000  1
    288    286    292    628     1  0.0000000  0.0000000  3
    288    286    292    293     1  0.0000000  0.6508444  3
    288    286    292    294     1  0.0000000  0.6508444  3
    292    628    619    620     1  0.0000000  1.6038667  3
    292    628    619    621     1  0.0000000  1.6038667  3
    293    292    628    619     1  0.0000000  1.6038667  3
    294    292    628    619     1  0.0000000  1.6038667  3
    295    658    649    650     1  0.0000000  1.6038667  3
    295    658    649    651     1  0.0000000  1.6038667  3
    296    295    658    649     1  0.0000000  1.6038667  3
    297    295    658    649     1  0.0000000  1.6038667  3
    300    301    313    314     1  0.0000000  0.6508444  3
    300    301    313    315     1  0.0000000  0.6508444  3
    300    304    316    317     1  0.0000000  0.6508444  3
    300    304    316    318     1  0.0000000  0.6508444  3
    300    307    310    311     1  0.0000000  0.6508444  3
    300    307    310    312     1  0.0000000  0.6508444  3
    301    300    304    305     1  0.0000000  0.6508444  3
    301    300    304    306     1  0.0000000  0.6508444  3
    301    300    307    308     1  0.0000000  0.6508444  3
    301    300    307    309     1  0.0000000  0.6508444  3
    301    313    325    326     1  0.0000000  0.6508444  3
    301    313    325    327     1  0.0000000  0.6508444  3
    302    301    300    304     1  0.0000000  0.6508444  3
    302    301    300    307     1  0.0000000  0.6508444  3
    302    301    300    329     1  0.0000000  0.6508444  3
    302    301    313    325     1  0.0000000  0.6508444  3
    302    301    313    314     1  0.0000000  0.6508444  3
    302    301    313    315     1  0.0000000  0.6508444  3
    303    301    300    304     1  0.0000000  0.6508444  3
    303    301    300    307     1  0.0000000  0.6508444  3
    303    301    300    329     1  0.0000000  0.6508444  3
    303    301    313    325     1  0.0000000  0.6508444  3
    303    301    313    314     1  0.0000000  0.6508444  3
    303    301    313    315     1  0.0000000  0.6508444  3
    304    300    307    308     1  0.0000000  0.6508444  3
    304    300    307    309     1  0.0000000  0.6508444  3
    304    316    322    323     1  0.0000000  0.6508444  3
    304    316    322    324     1  0.0000000  0.6508444  3
    305    304    300    307     1  0.0000000  0.6508444  3
    305    304    300    329     1  0.0000000  0.6508444  3
    305    304    316    322     1  0.0000000  0.6508444  3
    305    304    316    317     1  0.0000000  0.6508444  3
    305    304    316    318     1  0.0000000  0.6508444  3
    306    304    300    307     1  0.0000000  0.6508444  3
    306    304    300    329     1  0.0000000  0.6508444  3
    306    304    316    322     1  0.0000000  0.6508444  3
    306    304    316    317     1  0.0000000  0.6508444  3
    306    304    316    318     1  0.0000000  0.6508444  3
    307    310    319    320     1  0.0000000  0.6508444  3
    307    310    319    321     1  0.0000000  0.6508444  3
    308    307    300    329     1  0.0000000  0.6508444  3
    308    307    310    319     1  0.0000000  0.6508444  3
    308    307    310    311     1  0.0000000  0.6508444  3
    308    307    310    312     1  0.0000000  0.6508444  3
    309    307    300    329     1  0.0000000  0.6508444  3
    309    307    310    319     1  0.0000000  0.6508444  3
    309    307    310    311     1  0.0000000  0.6508444  3
    309    307    310    312     1  0.0000000  0.6508444  3
    310    307    300    329     1  0.0000000  0.6508444  3
    311    310    319    328     1  0.0000000  1.0460000  1
    311    310    319    328     1  0.0000000  0.0000000  3
    311    310    319    320     1  0.0000000  0.6508444  3
    311    310    319    321     1  0.0000000  0.6508444  3
    312    310    319    328     1  0.0000000  1.0460000  1
    312    310    319    328     1  0.0000000  0.0000000  3
    312    310    319    320     1  0.0000000  0.6508444  3
    312    310    319    321     1  0.0000000  0.6508444  3
    313    301    300    329     1  0.0000000  0.6508444  3
    314    313    325    722     1  0.0000000  1.0460000  1
    314    313    325    722     1  0.0000000  0.0000000  3
    314    313    325    326     1  0.0000000  0.6508444  3
    314    313    325    327     1  0.0000000  0.6508444  3
    315    313    325    722     1  0.0000000  1.0460000  1
    315    313    325    722     1  0.0000000  0.0000000  3
    315    313    325    326     1  0.0000000  0.6508444  3
    315    313    325    327     1  0.0000000  0.6508444  3
    316    304    300    329     1  0.0000000  0.6508444  3
    317    316    322    690     1  0.0000000  1.0460000  1
    317    316    322    690     1  0.0000000  0.0000000  3
    317    316    322    323     1  0.0000000  0.6508444  3
    317    316    322    324     1  0.0000000  0.6508444  3
    318    316    322    690     1  0.0000000  1.0460000  1
    318    316    322    690     1  0.0000000  0.0000000  3
    318    316    322    323     1  0.0000000  0.6508444  3
    318    316    322    324     1  0.0000000  0.6508444  3
    322    690    660    661     1  0.0000000  1.6038667  3
    322    690    660    662     1  0.0000000  1.6038667  3
    323    322    690    660     1  0.0000000  1.6038667  3
    324    322    690    660     1  0.0000000  1.6038667  3
    325    722    692    693     1  0.0000000  1.6038667  3
    325    722    692    694     1  0.0000000  1.6038667  3
    326    325    722    692     1  0.0000000  1.6038667  3
    327    325    722    692     1  0.0000000  1.6038667  3
    330    331    343    344     1  0.0000000  0.6508444  3
    330    331    343    345     1  0.0000000  0.6508444  3
    330    334    346    347     1  0.0000000  0.6508444  3
    330    334    346    348     1  0.0000000  0.6508444  3
    330    337    340    341     1  0.0000000  0.6508444  3
    330    337    340    342     1  0.0000000  0.6508444  3
    331    330    334    335     1  0.0000000  0.6508444  3
    331    330    334    336     1  0.0000000  0.6508444  3
    331    330    337    338     1  0.0000000  0.6508444  3
    331    330    337    339     1  0.0000000  0.6508444  3
    331    343    355    356     1  0.0000000  0.6508444  3
    331    343    355    357     1  0.0000000  0.6508444  3
    332    331    330    334     1  0.0000000  0.6508444  3
    332    331    330    337     1  0.0000000  0.6508444  3
    332    331    330    359     1  0.0000000  0.6508444  3
    332    331    343    355     1  0.0000000  0.6508444  3
    332    331    343    344     1  0.0000000  0.6508444  3
    332    331    343    345     1  0.0000000  0.6508444  3
    333    331    330    334     1  0.0000000  0.6508444  3
    333    331    330    337     1  0.0000000  0.6508444  3
    333    331    330    359     1  0.0000000  0.6508444  3
    333    331    343    355     1  0.0000000  0.6508444  3
    333    331    343    344     1  0.0000000  0.6508444  3
    333    331    343    345     1  0.0000000  0.6508444  3
    334    330    337    338     1  0.0000000  0.6508444  3
    334    330    337    339     1  0.0000000  0.6508444  3
    334    346    352    353     1  0.0000000  0.6508444  3
    334    346    352    354     1  0.0000000  0.6508444  3
    335    334    330    337     1  0.0000000  0.6508444  3
    335    334    330    359     1  0.0000000  0.6508444  3
    335    334    346    352     1  0.0000000  0.6508444  3
    335    334    346    347     1  0.0000000  0.6508444  3
    335    334    346    348     1  0.0000000  0.6508444  3
    336    334    330    337     1  0.0000000  0.6508444  3
    336    334    330    359     1  0.0000000  0.6508444  3
    336    334    346    352     1  0.0000000  0.6508444  3
    336    334    346    347     1  0.0000000  0.6508444  3
    336    334    346    348     1  0.0000000  0.6508444  3
    337    340    349    350     1  0.0000000  0.6508444  3
    337    340    349    351     1  0.0000000  0.6508444  3
    338    337    330    359     1  0.0000000  0.6508444  3
    338    337    340    349     1  0.0000000  0.6508444  3
    338    337    340    341     1  0.0000000  0.6508444  3
    338    337    340    342     1  0.0000000  0.6508444  3
    339    337    330    359     1  0.0000000  0.6508444  3
    339    337    340    349     1  0.0000000  0.6508444  3
    339    337    340    341     1  0.0000000  0.6508444  3
    339    337    340    342     1  0.0000000  0.6508444  3
    340    337    330    359     1  0.0000000  0.6508444  3
    341    340    349    358     1  0.0000000  1.0460000  1
    341    340    349    358     1  0.0000000  0.0000000  3
    341    340    349    350     1  0.0000000  0.6508444  3
    341    340    349    351     1  0.0000000  0.6508444  3
    342    340    349    358     1  0.0000000  1.0460000  1
    342    340    349    358     1  0.0000000  0.0000000  3
    342    340    349    350     1  0.0000000  0.6508444  3
    342    340    349    351     1  0.0000000  0.6508444  3
    343    331    330    359     1  0.0000000  0.6508444  3
    344    343    355    786     1  0.0000000  1.0460000  1
    344    343    355    786     1  0.0000000  0.0000000  3
    344    343    355    356     1  0.0000000  0.6508444  3
    344    343    355    357     1  0.0000000  0.6508444  3
    345    343    355    786     1  0.0000000  1.0460000  1
    345    343    355    786     1  0.0000000  0.0000000  3
    345    343    355    356     1  0.0000000  0.6508444  3
    345    343    355    357     1  0.0000000  0.6508444  3
    346    334    330    359     1  0.0000000  0.6508444  3
    347    346    352    754     1  0.0000000  1.0460000  1
    347    346    352    754     1  0.0000000  0.0000000  3
    347    346    352    353     1  0.0000000  0.6508444  3
    347    346    352    354     1  0.0000000  0.6508444  3
    348    346    352    754     1  0.0000000  1.0460000  1
    348    346    352    754     1  0.0000000  0.0000000  3
    348    346    352    353     1  0.0000000  0.6508444  3
    348    346    352    354     1  0.0000000  0.6508444  3
    352    754    724    725     1  0.0000000  1.6038667  3
    352    754    724    726     1  0.0000000  1.6038667  3
    353    352    754    724     1  0.0000000  1.6038667  3
    354    352    754    724     1  0.0000000  1.6038667  3
    355    786    756    757     1  0.0000000  1.6038667  3
    355    786    756    758     1  0.0000000  1.6038667  3
    356    355    786    756     1  0.0000000  1.6038667  3
    357    355    786    756     1  0.0000000  1.6038667  3
    360    361    373    374     1  0.0000000  0.6508444  3
    360    361    373    375     1  0.0000000  0.6508444  3
    360    364    376    377     1  0.0000000  0.6508444  3
    360    364    376    378     1  0.0000000  0.6508444  3
    360    367    370    371     1  0.0000000  0.6508444  3
    360    367    370    372     1  0.0000000  0.6508444  3
    361    360    364    365     1  0.0000000  0.6508444  3
    361    360    364    366     1  0.0000000  0.6508444  3
    361    360    367    368     1  0.0000000  0.6508444  3
    361    360    367    369     1  0.0000000  0.6508444  3
    361    373    385    386     1  0.0000000  0.6508444  3
    361    373    385    387     1  0.0000000  0.6508444  3
    362    361    360    364     1  0.0000000  0.6508444  3
    362    361    360    367     1  0.0000000  0.6508444  3
    362    361    360    389     1  0.0000000  0.6508444  3
    362    361    373    385     1  0.0000000  0.6508444  3
    362    361    373    374     1  0.0000000  0.6508444  3
    362    361    373    375     1  0.0000000  0.6508444  3
    363    361    360    364     1  0.0000000  0.6508444  3
    363    361    360    367     1  0.0000000  0.6508444  3
    363    361    360    389     1  0.0000000  0.6508444  3
    363    361    373    385     1  0.0000000  0.6508444  3
    363    361    373    374     1  0.0000000  0.6508444  3
    363    361    373    375     1  0.0000000  0.6508444  3
    364    360    367    368     1  0.0000000  0.6508444  3
    364    360    367    369     1  0.0000000  0.6508444  3
    364    376    382    383     1  0.0000000  0.6508444  3
    364    376    382    384     1  0.0000000  0.6508444  3
    365    364    360    367     1  0.0000000  0.6508444  3
    365    364    360    389     1  0.0000000  0.6508444  3
    365    364    376    382     1  0.0000000  0.6508444  3
    365    364    376    377     1  0.0000000  0.6508444  3
    365    364    376    378     1  0.0000000  0.6508444  3
    366    364    360    367     1  0.0000000  0.6508444  3
    366    364    360    389     1  0.0000000  0.6508444  3
    366    364    376    382     1  0.0000000  0.6508444  3
    366    364    376    377     1  0.0000000  0.6508444  3
    366    364    376    378     1  0.0000000  0.6508444  3
    367    370    379    380     1  0.0000000  0.6508444  3
    367    370    379    381     1  0.0000000  0.6508444  3
    368    367    360    389     1  0.0000000  0.6508444  3
    368    367    370    379     1  0.0000000  0.6508444  3
    368    367    370    371     1  0.0000000  0.6508444  3
    368    367    370    372     1  0.0000000  0.6508444  3
    369    367    360    389     1  0.0000000  0.6508444  3
    369    367    370    379     1  0.0000000  0.6508444  3
    369    367    370    371     1  0.0000000  0.6508444  3
    369    367    370    372     1  0.0000000  0.6508444  3
    370    367    360    389     1  0.0000000  0.6508444  3
    371    370    379    388     1  0.0000000  1.0460000  1
    371    370    379    388     1  0.0000000  0.0000000  3
    371    370    379    380     1  0.0000000  0.6508444  3
    371    370    379    381     1  0.0000000  0.6508444  3
    372    370    379    388     1  0.0000000  1.0460000  1
    372    370    379    388     1  0.0000000  0.0000000  3
    372    370    379    380     1  0.0000000  0.6508444  3
    372    370    379    381     1  0.0000000  0.6508444  3
    373    361    360    389     1  0.0000000  0.6508444  3
    374    373    385    850     1  0.0000000  1.0460000  1
    374    373    385    850     1  0.0000000  0.0000000  3
    374    373    385    386     1  0.0000000  0.6508444  3
    374    373    385    387     1  0.0000000  0.6508444  3
    375    373    385    850     1  0.0000000  1.0460000  1
    375    373    385    850     1  0.0000000  0.0000000  3
    375    373    385    386     1  0.0000000  0.6508444  3
    375    373    385    387     1  0.0000000  0.6508444  3
    376    364    360    389     1  0.0000000  0.6508444  3
    377    376    382    818     1  0.0000000  1.0460000  1
    377    376    382    818     1  0.0000000  0.0000000  3
    377    376    382    383     1  0.0000000  0.6508444  3
    377    376    382    384     1  0.0000000  0.6508444  3
    378    376    382    818     1  0.0000000  1.0460000  1
    378    376    382    818     1  0.0000000  0.0000000  3
    378    376    382    383     1  0.0000000  0.6508444  3
    378    376    382    384     1  0.0000000  0.6508444  3
    382    818    788    789     1  0.0000000  1.6038667  3
    382    818    788    790     1  0.0000000  1.6038667  3
    383    382    818    788     1  0.0000000  1.6038667  3
    384    382    818    788     1  0.0000000  1.6038667  3
    385    850    820    821     1  0.0000000  1.6038667  3
    385    850    820    822     1  0.0000000  1.6038667  3
    386    385    850    820     1  0.0000000  1.6038667  3
    387    385    850    820     1  0.0000000  1.6038667  3
    390    391    403    404     1  0.0000000  0.6508444  3
    390    391    403    405     1  0.0000000  0.6508444  3
    390    394    406    407     1  0.0000000  0.6508444  3
    390    394    406    408     1  0.0000000  0.6508444  3
    390    397    400    401     1  0.0000000  0.6508444  3
    390    397    400    402     1  0.0000000  0.6508444  3
    391    390    394    395     1  0.0000000  0.6508444  3
    391    390    394    396     1  0.0000000  0.6508444  3
    391    390    397    398     1  0.0000000  0.6508444  3
    391    390    397    399     1  0.0000000  0.6508444  3
    391    403    415    416     1  0.0000000  0.6508444  3
    391    403    415    417     1  0.0000000  0.6508444  3
    392    391    390    394     1  0.0000000  0.6508444  3
    392    391    390    397     1  0.0000000  0.6508444  3
    392    391    390    419     1  0.0000000  0.6508444  3
    392    391    403    415     1  0.0000000  0.6508444  3
    392    391    403    404     1  0.0000000  0.6508444  3
    392    391    403    405     1  0.0000000  0.6508444  3
    393    391    390    394     1  0.0000000  0.6508444  3
    393    391    390    397     1  0.0000000  0.6508444  3
    393    391    390    419     1  0.0000000  0.6508444  3
    393    391    403    415     1  0.0000000  0.6508444  3
    393    391    403    404     1  0.0000000  0.6508444  3
    393    391    403    405     1  0.0000000  0.6508444  3
    394    390    397    398     1  0.0000000  0.6508444  3
    394    390    397    399     1  0.0000000  0.6508444  3
    394    406    412    413     1  0.0000000  0.6508444  3
    394    406    412    414     1  0.0000000  0.6508444  3
    395    394    390    397     1  0.0000000  0.6508444  3
    395    394    390    419     1  0.0000000  0.6508444  3
    395    394    406    412     1  0.0000000  0.6508444  3
    395    394    406    407     1  0.0000000  0.6508444  3
    395    394    406    408     1  0.0000000  0.6508444  3
    396    394    390    397     1  0.0000000  0.6508444  3
    396    394    390    419     1  0.0000000  0.6508444  3
    396    394    406    412     1  0.0000000  0.6508444  3
    396    394    406    407     1  0.0000000  0.6508444  3
    396    394    406    408     1  0.0000000  0.6508444  3
    397    400    409    410     1  0.0000000  0.6508444  3
    397    400    409    411     1  0.0000000  0.6508444  3
    398    397    390    419     1  0.0000000  0.6508444  3
    398    397    400    409     1  0.0000000  0.6508444  3
    398    397    400    401     1  0.0000000  0.6508444  3
    398    397    400    402     1  0.0000000  0.6508444  3
    399    397    390    419     1  0.0000000  0.6508444  3
    399    397    400    409     1  0.0000000  0.6508444  3
    399    397    400    401     1  0.0000000  0.6508444  3
    399    397    400    402     1  0.0000000  0.6508444  3
    400    397    390    419     1  0.0000000  0.6508444  3
    401    400    409    418     1  0.0000000  1.0460000  1
    401    400    409    418     1  0.0000000  0.0000000  3
    401    400    409    410     1  0.0000000  0.6508444  3
    401    400    409    411     1  0.0000000  0.6508444  3
    402    400    409    418     1  0.0000000  1.0460000  1
    402    400    409    418     1  0.0000000  0.0000000  3
    402    400    409    410     1  0.0000000  0.6508444  3
    402    400    409    411     1  0.0000000  0.6508444  3
    403    391    390    419     1  0.0000000  0.6508444  3
    404    403    415    914     1  0.0000000  1.0460000  1
    404    403    415    914     1  0.0000000  0.0000000  3
    404    403    415    416     1  0.0000000  0.6508444  3
    404    403    415    417     1  0.0000000  0.6508444  3
    405    403    415    914     1  0.0000000  1.0460000  1
    405    403    415    914     1  0.0000000  0.0000000  3
    405    403    415    416     1  0.0000000  0.6508444  3
    405    403    415    417     1  0.0000000  0.6508444  3
    406    394    390    419     1  0.0000000  0.6508444  3
    407    406    412    882     1  0.0000000  1.0460000  1
    407    406    412    882     1  0.0000000  0.0000000  3
    407    406    412    413     1  0.0000000  0.6508444  3
    407    406    412    414     1  0.0000000  0.6508444  3
    408    406    412    882     1  0.0000000  1.0460000  1
    408    406    412    882     1  0.0000000  0.0000000  3
    408    406    412    413     1  0.0000000  0.6508444  3
    408    406    412    414     1  0.0000000  0.6508444  3
    412    882    852    853     1  0.0000000  1.6038667  3
    412    882    852    854     1  0.0000000  1.6038667  3
    413    412    882    852     1  0.0000000  1.6038667  3
    414    412    882    852     1  0.0000000  1.6038667  3
    415    914    884    885     1  0.0000000  1.6038667  3
    415    914    884    886     1  0.0000000  1.6038667  3
    416    415    914    884     1  0.0000000  1.6038667  3
    417    415    914    884     1  0.0000000  1.6038667  3
    420    421    433    434     1  0.0000000  0.6508444  3
    420    421    433    435     1  0.0000000  0.6508444  3
    420    424    436    437     1  0.0000000  0.6508444  3
    420    424    436    438     1  0.0000000  0.6508444  3
    420    427    430    431     1  0.0000000  0.6508444  3
    420    427    430    432     1  0.0000000  0.6508444  3
    421    420    424    425     1  0.0000000  0.6508444  3
    421    420    424    426     1  0.0000000  0.6508444  3
    421    420    427    428     1  0.0000000  0.6508444  3
    421    420    427    429     1  0.0000000  0.6508444  3
    421    433    445    446     1  0.0000000  0.6508444  3
    421    433    445    447     1  0.0000000  0.6508444  3
    422    421    420    424     1  0.0000000  0.6508444  3
    422    421    420    427     1  0.0000000  0.6508444  3
    422    421    420    449     1  0.0000000  0.6508444  3
    422    421    433    445     1  0.0000000  0.6508444  3
    422    421    433    434     1  0.0000000  0.6508444  3
    422    421    433    435     1  0.0000000  0.6508444  3
    423    421    420    424     1  0.0000000  0.6508444  3
    423    421    420    427     1  0.0000000  0.6508444  3
    423    421    420    449     1  0.0000000  0.6508444  3
    423    421    433    445     1  0.0000000  0.6508444  3
    423    421    433    434     1  0.0000000  0.6508444  3
    423    421    433    435     1  0.0000000  0.6508444  3
    424    420    427    428     1  0.0000000  0.6508444  3
    424    420    427    429     1  0.0000000  0.6508444  3
    424    436    442    443     1  0.0000000  0.6508444  3
    424    436    442    444     1  0.0000000  0.6508444  3
    425    424    420    427     1  0.0000000  0.6508444  3
    425    424    420    449     1  0.0000000  0.6508444  3
    425    424    436    442     1  0.0000000  0.6508444  3
    425    424    436    437     1  0.0000000  0.6508444  3
    425    424    436    438     1  0.0000000  0.6508444  3
    426    424    420    427     1  0.0000000  0.6508444  3
    426    424    420    449     1  0.0000000  0.6508444  3
    426    424    436    442     1  0.0000000  0.6508444  3
    426    424    436    437     1  0.0000000  0.6508444  3
    426    424    436    438     1  0.0000000  0.6508444  3
    427    430    439    440     1  0.0000000  0.6508444  3
    427    430    439    441     1  0.0000000  0.6508444  3
    428    427    420    449     1  0.0000000  0.6508444  3
    428    427    430    439     1  0.0000000  0.6508444  3
    428    427    430    431     1  0.0000000  0.6508444  3
    428    427    430    432     1  0.0000000  0.6508444  3
    429    427    420    449     1  0.0000000  0.6508444  3
    429    427    430    439     1  0.0000000  0.6508444  3
    429    427    430    431     1  0.0000000  0.6508444  3
    429    427    430    432     1  0.0000000  0.6508444  3
    430    427    420    449     1  0.0000000  0.6508444  3
    431    430    439    448     1  0.0000000  1.0460000  1
    431    430    439    448     1  0.0000000  0.0000000  3
    431    430    439    440     1  0.0000000  0.6508444  3
    431    430    439    441     1  0.0000000  0.6508444  3
    432    430    439    448     1  0.0000000  1.0460000  1
    432    430    439    448     1  0.0000000  0.0000000  3
    432    430    439    440     1  0.0000000  0.6508444  3
    432    430    439    441     1  0.0000000  0.6508444  3
    433    421    420    449     1  0.0000000  0.6508444  3
    434    433    445    978     1  0.0000000  1.0460000  1
    434    433    445    978     1  0.0000000  0.0000000  3
    434    433    445    446     1  0.0000000  0.6508444  3
    434    433    445    447     1  0.0000000  0.6508444  3
    435    433    445    978     1  0.0000000  1.0460000  1
    435    433    445    978     1  0.0000000  0.0000000  3
    435    433    445    446     1  0.0000000  0.6508444  3
    435    433    445    447     1  0.0000000  0.6508444  3
    436    424    420    449     1  0.0000000  0.6508444  3
    437    436    442    946     1  0.0000000  1.0460000  1
    437    436    442    946     1  0.0000000  0.0000000  3
    437    436    442    443     1  0.0000000  0.6508444  3
    437    436    442    444     1  0.0000000  0.6508444  3
    438    436    442    946     1  0.0000000  1.0460000  1
    438    436    442    946     1  0.0000000  0.0000000  3
    438    436    442    443     1  0.0000000  0.6508444  3
    438    436    442    444     1  0.0000000  0.6508444  3
    442    946    916    917     1  0.0000000  1.6038667  3
    442    946    916    918     1  0.0000000  1.6038667  3
    443    442    946    916     1  0.0000000  1.6038667  3
    444    442    946    916     1  0.0000000  1.6038667  3
    445    978    948    949     1  0.0000000  1.6038667  3
    445    978    948    950     1  0.0000000  1.6038667  3
    446    445    978    948     1  0.0000000  1.6038667  3
    447    445    978    948     1  0.0000000  1.6038667  3
    450    451    463    464     1  0.0000000  0.6508444  3
    450    451    463    465     1  0.0000000  0.6508444  3
    450    454    466    467     1  0.0000000  0.6508444  3
    450    454    466    468     1  0.0000000  0.6508444  3
    450    457    460    461     1  0.0000000  0.6508444  3
    450    457    460    462     1  0.0000000  0.6508444  3
    451    450    454    455     1  0.0000000  0.6508444  3
    451    450    454    456     1  0.0000000  0.6508444  3
    451    450    457    458     1  0.0000000  0.6508444  3
    451    450    457    459     1  0.0000000  0.6508444  3
    451    463    475    476     1  0.0000000  0.6508444  3
    451    463    475    477     1  0.0000000  0.6508444  3
    452    451    450    454     1  0.0000000  0.6508444  3
    452    451    450    457     1  0.0000000  0.6508444  3
    452    451    450    479     1  0.0000000  0.6508444  3
    452    451    463    475     1  0.0000000  0.6508444  3
    452    451    463    464     1  0.0000000  0.6508444  3
    452    451    463    465     1  0.0000000  0.6508444  3
    453    451    450    454     1  0.0000000  0.6508444  3
    453    451    450    457     1  0.0000000  0.6508444  3
    453    451    450    479     1  0.0000000  0.6508444  3
    453    451    463    475     1  0.0000000  0.6508444  3
    453    451    463    464     1  0.0000000  0.6508444  3
    453    451    463    465     1  0.0000000  0.6508444  3
    454    450    457    458     1  0.0000000  0.6508444  3
    454    450    457    459     1  0.0000000  0.6508444  3
    454    466    472    473     1  0.0000000  0.6508444  3
    454    466    472    474     1  0.0000000  0.6508444  3
    455    454    450    457     1  0.0000000  0.6508444  3
    455    454    450    479     1  0.0000000  0.6508444  3
    455    454    466    472     1  0.0000000  0.6508444  3
    455    454    466    467     1  0.0000000  0.6508444  3
    455    454    466    468     1  0.0000000  0.6508444  3
    456    454    450    457     1  0.0000000  0.6508444  3
    456    454    450    479     1  0.0000000  0.6508444  3
    456    454    466    472     1  0.0000000  0.6508444  3
    456    454    466    467     1  0.0000000  0.6508444  3
    456    454    466    468     1  0.0000000  0.6508444  3
    457    460    469    470     1  0.0000000  0.6508444  3
    457    460    469    471     1  0.0000000  0.6508444  3
    458    457    450    479     1  0.0000000  0.6508444  3
    458    457    460    469     1  0.0000000  0.6508444  3
    458    457    460    461     1  0.0000000  0.6508444  3
    458    457    460    462     1  0.0000000  0.6508444  3
    459    457    450    479     1  0.0000000  0.6508444  3
    459    457    460    469     1  0.0000000  0.6508444  3
    459    457    460    461     1  0.0000000  0.6508444  3
    459    457    460    462     1  0.0000000  0.6508444  3
    460    457    450    479     1  0.0000000  0.6508444  3
    461    460    469    478     1  0.0000000  1.0460000  1
    461    460    469    478     1  0.0000000  0.0000000  3
    461    460    469    470     1  0.0000000  0.6508444  3
    461    460    469    471     1  0.0000000  0.6508444  3
    462    460    469    478     1  0.0000000  1.0460000  1
    462    460    469    478     1  0.0000000  0.0000000  3
    462    460    469    470     1  0.0000000  0.6508444  3
    462    460    469    471     1  0.0000000  0.6508444  3
    463    451    450    479     1  0.0000000  0.6508444  3
    464    463    475   1042     1  0.0000000  1.0460000  1
    464    463    475   1042     1  0.0000000  0.0000000  3
    464    463    475    476     1  0.0000000  0.6508444  3
    464    463    475    477     1  0.0000000  0.6508444  3
    465    463    475   1042     1  0.0000000  1.0460000  1
    465    463    475   1042     1  0.0000000  0.0000000  3
    465    463    475    476     1  0.0000000  0.6508444  3
    465    463    475    477     1  0.0000000  0.6508444  3
    466    454    450    479     1  0.0000000  0.6508444  3
    467    466    472   1010     1  0.0000000  1.0460000  1
    467    466    472   1010     1  0.0000000  0.0000000  3
    467    466    472    473     1  0.0000000  0.6508444  3
    467    466    472    474     1  0.0000000  0.6508444  3
    468    466    472   1010     1  0.0000000  1.0460000  1
    468    466    472   1010     1  0.0000000  0.0000000  3
    468    466    472    473     1  0.0000000  0.6508444  3
    468    466    472    474     1  0.0000000  0.6508444  3
    472   1010    980    981     1  0.0000000  1.6038667  3
    472   1010    980    982     1  0.0000000  1.6038667  3
    473    472   1010    980     1  0.0000000  1.6038667  3
    474    472   1010    980     1  0.0000000  1.6038667  3
    475   1042   1012   1013     1  0.0000000  1.6038667  3
    475   1042   1012   1014     1  0.0000000  1.6038667  3
    476    475   1042   1012     1  0.0000000  1.6038667  3
    477    475   1042   1012     1  0.0000000  1.6038667  3
    480    481    493    494     1  0.0000000  0.6508444  3
    480    481    493    495     1  0.0000000  0.6508444  3
    480    484    496    497     1  0.0000000  0.6508444  3
    480    484    496    498     1  0.0000000  0.6508444  3
    480    487    490    491     1  0.0000000  0.6508444  3
    480    487    490    492     1  0.0000000  0.6508444  3
    481    480    484    485     1  0.0000000  0.6508444  3
    481    480    484    486     1  0.0000000  0.6508444  3
    481    480    487    488     1  0.0000000  0.6508444  3
    481    480    487    489     1  0.0000000  0.6508444  3
    481    493    505    506     1  0.0000000  0.6508444  3
    481    493    505    507     1  0.0000000  0.6508444  3
    482    481    480    484     1  0.0000000  0.6508444  3
    482    481    480    487     1  0.0000000  0.6508444  3
    482    481    480    509     1  0.0000000  0.6508444  3
    482    481    493    505     1  0.0000000  0.6508444  3
    482    481    493    494     1  0.0000000  0.6508444  3
    482    481    493    495     1  0.0000000  0.6508444  3
    483    481    480    484     1  0.0000000  0.6508444  3
    483    481    480    487     1  0.0000000  0.6508444  3
    483    481    480    509     1  0.0000000  0.6508444  3
    483    481    493    505     1  0.0000000  0.6508444  3
    483    481    493    494     1  0.0000000  0.6508444  3
    483    481    493    495     1  0.0000000  0.6508444  3
    484    480    487    488     1  0.0000000  0.6508444  3
    484    480    487    489     1  0.0000000  0.6508444  3
    484    496    502    503     1  0.0000000  0.6508444  3
    484    496    502    504     1  0.0000000  0.6508444  3
    485    484    480    487     1  0.0000000  0.6508444  3
    485    484    480    509     1  0.0000000  0.6508444  3
    485    484    496    502     1  0.0000000  0.6508444  3
    485    484    496    497     1  0.0000000  0.6508444  3
    485    484    496    498     1  0.0000000  0.6508444  3
    486    484    480    487     1  0.0000000  0.6508444  3
    486    484    480    509     1  0.0000000  0.6508444  3
    486    484    496    502     1  0.0000000  0.6508444  3
    486    484    496    497     1  0.0000000  0.6508444  3
    486    484    496    498     1  0.0000000  0.6508444  3
    487    490    499    500     1  0.0000000  0.6508444  3
    487    490    499    501     1  0.0000000  0.6508444  3
    488    487    480    509     1  0.0000000  0.6508444  3
    488    487    490    499     1  0.0000000  0.6508444  3
    488    487    490    491     1  0.0000000  0.6508444  3
    488    487    490    492     1  0.0000000  0.6508444  3
    489    487    480    509     1  0.0000000  0.6508444  3
    489    487    490    499     1  0.0000000  0.6508444  3
    489    487    490    491     1  0.0000000  0.6508444  3
    489    487    490    492     1  0.0000000  0.6508444  3
    490    487    480    509     1  0.0000000  0.6508444  3
    491    490    499    508     1  0.0000000  1.0460000  1
    491    490    499    508     1  0.0000000  0.0000000  3
    491    490    499    500     1  0.0000000  0.6508444  3
    491    490    499    501     1  0.0000000  0.6508444  3
    492    490    499    508     1  0.0000000  1.0460000  1
    492    490    499    508     1  0.0000000  0.0000000  3
    492    490    499    500     1  0.0000000  0.6508444  3
    492    490    499    501     1  0.0000000  0.6508444  3
    493    481    480    509     1  0.0000000  0.6508444  3
    494    493    505   1106     1  0.0000000  1.0460000  1
    494    493    505   1106     1  0.0000000  0.0000000  3
    494    493    505    506     1  0.0000000  0.6508444  3
    494    493    505    507     1  0.0000000  0.6508444  3
    495    493    505   1106     1  0.0000000  1.0460000  1
    495    493    505   1106     1  0.0000000  0.0000000  3
    495    493    505    506     1  0.0000000  0.6508444  3
    495    493    505    507     1  0.0000000  0.6508444  3
    496    484    480    509     1  0.0000000  0.6508444  3
    497    496    502   1074     1  0.0000000  1.0460000  1
    497    496    502   1074     1  0.0000000  0.0000000  3
    497    496    502    503     1  0.0000000  0.6508444  3
    497    496    502    504     1  0.0000000  0.6508444  3
    498    496    502   1074     1  0.0000000  1.0460000  1
    498    496    502   1074     1  0.0000000  0.0000000  3
    498    496    502    503     1  0.0000000  0.6508444  3
    498    496    502    504     1  0.0000000  0.6508444  3
    502   1074   1044   1045     1  0.0000000  1.6038667  3
    502   1074   1044   1046     1  0.0000000  1.6038667  3
    503    502   1074   1044     1  0.0000000  1.6038667  3
    504    502   1074   1044     1  0.0000000  1.6038667  3
    505   1106   1076   1077     1  0.0000000  1.6038667  3
    505   1106   1076   1078     1  0.0000000  1.6038667  3
    506    505   1106   1076     1  0.0000000  1.6038667  3
    507    505   1106   1076     1  0.0000000  1.6038667  3
    510    511    523    524     1  0.0000000  0.6508444  3
    510    511    523    525     1  0.0000000  0.6508444  3
    510    514    526    527     1  0.0000000  0.6508444  3
    510    514    526    528     1  0.0000000  0.6508444  3
    510    517    520    521     1  0.0000000  0.6508444  3
    510    517    520    522     1  0.0000000  0.6508444  3
    511    510    514    515     1  0.0000000  0.6508444  3
    511    510    514    516     1  0.0000000  0.6508444  3
    511    510    517    518     1  0.0000000  0.6508444  3
    511    510    517    519     1  0.0000000  0.6508444  3
    511    523    535    536     1  0.0000000  0.6508444  3
    511    523    535    537     1  0.0000000  0.6508444  3
    512    511    510    514     1  0.0000000  0.6508444  3
    512    511    510    517     1  0.0000000  0.6508444  3
    512    511    510    539     1  0.0000000  0.6508444  3
    512    511    523    535     1  0.0000000  0.6508444  3
    512    511    523    524     1  0.0000000  0.6508444  3
    512    511    523    525     1  0.0000000  0.6508444  3
    513    511    510    514     1  0.0000000  0.6508444  3
    513    511    510    517     1  0.0000000  0.6508444  3
    513    511    510    539     1  0.0000000  0.6508444  3
    513    511    523    535     1  0.0000000  0.6508444  3
    513    511    523    524     1  0.0000000  0.6508444  3
    513    511    523    525     1  0.0000000  0.6508444  3
    514    510    517    518     1  0.0000000  0.6508444  3
    514    510    517    519     1  0.0000000  0.6508444  3
    514    526    532    533     1  0.0000000  0.6508444  3
    514    526    532    534     1  0.0000000  0.6508444  3
    515    514    510    517     1  0.0000000  0.6508444  3
    515    514    510    539     1  0.0000000  0.6508444  3
    515    514    526    532     1  0.0000000  0.6508444  3
    515    514    526    527     1  0.0000000  0.6508444  3
    515    514    526    528     1  0.0000000  0.6508444  3
    516    514    510    517     1  0.0000000  0.6508444  3
    516    514    510    539     1  0.0000000  0.6508444  3
    516    514    526    532     1  0.0000000  0.6508444  3
    516    514    526    527     1  0.0000000  0.6508444  3
    516    514    526    528     1  0.0000000  0.6508444  3
    517    520    529    530     1  0.0000000  0.6508444  3
    517    520    529    531     1  0.0000000  0.6508444  3
    518    517    510    539     1  0.0000000  0.6508444  3
    518    517    520    529     1  0.0000000  0.6508444  3
    518    517    520    521     1  0.0000000  0.6508444  3
    518    517    520    522     1  0.0000000  0.6508444  3
    519    517    510    539     1  0.0000000  0.6508444  3
    519    517    520    529     1  0.0000000  0.6508444  3
    519    517    520    521     1  0.0000000  0.6508444  3
    519    517    520    522     1  0.0000000  0.6508444  3
    520    517    510    539     1  0.0000000  0.6508444  3
    521    520    529    538     1  0.0000000  1.0460000  1
    521    520    529    538     1  0.0000000  0.0000000  3
    521    520    529    530     1  0.0000000  0.6508444  3
    521    520    529    531     1  0.0000000  0.6508444  3
    522    520    529    538     1  0.0000000  1.0460000  1
    522    520    529    538     1  0.0000000  0.0000000  3
    522    520    529    530     1  0.0000000  0.6508444  3
    522    520    529    531     1  0.0000000  0.6508444  3
    523    511    510    539     1  0.0000000  0.6508444  3
    524    523    535   1170     1  0.0000000  1.0460000  1
    524    523    535   1170     1  0.0000000  0.0000000  3
    524    523    535    536     1  0.0000000  0.6508444  3
    524    523    535    537     1  0.0000000  0.6508444  3
    525    523    535   1170     1  0.0000000  1.0460000  1
    525    523    535   1170     1  0.0000000  0.0000000  3
    525    523    535    536     1  0.0000000  0.6508444  3
    525    523    535    537     1  0.0000000  0.6508444  3
    526    514    510    539     1  0.0000000  0.6508444  3
    527    526    532   1138     1  0.0000000  1.0460000  1
    527    526    532   1138     1  0.0000000  0.0000000  3
    527    526    532    533     1  0.0000000  0.6508444  3
    527    526    532    534     1  0.0000000  0.6508444  3
    528    526    532   1138     1  0.0000000  1.0460000  1
    528    526    532   1138     1  0.0000000  0.0000000  3
    528    526    532    533     1  0.0000000  0.6508444  3
    528    526    532    534     1  0.0000000  0.6508444  3
    532   1138   1108   1109     1  0.0000000  1.6038667  3
    532   1138   1108   1110     1  0.0000000  1.6038667  3
    533    532   1138   1108     1  0.0000000  1.6038667  3
    534    532   1138   1108     1  0.0000000  1.6038667  3
    535   1170   1140   1141     1  0.0000000  1.6038667  3
    535   1170   1140   1142     1  0.0000000  1.6038667  3
    536    535   1170   1140     1  0.0000000  1.6038667  3
    537    535   1170   1140     1  0.0000000  1.6038667  3
    540    541    553    554     1  0.0000000  0.6508444  3
    540    541    553    555     1  0.0000000  0.6508444  3
    540    544    556    557     1  0.0000000  0.6508444  3
    540    544    556    558     1  0.0000000  0.6508444  3
    540    547    550    551     1  0.0000000  0.6508444  3
    540    547    550    552     1  0.0000000  0.6508444  3
    541    540    544    545     1  0.0000000  0.6508444  3
    541    540    544    546     1  0.0000000  0.6508444  3
    541    540    547    548     1  0.0000000  0.6508444  3
    541    540    547    549     1  0.0000000  0.6508444  3
    541    553    565    566     1  0.0000000  0.6508444  3
    541    553    565    567     1  0.0000000  0.6508444  3
    542    541    540    544     1  0.0000000  0.6508444  3
    542    541    540    547     1  0.0000000  0.6508444  3
    542    541    540    569     1  0.0000000  0.6508444  3
    542    541    553    565     1  0.0000000  0.6508444  3
    542    541    553    554     1  0.0000000  0.6508444  3
    542    541    553    555     1  0.0000000  0.6508444  3
    543    541    540    544     1  0.0000000  0.6508444  3
    543    541    540    547     1  0.0000000  0.6508444  3
    543    541    540    569     1  0.0000000  0.6508444  3
    543    541    553    565     1  0.0000000  0.6508444  3
    543    541    553    554     1  0.0000000  0.6508444  3
    543    541    553    555     1  0.0000000  0.6508444  3
    544    540    547    548     1  0.0000000  0.6508444  3
    544    540    547    549     1  0.0000000  0.6508444  3
    544    556    562    563     1  0.0000000  0.6508444  3
    544    556    562    564     1  0.0000000  0.6508444  3
    545    544    540    547     1  0.0000000  0.6508444  3
    545    544    540    569     1  0.0000000  0.6508444  3
    545    544    556    562     1  0.0000000  0.6508444  3
    545    544    556    557     1  0.0000000  0.6508444  3
    545    544    556    558     1  0.0000000  0.6508444  3
    546    544    540    547     1  0.0000000  0.6508444  3
    546    544    540    569     1  0.0000000  0.6508444  3
    546    544    556    562     1  0.0000000  0.6508444  3
    546    544    556    557     1  0.0000000  0.6508444  3
    546    544    556    558     1  0.0000000  0.6508444  3
    547    550    559    560     1  0.0000000  0.6508444  3
    547    550    559    561     1  0.0000000  0.6508444  3
    548    547    540    569     1  0.0000000  0.6508444  3
    548    547    550    559     1  0.0000000  0.6508444  3
    548    547    550    551     1  0.0000000  0.6508444  3
    548    547    550    552     1  0.0000000  0.6508444  3
    549    547    540    569     1  0.0000000  0.6508444  3
    549    547    550    559     1  0.0000000  0.6508444  3
    549    547    550    551     1  0.0000000  0.6508444  3
    549    547    550    552     1  0.0000000  0.6508444  3
    550    547    540    569     1  0.0000000  0.6508444  3
    551    550    559    568     1  0.0000000  1.0460000  1
    551    550    559    568     1  0.0000000  0.0000000  3
    551    550    559    560     1  0.0000000  0.6508444  3
    551    550    559    561     1  0.0000000  0.6508444  3
    552    550    559    568     1  0.0000000  1.0460000  1
    552    550    559    568     1  0.0000000  0.0000000  3
    552    550    559    560     1  0.0000000  0.6508444  3
    552    550    559    561     1  0.0000000  0.6508444  3
    553    541    540    569     1  0.0000000  0.6508444  3
    554    553    565   1234     1  0.0000000  1.0460000  1
    554    553    565   1234     1  0.0000000  0.0000000  3
    554    553    565    566     1  0.0000000  0.6508444  3
    554    553    565    567     1  0.0000000  0.6508444  3
    555    553    565   1234     1  0.0000000  1.0460000  1
    555    553    565   1234     1  0.0000000  0.0000000  3
    555    553    565    566     1  0.0000000  0.6508444  3
    555    553    565    567     1  0.0000000  0.6508444  3
    556    544    540    569     1  0.0000000  0.6508444  3
    557    556    562   1202     1  0.0000000  1.0460000  1
    557    556    562   1202     1  0.0000000  0.0000000  3
    557    556    562    563     1  0.0000000  0.6508444  3
    557    556    562    564     1  0.0000000  0.6508444  3
    558    556    562   1202     1  0.0000000  1.0460000  1
    558    556    562   1202     1  0.0000000  0.0000000  3
    558    556    562    563     1  0.0000000  0.6508444  3
    558    556    562    564     1  0.0000000  0.6508444  3
    562   1202   1172   1173     1  0.0000000  1.6038667  3
    562   1202   1172   1174     1  0.0000000  1.6038667  3
    563    562   1202   1172     1  0.0000000  1.6038667  3
    564    562   1202   1172     1  0.0000000  1.6038667  3
    565   1234   1204   1205     1  0.0000000  1.6038667  3
    565   1234   1204   1206     1  0.0000000  1.6038667  3
    566    565   1234   1204     1  0.0000000  1.6038667  3
    567    565   1234   1204     1  0.0000000  1.6038667  3
    570    571    583    584     1  0.0000000  0.6508444  3
    570    571    583    585     1  0.0000000  0.6508444  3
    570    574    586    587     1  0.0000000  0.6508444  3
    570    574    586    588     1  0.0000000  0.6508444  3
    570    577    580    581     1  0.0000000  0.6508444  3
    570    577    580    582     1  0.0000000  0.6508444  3
    571    570    574    575     1  0.0000000  0.6508444  3
    571    570    574    576     1  0.0000000  0.6508444  3
    571    570    577    578     1  0.0000000  0.6508444  3
    571    570    577    579     1  0.0000000  0.6508444  3
    571    583    595    596     1  0.0000000  0.6508444  3
    571    583    595    597     1  0.0000000  0.6508444  3
    572    571    570    574     1  0.0000000  0.6508444  3
    572    571    570    577     1  0.0000000  0.6508444  3
    572    571    570    599     1  0.0000000  0.6508444  3
    572    571    583    595     1  0.0000000  0.6508444  3
    572    571    583    584     1  0.0000000  0.6508444  3
    572    571    583    585     1  0.0000000  0.6508444  3
    573    571    570    574     1  0.0000000  0.6508444  3
    573    571    570    577     1  0.0000000  0.6508444  3
    573    571    570    599     1  0.0000000  0.6508444  3
    573    571    583    595     1  0.0000000  0.6508444  3
    573    571    583    584     1  0.0000000  0.6508444  3
    573    571    583    585     1  0.0000000  0.6508444  3
    574    570    577    578     1  0.0000000  0.6508444  3
    574    570    577    579     1  0.0000000  0.6508444  3
    574    586    592    593     1  0.0000000  0.6508444  3
    574    586    592    594     1  0.0000000  0.6508444  3
    575    574    570    577     1  0.0000000  0.6508444  3
    575    574    570    599     1  0.0000000  0.6508444  3
    575    574    586    592     1  0.0000000  0.6508444  3
    575    574    586    587     1  0.0000000  0.6508444  3
    575    574    586    588     1  0.0000000  0.6508444  3
    576    574    570    577     1  0.0000000  0.6508444  3
    576    574    570    599     1  0.0000000  0.6508444  3
    576    574    586    592     1  0.0000000  0.6508444  3
    576    574    586    587     1  0.0000000  0.6508444  3
    576    574    586    588     1  0.0000000  0.6508444  3
    577    580    589    590     1  0.0000000  0.6508444  3
    577    580    589    591     1  0.0000000  0.6508444  3
    578    577    570    599     1  0.0000000  0.6508444  3
    578    577    580    589     1  0.0000000  0.6508444  3
    578    577    580    581     1  0.0000000  0.6508444  3
    578    577    580    582     1  0.0000000  0.6508444  3
    579    577    570    599     1  0.0000000  0.6508444  3
    579    577    580    589     1  0.0000000  0.6508444  3
    579    577    580    581     1  0.0000000  0.6508444  3
    579    577    580    582     1  0.0000000  0.6508444  3
    580    577    570    599     1  0.0000000  0.6508444  3
    581    580    589    598     1  0.0000000  1.0460000  1
    581    580    589    598     1  0.0000000  0.0000000  3
    581    580    589    590     1  0.0000000  0.6508444  3
    581    580    589    591     1  0.0000000  0.6508444  3
    582    580    589    598     1  0.0000000  1.0460000  1
    582    580    589    598     1  0.0000000  0.0000000  3
    582    580    589    590     1  0.0000000  0.6508444  3
    582    580    589    591     1  0.0000000  0.6508444  3
    583    571    570    599     1  0.0000000  0.6508444  3
    584    583    595   1298     1  0.0000000  1.0460000  1
    584    583    595   1298     1  0.0000000  0.0000000  3
    584    583    595    596     1  0.0000000  0.6508444  3
    584    583    595    597     1  0.0000000  0.6508444  3
    585    583    595   1298     1  0.0000000  1.0460000  1
    585    583    595   1298     1  0.0000000  0.0000000  3
    585    583    595    596     1  0.0000000  0.6508444  3
    585    583    595    597     1  0.0000000  0.6508444  3
    586    574    570    599     1  0.0000000  0.6508444  3
    587    586    592   1266     1  0.0000000  1.0460000  1
    587    586    592   1266     1  0.0000000  0.0000000  3
    587    586    592    593     1  0.0000000  0.6508444  3
    587    586    592    594     1  0.0000000  0.6508444  3
    588    586    592   1266     1  0.0000000  1.0460000  1
    588    586    592   1266     1  0.0000000  0.0000000  3
    588    586    592    593     1  0.0000000  0.6508444  3
    588    586    592    594     1  0.0000000  0.6508444  3
    592   1266   1236   1237     1  0.0000000  1.6038667  3
    592   1266   1236   1238     1  0.0000000  1.6038667  3
    593    592   1266   1236     1  0.0000000  1.6038667  3
    594    592   1266   1236     1  0.0000000  1.6038667  3
    595   1298   1268   1269     1  0.0000000  1.6038667  3
    595   1298   1268   1270     1  0.0000000  1.6038667  3
    596    595   1298   1268     1  0.0000000  1.6038667  3
    597    595   1298   1268     1  0.0000000  1.6038667  3
    600    601    613    614     1  0.0000000  0.6508444  3
    600    601    613    615     1  0.0000000  0.6508444  3
    600    604    616    617     1  0.0000000  0.6508444  3
    600    604    616    618     1  0.0000000  0.6508444  3
    600    607    610    611     1  0.0000000  0.6508444  3
    600    607    610    612     1  0.0000000  0.6508444  3
    601    600    604    605     1  0.0000000  0.6508444  3
    601    600    604    606     1  0.0000000  0.6508444  3
    601    600    607    608     1  0.0000000  0.6508444  3
    601    600    607    609     1  0.0000000  0.6508444  3
    601    613    625    626     1  0.0000000  0.6508444  3
    601    613    625    627     1  0.0000000  0.6508444  3
    602    601    600    604     1  0.0000000  0.6508444  3
    602    601    600    607     1  0.0000000  0.6508444  3
    602    601    600    629     1  0.0000000  0.6508444  3
    602    601    613    625     1  0.0000000  0.6508444  3
    602    601    613    614     1  0.0000000  0.6508444  3
    602    601    613    615     1  0.0000000  0.6508444  3
    603    601    600    604     1  0.0000000  0.6508444  3
    603    601    600    607     1  0.0000000  0.6508444  3
    603    601    600    629     1  0.0000000  0.6508444  3
    603    601    613    625     1  0.0000000  0.6508444  3
    603    601    613    614     1  0.0000000  0.6508444  3
    603    601    613    615     1  0.0000000  0.6508444  3
    604    600    607    608     1  0.0000000  0.6508444  3
    604    600    607    609     1  0.0000000  0.6508444  3
    604    616    622    623     1  0.0000000  0.6508444  3
    604    616    622    624     1  0.0000000  0.6508444  3
    605    604    600    607     1  0.0000000  0.6508444  3
    605    604    600    629     1  0.0000000  0.6508444  3
    605    604    616    622     1  0.0000000  0.6508444  3
    605    604    616    617     1  0.0000000  0.6508444  3
    605    604    616    618     1  0.0000000  0.6508444  3
    606    604    600    607     1  0.0000000  0.6508444  3
    606    604    600    629     1  0.0000000  0.6508444  3
    606    604    616    622     1  0.0000000  0.6508444  3
    606    604    616    617     1  0.0000000  0.6508444  3
    606    604    616    618     1  0.0000000  0.6508444  3
    607    610    619    620     1  0.0000000  0.6508444  3
    607    610    619    621     1  0.0000000  0.6508444  3
    608    607    600    629     1  0.0000000  0.6508444  3
    608    607    610    619     1  0.0000000  0.6508444  3
    608    607    610    611     1  0.0000000  0.6508444  3
    608    607    610    612     1  0.0000000  0.6508444  3
    609    607    600    629     1  0.0000000  0.6508444  3
    609    607    610    619     1  0.0000000  0.6508444  3
    609    607    610    611     1  0.0000000  0.6508444  3
    609    607    610    612     1  0.0000000  0.6508444  3
    610    607    600    629     1  0.0000000  0.6508444  3
    611    610    619    628     1  0.0000000  1.0460000  1
    611    610    619    628     1  0.0000000  0.0000000  3
    611    610    619    620     1  0.0000000  0.6508444  3
    611    610    619    621     1  0.0000000  0.6508444  3
    612    610    619    628     1  0.0000000  1.0460000  1
    612    610    619    628     1  0.0000000  0.0000000  3
    612    610    619    620     1  0.0000000  0.6508444  3
    612    610    619    621     1  0.0000000  0.6508444  3
    613    601    600    629     1  0.0000000  0.6508444  3
    614    613    625   1362     1  0.0000000  1.0460000  1
    614    613    625   1362     1  0.0000000  0.0000000  3
    614    613    625    626     1  0.0000000  0.6508444  3
    614    613    625    627     1  0.0000000  0.6508444  3
    615    613    625   1362     1  0.0000000  1.0460000  1
    615    613    625   1362     1  0.0000000  0.0000000  3
    615    613    625    626     1  0.0000000  0.6508444  3
    615    613    625    627     1  0.0000000  0.6508444  3
    616    604    600    629     1  0.0000000  0.6508444  3
    617    616    622   1330     1  0.0000000  1.0460000  1
    617    616    622   1330     1  0.0000000  0.0000000  3
    617    616    622    623     1  0.0000000  0.6508444  3
    617    616    622    624     1  0.0000000  0.6508444  3
    618    616    622   1330     1  0.0000000  1.0460000  1
    618    616    622   1330     1  0.0000000  0.0000000  3
    618    616    622    623     1  0.0000000  0.6508444  3
    618    616    622    624     1  0.0000000  0.6508444  3
    622   1330   1300   1301     1  0.0000000  1.6038667  3
    622   1330   1300   1302     1  0.0000000  1.6038667  3
    623    622   1330   1300     1  0.0000000  1.6038667  3
    624    622   1330   1300     1  0.0000000  1.6038667  3
    625   1362   1332   1333     1  0.0000000  1.6038667  3
    625   1362   1332   1334     1  0.0000000  1.6038667  3
    626    625   1362   1332     1  0.0000000  1.6038667  3
    627    625   1362   1332     1  0.0000000  1.6038667  3
    630    631    643    644     1  0.0000000  0.6508444  3
    630    631    643    645     1  0.0000000  0.6508444  3
    630    634    646    647     1  0.0000000  0.6508444  3
    630    634    646    648     1  0.0000000  0.6508444  3
    630    637    640    641     1  0.0000000  0.6508444  3
    630    637    640    642     1  0.0000000  0.6508444  3
    631    630    634    635     1  0.0000000  0.6508444  3
    631    630    634    636     1  0.0000000  0.6508444  3
    631    630    637    638     1  0.0000000  0.6508444  3
    631    630    637    639     1  0.0000000  0.6508444  3
    631    643    655    656     1  0.0000000  0.6508444  3
    631    643    655    657     1  0.0000000  0.6508444  3
    632    631    630    634     1  0.0000000  0.6508444  3
    632    631    630    637     1  0.0000000  0.6508444  3
    632    631    630    659     1  0.0000000  0.6508444  3
    632    631    643    655     1  0.0000000  0.6508444  3
    632    631    643    644     1  0.0000000  0.6508444  3
    632    631    643    645     1  0.0000000  0.6508444  3
    633    631    630    634     1  0.0000000  0.6508444  3
    633    631    630    637     1  0.0000000  0.6508444  3
    633    631    630    659     1  0.0000000  0.6508444  3
    633    631    643    655     1  0.0000000  0.6508444  3
    633    631    643    644     1  0.0000000  0.6508444  3
    633    631    643    645     1  0.0000000  0.6508444  3
    634    630    637    638     1  0.0000000  0.6508444  3
    634    630    637    639     1  0.0000000  0.6508444  3
    634    646    652    653     1  0.0000000  0.6508444  3
    634    646    652    654     1  0.0000000  0.6508444  3
    635    634    630    637     1  0.0000000  0.6508444  3
    635    634    630    659     1  0.0000000  0.6508444  3
    635    634    646    652     1  0.0000000  0.6508444  3
    635    634    646    647     1  0.0000000  0.6508444  3
    635    634    646    648     1  0.0000000  0.6508444  3
    636    634    630    637     1  0.0000000  0.6508444  3
    636    634    630    659     1  0.0000000  0.6508444  3
    636    634    646    652     1  0.0000000  0.6508444  3
    636    634    646    647     1  0.0000000  0.6508444  3
    636    634    646    648     1  0.0000000  0.6508444  3
    637    640    649    650     1  0.0000000  0.6508444  3
    637    640    649    651     1  0.0000000  0.6508444  3
    638    637    630    659     1  0.0000000  0.6508444  3
    638    637    640    649     1  0.0000000  0.6508444  3
    638    637    640    641     1  0.0000000  0.6508444  3
    638    637    640    642     1  0.0000000  0.6508444  3
    639    637    630    659     1  0.0000000  0.6508444  3
    639    637    640    649     1  0.0000000  0.6508444  3
    639    637    640    641     1  0.0000000  0.6508444  3
    639    637    640    642     1  0.0000000  0.6508444  3
    640    637    630    659     1  0.0000000  0.6508444  3
    641    640    649    658     1  0.0000000  1.0460000  1
    641    640    649    658     1  0.0000000  0.0000000  3
    641    640    649    650     1  0.0000000  0.6508444  3
    641    640    649    651     1  0.0000000  0.6508444  3
    642    640    649    658     1  0.0000000  1.0460000  1
    642    640    649    658     1  0.0000000  0.0000000  3
    642    640    649    650     1  0.0000000  0.6508444  3
    642    640    649    651     1  0.0000000  0.6508444  3
    643    631    630    659     1  0.0000000  0.6508444  3
    644    643    655   1426     1  0.0000000  1.0460000  1
    644    643    655   1426     1  0.0000000  0.0000000  3
    644    643    655    656     1  0.0000000  0.6508444  3
    644    643    655    657     1  0.0000000  0.6508444  3
    645    643    655   1426     1  0.0000000  1.0460000  1
    645    643    655   1426     1  0.0000000  0.0000000  3
    645    643    655    656     1  0.0000000  0.6508444  3
    645    643    655    657     1  0.0000000  0.6508444  3
    646    634    630    659     1  0.0000000  0.6508444  3
    647    646    652   1394     1  0.0000000  1.0460000  1
    647    646    652   1394     1  0.0000000  0.0000000  3
    647    646    652    653     1  0.0000000  0.6508444  3
    647    646    652    654     1  0.0000000  0.6508444  3
    648    646    652   1394     1  0.0000000  1.0460000  1
    648    646    652   1394     1  0.0000000  0.0000000  3
    648    646    652    653     1  0.0000000  0.6508444  3
    648    646    652    654     1  0.0000000  0.6508444  3
    652   1394   1364   1365     1  0.0000000  1.6038667  3
    652   1394   1364   1366     1  0.0000000  1.6038667  3
    653    652   1394   1364     1  0.0000000  1.6038667  3
    654    652   1394   1364     1  0.0000000  1.6038667  3
    655   1426   1396   1397     1  0.0000000  1.6038667  3
    655   1426   1396   1398     1  0.0000000  1.6038667  3
    656    655   1426   1396     1  0.0000000  1.6038667  3
    657    655   1426   1396     1  0.0000000  1.6038667  3
    660    663    666    667     1  0.0000000  0.6508444  3
    660    663    666    668     1  0.0000000  0.6508444  3
    661    660    663    666     1  0.0000000  0.6508444  3
    661    660    663    664     1  0.0000000  0.6508444  3
    661    660    663    665     1  0.0000000  0.6508444  3
    662    660    663    666     1  0.0000000  0.6508444  3
    662    660    663    664     1  0.0000000  0.6508444  3
    662    660    663    665     1  0.0000000  0.6508444  3
    663    666    669    691     1  0.0000000  0.6508444  3
    664    663    660    690     1  0.0000000  1.0460000  1
    664    663    660    690     1  0.0000000  0.0000000  3
    664    663    666    669     1  0.0000000  0.6508444  3
    664    663    666    667     1  0.0000000  0.6508444  3
    664    663    666    668     1  0.0000000  0.6508444  3
    665    663    660    690     1  0.0000000  1.0460000  1
    665    663    660    690     1  0.0000000  0.0000000  3
    665    663    666    669     1  0.0000000  0.6508444  3
    665    663    666    667     1  0.0000000  0.6508444  3
    665    663    666    668     1  0.0000000  0.6508444  3
    666    669    670    671     1  0.0000000  0.6508444  3
    666    669    670    672     1  0.0000000  0.6508444  3
    666    669    680    681     1  0.0000000  0.6508444  3
    666    669    680    682     1  0.0000000  0.6508444  3
    667    666    669    670     1  0.0000000  0.6508444  3
    667    666    669    680     1  0.0000000  0.6508444  3
    667    666    669    691     1  0.0000000  0.6508444  3
    668    666    669    670     1  0.0000000  0.6508444  3
    668    666    669    680     1  0.0000000  0.6508444  3
    668    666    669    691     1  0.0000000  0.6508444  3
    669    670    673    674     1  0.0000000  0.6508444  3
    669    670    673    675     1  0.0000000  0.6508444  3
    669    680    683    684     1  0.0000000  0.6508444  3
    669    680    683    685     1  0.0000000  0.6508444  3
    670    669    680    681     1  0.0000000  0.6508444  3
    670    669    680    682     1  0.0000000  0.6508444  3
    671    670    669    680     1  0.0000000  0.6508444  3
    671    670    669    691     1  0.0000000  0.6508444  3
    671    670    673    676     1  0.0000000  0.6508444  3
    671    670    673    674     1  0.0000000  0.6508444  3
    671    670    673    675     1  0.0000000  0.6508444  3
    672    670    669    680     1  0.0000000  0.6508444  3
    672    670    669    691     1  0.0000000  0.6508444  3
    672    670    673    676     1  0.0000000  0.6508444  3
    672    670    673    674     1  0.0000000  0.6508444  3
    672    670    673    675     1  0.0000000  0.6508444  3
    673    670    669    691     1  0.0000000  0.6508444  3
    673    676    678    679     1  180.0000771  9.6232000  2
    674    673    676    677     1  0.0000000  3.3472000  1
    674    673    676    677     1  0.0000000  0.0000000  2
    674    673    676    677     1  180.0000771  0.3347200  3
    674    673    676    678     1  180.0000771  0.0000000  2
    675    673    676    677     1  0.0000000  3.3472000  1
    675    673    676    677     1  0.0000000  0.0000000  2
    675    673    676    677     1  180.0000771  0.3347200  3
    675    673    676    678     1  180.0000771  0.0000000  2
    677    676    678    679     1  0.0000000  7.9496000  1
    677    676    678    679     1  180.0000771  9.6232000  2
    681    680    669    691     1  0.0000000  0.6508444  3
    681    680    683    686     1  0.0000000  0.6508444  3
    681    680    683    684     1  0.0000000  0.6508444  3
    681    680    683    685     1  0.0000000  0.6508444  3
    682    680    669    691     1  0.0000000  0.6508444  3
    682    680    683    686     1  0.0000000  0.6508444  3
    682    680    683    684     1  0.0000000  0.6508444  3
    682    680    683    685     1  0.0000000  0.6508444  3
    683    680    669    691     1  0.0000000  0.6508444  3
    683    686    688    689     1  180.0000771  9.6232000  2
    684    683    686    687     1  0.0000000  3.3472000  1
    684    683    686    687     1  0.0000000  0.0000000  2
    684    683    686    687     1  180.0000771  0.3347200  3
    684    683    686    688     1  180.0000771  0.0000000  2
    685    683    686    687     1  0.0000000  3.3472000  1
    685    683    686    687     1  0.0000000  0.0000000  2
    685    683    686    687     1  180.0000771  0.3347200  3
    685    683    686    688     1  180.0000771  0.0000000  2
    687    686    688    689     1  0.0000000  7.9496000  1
    687    686    688    689     1  180.0000771  9.6232000  2
    692    695    698    699     1  0.0000000  0.6508444  3
    692    695    698    700     1  0.0000000  0.6508444  3
    693    692    695    698     1  0.0000000  0.6508444  3
    693    692    695    696     1  0.0000000  0.6508444  3
    693    692    695    697     1  0.0000000  0.6508444  3
    694    692    695    698     1  0.0000000  0.6508444  3
    694    692    695    696     1  0.0000000  0.6508444  3
    694    692    695    697     1  0.0000000  0.6508444  3
    695    698    701    723     1  0.0000000  0.6508444  3
    696    695    698    701     1  0.0000000  0.6508444  3
    696    695    698    699     1  0.0000000  0.6508444  3
    696    695    698    700     1  0.0000000  0.6508444  3
    696    695    692    722     1  0.0000000  1.0460000  1
    696    695    692    722     1  0.0000000  0.0000000  3
    697    695    698    701     1  0.0000000  0.6508444  3
    697    695    698    699     1  0.0000000  0.6508444  3
    697    695    698    700     1  0.0000000  0.6508444  3
    697    695    692    722     1  0.0000000  1.0460000  1
    697    695    692    722     1  0.0000000  0.0000000  3
    698    701    702    703     1  0.0000000  0.6508444  3
    698    701    702    704     1  0.0000000  0.6508444  3
    698    701    712    713     1  0.0000000  0.6508444  3
    698    701    712    714     1  0.0000000  0.6508444  3
    699    698    701    702     1  0.0000000  0.6508444  3
    699    698    701    712     1  0.0000000  0.6508444  3
    699    698    701    723     1  0.0000000  0.6508444  3
    700    698    701    702     1  0.0000000  0.6508444  3
    700    698    701    712     1  0.0000000  0.6508444  3
    700    698    701    723     1  0.0000000  0.6508444  3
    701    702    705    706     1  0.0000000  0.6508444  3
    701    702    705    707     1  0.0000000  0.6508444  3
    701    712    715    716     1  0.0000000  0.6508444  3
    701    712    715    717     1  0.0000000  0.6508444  3
    702    701    712    713     1  0.0000000  0.6508444  3
    702    701    712    714     1  0.0000000  0.6508444  3
    703    702    705    708     1  0.0000000  0.6508444  3
    703    702    705    706     1  0.0000000  0.6508444  3
    703    702    705    707     1  0.0000000  0.6508444  3
    703    702    701    712     1  0.0000000  0.6508444  3
    703    702    701    723     1  0.0000000  0.6508444  3
    704    702    705    708     1  0.0000000  0.6508444  3
    704    702    705    706     1  0.0000000  0.6508444  3
    704    702    705    707     1  0.0000000  0.6508444  3
    704    702    701    712     1  0.0000000  0.6508444  3
    704    702    701    723     1  0.0000000  0.6508444  3
    705    708    710    711     1  180.0000771  9.6232000  2
    705    702    701    723     1  0.0000000  0.6508444  3
    706    705    708    709     1  0.0000000  3.3472000  1
    706    705    708    709     1  0.0000000  0.0000000  2
    706    705    708    709     1  180.0000771  0.3347200  3
    706    705    708    710     1  180.0000771  0.0000000  2
    707    705    708    709     1  0.0000000  3.3472000  1
    707    705    708    709     1  0.0000000  0.0000000  2
    707    705    708    709     1  180.0000771  0.3347200  3
    707    705    708    710     1  180.0000771  0.0000000  2
    709    708    710    711     1  0.0000000  7.9496000  1
    709    708    710    711     1  180.0000771  9.6232000  2
    713    712    715    718     1  0.0000000  0.6508444  3
    713    712    715    716     1  0.0000000  0.6508444  3
    713    712    715    717     1  0.0000000  0.6508444  3
    713    712    701    723     1  0.0000000  0.6508444  3
    714    712    715    718     1  0.0000000  0.6508444  3
    714    712    715    716     1  0.0000000  0.6508444  3
    714    712    715    717     1  0.0000000  0.6508444  3
    714    712    701    723     1  0.0000000  0.6508444  3
    715    718    720    721     1  180.0000771  9.6232000  2
    715    712    701    723     1  0.0000000  0.6508444  3
    716    715    718    719     1  0.0000000  3.3472000  1
    716    715    718    719     1  0.0000000  0.0000000  2
    716    715    718    719     1  180.0000771  0.3347200  3
    716    715    718    720     1  180.0000771  0.0000000  2
    717    715    718    719     1  0.0000000  3.3472000  1
    717    715    718    719     1  0.0000000  0.0000000  2
    717    715    718    719     1  180.0000771  0.3347200  3
    717    715    718    720     1  180.0000771  0.0000000  2
    719    718    720    721     1  0.0000000  7.9496000  1
    719    718    720    721     1  180.0000771  9.6232000  2
    724    727    730    731     1  0.0000000  0.6508444  3
    724    727    730    732     1  0.0000000  0.6508444  3
    725    724    727    730     1  0.0000000  0.6508444  3
    725    724    727    728     1  0.0000000  0.6508444  3
    725    724    727    729     1  0.0000000  0.6508444  3
    726    724    727    730     1  0.0000000  0.6508444  3
    726    724    727    728     1  0.0000000  0.6508444  3
    726    724    727    729     1  0.0000000  0.6508444  3
    727    730    733    755     1  0.0000000  0.6508444  3
    728    727    724    754     1  0.0000000  1.0460000  1
    728    727    724    754     1  0.0000000  0.0000000  3
    728    727    730    733     1  0.0000000  0.6508444  3
    728    727    730    731     1  0.0000000  0.6508444  3
    728    727    730    732     1  0.0000000  0.6508444  3
    729    727    724    754     1  0.0000000  1.0460000  1
    729    727    724    754     1  0.0000000  0.0000000  3
    729    727    730    733     1  0.0000000  0.6508444  3
    729    727    730    731     1  0.0000000  0.6508444  3
    729    727    730    732     1  0.0000000  0.6508444  3
    730    733    734    735     1  0.0000000  0.6508444  3
    730    733    734    736     1  0.0000000  0.6508444  3
    730    733    744    745     1  0.0000000  0.6508444  3
    730    733    744    746     1  0.0000000  0.6508444  3
    731    730    733    734     1  0.0000000  0.6508444  3
    731    730    733    744     1  0.0000000  0.6508444  3
    731    730    733    755     1  0.0000000  0.6508444  3
    732    730    733    734     1  0.0000000  0.6508444  3
    732    730    733    744     1  0.0000000  0.6508444  3
    732    730    733    755     1  0.0000000  0.6508444  3
    733    734    737    738     1  0.0000000  0.6508444  3
    733    734    737    739     1  0.0000000  0.6508444  3
    733    744    747    748     1  0.0000000  0.6508444  3
    733    744    747    749     1  0.0000000  0.6508444  3
    734    733    744    745     1  0.0000000  0.6508444  3
    734    733    744    746     1  0.0000000  0.6508444  3
    735    734    733    744     1  0.0000000  0.6508444  3
    735    734    733    755     1  0.0000000  0.6508444  3
    735    734    737    740     1  0.0000000  0.6508444  3
    735    734    737    738     1  0.0000000  0.6508444  3
    735    734    737    739     1  0.0000000  0.6508444  3
    736    734    733    744     1  0.0000000  0.6508444  3
    736    734    733    755     1  0.0000000  0.6508444  3
    736    734    737    740     1  0.0000000  0.6508444  3
    736    734    737    738     1  0.0000000  0.6508444  3
    736    734    737    739     1  0.0000000  0.6508444  3
    737    734    733    755     1  0.0000000  0.6508444  3
    737    740    742    743     1  180.0000771  9.6232000  2
    738    737    740    741     1  0.0000000  3.3472000  1
    738    737    740    741     1  0.0000000  0.0000000  2
    738    737    740    741     1  180.0000771  0.3347200  3
    738    737    740    742     1  180.0000771  0.0000000  2
    739    737    740    741     1  0.0000000  3.3472000  1
    739    737    740    741     1  0.0000000  0.0000000  2
    739    737    740    741     1  180.0000771  0.3347200  3
    739    737    740    742     1  180.0000771  0.0000000  2
    741    740    742    743     1  0.0000000  7.9496000  1
    741    740    742    743     1  180.0000771  9.6232000  2
    745    744    733    755     1  0.0000000  0.6508444  3
    745    744    747    750     1  0.0000000  0.6508444  3
    745    744    747    748     1  0.0000000  0.6508444  3
    745    744    747    749     1  0.0000000  0.6508444  3
    746    744    733    755     1  0.0000000  0.6508444  3
    746    744    747    750     1  0.0000000  0.6508444  3
    746    744    747    748     1  0.0000000  0.6508444  3
    746    744    747    749     1  0.0000000  0.6508444  3
    747    744    733    755     1  0.0000000  0.6508444  3
    747    750    752    753     1  180.0000771  9.6232000  2
    748    747    750    751     1  0.0000000  3.3472000  1
    748    747    750    751     1  0.0000000  0.0000000  2
    748    747    750    751     1  180.0000771  0.3347200  3
    748    747    750    752     1  180.0000771  0.0000000  2
    749    747    750    751     1  0.0000000  3.3472000  1
    749    747    750    751     1  0.0000000  0.0000000  2
    749    747    750    751     1  180.0000771  0.3347200  3
    749    747    750    752     1  180.0000771  0.0000000  2
    751    750    752    753     1  0.0000000  7.9496000  1
    751    750    752    753     1  180.0000771  9.6232000  2
    756    759    762    763     1  0.0000000  0.6508444  3
    756    759    762    764     1  0.0000000  0.6508444  3
    757    756    759    762     1  0.0000000  0.6508444  3
    757    756    759    760     1  0.0000000  0.6508444  3
    757    756    759    761     1  0.0000000  0.6508444  3
    758    756    759    762     1  0.0000000  0.6508444  3
    758    756    759    760     1  0.0000000  0.6508444  3
    758    756    759    761     1  0.0000000  0.6508444  3
    759    762    765    787     1  0.0000000  0.6508444  3
    760    759    762    765     1  0.0000000  0.6508444  3
    760    759    762    763     1  0.0000000  0.6508444  3
    760    759    762    764     1  0.0000000  0.6508444  3
    760    759    756    786     1  0.0000000  1.0460000  1
    760    759    756    786     1  0.0000000  0.0000000  3
    761    759    762    765     1  0.0000000  0.6508444  3
    761    759    762    763     1  0.0000000  0.6508444  3
    761    759    762    764     1  0.0000000  0.6508444  3
    761    759    756    786     1  0.0000000  1.0460000  1
    761    759    756    786     1  0.0000000  0.0000000  3
    762    765    766    767     1  0.0000000  0.6508444  3
    762    765    766    768     1  0.0000000  0.6508444  3
    762    765    776    777     1  0.0000000  0.6508444  3
    762    765    776    778     1  0.0000000  0.6508444  3
    763    762    765    766     1  0.0000000  0.6508444  3
    763    762    765    776     1  0.0000000  0.6508444  3
    763    762    765    787     1  0.0000000  0.6508444  3
    764    762    765    766     1  0.0000000  0.6508444  3
    764    762    765    776     1  0.0000000  0.6508444  3
    764    762    765    787     1  0.0000000  0.6508444  3
    765    766    769    770     1  0.0000000  0.6508444  3
    765    766    769    771     1  0.0000000  0.6508444  3
    765    776    779    780     1  0.0000000  0.6508444  3
    765    776    779    781     1  0.0000000  0.6508444  3
    766    765    776    777     1  0.0000000  0.6508444  3
    766    765    776    778     1  0.0000000  0.6508444  3
    767    766    769    772     1  0.0000000  0.6508444  3
    767    766    769    770     1  0.0000000  0.6508444  3
    767    766    769    771     1  0.0000000  0.6508444  3
    767    766    765    776     1  0.0000000  0.6508444  3
    767    766    765    787     1  0.0000000  0.6508444  3
    768    766    769    772     1  0.0000000  0.6508444  3
    768    766    769    770     1  0.0000000  0.6508444  3
    768    766    769    771     1  0.0000000  0.6508444  3
    768    766    765    776     1  0.0000000  0.6508444  3
    768    766    765    787     1  0.0000000  0.6508444  3
    769    772    774    775     1  180.0000771  9.6232000  2
    769    766    765    787     1  0.0000000  0.6508444  3
    770    769    772    773     1  0.0000000  3.3472000  1
    770    769    772    773     1  0.0000000  0.0000000  2
    770    769    772    773     1  180.0000771  0.3347200  3
    770    769    772    774     1  180.0000771  0.0000000  2
    771    769    772    773     1  0.0000000  3.3472000  1
    771    769    772    773     1  0.0000000  0.0000000  2
    771    769    772    773     1  180.0000771  0.3347200  3
    771    769    772    774     1  180.0000771  0.0000000  2
    773    772    774    775     1  0.0000000  7.9496000  1
    773    772    774    775     1  180.0000771  9.6232000  2
    777    776    779    782     1  0.0000000  0.6508444  3
    777    776    779    780     1  0.0000000  0.6508444  3
    777    776    779    781     1  0.0000000  0.6508444  3
    777    776    765    787     1  0.0000000  0.6508444  3
    778    776    779    782     1  0.0000000  0.6508444  3
    778    776    779    780     1  0.0000000  0.6508444  3
    778    776    779    781     1  0.0000000  0.6508444  3
    778    776    765    787     1  0.0000000  0.6508444  3
    779    782    784    785     1  180.0000771  9.6232000  2
    779    776    765    787     1  0.0000000  0.6508444  3
    780    779    782    783     1  0.0000000  3.3472000  1
    780    779    782    783     1  0.0000000  0.0000000  2
    780    779    782    783     1  180.0000771  0.3347200  3
    780    779    782    784     1  180.0000771  0.0000000  2
    781    779    782    783     1  0.0000000  3.3472000  1
    781    779    782    783     1  0.0000000  0.0000000  2
    781    779    782    783     1  180.0000771  0.3347200  3
    781    779    782    784     1  180.0000771  0.0000000  2
    783    782    784    785     1  0.0000000  7.9496000  1
    783    782    784    785     1  180.0000771  9.6232000  2
    788    791    794    795     1  0.0000000  0.6508444  3
    788    791    794    796     1  0.0000000  0.6508444  3
    789    788    791    794     1  0.0000000  0.6508444  3
    789    788    791    792     1  0.0000000  0.6508444  3
    789    788    791    793     1  0.0000000  0.6508444  3
    790    788    791    794     1  0.0000000  0.6508444  3
    790    788    791    792     1  0.0000000  0.6508444  3
    790    788    791    793     1  0.0000000  0.6508444  3
    791    794    797    819     1  0.0000000  0.6508444  3
    792    791    788    818     1  0.0000000  1.0460000  1
    792    791    788    818     1  0.0000000  0.0000000  3
    792    791    794    797     1  0.0000000  0.6508444  3
    792    791    794    795     1  0.0000000  0.6508444  3
    792    791    794    796     1  0.0000000  0.6508444  3
    793    791    788    818     1  0.0000000  1.0460000  1
    793    791    788    818     1  0.0000000  0.0000000  3
    793    791    794    797     1  0.0000000  0.6508444  3
    793    791    794    795     1  0.0000000  0.6508444  3
    793    791    794    796     1  0.0000000  0.6508444  3
    794    797    798    799     1  0.0000000  0.6508444  3
    794    797    798    800     1  0.0000000  0.6508444  3
    794    797    808    809     1  0.0000000  0.6508444  3
    794    797    808    810     1  0.0000000  0.6508444  3
    795    794    797    798     1  0.0000000  0.6508444  3
    795    794    797    808     1  0.0000000  0.6508444  3
    795    794    797    819     1  0.0000000  0.6508444  3
    796    794    797    798     1  0.0000000  0.6508444  3
    796    794    797    808     1  0.0000000  0.6508444  3
    796    794    797    819     1  0.0000000  0.6508444  3
    797    798    801    802     1  0.0000000  0.6508444  3
    797    798    801    803     1  0.0000000  0.6508444  3
    797    808    811    812     1  0.0000000  0.6508444  3
    797    808    811    813     1  0.0000000  0.6508444  3
    798    797    808    809     1  0.0000000  0.6508444  3
    798    797    808    810     1  0.0000000  0.6508444  3
    799    798    797    808     1  0.0000000  0.6508444  3
    799    798    797    819     1  0.0000000  0.6508444  3
    799    798    801    804     1  0.0000000  0.6508444  3
    799    798    801    802     1  0.0000000  0.6508444  3
    799    798    801    803     1  0.0000000  0.6508444  3
    800    798    797    808     1  0.0000000  0.6508444  3
    800    798    797    819     1  0.0000000  0.6508444  3
    800    798    801    804     1  0.0000000  0.6508444  3
    800    798    801    802     1  0.0000000  0.6508444  3
    800    798    801    803     1  0.0000000  0.6508444  3
    801    798    797    819     1  0.0000000  0.6508444  3
    801    804    806    807     1  180.0000771  9.6232000  2
    802    801    804    805     1  0.0000000  3.3472000  1
    802    801    804    805     1  0.0000000  0.0000000  2
    802    801    804    805     1  180.0000771  0.3347200  3
    802    801    804    806     1  180.0000771  0.0000000  2
    803    801    804    805     1  0.0000000  3.3472000  1
    803    801    804    805     1  0.0000000  0.0000000  2
    803    801    804    805     1  180.0000771  0.3347200  3
    803    801    804    806     1  180.0000771  0.0000000  2
    805    804    806    807     1  0.0000000  7.9496000  1
    805    804    806    807     1  180.0000771  9.6232000  2
    809    808    797    819     1  0.0000000  0.6508444  3
    809    808    811    814     1  0.0000000  0.6508444  3
    809    808    811    812     1  0.0000000  0.6508444  3
    809    808    811    813     1  0.0000000  0.6508444  3
    810    808    797    819     1  0.0000000  0.6508444  3
    810    808    811    814     1  0.0000000  0.6508444  3
    810    808    811    812     1  0.0000000  0.6508444  3
    810    808    811    813     1  0.0000000  0.6508444  3
    811    808    797    819     1  0.0000000  0.6508444  3
    811    814    816    817     1  180.0000771  9.6232000  2
    812    811    814    815     1  0.0000000  3.3472000  1
    812    811    814    815     1  0.0000000  0.0000000  2
    812    811    814    815     1  180.0000771  0.3347200  3
    812    811    814    816     1  180.0000771  0.0000000  2
    813    811    814    815     1  0.0000000  3.3472000  1
    813    811    814    815     1  0.0000000  0.0000000  2
    813    811    814    815     1  180.0000771  0.3347200  3
    813    811    814    816     1  180.0000771  0.0000000  2
    815    814    816    817     1  0.0000000  7.9496000  1
    815    814    816    817     1  180.0000771  9.6232000  2
    820    823    826    827     1  0.0000000  0.6508444  3
    820    823    826    828     1  0.0000000  0.6508444  3
    821    820    823    826     1  0.0000000  0.6508444  3
    821    820    823    824     1  0.0000000  0.6508444  3
    821    820    823    825     1  0.0000000  0.6508444  3
    822    820    823    826     1  0.0000000  0.6508444  3
    822    820    823    824     1  0.0000000  0.6508444  3
    822    820    823    825     1  0.0000000  0.6508444  3
    823    826    829    851     1  0.0000000  0.6508444  3
    824    823    826    829     1  0.0000000  0.6508444  3
    824    823    826    827     1  0.0000000  0.6508444  3
    824    823    826    828     1  0.0000000  0.6508444  3
    824    823    820    850     1  0.0000000  1.0460000  1
    824    823    820    850     1  0.0000000  0.0000000  3
    825    823    826    829     1  0.0000000  0.6508444  3
    825    823    826    827     1  0.0000000  0.6508444  3
    825    823    826    828     1  0.0000000  0.6508444  3
    825    823    820    850     1  0.0000000  1.0460000  1
    825    823    820    850     1  0.0000000  0.0000000  3
    826    829    830    831     1  0.0000000  0.6508444  3
    826    829    830    832     1  0.0000000  0.6508444  3
    826    829    840    841     1  0.0000000  0.6508444  3
    826    829    840    842     1  0.0000000  0.6508444  3
    827    826    829    830     1  0.0000000  0.6508444  3
    827    826    829    840     1  0.0000000  0.6508444  3
    827    826    829    851     1  0.0000000  0.6508444  3
    828    826    829    830     1  0.0000000  0.6508444  3
    828    826    829    840     1  0.0000000  0.6508444  3
    828    826    829    851     1  0.0000000  0.6508444  3
    829    830    833    834     1  0.0000000  0.6508444  3
    829    830    833    835     1  0.0000000  0.6508444  3
    829    840    843    844     1  0.0000000  0.6508444  3
    829    840    843    845     1  0.0000000  0.6508444  3
    830    829    840    841     1  0.0000000  0.6508444  3
    830    829    840    842     1  0.0000000  0.6508444  3
    831    830    833    836     1  0.0000000  0.6508444  3
    831    830    833    834     1  0.0000000  0.6508444  3
    831    830    833    835     1  0.0000000  0.6508444  3
    831    830    829    840     1  0.0000000  0.6508444  3
    831    830    829    851     1  0.0000000  0.6508444  3
    832    830    833    836     1  0.0000000  0.6508444  3
    832    830    833    834     1  0.0000000  0.6508444  3
    832    830    833    835     1  0.0000000  0.6508444  3
    832    830    829    840     1  0.0000000  0.6508444  3
    832    830    829    851     1  0.0000000  0.6508444  3
    833    836    838    839     1  180.0000771  9.6232000  2
    833    830    829    851     1  0.0000000  0.6508444  3
    834    833    836    837     1  0.0000000  3.3472000  1
    834    833    836    837     1  0.0000000  0.0000000  2
    834    833    836    837     1  180.0000771  0.3347200  3
    834    833    836    838     1  180.0000771  0.0000000  2
    835    833    836    837     1  0.0000000  3.3472000  1
    835    833    836    837     1  0.0000000  0.0000000  2
    835    833    836    837     1  180.0000771  0.3347200  3
    835    833    836    838     1  180.0000771  0.0000000  2
    837    836    838    839     1  0.0000000  7.9496000  1
    837    836    838    839     1  180.0000771  9.6232000  2
    841    840    843    846     1  0.0000000  0.6508444  3
    841    840    843    844     1  0.0000000  0.6508444  3
    841    840    843    845     1  0.0000000  0.6508444  3
    841    840    829    851     1  0.0000000  0.6508444  3
    842    840    843    846     1  0.0000000  0.6508444  3
    842    840    843    844     1  0.0000000  0.6508444  3
    842    840    843    845     1  0.0000000  0.6508444  3
    842    840    829    851     1  0.0000000  0.6508444  3
    843    846    848    849     1  180.0000771  9.6232000  2
    843    840    829    851     1  0.0000000  0.6508444  3
    844    843    846    847     1  0.0000000  3.3472000  1
    844    843    846    847     1  0.0000000  0.0000000  2
    844    843    846    847     1  180.0000771  0.3347200  3
    844    843    846    848     1  180.0000771  0.0000000  2
    845    843    846    847     1  0.0000000  3.3472000  1
    845    843    846    847     1  0.0000000  0.0000000  2
    845    843    846    847     1  180.0000771  0.3347200  3
    845    843    846    848     1  180.0000771  0.0000000  2
    847    846    848    849     1  0.0000000  7.9496000  1
    847    846    848    849     1  180.0000771  9.6232000  2
    852    855    858    859     1  0.0000000  0.6508444  3
    852    855    858    860     1  0.0000000  0.6508444  3
    853    852    855    858     1  0.0000000  0.6508444  3
    853    852    855    856     1  0.0000000  0.6508444  3
    853    852    855    857     1  0.0000000  0.6508444  3
    854    852    855    858     1  0.0000000  0.6508444  3
    854    852    855    856     1  0.0000000  0.6508444  3
    854    852    855    857     1  0.0000000  0.6508444  3
    855    858    861    883     1  0.0000000  0.6508444  3
    856    855    852    882     1  0.0000000  1.0460000  1
    856    855    852    882     1  0.0000000  0.0000000  3
    856    855    858    861     1  0.0000000  0.6508444  3
    856    855    858    859     1  0.0000000  0.6508444  3
    856    855    858    860     1  0.0000000  0.6508444  3
    857    855    852    882     1  0.0000000  1.0460000  1
    857    855    852    882     1  0.0000000  0.0000000  3
    857    855    858    861     1  0.0000000  0.6508444  3
    857    855    858    859     1  0.0000000  0.6508444  3
    857    855    858    860     1  0.0000000  0.6508444  3
    858    861    862    863     1  0.0000000  0.6508444  3
    858    861    862    864     1  0.0000000  0.6508444  3
    858    861    872    873     1  0.0000000  0.6508444  3
    858    861    872    874     1  0.0000000  0.6508444  3
    859    858    861    862     1  0.0000000  0.6508444  3
    859    858    861    872     1  0.0000000  0.6508444  3
    859    858    861    883     1  0.0000000  0.6508444  3
    860    858    861    862     1  0.0000000  0.6508444  3
    860    858    861    872     1  0.0000000  0.6508444  3
    860    858    861    883     1  0.0000000  0.6508444  3
    861    862    865    866     1  0.0000000  0.6508444  3
    861    862    865    867     1  0.0000000  0.6508444  3
    861    872    875    876     1  0.0000000  0.6508444  3
    861    872    875    877     1  0.0000000  0.6508444  3
    862    861    872    873     1  0.0000000  0.6508444  3
    862    861    872    874     1  0.0000000  0.6508444  3
    863    862    861    872     1  0.0000000  0.6508444  3
    863    862    861    883     1  0.0000000  0.6508444  3
    863    862    865    868     1  0.0000000  0.6508444  3
    863    862    865    866     1  0.0000000  0.6508444  3
    863    862    865    867     1  0.0000000  0.6508444  3
    864    862    861    872     1  0.0000000  0.6508444  3
    864    862    861    883     1  0.0000000  0.6508444  3
    864    862    865    868     1  0.0000000  0.6508444  3
    864    862    865    866     1  0.0000000  0.6508444  3
    864    862    865    867     1  0.0000000  0.6508444  3
    865    862    861    883     1  0.0000000  0.6508444  3
    865    868    870    871     1  180.0000771  9.6232000  2
    866    865    868    869     1  0.0000000  3.3472000  1
    866    865    868    869     1  0.0000000  0.0000000  2
    866    865    868    869     1  180.0000771  0.3347200  3
    866    865    868    870     1  180.0000771  0.0000000  2
    867    865    868    869     1  0.0000000  3.3472000  1
    867    865    868    869     1  0.0000000  0.0000000  2
    867    865    868    869     1  180.0000771  0.3347200  3
    867    865    868    870     1  180.0000771  0.0000000  2
    869    868    870    871     1  0.0000000  7.9496000  1
    869    868    870    871     1  180.0000771  9.6232000  2
    873    872    861    883     1  0.0000000  0.6508444  3
    873    872    875    878     1  0.0000000  0.6508444  3
    873    872    875    876     1  0.0000000  0.6508444  3
    873    872    875    877     1  0.0000000  0.6508444  3
    874    872    861    883     1  0.0000000  0.6508444  3
    874    872    875    878     1  0.0000000  0.6508444  3
    874    872    875    876     1  0.0000000  0.6508444  3
    874    872    875    877     1  0.0000000  0.6508444  3
    875    872    861    883     1  0.0000000  0.6508444  3
    875    878    880    881     1  180.0000771  9.6232000  2
    876    875    878    879     1  0.0000000  3.3472000  1
    876    875    878    879     1  0.0000000  0.0000000  2
    876    875    878    879     1  180.0000771  0.3347200  3
    876    875    878    880     1  180.0000771  0.0000000  2
    877    875    878    879     1  0.0000000  3.3472000  1
    877    875    878    879     1  0.0000000  0.0000000  2
    877    875    878    879     1  180.0000771  0.3347200  3
    877    875    878    880     1  180.0000771  0.0000000  2
    879    878    880    881     1  0.0000000  7.9496000  1
    879    878    880    881     1  180.0000771  9.6232000  2
    884    887    890    891     1  0.0000000  0.6508444  3
    884    887    890    892     1  0.0000000  0.6508444  3
    885    884    887    890     1  0.0000000  0.6508444  3
    885    884    887    888     1  0.0000000  0.6508444  3
    885    884    887    889     1  0.0000000  0.6508444  3
    886    884    887    890     1  0.0000000  0.6508444  3
    886    884    887    888     1  0.0000000  0.6508444  3
    886    884    887    889     1  0.0000000  0.6508444  3
    887    890    893    915     1  0.0000000  0.6508444  3
    888    887    890    893     1  0.0000000  0.6508444  3
    888    887    890    891     1  0.0000000  0.6508444  3
    888    887    890    892     1  0.0000000  0.6508444  3
    888    887    884    914     1  0.0000000  1.0460000  1
    888    887    884    914     1  0.0000000  0.0000000  3
    889    887    890    893     1  0.0000000  0.6508444  3
    889    887    890    891     1  0.0000000  0.6508444  3
    889    887    890    892     1  0.0000000  0.6508444  3
    889    887    884    914     1  0.0000000  1.0460000  1
    889    887    884    914     1  0.0000000  0.0000000  3
    890    893    894    895     1  0.0000000  0.6508444  3
    890    893    894    896     1  0.0000000  0.6508444  3
    890    893    904    905     1  0.0000000  0.6508444  3
    890    893    904    906     1  0.0000000  0.6508444  3
    891    890    893    894     1  0.0000000  0.6508444  3
    891    890    893    904     1  0.0000000  0.6508444  3
    891    890    893    915     1  0.0000000  0.6508444  3
    892    890    893    894     1  0.0000000  0.6508444  3
    892    890    893    904     1  0.0000000  0.6508444  3
    892    890    893    915     1  0.0000000  0.6508444  3
    893    894    897    898     1  0.0000000  0.6508444  3
    893    894    897    899     1  0.0000000  0.6508444  3
    893    904    907    908     1  0.0000000  0.6508444  3
    893    904    907    909     1  0.0000000  0.6508444  3
    894    893    904    905     1  0.0000000  0.6508444  3
    894    893    904    906     1  0.0000000  0.6508444  3
    895    894    897    900     1  0.0000000  0.6508444  3
    895    894    897    898     1  0.0000000  0.6508444  3
    895    894    897    899     1  0.0000000  0.6508444  3
    895    894    893    904     1  0.0000000  0.6508444  3
    895    894    893    915     1  0.0000000  0.6508444  3
    896    894    897    900     1  0.0000000  0.6508444  3
    896    894    897    898     1  0.0000000  0.6508444  3
    896    894    897    899     1  0.0000000  0.6508444  3
    896    894    893    904     1  0.0000000  0.6508444  3
    896    894    893    915     1  0.0000000  0.6508444  3
    897    900    902    903     1  180.0000771  9.6232000  2
    897    894    893    915     1  0.0000000  0.6508444  3
    898    897    900    901     1  0.0000000  3.3472000  1
    898    897    900    901     1  0.0000000  0.0000000  2
    898    897    900    901     1  180.0000771  0.3347200  3
    898    897    900    902     1  180.0000771  0.0000000  2
    899    897    900    901     1  0.0000000  3.3472000  1
    899    897    900    901     1  0.0000000  0.0000000  2
    899    897    900    901     1  180.0000771  0.3347200  3
    899    897    900    902     1  180.0000771  0.0000000  2
    901    900    902    903     1  0.0000000  7.9496000  1
    901    900    902    903     1  180.0000771  9.6232000  2
    905    904    907    910     1  0.0000000  0.6508444  3
    905    904    907    908     1  0.0000000  0.6508444  3
    905    904    907    909     1  0.0000000  0.6508444  3
    905    904    893    915     1  0.0000000  0.6508444  3
    906    904    907    910     1  0.0000000  0.6508444  3
    906    904    907    908     1  0.0000000  0.6508444  3
    906    904    907    909     1  0.0000000  0.6508444  3
    906    904    893    915     1  0.0000000  0.6508444  3
    907    910    912    913     1  180.0000771  9.6232000  2
    907    904    893    915     1  0.0000000  0.6508444  3
    908    907    910    911     1  0.0000000  3.3472000  1
    908    907    910    911     1  0.0000000  0.0000000  2
    908    907    910    911     1  180.0000771  0.3347200  3
    908    907    910    912     1  180.0000771  0.0000000  2
    909    907    910    911     1  0.0000000  3.3472000  1
    909    907    910    911     1  0.0000000  0.0000000  2
    909    907    910    911     1  180.0000771  0.3347200  3
    909    907    910    912     1  180.0000771  0.0000000  2
    911    910    912    913     1  0.0000000  7.9496000  1
    911    910    912    913     1  180.0000771  9.6232000  2
    916    919    922    923     1  0.0000000  0.6508444  3
    916    919    922    924     1  0.0000000  0.6508444  3
    917    916    919    922     1  0.0000000  0.6508444  3
    917    916    919    920     1  0.0000000  0.6508444  3
    917    916    919    921     1  0.0000000  0.6508444  3
    918    916    919    922     1  0.0000000  0.6508444  3
    918    916    919    920     1  0.0000000  0.6508444  3
    918    916    919    921     1  0.0000000  0.6508444  3
    919    922    925    947     1  0.0000000  0.6508444  3
    920    919    916    946     1  0.0000000  1.0460000  1
    920    919    916    946     1  0.0000000  0.0000000  3
    920    919    922    925     1  0.0000000  0.6508444  3
    920    919    922    923     1  0.0000000  0.6508444  3
    920    919    922    924     1  0.0000000  0.6508444  3
    921    919    916    946     1  0.0000000  1.0460000  1
    921    919    916    946     1  0.0000000  0.0000000  3
    921    919    922    925     1  0.0000000  0.6508444  3
    921    919    922    923     1  0.0000000  0.6508444  3
    921    919    922    924     1  0.0000000  0.6508444  3
    922    925    926    927     1  0.0000000  0.6508444  3
    922    925    926    928     1  0.0000000  0.6508444  3
    922    925    936    937     1  0.0000000  0.6508444  3
    922    925    936    938     1  0.0000000  0.6508444  3
    923    922    925    926     1  0.0000000  0.6508444  3
    923    922    925    936     1  0.0000000  0.6508444  3
    923    922    925    947     1  0.0000000  0.6508444  3
    924    922    925    926     1  0.0000000  0.6508444  3
    924    922    925    936     1  0.0000000  0.6508444  3
    924    922    925    947     1  0.0000000  0.6508444  3
    925    926    929    930     1  0.0000000  0.6508444  3
    925    926    929    931     1  0.0000000  0.6508444  3
    925    936    939    940     1  0.0000000  0.6508444  3
    925    936    939    941     1  0.0000000  0.6508444  3
    926    925    936    937     1  0.0000000  0.6508444  3
    926    925    936    938     1  0.0000000  0.6508444  3
    927    926    925    936     1  0.0000000  0.6508444  3
    927    926    925    947     1  0.0000000  0.6508444  3
    927    926    929    932     1  0.0000000  0.6508444  3
    927    926    929    930     1  0.0000000  0.6508444  3
    927    926    929    931     1  0.0000000  0.6508444  3
    928    926    925    936     1  0.0000000  0.6508444  3
    928    926    925    947     1  0.0000000  0.6508444  3
    928    926    929    932     1  0.0000000  0.6508444  3
    928    926    929    930     1  0.0000000  0.6508444  3
    928    926    929    931     1  0.0000000  0.6508444  3
    929    926    925    947     1  0.0000000  0.6508444  3
    929    932    934    935     1  180.0000771  9.6232000  2
    930    929    932    933     1  0.0000000  3.3472000  1
    930    929    932    933     1  0.0000000  0.0000000  2
    930    929    932    933     1  180.0000771  0.3347200  3
    930    929    932    934     1  180.0000771  0.0000000  2
    931    929    932    933     1  0.0000000  3.3472000  1
    931    929    932    933     1  0.0000000  0.0000000  2
    931    929    932    933     1  180.0000771  0.3347200  3
    931    929    932    934     1  180.0000771  0.0000000  2
    933    932    934    935     1  0.0000000  7.9496000  1
    933    932    934    935     1  180.0000771  9.6232000  2
    937    936    925    947     1  0.0000000  0.6508444  3
    937    936    939    942     1  0.0000000  0.6508444  3
    937    936    939    940     1  0.0000000  0.6508444  3
    937    936    939    941     1  0.0000000  0.6508444  3
    938    936    925    947     1  0.0000000  0.6508444  3
    938    936    939    942     1  0.0000000  0.6508444  3
    938    936    939    940     1  0.0000000  0.6508444  3
    938    936    939    941     1  0.0000000  0.6508444  3
    939    936    925    947     1  0.0000000  0.6508444  3
    939    942    944    945     1  180.0000771  9.6232000  2
    940    939    942    943     1  0.0000000  3.3472000  1
    940    939    942    943     1  0.0000000  0.0000000  2
    940    939    942    943     1  180.0000771  0.3347200  3
    940    939    942    944     1  180.0000771  0.0000000  2
    941    939    942    943     1  0.0000000  3.3472000  1
    941    939    942    943     1  0.0000000  0.0000000  2
    941    939    942    943     1  180.0000771  0.3347200  3
    941    939    942    944     1  180.0000771  0.0000000  2
    943    942    944    945     1  0.0000000  7.9496000  1
    943    942    944    945     1  180.0000771  9.6232000  2
    948    951    954    955     1  0.0000000  0.6508444  3
    948    951    954    956     1  0.0000000  0.6508444  3
    949    948    951    954     1  0.0000000  0.6508444  3
    949    948    951    952     1  0.0000000  0.6508444  3
    949    948    951    953     1  0.0000000  0.6508444  3
    950    948    951    954     1  0.0000000  0.6508444  3
    950    948    951    952     1  0.0000000  0.6508444  3
    950    948    951    953     1  0.0000000  0.6508444  3
    951    954    957    979     1  0.0000000  0.6508444  3
    952    951    954    957     1  0.0000000  0.6508444  3
    952    951    954    955     1  0.0000000  0.6508444  3
    952    951    954    956     1  0.0000000  0.6508444  3
    952    951    948    978     1  0.0000000  1.0460000  1
    952    951    948    978     1  0.0000000  0.0000000  3
    953    951    954    957     1  0.0000000  0.6508444  3
    953    951    954    955     1  0.0000000  0.6508444  3
    953    951    954    956     1  0.0000000  0.6508444  3
    953    951    948    978     1  0.0000000  1.0460000  1
    953    951    948    978     1  0.0000000  0.0000000  3
    954    957    958    959     1  0.0000000  0.6508444  3
    954    957    958    960     1  0.0000000  0.6508444  3
    954    957    968    969     1  0.0000000  0.6508444  3
    954    957    968    970     1  0.0000000  0.6508444  3
    955    954    957    958     1  0.0000000  0.6508444  3
    955    954    957    968     1  0.0000000  0.6508444  3
    955    954    957    979     1  0.0000000  0.6508444  3
    956    954    957    958     1  0.0000000  0.6508444  3
    956    954    957    968     1  0.0000000  0.6508444  3
    956    954    957    979     1  0.0000000  0.6508444  3
    957    958    961    962     1  0.0000000  0.6508444  3
    957    958    961    963     1  0.0000000  0.6508444  3
    957    968    971    972     1  0.0000000  0.6508444  3
    957    968    971    973     1  0.0000000  0.6508444  3
    958    957    968    969     1  0.0000000  0.6508444  3
    958    957    968    970     1  0.0000000  0.6508444  3
    959    958    961    964     1  0.0000000  0.6508444  3
    959    958    961    962     1  0.0000000  0.6508444  3
    959    958    961    963     1  0.0000000  0.6508444  3
    959    958    957    968     1  0.0000000  0.6508444  3
    959    958    957    979     1  0.0000000  0.6508444  3
    960    958    961    964     1  0.0000000  0.6508444  3
    960    958    961    962     1  0.0000000  0.6508444  3
    960    958    961    963     1  0.0000000  0.6508444  3
    960    958    957    968     1  0.0000000  0.6508444  3
    960    958    957    979     1  0.0000000  0.6508444  3
    961    964    966    967     1  180.0000771  9.6232000  2
    961    958    957    979     1  0.0000000  0.6508444  3
    962    961    964    965     1  0.0000000  3.3472000  1
    962    961    964    965     1  0.0000000  0.0000000  2
    962    961    964    965     1  180.0000771  0.3347200  3
    962    961    964    966     1  180.0000771  0.0000000  2
    963    961    964    965     1  0.0000000  3.3472000  1
    963    961    964    965     1  0.0000000  0.0000000  2
    963    961    964    965     1  180.0000771  0.3347200  3
    963    961    964    966     1  180.0000771  0.0000000  2
    965    964    966    967     1  0.0000000  7.9496000  1
    965    964    966    967     1  180.0000771  9.6232000  2
    969    968    971    974     1  0.0000000  0.6508444  3
    969    968    971    972     1  0.0000000  0.6508444  3
    969    968    971    973     1  0.0000000  0.6508444  3
    969    968    957    979     1  0.0000000  0.6508444  3
    970    968    971    974     1  0.0000000  0.6508444  3
    970    968    971    972     1  0.0000000  0.6508444  3
    970    968    971    973     1  0.0000000  0.6508444  3
    970    968    957    979     1  0.0000000  0.6508444  3
    971    974    976    977     1  180.0000771  9.6232000  2
    971    968    957    979     1  0.0000000  0.6508444  3
    972    971    974    975     1  0.0000000  3.3472000  1
    972    971    974    975     1  0.0000000  0.0000000  2
    972    971    974    975     1  180.0000771  0.3347200  3
    972    971    974    976     1  180.0000771  0.0000000  2
    973    971    974    975     1  0.0000000  3.3472000  1
    973    971    974    975     1  0.0000000  0.0000000  2
    973    971    974    975     1  180.0000771  0.3347200  3
    973    971    974    976     1  180.0000771  0.0000000  2
    975    974    976    977     1  0.0000000  7.9496000  1
    975    974    976    977     1  180.0000771  9.6232000  2
    980    983    986    987     1  0.0000000  0.6508444  3
    980    983    986    988     1  0.0000000  0.6508444  3
    981    980    983    986     1  0.0000000  0.6508444  3
    981    980    983    984     1  0.0000000  0.6508444  3
    981    980    983    985     1  0.0000000  0.6508444  3
    982    980    983    986     1  0.0000000  0.6508444  3
    982    980    983    984     1  0.0000000  0.6508444  3
    982    980    983    985     1  0.0000000  0.6508444  3
    983    986    989   1011     1  0.0000000  0.6508444  3
    984    983    980   1010     1  0.0000000  1.0460000  1
    984    983    980   1010     1  0.0000000  0.0000000  3
    984    983    986    989     1  0.0000000  0.6508444  3
    984    983    986    987     1  0.0000000  0.6508444  3
    984    983    986    988     1  0.0000000  0.6508444  3
    985    983    980   1010     1  0.0000000  1.0460000  1
    985    983    980   1010     1  0.0000000  0.0000000  3
    985    983    986    989     1  0.0000000  0.6508444  3
    985    983    986    987     1  0.0000000  0.6508444  3
    985    983    986    988     1  0.0000000  0.6508444  3
    986    989    990    991     1  0.0000000  0.6508444  3
    986    989    990    992     1  0.0000000  0.6508444  3
    986    989   1000   1001     1  0.0000000  0.6508444  3
    986    989   1000   1002     1  0.0000000  0.6508444  3
    987    986    989    990     1  0.0000000  0.6508444  3
    987    986    989   1000     1  0.0000000  0.6508444  3
    987    986    989   1011     1  0.0000000  0.6508444  3
    988    986    989    990     1  0.0000000  0.6508444  3
    988    986    989   1000     1  0.0000000  0.6508444  3
    988    986    989   1011     1  0.0000000  0.6508444  3
    989    990    993    994     1  0.0000000  0.6508444  3
    989    990    993    995     1  0.0000000  0.6508444  3
    989   1000   1003   1004     1  0.0000000  0.6508444  3
    989   1000   1003   1005     1  0.0000000  0.6508444  3
    990    989   1000   1001     1  0.0000000  0.6508444  3
    990    989   1000   1002     1  0.0000000  0.6508444  3
    991    990    989   1000     1  0.0000000  0.6508444  3
    991    990    989   1011     1  0.0000000  0.6508444  3
    991    990    993    996     1  0.0000000  0.6508444  3
    991    990    993    994     1  0.0000000  0.6508444  3
    991    990    993    995     1  0.0000000  0.6508444  3
    992    990    989   1000     1  0.0000000  0.6508444  3
    992    990    989   1011     1  0.0000000  0.6508444  3
    992    990    993    996     1  0.0000000  0.6508444  3
    992    990    993    994     1  0.0000000  0.6508444  3
    992    990    993    995     1  0.0000000  0.6508444  3
    993    990    989   1011     1  0.0000000  0.6508444  3
    993    996    998    999     1  180.0000771  9.6232000  2
    994    993    996    997     1  0.0000000  3.3472000  1
    994    993    996    997     1  0.0000000  0.0000000  2
    994    993    996    997     1  180.0000771  0.3347200  3
    994    993    996    998     1  180.0000771  0.0000000  2
    995    993    996    997     1  0.0000000  3.3472000  1
    995    993    996    997     1  0.0000000  0.0000000  2
    995    993    996    997     1  180.0000771  0.3347200  3
    995    993    996    998     1  180.0000771  0.0000000  2
    997    996    998    999     1  0.0000000  7.9496000  1
    997    996    998    999     1  180.0000771  9.6232000  2
   1001   1000    989   1011     1  0.0000000  0.6508444  3
   1001   1000   1003   1006     1  0.0000000  0.6508444  3
   1001   1000   1003   1004     1  0.0000000  0.6508444  3
   1001   1000   1003   1005     1  0.0000000  0.6508444  3
   1002   1000    989   1011     1  0.0000000  0.6508444  3
   1002   1000   1003   1006     1  0.0000000  0.6508444  3
   1002   1000   1003   1004     1  0.0000000  0.6508444  3
   1002   1000   1003   1005     1  0.0000000  0.6508444  3
   1003   1000    989   1011     1  0.0000000  0.6508444  3
   1003   1006   1008   1009     1  180.0000771  9.6232000  2
   1004   1003   1006   1007     1  0.0000000  3.3472000  1
   1004   1003   1006   1007     1  0.0000000  0.0000000  2
   1004   1003   1006   1007     1  180.0000771  0.3347200  3
   1004   1003   1006   1008     1  180.0000771  0.0000000  2
   1005   1003   1006   1007     1  0.0000000  3.3472000  1
   1005   1003   1006   1007     1  0.0000000  0.0000000  2
   1005   1003   1006   1007     1  180.0000771  0.3347200  3
   1005   1003   1006   1008     1  180.0000771  0.0000000  2
   1007   1006   1008   1009     1  0.0000000  7.9496000  1
   1007   1006   1008   1009     1  180.0000771  9.6232000  2
   1012   1015   1018   1019     1  0.0000000  0.6508444  3
   1012   1015   1018   1020     1  0.0000000  0.6508444  3
   1013   1012   1015   1018     1  0.0000000  0.6508444  3
   1013   1012   1015   1016     1  0.0000000  0.6508444  3
   1013   1012   1015   1017     1  0.0000000  0.6508444  3
   1014   1012   1015   1018     1  0.0000000  0.6508444  3
   1014   1012   1015   1016     1  0.0000000  0.6508444  3
   1014   1012   1015   1017     1  0.0000000  0.6508444  3
   1015   1018   1021   1043     1  0.0000000  0.6508444  3
   1016   1015   1018   1021     1  0.0000000  0.6508444  3
   1016   1015   1018   1019     1  0.0000000  0.6508444  3
   1016   1015   1018   1020     1  0.0000000  0.6508444  3
   1016   1015   1012   1042     1  0.0000000  1.0460000  1
   1016   1015   1012   1042     1  0.0000000  0.0000000  3
   1017   1015   1018   1021     1  0.0000000  0.6508444  3
   1017   1015   1018   1019     1  0.0000000  0.6508444  3
   1017   1015   1018   1020     1  0.0000000  0.6508444  3
   1017   1015   1012   1042     1  0.0000000  1.0460000  1
   1017   1015   1012   1042     1  0.0000000  0.0000000  3
   1018   1021   1022   1023     1  0.0000000  0.6508444  3
   1018   1021   1022   1024     1  0.0000000  0.6508444  3
   1018   1021   1032   1033     1  0.0000000  0.6508444  3
   1018   1021   1032   1034     1  0.0000000  0.6508444  3
   1019   1018   1021   1022     1  0.0000000  0.6508444  3
   1019   1018   1021   1032     1  0.0000000  0.6508444  3
   1019   1018   1021   1043     1  0.0000000  0.6508444  3
   1020   1018   1021   1022     1  0.0000000  0.6508444  3
   1020   1018   1021   1032     1  0.0000000  0.6508444  3
   1020   1018   1021   1043     1  0.0000000  0.6508444  3
   1021   1022   1025   1026     1  0.0000000  0.6508444  3
   1021   1022   1025   1027     1  0.0000000  0.6508444  3
   1021   1032   1035   1036     1  0.0000000  0.6508444  3
   1021   1032   1035   1037     1  0.0000000  0.6508444  3
   1022   1021   1032   1033     1  0.0000000  0.6508444  3
   1022   1021   1032   1034     1  0.0000000  0.6508444  3
   1023   1022   1025   1028     1  0.0000000  0.6508444  3
   1023   1022   1025   1026     1  0.0000000  0.6508444  3
   1023   1022   1025   1027     1  0.0000000  0.6508444  3
   1023   1022   1021   1032     1  0.0000000  0.6508444  3
   1023   1022   1021   1043     1  0.0000000  0.6508444  3
   1024   1022   1025   1028     1  0.0000000  0.6508444  3
   1024   1022   1025   1026     1  0.0000000  0.6508444  3
   1024   1022   1025   1027     1  0.0000000  0.6508444  3
   1024   1022   1021   1032     1  0.0000000  0.6508444  3
   1024   1022   1021   1043     1  0.0000000  0.6508444  3
   1025   1028   1030   1031     1  180.0000771  9.6232000  2
   1025   1022   1021   1043     1  0.0000000  0.6508444  3
   1026   1025   1028   1029     1  0.0000000  3.3472000  1
   1026   1025   1028   1029     1  0.0000000  0.0000000  2
   1026   1025   1028   1029     1  180.0000771  0.3347200  3
   1026   1025   1028   1030     1  180.0000771  0.0000000  2
   1027   1025   1028   1029     1  0.0000000  3.3472000  1
   1027   1025   1028   1029     1  0.0000000  0.0000000  2
   1027   1025   1028   1029     1  180.0000771  0.3347200  3
   1027   1025   1028   1030     1  180.0000771  0.0000000  2
   1029   1028   1030   1031     1  0.0000000  7.9496000  1
   1029   1028   1030   1031     1  180.0000771  9.6232000  2
   1033   1032   1035   1038     1  0.0000000  0.6508444  3
   1033   1032   1035   1036     1  0.0000000  0.6508444  3
   1033   1032   1035   1037     1  0.0000000  0.6508444  3
   1033   1032   1021   1043     1  0.0000000  0.6508444  3
   1034   1032   1035   1038     1  0.0000000  0.6508444  3
   1034   1032   1035   1036     1  0.0000000  0.6508444  3
   1034   1032   1035   1037     1  0.0000000  0.6508444  3
   1034   1032   1021   1043     1  0.0000000  0.6508444  3
   1035   1038   1040   1041     1  180.0000771  9.6232000  2
   1035   1032   1021   1043     1  0.0000000  0.6508444  3
   1036   1035   1038   1039     1  0.0000000  3.3472000  1
   1036   1035   1038   1039     1  0.0000000  0.0000000  2
   1036   1035   1038   1039     1  180.0000771  0.3347200  3
   1036   1035   1038   1040     1  180.0000771  0.0000000  2
   1037   1035   1038   1039     1  0.0000000  3.3472000  1
   1037   1035   1038   1039     1  0.0000000  0.0000000  2
   1037   1035   1038   1039     1  180.0000771  0.3347200  3
   1037   1035   1038   1040     1  180.0000771  0.0000000  2
   1039   1038   1040   1041     1  0.0000000  7.9496000  1
   1039   1038   1040   1041     1  180.0000771  9.6232000  2
   1044   1047   1050   1051     1  0.0000000  0.6508444  3
   1044   1047   1050   1052     1  0.0000000  0.6508444  3
   1045   1044   1047   1050     1  0.0000000  0.6508444  3
   1045   1044   1047   1048     1  0.0000000  0.6508444  3
   1045   1044   1047   1049     1  0.0000000  0.6508444  3
   1046   1044   1047   1050     1  0.0000000  0.6508444  3
   1046   1044   1047   1048     1  0.0000000  0.6508444  3
   1046   1044   1047   1049     1  0.0000000  0.6508444  3
   1047   1050   1053   1075     1  0.0000000  0.6508444  3
   1048   1047   1044   1074     1  0.0000000  1.0460000  1
   1048   1047   1044   1074     1  0.0000000  0.0000000  3
   1048   1047   1050   1053     1  0.0000000  0.6508444  3
   1048   1047   1050   1051     1  0.0000000  0.6508444  3
   1048   1047   1050   1052     1  0.0000000  0.6508444  3
   1049   1047   1044   1074     1  0.0000000  1.0460000  1
   1049   1047   1044   1074     1  0.0000000  0.0000000  3
   1049   1047   1050   1053     1  0.0000000  0.6508444  3
   1049   1047   1050   1051     1  0.0000000  0.6508444  3
   1049   1047   1050   1052     1  0.0000000  0.6508444  3
   1050   1053   1054   1055     1  0.0000000  0.6508444  3
   1050   1053   1054   1056     1  0.0000000  0.6508444  3
   1050   1053   1064   1065     1  0.0000000  0.6508444  3
   1050   1053   1064   1066     1  0.0000000  0.6508444  3
   1051   1050   1053   1054     1  0.0000000  0.6508444  3
   1051   1050   1053   1064     1  0.0000000  0.6508444  3
   1051   1050   1053   1075     1  0.0000000  0.6508444  3
   1052   1050   1053   1054     1  0.0000000  0.6508444  3
   1052   1050   1053   1064     1  0.0000000  0.6508444  3
   1052   1050   1053   1075     1  0.0000000  0.6508444  3
   1053   1054   1057   1058     1  0.0000000  0.6508444  3
   1053   1054   1057   1059     1  0.0000000  0.6508444  3
   1053   1064   1067   1068     1  0.0000000  0.6508444  3
   1053   1064   1067   1069     1  0.0000000  0.6508444  3
   1054   1053   1064   1065     1  0.0000000  0.6508444  3
   1054   1053   1064   1066     1  0.0000000  0.6508444  3
   1055   1054   1053   1064     1  0.0000000  0.6508444  3
   1055   1054   1053   1075     1  0.0000000  0.6508444  3
   1055   1054   1057   1060     1  0.0000000  0.6508444  3
   1055   1054   1057   1058     1  0.0000000  0.6508444  3
   1055   1054   1057   1059     1  0.0000000  0.6508444  3
   1056   1054   1053   1064     1  0.0000000  0.6508444  3
   1056   1054   1053   1075     1  0.0000000  0.6508444  3
   1056   1054   1057   1060     1  0.0000000  0.6508444  3
   1056   1054   1057   1058     1  0.0000000  0.6508444  3
   1056   1054   1057   1059     1  0.0000000  0.6508444  3
   1057   1054   1053   1075     1  0.0000000  0.6508444  3
   1057   1060   1062   1063     1  180.0000771  9.6232000  2
   1058   1057   1060   1061     1  0.0000000  3.3472000  1
   1058   1057   1060   1061     1  0.0000000  0.0000000  2
   1058   1057   1060   1061     1  180.0000771  0.3347200  3
   1058   1057   1060   1062     1  180.0000771  0.0000000  2
   1059   1057   1060   1061     1  0.0000000  3.3472000  1
   1059   1057   1060   1061     1  0.0000000  0.0000000  2
   1059   1057   1060   1061     1  180.0000771  0.3347200  3
   1059   1057   1060   1062     1  180.0000771  0.0000000  2
   1061   1060   1062   1063     1  0.0000000  7.9496000  1
   1061   1060   1062   1063     1  180.0000771  9.6232000  2
   1065   1064   1053   1075     1  0.0000000  0.6508444  3
   1065   1064   1067   1070     1  0.0000000  0.6508444  3
   1065   1064   1067   1068     1  0.0000000  0.6508444  3
   1065   1064   1067   1069     1  0.0000000  0.6508444  3
   1066   1064   1053   1075     1  0.0000000  0.6508444  3
   1066   1064   1067   1070     1  0.0000000  0.6508444  3
   1066   1064   1067   1068     1  0.0000000  0.6508444  3
   1066   1064   1067   1069     1  0.0000000  0.6508444  3
   1067   1064   1053   1075     1  0.0000000  0.6508444  3
   1067   1070   1072   1073     1  180.0000771  9.6232000  2
   1068   1067   1070   1071     1  0.0000000  3.3472000  1
   1068   1067   1070   1071     1  0.0000000  0.0000000  2
   1068   1067   1070   1071     1  180.0000771  0.3347200  3
   1068   1067   1070   1072     1  180.0000771  0.0000000  2
   1069   1067   1070   1071     1  0.0000000  3.3472000  1
   1069   1067   1070   1071     1  0.0000000  0.0000000  2
   1069   1067   1070   1071     1  180.0000771  0.3347200  3
   1069   1067   1070   1072     1  180.0000771  0.0000000  2
   1071   1070   1072   1073     1  0.0000000  7.9496000  1
   1071   1070   1072   1073     1  180.0000771  9.6232000  2
   1076   1079   1082   1083     1  0.0000000  0.6508444  3
   1076   1079   1082   1084     1  0.0000000  0.6508444  3
   1077   1076   1079   1082     1  0.0000000  0.6508444  3
   1077   1076   1079   1080     1  0.0000000  0.6508444  3
   1077   1076   1079   1081     1  0.0000000  0.6508444  3
   1078   1076   1079   1082     1  0.0000000  0.6508444  3
   1078   1076   1079   1080     1  0.0000000  0.6508444  3
   1078   1076   1079   1081     1  0.0000000  0.6508444  3
   1079   1082   1085   1107     1  0.0000000  0.6508444  3
   1080   1079   1082   1085     1  0.0000000  0.6508444  3
   1080   1079   1082   1083     1  0.0000000  0.6508444  3
   1080   1079   1082   1084     1  0.0000000  0.6508444  3
   1080   1079   1076   1106     1  0.0000000  1.0460000  1
   1080   1079   1076   1106     1  0.0000000  0.0000000  3
   1081   1079   1082   1085     1  0.0000000  0.6508444  3
   1081   1079   1082   1083     1  0.0000000  0.6508444  3
   1081   1079   1082   1084     1  0.0000000  0.6508444  3
   1081   1079   1076   1106     1  0.0000000  1.0460000  1
   1081   1079   1076   1106     1  0.0000000  0.0000000  3
   1082   1085   1086   1087     1  0.0000000  0.6508444  3
   1082   1085   1086   1088     1  0.0000000  0.6508444  3
   1082   1085   1096   1097     1  0.0000000  0.6508444  3
   1082   1085   1096   1098     1  0.0000000  0.6508444  3
   1083   1082   1085   1086     1  0.0000000  0.6508444  3
   1083   1082   1085   1096     1  0.0000000  0.6508444  3
   1083   1082   1085   1107     1  0.0000000  0.6508444  3
   1084   1082   1085   1086     1  0.0000000  0.6508444  3
   1084   1082   1085   1096     1  0.0000000  0.6508444  3
   1084   1082   1085   1107     1  0.0000000  0.6508444  3
   1085   1086   1089   1090     1  0.0000000  0.6508444  3
   1085   1086   1089   1091     1  0.0000000  0.6508444  3
   1085   1096   1099   1100     1  0.0000000  0.6508444  3
   1085   1096   1099   1101     1  0.0000000  0.6508444  3
   1086   1085   1096   1097     1  0.0000000  0.6508444  3
   1086   1085   1096   1098     1  0.0000000  0.6508444  3
   1087   1086   1089   1092     1  0.0000000  0.6508444  3
   1087   1086   1089   1090     1  0.0000000  0.6508444  3
   1087   1086   1089   1091     1  0.0000000  0.6508444  3
   1087   1086   1085   1096     1  0.0000000  0.6508444  3
   1087   1086   1085   1107     1  0.0000000  0.6508444  3
   1088   1086   1089   1092     1  0.0000000  0.6508444  3
   1088   1086   1089   1090     1  0.0000000  0.6508444  3
   1088   1086   1089   1091     1  0.0000000  0.6508444  3
   1088   1086   1085   1096     1  0.0000000  0.6508444  3
   1088   1086   1085   1107     1  0.0000000  0.6508444  3
   1089   1092   1094   1095     1  180.0000771  9.6232000  2
   1089   1086   1085   1107     1  0.0000000  0.6508444  3
   1090   1089   1092   1093     1  0.0000000  3.3472000  1
   1090   1089   1092   1093     1  0.0000000  0.0000000  2
   1090   1089   1092   1093     1  180.0000771  0.3347200  3
   1090   1089   1092   1094     1  180.0000771  0.0000000  2
   1091   1089   1092   1093     1  0.0000000  3.3472000  1
   1091   1089   1092   1093     1  0.0000000  0.0000000  2
   1091   1089   1092   1093     1  180.0000771  0.3347200  3
   1091   1089   1092   1094     1  180.0000771  0.0000000  2
   1093   1092   1094   1095     1  0.0000000  7.9496000  1
   1093   1092   1094   1095     1  180.0000771  9.6232000  2
   1097   1096   1099   1102     1  0.0000000  0.6508444  3
   1097   1096   1099   1100     1  0.0000000  0.6508444  3
   1097   1096   1099   1101     1  0.0000000  0.6508444  3
   1097   1096   1085   1107     1  0.0000000  0.6508444  3
   1098   1096   1099   1102     1  0.0000000  0.6508444  3
   1098   1096   1099   1100     1  0.0000000  0.6508444  3
   1098   1096   1099   1101     1  0.0000000  0.6508444  3
   1098   1096   1085   1107     1  0.0000000  0.6508444  3
   1099   1102   1104   1105     1  180.0000771  9.6232000  2
   1099   1096   1085   1107     1  0.0000000  0.6508444  3
   1100   1099   1102   1103     1  0.0000000  3.3472000  1
   1100   1099   1102   1103     1  0.0000000  0.0000000  2
   1100   1099   1102   1103     1  180.0000771  0.3347200  3
   1100   1099   1102   1104     1  180.0000771  0.0000000  2
   1101   1099   1102   1103     1  0.0000000  3.3472000  1
   1101   1099   1102   1103     1  0.0000000  0.0000000  2
   1101   1099   1102   1103     1  180.0000771  0.3347200  3
   1101   1099   1102   1104     1  180.0000771  0.0000000  2
   1103   1102   1104   1105     1  0.0000000  7.9496000  1
   1103   1102   1104   1105     1  180.0000771  9.6232000  2
   1108   1111   1114   1115     1  0.0000000  0.6508444  3
   1108   1111   1114   1116     1  0.0000000  0.6508444  3
   1109   1108   1111   1114     1  0.0000000  0.6508444  3
   1109   1108   1111   1112     1  0.0000000  0.6508444  3
   1109   1108   1111   1113     1  0.0000000  0.6508444  3
   1110   1108   1111   1114     1  0.0000000  0.6508444  3
   1110   1108   1111   1112     1  0.0000000  0.6508444  3
   1110   1108   1111   1113     1  0.0000000  0.6508444  3
   1111   1114   1117   1139     1  0.0000000  0.6508444  3
   1112   1111   1108   1138     1  0.0000000  1.0460000  1
   1112   1111   1108   1138     1  0.0000000  0.0000000  3
   1112   1111   1114   1117     1  0.0000000  0.6508444  3
   1112   1111   1114   1115     1  0.0000000  0.6508444  3
   1112   1111   1114   1116     1  0.0000000  0.6508444  3
   1113   1111   1108   1138     1  0.0000000  1.0460000  1
   1113   1111   1108   1138     1  0.0000000  0.0000000  3
   1113   1111   1114   1117     1  0.0000000  0.6508444  3
   1113   1111   1114   1115     1  0.0000000  0.6508444  3
   1113   1111   1114   1116     1  0.0000000  0.6508444  3
   1114   1117   1118   1119     1  0.0000000  0.6508444  3
   1114   1117   1118   1120     1  0.0000000  0.6508444  3
   1114   1117   1128   1129     1  0.0000000  0.6508444  3
   1114   1117   1128   1130     1  0.0000000  0.6508444  3
   1115   1114   1117   1118     1  0.0000000  0.6508444  3
   1115   1114   1117   1128     1  0.0000000  0.6508444  3
   1115   1114   1117   1139     1  0.0000000  0.6508444  3
   1116   1114   1117   1118     1  0.0000000  0.6508444  3
   1116   1114   1117   1128     1  0.0000000  0.6508444  3
   1116   1114   1117   1139     1  0.0000000  0.6508444  3
   1117   1118   1121   1122     1  0.0000000  0.6508444  3
   1117   1118   1121   1123     1  0.0000000  0.6508444  3
   1117   1128   1131   1132     1  0.0000000  0.6508444  3
   1117   1128   1131   1133     1  0.0000000  0.6508444  3
   1118   1117   1128   1129     1  0.0000000  0.6508444  3
   1118   1117   1128   1130     1  0.0000000  0.6508444  3
   1119   1118   1117   1128     1  0.0000000  0.6508444  3
   1119   1118   1117   1139     1  0.0000000  0.6508444  3
   1119   1118   1121   1124     1  0.0000000  0.6508444  3
   1119   1118   1121   1122     1  0.0000000  0.6508444  3
   1119   1118   1121   1123     1  0.0000000  0.6508444  3
   1120   1118   1117   1128     1  0.0000000  0.6508444  3
   1120   1118   1117   1139     1  0.0000000  0.6508444  3
   1120   1118   1121   1124     1  0.0000000  0.6508444  3
   1120   1118   1121   1122     1  0.0000000  0.6508444  3
   1120   1118   1121   1123     1  0.0000000  0.6508444  3
   1121   1118   1117   1139     1  0.0000000  0.6508444  3
   1121   1124   1126   1127     1  180.0000771  9.6232000  2
   1122   1121   1124   1125     1  0.0000000  3.3472000  1
   1122   1121   1124   1125     1  0.0000000  0.0000000  2
   1122   1121   1124   1125     1  180.0000771  0.3347200  3
   1122   1121   1124   1126     1  180.0000771  0.0000000  2
   1123   1121   1124   1125     1  0.0000000  3.3472000  1
   1123   1121   1124   1125     1  0.0000000  0.0000000  2
   1123   1121   1124   1125     1  180.0000771  0.3347200  3
   1123   1121   1124   1126     1  180.0000771  0.0000000  2
   1125   1124   1126   1127     1  0.0000000  7.9496000  1
   1125   1124   1126   1127     1  180.0000771  9.6232000  2
   1129   1128   1117   1139     1  0.0000000  0.6508444  3
   1129   1128   1131   1134     1  0.0000000  0.6508444  3
   1129   1128   1131   1132     1  0.0000000  0.6508444  3
   1129   1128   1131   1133     1  0.0000000  0.6508444  3
   1130   1128   1117   1139     1  0.0000000  0.6508444  3
   1130   1128   1131   1134     1  0.0000000  0.6508444  3
   1130   1128   1131   1132     1  0.0000000  0.6508444  3
   1130   1128   1131   1133     1  0.0000000  0.6508444  3
   1131   1128   1117   1139     1  0.0000000  0.6508444  3
   1131   1134   1136   1137     1  180.0000771  9.6232000  2
   1132   1131   1134   1135     1  0.0000000  3.3472000  1
   1132   1131   1134   1135     1  0.0000000  0.0000000  2
   1132   1131   1134   1135     1  180.0000771  0.3347200  3
   1132   1131   1134   1136     1  180.0000771  0.0000000  2
   1133   1131   1134   1135     1  0.0000000  3.3472000  1
   1133   1131   1134   1135     1  0.0000000  0.0000000  2
   1133   1131   1134   1135     1  180.0000771  0.3347200  3
   1133   1131   1134   1136     1  180.0000771  0.0000000  2
   1135   1134   1136   1137     1  0.0000000  7.9496000  1
   1135   1134   1136   1137     1  180.0000771  9.6232000  2
   1140   1143   1146   1147     1  0.0000000  0.6508444  3
   1140   1143   1146   1148     1  0.0000000  0.6508444  3
   1141   1140   1143   1146     1  0.0000000  0.6508444  3
   1141   1140   1143   1144     1  0.0000000  0.6508444  3
   1141   1140   1143   1145     1  0.0000000  0.6508444  3
   1142   1140   1143   1146     1  0.0000000  0.6508444  3
   1142   1140   1143   1144     1  0.0000000  0.6508444  3
   1142   1140   1143   1145     1  0.0000000  0.6508444  3
   1143   1146   1149   1171     1  0.0000000  0.6508444  3
   1144   1143   1146   1149     1  0.0000000  0.6508444  3
   1144   1143   1146   1147     1  0.0000000  0.6508444  3
   1144   1143   1146   1148     1  0.0000000  0.6508444  3
   1144   1143   1140   1170     1  0.0000000  1.0460000  1
   1144   1143   1140   1170     1  0.0000000  0.0000000  3
   1145   1143   1146   1149     1  0.0000000  0.6508444  3
   1145   1143   1146   1147     1  0.0000000  0.6508444  3
   1145   1143   1146   1148     1  0.0000000  0.6508444  3
   1145   1143   1140   1170     1  0.0000000  1.0460000  1
   1145   1143   1140   1170     1  0.0000000  0.0000000  3
   1146   1149   1150   1151     1  0.0000000  0.6508444  3
   1146   1149   1150   1152     1  0.0000000  0.6508444  3
   1146   1149   1160   1161     1  0.0000000  0.6508444  3
   1146   1149   1160   1162     1  0.0000000  0.6508444  3
   1147   1146   1149   1150     1  0.0000000  0.6508444  3
   1147   1146   1149   1160     1  0.0000000  0.6508444  3
   1147   1146   1149   1171     1  0.0000000  0.6508444  3
   1148   1146   1149   1150     1  0.0000000  0.6508444  3
   1148   1146   1149   1160     1  0.0000000  0.6508444  3
   1148   1146   1149   1171     1  0.0000000  0.6508444  3
   1149   1150   1153   1154     1  0.0000000  0.6508444  3
   1149   1150   1153   1155     1  0.0000000  0.6508444  3
   1149   1160   1163   1164     1  0.0000000  0.6508444  3
   1149   1160   1163   1165     1  0.0000000  0.6508444  3
   1150   1149   1160   1161     1  0.0000000  0.6508444  3
   1150   1149   1160   1162     1  0.0000000  0.6508444  3
   1151   1150   1153   1156     1  0.0000000  0.6508444  3
   1151   1150   1153   1154     1  0.0000000  0.6508444  3
   1151   1150   1153   1155     1  0.0000000  0.6508444  3
   1151   1150   1149   1160     1  0.0000000  0.6508444  3
   1151   1150   1149   1171     1  0.0000000  0.6508444  3
   1152   1150   1153   1156     1  0.0000000  0.6508444  3
   1152   1150   1153   1154     1  0.0000000  0.6508444  3
   1152   1150   1153   1155     1  0.0000000  0.6508444  3
   1152   1150   1149   1160     1  0.0000000  0.6508444  3
   1152   1150   1149   1171     1  0.0000000  0.6508444  3
   1153   1156   1158   1159     1  180.0000771  9.6232000  2
   1153   1150   1149   1171     1  0.0000000  0.6508444  3
   1154   1153   1156   1157     1  0.0000000  3.3472000  1
   1154   1153   1156   1157     1  0.0000000  0.0000000  2
   1154   1153   1156   1157     1  180.0000771  0.3347200  3
   1154   1153   1156   1158     1  180.0000771  0.0000000  2
   1155   1153   1156   1157     1  0.0000000  3.3472000  1
   1155   1153   1156   1157     1  0.0000000  0.0000000  2
   1155   1153   1156   1157     1  180.0000771  0.3347200  3
   1155   1153   1156   1158     1  180.0000771  0.0000000  2
   1157   1156   1158   1159     1  0.0000000  7.9496000  1
   1157   1156   1158   1159     1  180.0000771  9.6232000  2
   1161   1160   1163   1166     1  0.0000000  0.6508444  3
   1161   1160   1163   1164     1  0.0000000  0.6508444  3
   1161   1160   1163   1165     1  0.0000000  0.6508444  3
   1161   1160   1149   1171     1  0.0000000  0.6508444  3
   1162   1160   1163   1166     1  0.0000000  0.6508444  3
   1162   1160   1163   1164     1  0.0000000  0.6508444  3
   1162   1160   1163   1165     1  0.0000000  0.6508444  3
   1162   1160   1149   1171     1  0.0000000  0.6508444  3
   1163   1166   1168   1169     1  180.0000771  9.6232000  2
   1163   1160   1149   1171     1  0.0000000  0.6508444  3
   1164   1163   1166   1167     1  0.0000000  3.3472000  1
   1164   1163   1166   1167     1  0.0000000  0.0000000  2
   1164   1163   1166   1167     1  180.0000771  0.3347200  3
   1164   1163   1166   1168     1  180.0000771  0.0000000  2
   1165   1163   1166   1167     1  0.0000000  3.3472000  1
   1165   1163   1166   1167     1  0.0000000  0.0000000  2
   1165   1163   1166   1167     1  180.0000771  0.3347200  3
   1165   1163   1166   1168     1  180.0000771  0.0000000  2
   1167   1166   1168   1169     1  0.0000000  7.9496000  1
   1167   1166   1168   1169     1  180.0000771  9.6232000  2
   1172   1175   1178   1179     1  0.0000000  0.6508444  3
   1172   1175   1178   1180     1  0.0000000  0.6508444  3
   1173   1172   1175   1178     1  0.0000000  0.6508444  3
   1173   1172   1175   1176     1  0.0000000  0.6508444  3
   1173   1172   1175   1177     1  0.0000000  0.6508444  3
   1174   1172   1175   1178     1  0.0000000  0.6508444  3
   1174   1172   1175   1176     1  0.0000000  0.6508444  3
   1174   1172   1175   1177     1  0.0000000  0.6508444  3
   1175   1178   1181   1203     1  0.0000000  0.6508444  3
   1176   1175   1172   1202     1  0.0000000  1.0460000  1
   1176   1175   1172   1202     1  0.0000000  0.0000000  3
   1176   1175   1178   1181     1  0.0000000  0.6508444  3
   1176   1175   1178   1179     1  0.0000000  0.6508444  3
   1176   1175   1178   1180     1  0.0000000  0.6508444  3
   1177   1175   1172   1202     1  0.0000000  1.0460000  1
   1177   1175   1172   1202     1  0.0000000  0.0000000  3
   1177   1175   1178   1181     1  0.0000000  0.6508444  3
   1177   1175   1178   1179     1  0.0000000  0.6508444  3
   1177   1175   1178   1180     1  0.0000000  0.6508444  3
   1178   1181   1182   1183     1  0.0000000  0.6508444  3
   1178   1181   1182   1184     1  0.0000000  0.6508444  3
   1178   1181   1192   1193     1  0.0000000  0.6508444  3
   1178   1181   1192   1194     1  0.0000000  0.6508444  3
   1179   1178   1181   1182     1  0.0000000  0.6508444  3
   1179   1178   1181   1192     1  0.0000000  0.6508444  3
   1179   1178   1181   1203     1  0.0000000  0.6508444  3
   1180   1178   1181   1182     1  0.0000000  0.6508444  3
   1180   1178   1181   1192     1  0.0000000  0.6508444  3
   1180   1178   1181   1203     1  0.0000000  0.6508444  3
   1181   1182   1185   1186     1  0.0000000  0.6508444  3
   1181   1182   1185   1187     1  0.0000000  0.6508444  3
   1181   1192   1195   1196     1  0.0000000  0.6508444  3
   1181   1192   1195   1197     1  0.0000000  0.6508444  3
   1182   1181   1192   1193     1  0.0000000  0.6508444  3
   1182   1181   1192   1194     1  0.0000000  0.6508444  3
   1183   1182   1181   1192     1  0.0000000  0.6508444  3
   1183   1182   1181   1203     1  0.0000000  0.6508444  3
   1183   1182   1185   1188     1  0.0000000  0.6508444  3
   1183   1182   1185   1186     1  0.0000000  0.6508444  3
   1183   1182   1185   1187     1  0.0000000  0.6508444  3
   1184   1182   1181   1192     1  0.0000000  0.6508444  3
   1184   1182   1181   1203     1  0.0000000  0.6508444  3
   1184   1182   1185   1188     1  0.0000000  0.6508444  3
   1184   1182   1185   1186     1  0.0000000  0.6508444  3
   1184   1182   1185   1187     1  0.0000000  0.6508444  3
   1185   1182   1181   1203     1  0.0000000  0.6508444  3
   1185   1188   1190   1191     1  180.0000771  9.6232000  2
   1186   1185   1188   1189     1  0.0000000  3.3472000  1
   1186   1185   1188   1189     1  0.0000000  0.0000000  2
   1186   1185   1188   1189     1  180.0000771  0.3347200  3
   1186   1185   1188   1190     1  180.0000771  0.0000000  2
   1187   1185   1188   1189     1  0.0000000  3.3472000  1
   1187   1185   1188   1189     1  0.0000000  0.0000000  2
   1187   1185   1188   1189     1  180.0000771  0.3347200  3
   1187   1185   1188   1190     1  180.0000771  0.0000000  2
   1189   1188   1190   1191     1  0.0000000  7.9496000  1
   1189   1188   1190   1191     1  180.0000771  9.6232000  2
   1193   1192   1181   1203     1  0.0000000  0.6508444  3
   1193   1192   1195   1198     1  0.0000000  0.6508444  3
   1193   1192   1195   1196     1  0.0000000  0.6508444  3
   1193   1192   1195   1197     1  0.0000000  0.6508444  3
   1194   1192   1181   1203     1  0.0000000  0.6508444  3
   1194   1192   1195   1198     1  0.0000000  0.6508444  3
   1194   1192   1195   1196     1  0.0000000  0.6508444  3
   1194   1192   1195   1197     1  0.0000000  0.6508444  3
   1195   1192   1181   1203     1  0.0000000  0.6508444  3
   1195   1198   1200   1201     1  180.0000771  9.6232000  2
   1196   1195   1198   1199     1  0.0000000  3.3472000  1
   1196   1195   1198   1199     1  0.0000000  0.0000000  2
   1196   1195   1198   1199     1  180.0000771  0.3347200  3
   1196   1195   1198   1200     1  180.0000771  0.0000000  2
   1197   1195   1198   1199     1  0.0000000  3.3472000  1
   1197   1195   1198   1199     1  0.0000000  0.0000000  2
   1197   1195   1198   1199     1  180.0000771  0.3347200  3
   1197   1195   1198   1200     1  180.0000771  0.0000000  2
   1199   1198   1200   1201     1  0.0000000  7.9496000  1
   1199   1198   1200   1201     1  180.0000771  9.6232000  2
   1204   1207   1210   1211     1  0.0000000  0.6508444  3
   1204   1207   1210   1212     1  0.0000000  0.6508444  3
   1205   1204   1207   1210     1  0.0000000  0.6508444  3
   1205   1204   1207   1208     1  0.0000000  0.6508444  3
   1205   1204   1207   1209     1  0.0000000  0.6508444  3
   1206   1204   1207   1210     1  0.0000000  0.6508444  3
   1206   1204   1207   1208     1  0.0000000  0.6508444  3
   1206   1204   1207   1209     1  0.0000000  0.6508444  3
   1207   1210   1213   1235     1  0.0000000  0.6508444  3
   1208   1207   1210   1213     1  0.0000000  0.6508444  3
   1208   1207   1210   1211     1  0.0000000  0.6508444  3
   1208   1207   1210   1212     1  0.0000000  0.6508444  3
   1208   1207   1204   1234     1  0.0000000  1.0460000  1
   1208   1207   1204   1234     1  0.0000000  0.0000000  3
   1209   1207   1210   1213     1  0.0000000  0.6508444  3
   1209   1207   1210   1211     1  0.0000000  0.6508444  3
   1209   1207   1210   1212     1  0.0000000  0.6508444  3
   1209   1207   1204   1234     1  0.0000000  1.0460000  1
   1209   1207   1204   1234     1  0.0000000  0.0000000  3
   1210   1213   1214   1215     1  0.0000000  0.6508444  3
   1210   1213   1214   1216     1  0.0000000  0.6508444  3
   1210   1213   1224   1225     1  0.0000000  0.6508444  3
   1210   1213   1224   1226     1  0.0000000  0.6508444  3
   1211   1210   1213   1214     1  0.0000000  0.6508444  3
   1211   1210   1213   1224     1  0.0000000  0.6508444  3
   1211   1210   1213   1235     1  0.0000000  0.6508444  3
   1212   1210   1213   1214     1  0.0000000  0.6508444  3
   1212   1210   1213   1224     1  0.0000000  0.6508444  3
   1212   1210   1213   1235     1  0.0000000  0.6508444  3
   1213   1214   1217   1218     1  0.0000000  0.6508444  3
   1213   1214   1217   1219     1  0.0000000  0.6508444  3
   1213   1224   1227   1228     1  0.0000000  0.6508444  3
   1213   1224   1227   1229     1  0.0000000  0.6508444  3
   1214   1213   1224   1225     1  0.0000000  0.6508444  3
   1214   1213   1224   1226     1  0.0000000  0.6508444  3
   1215   1214   1217   1220     1  0.0000000  0.6508444  3
   1215   1214   1217   1218     1  0.0000000  0.6508444  3
   1215   1214   1217   1219     1  0.0000000  0.6508444  3
   1215   1214   1213   1224     1  0.0000000  0.6508444  3
   1215   1214   1213   1235     1  0.0000000  0.6508444  3
   1216   1214   1217   1220     1  0.0000000  0.6508444  3
   1216   1214   1217   1218     1  0.0000000  0.6508444  3
   1216   1214   1217   1219     1  0.0000000  0.6508444  3
   1216   1214   1213   1224     1  0.0000000  0.6508444  3
   1216   1214   1213   1235     1  0.0000000  0.6508444  3
   1217   1220   1222   1223     1  180.0000771  9.6232000  2
   1217   1214   1213   1235     1  0.0000000  0.6508444  3
   1218   1217   1220   1221     1  0.0000000  3.3472000  1
   1218   1217   1220   1221     1  0.0000000  0.0000000  2
   1218   1217   1220   1221     1  180.0000771  0.3347200  3
   1218   1217   1220   1222     1  180.0000771  0.0000000  2
   1219   1217   1220   1221     1  0.0000000  3.3472000  1
   1219   1217   1220   1221     1  0.0000000  0.0000000  2
   1219   1217   1220   1221     1  180.0000771  0.3347200  3
   1219   1217   1220   1222     1  180.0000771  0.0000000  2
   1221   1220   1222   1223     1  0.0000000  7.9496000  1
   1221   1220   1222   1223     1  180.0000771  9.6232000  2
   1225   1224   1227   1230     1  0.0000000  0.6508444  3
   1225   1224   1227   1228     1  0.0000000  0.6508444  3
   1225   1224   1227   1229     1  0.0000000  0.6508444  3
   1225   1224   1213   1235     1  0.0000000  0.6508444  3
   1226   1224   1227   1230     1  0.0000000  0.6508444  3
   1226   1224   1227   1228     1  0.0000000  0.6508444  3
   1226   1224   1227   1229     1  0.0000000  0.6508444  3
   1226   1224   1213   1235     1  0.0000000  0.6508444  3
   1227   1230   1232   1233     1  180.0000771  9.6232000  2
   1227   1224   1213   1235     1  0.0000000  0.6508444  3
   1228   1227   1230   1231     1  0.0000000  3.3472000  1
   1228   1227   1230   1231     1  0.0000000  0.0000000  2
   1228   1227   1230   1231     1  180.0000771  0.3347200  3
   1228   1227   1230   1232     1  180.0000771  0.0000000  2
   1229   1227   1230   1231     1  0.0000000  3.3472000  1
   1229   1227   1230   1231     1  0.0000000  0.0000000  2
   1229   1227   1230   1231     1  180.0000771  0.3347200  3
   1229   1227   1230   1232     1  180.0000771  0.0000000  2
   1231   1230   1232   1233     1  0.0000000  7.9496000  1
   1231   1230   1232   1233     1  180.0000771  9.6232000  2
   1236   1239   1242   1243     1  0.0000000  0.6508444  3
   1236   1239   1242   1244     1  0.0000000  0.6508444  3
   1237   1236   1239   1242     1  0.0000000  0.6508444  3
   1237   1236   1239   1240     1  0.0000000  0.6508444  3
   1237   1236   1239   1241     1  0.0000000  0.6508444  3
   1238   1236   1239   1242     1  0.0000000  0.6508444  3
   1238   1236   1239   1240     1  0.0000000  0.6508444  3
   1238   1236   1239   1241     1  0.0000000  0.6508444  3
   1239   1242   1245   1267     1  0.0000000  0.6508444  3
   1240   1239   1236   1266     1  0.0000000  1.0460000  1
   1240   1239   1236   1266     1  0.0000000  0.0000000  3
   1240   1239   1242   1245     1  0.0000000  0.6508444  3
   1240   1239   1242   1243     1  0.0000000  0.6508444  3
   1240   1239   1242   1244     1  0.0000000  0.6508444  3
   1241   1239   1236   1266     1  0.0000000  1.0460000  1
   1241   1239   1236   1266     1  0.0000000  0.0000000  3
   1241   1239   1242   1245     1  0.0000000  0.6508444  3
   1241   1239   1242   1243     1  0.0000000  0.6508444  3
   1241   1239   1242   1244     1  0.0000000  0.6508444  3
   1242   1245   1246   1247     1  0.0000000  0.6508444  3
   1242   1245   1246   1248     1  0.0000000  0.6508444  3
   1242   1245   1256   1257     1  0.0000000  0.6508444  3
   1242   1245   1256   1258     1  0.0000000  0.6508444  3
   1243   1242   1245   1246     1  0.0000000  0.6508444  3
   1243   1242   1245   1256     1  0.0000000  0.6508444  3
   1243   1242   1245   1267     1  0.0000000  0.6508444  3
   1244   1242   1245   1246     1  0.0000000  0.6508444  3
   1244   1242   1245   1256     1  0.0000000  0.6508444  3
   1244   1242   1245   1267     1  0.0000000  0.6508444  3
   1245   1246   1249   1250     1  0.0000000  0.6508444  3
   1245   1246   1249   1251     1  0.0000000  0.6508444  3
   1245   1256   1259   1260     1  0.0000000  0.6508444  3
   1245   1256   1259   1261     1  0.0000000  0.6508444  3
   1246   1245   1256   1257     1  0.0000000  0.6508444  3
   1246   1245   1256   1258     1  0.0000000  0.6508444  3
   1247   1246   1245   1256     1  0.0000000  0.6508444  3
   1247   1246   1245   1267     1  0.0000000  0.6508444  3
   1247   1246   1249   1252     1  0.0000000  0.6508444  3
   1247   1246   1249   1250     1  0.0000000  0.6508444  3
   1247   1246   1249   1251     1  0.0000000  0.6508444  3
   1248   1246   1245   1256     1  0.0000000  0.6508444  3
   1248   1246   1245   1267     1  0.0000000  0.6508444  3
   1248   1246   1249   1252     1  0.0000000  0.6508444  3
   1248   1246   1249   1250     1  0.0000000  0.6508444  3
   1248   1246   1249   1251     1  0.0000000  0.6508444  3
   1249   1246   1245   1267     1  0.0000000  0.6508444  3
   1249   1252   1254   1255     1  180.0000771  9.6232000  2
   1250   1249   1252   1253     1  0.0000000  3.3472000  1
   1250   1249   1252   1253     1  0.0000000  0.0000000  2
   1250   1249   1252   1253     1  180.0000771  0.3347200  3
   1250   1249   1252   1254     1  180.0000771  0.0000000  2
   1251   1249   1252   1253     1  0.0000000  3.3472000  1
   1251   1249   1252   1253     1  0.0000000  0.0000000  2
   1251   1249   1252   1253     1  180.0000771  0.3347200  3
   1251   1249   1252   1254     1  180.0000771  0.0000000  2
   1253   1252   1254   1255     1  0.0000000  7.9496000  1
   1253   1252   1254   1255     1  180.0000771  9.6232000  2
   1257   1256   1245   1267     1  0.0000000  0.6508444  3
   1257   1256   1259   1262     1  0.0000000  0.6508444  3
   1257   1256   1259   1260     1  0.0000000  0.6508444  3
   1257   1256   1259   1261     1  0.0000000  0.6508444  3
   1258   1256   1245   1267     1  0.0000000  0.6508444  3
   1258   1256   1259   1262     1  0.0000000  0.6508444  3
   1258   1256   1259   1260     1  0.0000000  0.6508444  3
   1258   1256   1259   1261     1  0.0000000  0.6508444  3
   1259   1256   1245   1267     1  0.0000000  0.6508444  3
   1259   1262   1264   1265     1  180.0000771  9.6232000  2
   1260   1259   1262   1263     1  0.0000000  3.3472000  1
   1260   1259   1262   1263     1  0.0000000  0.0000000  2
   1260   1259   1262   1263     1  180.0000771  0.3347200  3
   1260   1259   1262   1264     1  180.0000771  0.0000000  2
   1261   1259   1262   1263     1  0.0000000  3.3472000  1
   1261   1259   1262   1263     1  0.0000000  0.0000000  2
   1261   1259   1262   1263     1  180.0000771  0.3347200  3
   1261   1259   1262   1264     1  180.0000771  0.0000000  2
   1263   1262   1264   1265     1  0.0000000  7.9496000  1
   1263   1262   1264   1265     1  180.0000771  9.6232000  2
   1268   1271   1274   1275     1  0.0000000  0.6508444  3
   1268   1271   1274   1276     1  0.0000000  0.6508444  3
   1269   1268   1271   1274     1  0.0000000  0.6508444  3
   1269   1268   1271   1272     1  0.0000000  0.6508444  3
   1269   1268   1271   1273     1  0.0000000  0.6508444  3
   1270   1268   1271   1274     1  0.0000000  0.6508444  3
   1270   1268   1271   1272     1  0.0000000  0.6508444  3
   1270   1268   1271   1273     1  0.0000000  0.6508444  3
   1271   1274   1277   1299     1  0.0000000  0.6508444  3
   1272   1271   1274   1277     1  0.0000000  0.6508444  3
   1272   1271   1274   1275     1  0.0000000  0.6508444  3
   1272   1271   1274   1276     1  0.0000000  0.6508444  3
   1272   1271   1268   1298     1  0.0000000  1.0460000  1
   1272   1271   1268   1298     1  0.0000000  0.0000000  3
   1273   1271   1274   1277     1  0.0000000  0.6508444  3
   1273   1271   1274   1275     1  0.0000000  0.6508444  3
   1273   1271   1274   1276     1  0.0000000  0.6508444  3
   1273   1271   1268   1298     1  0.0000000  1.0460000  1
   1273   1271   1268   1298     1  0.0000000  0.0000000  3
   1274   1277   1278   1279     1  0.0000000  0.6508444  3
   1274   1277   1278   1280     1  0.0000000  0.6508444  3
   1274   1277   1288   1289     1  0.0000000  0.6508444  3
   1274   1277   1288   1290     1  0.0000000  0.6508444  3
   1275   1274   1277   1278     1  0.0000000  0.6508444  3
   1275   1274   1277   1288     1  0.0000000  0.6508444  3
   1275   1274   1277   1299     1  0.0000000  0.6508444  3
   1276   1274   1277   1278     1  0.0000000  0.6508444  3
   1276   1274   1277   1288     1  0.0000000  0.6508444  3
   1276   1274   1277   1299     1  0.0000000  0.6508444  3
   1277   1278   1281   1282     1  0.0000000  0.6508444  3
   1277   1278   1281   1283     1  0.0000000  0.6508444  3
   1277   1288   1291   1292     1  0.0000000  0.6508444  3
   1277   1288   1291   1293     1  0.0000000  0.6508444  3
   1278   1277   1288   1289     1  0.0000000  0.6508444  3
   1278   1277   1288   1290     1  0.0000000  0.6508444  3
   1279   1278   1281   1284     1  0.0000000  0.6508444  3
   1279   1278   1281   1282     1  0.0000000  0.6508444  3
   1279   1278   1281   1283     1  0.0000000  0.6508444  3
   1279   1278   1277   1288     1  0.0000000  0.6508444  3
   1279   1278   1277   1299     1  0.0000000  0.6508444  3
   1280   1278   1281   1284     1  0.0000000  0.6508444  3
   1280   1278   1281   1282     1  0.0000000  0.6508444  3
   1280   1278   1281   1283     1  0.0000000  0.6508444  3
   1280   1278   1277   1288     1  0.0000000  0.6508444  3
   1280   1278   1277   1299     1  0.0000000  0.6508444  3
   1281   1284   1286   1287     1  180.0000771  9.6232000  2
   1281   1278   1277   1299     1  0.0000000  0.6508444  3
   1282   1281   1284   1285     1  0.0000000  3.3472000  1
   1282   1281   1284   1285     1  0.0000000  0.0000000  2
   1282   1281   1284   1285     1  180.0000771  0.3347200  3
   1282   1281   1284   1286     1  180.0000771  0.0000000  2
   1283   1281   1284   1285     1  0.0000000  3.3472000  1
   1283   1281   1284   1285     1  0.0000000  0.0000000  2
   1283   1281   1284   1285     1  180.0000771  0.3347200  3
   1283   1281   1284   1286     1  180.0000771  0.0000000  2
   1285   1284   1286   1287     1  0.0000000  7.9496000  1
   1285   1284   1286   1287     1  180.0000771  9.6232000  2
   1289   1288   1291   1294     1  0.0000000  0.6508444  3
   1289   1288   1291   1292     1  0.0000000  0.6508444  3
   1289   1288   1291   1293     1  0.0000000  0.6508444  3
   1289   1288   1277   1299     1  0.0000000  0.6508444  3
   1290   1288   1291   1294     1  0.0000000  0.6508444  3
   1290   1288   1291   1292     1  0.0000000  0.6508444  3
   1290   1288   1291   1293     1  0.0000000  0.6508444  3
   1290   1288   1277   1299     1  0.0000000  0.6508444  3
   1291   1294   1296   1297     1  180.0000771  9.6232000  2
   1291   1288   1277   1299     1  0.0000000  0.6508444  3
   1292   1291   1294   1295     1  0.0000000  3.3472000  1
   1292   1291   1294   1295     1  0.0000000  0.0000000  2
   1292   1291   1294   1295     1  180.0000771  0.3347200  3
   1292   1291   1294   1296     1  180.0000771  0.0000000  2
   1293   1291   1294   1295     1  0.0000000  3.3472000  1
   1293   1291   1294   1295     1  0.0000000  0.0000000  2
   1293   1291   1294   1295     1  180.0000771  0.3347200  3
   1293   1291   1294   1296     1  180.0000771  0.0000000  2
   1295   1294   1296   1297     1  0.0000000  7.9496000  1
   1295   1294   1296   1297     1  180.0000771  9.6232000  2
   1300   1303   1306   1307     1  0.0000000  0.6508444  3
   1300   1303   1306   1308     1  0.0000000  0.6508444  3
   1301   1300   1303   1306     1  0.0000000  0.6508444  3
   1301   1300   1303   1304     1  0.0000000  0.6508444  3
   1301   1300   1303   1305     1  0.0000000  0.6508444  3
   1302   1300   1303   1306     1  0.0000000  0.6508444  3
   1302   1300   1303   1304     1  0.0000000  0.6508444  3
   1302   1300   1303   1305     1  0.0000000  0.6508444  3
   1303   1306   1309   1331     1  0.0000000  0.6508444  3
   1304   1303   1300   1330     1  0.0000000  1.0460000  1
   1304   1303   1300   1330     1  0.0000000  0.0000000  3
   1304   1303   1306   1309     1  0.0000000  0.6508444  3
   1304   1303   1306   1307     1  0.0000000  0.6508444  3
   1304   1303   1306   1308     1  0.0000000  0.6508444  3
   1305   1303   1300   1330     1  0.0000000  1.0460000  1
   1305   1303   1300   1330     1  0.0000000  0.0000000  3
   1305   1303   1306   1309     1  0.0000000  0.6508444  3
   1305   1303   1306   1307     1  0.0000000  0.6508444  3
   1305   1303   1306   1308     1  0.0000000  0.6508444  3
   1306   1309   1310   1311     1  0.0000000  0.6508444  3
   1306   1309   1310   1312     1  0.0000000  0.6508444  3
   1306   1309   1320   1321     1  0.0000000  0.6508444  3
   1306   1309   1320   1322     1  0.0000000  0.6508444  3
   1307   1306   1309   1310     1  0.0000000  0.6508444  3
   1307   1306   1309   1320     1  0.0000000  0.6508444  3
   1307   1306   1309   1331     1  0.0000000  0.6508444  3
   1308   1306   1309   1310     1  0.0000000  0.6508444  3
   1308   1306   1309   1320     1  0.0000000  0.6508444  3
   1308   1306   1309   1331     1  0.0000000  0.6508444  3
   1309   1310   1313   1314     1  0.0000000  0.6508444  3
   1309   1310   1313   1315     1  0.0000000  0.6508444  3
   1309   1320   1323   1324     1  0.0000000  0.6508444  3
   1309   1320   1323   1325     1  0.0000000  0.6508444  3
   1310   1309   1320   1321     1  0.0000000  0.6508444  3
   1310   1309   1320   1322     1  0.0000000  0.6508444  3
   1311   1310   1309   1320     1  0.0000000  0.6508444  3
   1311   1310   1309   1331     1  0.0000000  0.6508444  3
   1311   1310   1313   1316     1  0.0000000  0.6508444  3
   1311   1310   1313   1314     1  0.0000000  0.6508444  3
   1311   1310   1313   1315     1  0.0000000  0.6508444  3
   1312   1310   1309   1320     1  0.0000000  0.6508444  3
   1312   1310   1309   1331     1  0.0000000  0.6508444  3
   1312   1310   1313   1316     1  0.0000000  0.6508444  3
   1312   1310   1313   1314     1  0.0000000  0.6508444  3
   1312   1310   1313   1315     1  0.0000000  0.6508444  3
   1313   1310   1309   1331     1  0.0000000  0.6508444  3
   1313   1316   1318   1319     1  180.0000771  9.6232000  2
   1314   1313   1316   1317     1  0.0000000  3.3472000  1
   1314   1313   1316   1317     1  0.0000000  0.0000000  2
   1314   1313   1316   1317     1  180.0000771  0.3347200  3
   1314   1313   1316   1318     1  180.0000771  0.0000000  2
   1315   1313   1316   1317     1  0.0000000  3.3472000  1
   1315   1313   1316   1317     1  0.0000000  0.0000000  2
   1315   1313   1316   1317     1  180.0000771  0.3347200  3
   1315   1313   1316   1318     1  180.0000771  0.0000000  2
   1317   1316   1318   1319     1  0.0000000  7.9496000  1
   1317   1316   1318   1319     1  180.0000771  9.6232000  2
   1321   1320   1309   1331     1  0.0000000  0.6508444  3
   1321   1320   1323   1326     1  0.0000000  0.6508444  3
   1321   1320   1323   1324     1  0.0000000  0.6508444  3
   1321   1320   1323   1325     1  0.0000000  0.6508444  3
   1322   1320   1309   1331     1  0.0000000  0.6508444  3
   1322   1320   1323   1326     1  0.0000000  0.6508444  3
   1322   1320   1323   1324     1  0.0000000  0.6508444  3
   1322   1320   1323   1325     1  0.0000000  0.6508444  3
   1323   1320   1309   1331     1  0.0000000  0.6508444  3
   1323   1326   1328   1329     1  180.0000771  9.6232000  2
   1324   1323   1326   1327     1  0.0000000  3.3472000  1
   1324   1323   1326   1327     1  0.0000000  0.0000000  2
   1324   1323   1326   1327     1  180.0000771  0.3347200  3
   1324   1323   1326   1328     1  180.0000771  0.0000000  2
   1325   1323   1326   1327     1  0.0000000  3.3472000  1
   1325   1323   1326   1327     1  0.0000000  0.0000000  2
   1325   1323   1326   1327     1  180.0000771  0.3347200  3
   1325   1323   1326   1328     1  180.0000771  0.0000000  2
   1327   1326   1328   1329     1  0.0000000  7.9496000  1
   1327   1326   1328   1329     1  180.0000771  9.6232000  2
   1332   1335   1338   1339     1  0.0000000  0.6508444  3
   1332   1335   1338   1340     1  0.0000000  0.6508444  3
   1333   1332   1335   1338     1  0.0000000  0.6508444  3
   1333   1332   1335   1336     1  0.0000000  0.6508444  3
   1333   1332   1335   1337     1  0.0000000  0.6508444  3
   1334   1332   1335   1338     1  0.0000000  0.6508444  3
   1334   1332   1335   1336     1  0.0000000  0.6508444  3
   1334   1332   1335   1337     1  0.0000000  0.6508444  3
   1335   1338   1341   1363     1  0.0000000  0.6508444  3
   1336   1335   1338   1341     1  0.0000000  0.6508444  3
   1336   1335   1338   1339     1  0.0000000  0.6508444  3
   1336   1335   1338   1340     1  0.0000000  0.6508444  3
   1336   1335   1332   1362     1  0.0000000  1.0460000  1
   1336   1335   1332   1362     1  0.0000000  0.0000000  3
   1337   1335   1338   1341     1  0.0000000  0.6508444  3
   1337   1335   1338   1339     1  0.0000000  0.6508444  3
   1337   1335   1338   1340     1  0.0000000  0.6508444  3
   1337   1335   1332   1362     1  0.0000000  1.0460000  1
   1337   1335   1332   1362     1  0.0000000  0.0000000  3
   1338   1341   1342   1343     1  0.0000000  0.6508444  3
   1338   1341   1342   1344     1  0.0000000  0.6508444  3
   1338   1341   1352   1353     1  0.0000000  0.6508444  3
   1338   1341   1352   1354     1  0.0000000  0.6508444  3
   1339   1338   1341   1342     1  0.0000000  0.6508444  3
   1339   1338   1341   1352     1  0.0000000  0.6508444  3
   1339   1338   1341   1363     1  0.0000000  0.6508444  3
   1340   1338   1341   1342     1  0.0000000  0.6508444  3
   1340   1338   1341   1352     1  0.0000000  0.6508444  3
   1340   1338   1341   1363     1  0.0000000  0.6508444  3
   1341   1342   1345   1346     1  0.0000000  0.6508444  3
   1341   1342   1345   1347     1  0.0000000  0.6508444  3
   1341   1352   1355   1356     1  0.0000000  0.6508444  3
   1341   1352   1355   1357     1  0.0000000  0.6508444  3
   1342   1341   1352   1353     1  0.0000000  0.6508444  3
   1342   1341   1352   1354     1  0.0000000  0.6508444  3
   1343   1342   1345   1348     1  0.0000000  0.6508444  3
   1343   1342   1345   1346     1  0.0000000  0.6508444  3
   1343   1342   1345   1347     1  0.0000000  0.6508444  3
   1343   1342   1341   1352     1  0.0000000  0.6508444  3
   1343   1342   1341   1363     1  0.0000000  0.6508444  3
   1344   1342   1345   1348     1  0.0000000  0.6508444  3
   1344   1342   1345   1346     1  0.0000000  0.6508444  3
   1344   1342   1345   1347     1  0.0000000  0.6508444  3
   1344   1342   1341   1352     1  0.0000000  0.6508444  3
   1344   1342   1341   1363     1  0.0000000  0.6508444  3
   1345   1348   1350   1351     1  180.0000771  9.6232000  2
   1345   1342   1341   1363     1  0.0000000  0.6508444  3
   1346   1345   1348   1349     1  0.0000000  3.3472000  1
   1346   1345   1348   1349     1  0.0000000  0.0000000  2
   1346   1345   1348   1349     1  180.0000771  0.3347200  3
   1346   1345   1348   1350     1  180.0000771  0.0000000  2
   1347   1345   1348   1349     1  0.0000000  3.3472000  1
   1347   1345   1348   1349     1  0.0000000  0.0000000  2
   1347   1345   1348   1349     1  180.0000771  0.3347200  3
   1347   1345   1348   1350     1  180.0000771  0.0000000  2
   1349   1348   1350   1351     1  0.0000000  7.9496000  1
   1349   1348   1350   1351     1  180.0000771  9.6232000  2
   1353   1352   1355   1358     1  0.0000000  0.6508444  3
   1353   1352   1355   1356     1  0.0000000  0.6508444  3
   1353   1352   1355   1357     1  0.0000000  0.6508444  3
   1353   1352   1341   1363     1  0.0000000  0.6508444  3
   1354   1352   1355   1358     1  0.0000000  0.6508444  3
   1354   1352   1355   1356     1  0.0000000  0.6508444  3
   1354   1352   1355   1357     1  0.0000000  0.6508444  3
   1354   1352   1341   1363     1  0.0000000  0.6508444  3
   1355   1358   1360   1361     1  180.0000771  9.6232000  2
   1355   1352   1341   1363     1  0.0000000  0.6508444  3
   1356   1355   1358   1359     1  0.0000000  3.3472000  1
   1356   1355   1358   1359     1  0.0000000  0.0000000  2
   1356   1355   1358   1359     1  180.0000771  0.3347200  3
   1356   1355   1358   1360     1  180.0000771  0.0000000  2
   1357   1355   1358   1359     1  0.0000000  3.3472000  1
   1357   1355   1358   1359     1  0.0000000  0.0000000  2
   1357   1355   1358   1359     1  180.0000771  0.3347200  3
   1357   1355   1358   1360     1  180.0000771  0.0000000  2
   1359   1358   1360   1361     1  0.0000000  7.9496000  1
   1359   1358   1360   1361     1  180.0000771  9.6232000  2
   1364   1367   1370   1371     1  0.0000000  0.6508444  3
   1364   1367   1370   1372     1  0.0000000  0.6508444  3
   1365   1364   1367   1370     1  0.0000000  0.6508444  3
   1365   1364   1367   1368     1  0.0000000  0.6508444  3
   1365   1364   1367   1369     1  0.0000000  0.6508444  3
   1366   1364   1367   1370     1  0.0000000  0.6508444  3
   1366   1364   1367   1368     1  0.0000000  0.6508444  3
   1366   1364   1367   1369     1  0.0000000  0.6508444  3
   1367   1370   1373   1395     1  0.0000000  0.6508444  3
   1368   1367   1364   1394     1  0.0000000  1.0460000  1
   1368   1367   1364   1394     1  0.0000000  0.0000000  3
   1368   1367   1370   1373     1  0.0000000  0.6508444  3
   1368   1367   1370   1371     1  0.0000000  0.6508444  3
   1368   1367   1370   1372     1  0.0000000  0.6508444  3
   1369   1367   1364   1394     1  0.0000000  1.0460000  1
   1369   1367   1364   1394     1  0.0000000  0.0000000  3
   1369   1367   1370   1373     1  0.0000000  0.6508444  3
   1369   1367   1370   1371     1  0.0000000  0.6508444  3
   1369   1367   1370   1372     1  0.0000000  0.6508444  3
   1370   1373   1374   1375     1  0.0000000  0.6508444  3
   1370   1373   1374   1376     1  0.0000000  0.6508444  3
   1370   1373   1384   1385     1  0.0000000  0.6508444  3
   1370   1373   1384   1386     1  0.0000000  0.6508444  3
   1371   1370   1373   1374     1  0.0000000  0.6508444  3
   1371   1370   1373   1384     1  0.0000000  0.6508444  3
   1371   1370   1373   1395     1  0.0000000  0.6508444  3
   1372   1370   1373   1374     1  0.0000000  0.6508444  3
   1372   1370   1373   1384     1  0.0000000  0.6508444  3
   1372   1370   1373   1395     1  0.0000000  0.6508444  3
   1373   1374   1377   1378     1  0.0000000  0.6508444  3
   1373   1374   1377   1379     1  0.0000000  0.6508444  3
   1373   1384   1387   1388     1  0.0000000  0.6508444  3
   1373   1384   1387   1389     1  0.0000000  0.6508444  3
   1374   1373   1384   1385     1  0.0000000  0.6508444  3
   1374   1373   1384   1386     1  0.0000000  0.6508444  3
   1375   1374   1373   1384     1  0.0000000  0.6508444  3
   1375   1374   1373   1395     1  0.0000000  0.6508444  3
   1375   1374   1377   1380     1  0.0000000  0.6508444  3
   1375   1374   1377   1378     1  0.0000000  0.6508444  3
   1375   1374   1377   1379     1  0.0000000  0.6508444  3
   1376   1374   1373   1384     1  0.0000000  0.6508444  3
   1376   1374   1373   1395     1  0.0000000  0.6508444  3
   1376   1374   1377   1380     1  0.0000000  0.6508444  3
   1376   1374   1377   1378     1  0.0000000  0.6508444  3
   1376   1374   1377   1379     1  0.0000000  0.6508444  3
   1377   1374   1373   1395     1  0.0000000  0.6508444  3
   1377   1380   1382   1383     1  180.0000771  9.6232000  2
   1378   1377   1380   1381     1  0.0000000  3.3472000  1
   1378   1377   1380   1381     1  0.0000000  0.0000000  2
   1378   1377   1380   1381     1  180.0000771  0.3347200  3
   1378   1377   1380   1382     1  180.0000771  0.0000000  2
   1379   1377   1380   1381     1  0.0000000  3.3472000  1
   1379   1377   1380   1381     1  0.0000000  0.0000000  2
   1379   1377   1380   1381     1  180.0000771  0.3347200  3
   1379   1377   1380   1382     1  180.0000771  0.0000000  2
   1381   1380   1382   1383     1  0.0000000  7.9496000  1
   1381   1380   1382   1383     1  180.0000771  9.6232000  2
   1385   1384   1373   1395     1  0.0000000  0.6508444  3
   1385   1384   1387   1390     1  0.0000000  0.6508444  3
   1385   1384   1387   1388     1  0.0000000  0.6508444  3
   1385   1384   1387   1389     1  0.0000000  0.6508444  3
   1386   1384   1373   1395     1  0.0000000  0.6508444  3
   1386   1384   1387   1390     1  0.0000000  0.6508444  3
   1386   1384   1387   1388     1  0.0000000  0.6508444  3
   1386   1384   1387   1389     1  0.0000000  0.6508444  3
   1387   1384   1373   1395     1  0.0000000  0.6508444  3
   1387   1390   1392   1393     1  180.0000771  9.6232000  2
   1388   1387   1390   1391     1  0.0000000  3.3472000  1
   1388   1387   1390   1391     1  0.0000000  0.0000000  2
   1388   1387   1390   1391     1  180.0000771  0.3347200  3
   1388   1387   1390   1392     1  180.0000771  0.0000000  2
   1389   1387   1390   1391     1  0.0000000  3.3472000  1
   1389   1387   1390   1391     1  0.0000000  0.0000000  2
   1389   1387   1390   1391     1  180.0000771  0.3347200  3
   1389   1387   1390   1392     1  180.0000771  0.0000000  2
   1391   1390   1392   1393     1  0.0000000  7.9496000  1
   1391   1390   1392   1393     1  180.0000771  9.6232000  2
   1396   1399   1402   1403     1  0.0000000  0.6508444  3
   1396   1399   1402   1404     1  0.0000000  0.6508444  3
   1397   1396   1399   1402     1  0.0000000  0.6508444  3
   1397   1396   1399   1400     1  0.0000000  0.6508444  3
   1397   1396   1399   1401     1  0.0000000  0.6508444  3
   1398   1396   1399   1402     1  0.0000000  0.6508444  3
   1398   1396   1399   1400     1  0.0000000  0.6508444  3
   1398   1396   1399   1401     1  0.0000000  0.6508444  3
   1399   1402   1405   1427     1  0.0000000  0.6508444  3
   1400   1399   1402   1405     1  0.0000000  0.6508444  3
   1400   1399   1402   1403     1  0.0000000  0.6508444  3
   1400   1399   1402   1404     1  0.0000000  0.6508444  3
   1400   1399   1396   1426     1  0.0000000  1.0460000  1
   1400   1399   1396   1426     1  0.0000000  0.0000000  3
   1401   1399   1402   1405     1  0.0000000  0.6508444  3
   1401   1399   1402   1403     1  0.0000000  0.6508444  3
   1401   1399   1402   1404     1  0.0000000  0.6508444  3
   1401   1399   1396   1426     1  0.0000000  1.0460000  1
   1401   1399   1396   1426     1  0.0000000  0.0000000  3
   1402   1405   1406   1407     1  0.0000000  0.6508444  3
   1402   1405   1406   1408     1  0.0000000  0.6508444  3
   1402   1405   1416   1417     1  0.0000000  0.6508444  3
   1402   1405   1416   1418     1  0.0000000  0.6508444  3
   1403   1402   1405   1406     1  0.0000000  0.6508444  3
   1403   1402   1405   1416     1  0.0000000  0.6508444  3
   1403   1402   1405   1427     1  0.0000000  0.6508444  3
   1404   1402   1405   1406     1  0.0000000  0.6508444  3
   1404   1402   1405   1416     1  0.0000000  0.6508444  3
   1404   1402   1405   1427     1  0.0000000  0.6508444  3
   1405   1406   1409   1410     1  0.0000000  0.6508444  3
   1405   1406   1409   1411     1  0.0000000  0.6508444  3
   1405   1416   1419   1420     1  0.0000000  0.6508444  3
   1405   1416   1419   1421     1  0.0000000  0.6508444  3
   1406   1405   1416   1417     1  0.0000000  0.6508444  3
   1406   1405   1416   1418     1  0.0000000  0.6508444  3
   1407   1406   1409   1412     1  0.0000000  0.6508444  3
   1407   1406   1409   1410     1  0.0000000  0.6508444  3
   1407   1406   1409   1411     1  0.0000000  0.6508444  3
   1407   1406   1405   1416     1  0.0000000  0.6508444  3
   1407   1406   1405   1427     1  0.0000000  0.6508444  3
   1408   1406   1409   1412     1  0.0000000  0.6508444  3
   1408   1406   1409   1410     1  0.0000000  0.6508444  3
   1408   1406   1409   1411     1  0.0000000  0.6508444  3
   1408   1406   1405   1416     1  0.0000000  0.6508444  3
   1408   1406   1405   1427     1  0.0000000  0.6508444  3
   1409   1412   1414   1415     1  180.0000771  9.6232000  2
   1409   1406   1405   1427     1  0.0000000  0.6508444  3
   1410   1409   1412   1413     1  0.0000000  3.3472000  1
   1410   1409   1412   1413     1  0.0000000  0.0000000  2
   1410   1409   1412   1413     1  180.0000771  0.3347200  3
   1410   1409   1412   1414     1  180.0000771  0.0000000  2
   1411   1409   1412   1413     1  0.0000000  3.3472000  1
   1411   1409   1412   1413     1  0.0000000  0.0000000  2
   1411   1409   1412   1413     1  180.0000771  0.3347200  3
   1411   1409   1412   1414     1  180.0000771  0.0000000  2
   1413   1412   1414   1415     1  0.0000000  7.9496000  1
   1413   1412   1414   1415     1  180.0000771  9.6232000  2
   1417   1416   1419   1422     1  0.0000000  0.6508444  3
   1417   1416   1419   1420     1  0.0000000  0.6508444  3
   1417   1416   1419   1421     1  0.0000000  0.6508444  3
   1417   1416   1405   1427     1  0.0000000  0.6508444  3
   1418   1416   1419   1422     1  0.0000000  0.6508444  3
   1418   1416   1419   1420     1  0.0000000  0.6508444  3
   1418   1416   1419   1421     1  0.0000000  0.6508444  3
   1418   1416   1405   1427     1  0.0000000  0.6508444  3
   1419   1422   1424   1425     1  180.0000771  9.6232000  2
   1419   1416   1405   1427     1  0.0000000  0.6508444  3
   1420   1419   1422   1423     1  0.0000000  3.3472000  1
   1420   1419   1422   1423     1  0.0000000  0.0000000  2
   1420   1419   1422   1423     1  180.0000771  0.3347200  3
   1420   1419   1422   1424     1  180.0000771  0.0000000  2
   1421   1419   1422   1423     1  0.0000000  3.3472000  1
   1421   1419   1422   1423     1  0.0000000  0.0000000  2
   1421   1419   1422   1423     1  180.0000771  0.3347200  3
   1421   1419   1422   1424     1  180.0000771  0.0000000  2
   1423   1422   1424   1425     1  0.0000000  7.9496000  1
   1423   1422   1424   1425     1  180.0000771  9.6232000  2

;[ system ]
;; Name
;Generic title
;
;[ molecules ]
;; Compound       #mols
;system1              1
