G3.5ncore-PETIM in water
65816
    1aaa     N1    1   4.941   1.799   3.263 -0.7224  0.0739 -0.3643
    1aaa     C1    2   4.848   1.746   3.158  0.0763  0.3373 -0.3922
    1aaa     H1    3   4.893   1.660   3.109  1.1739  0.1652  0.8825
    1aaa     H2    4   4.760   1.700   3.205  0.4093  0.2405  0.1394
    1aaa     C2    5   4.912   1.727   3.397 -0.0800  0.2240  0.2159
    1aaa     H3    6   4.815   1.678   3.396  0.3018 -0.5417 -0.4917
    1aaa     H4    7   4.990   1.652   3.416 -0.1658  0.2852  0.8366
    1aaa     C3    8   5.087   1.770   3.224  0.4632  0.1984 -0.2953
    1aaa     H5    9   5.146   1.743   3.312 -0.4229  1.8819  0.8708
    1aaa     H6   10   5.092   1.683   3.159  1.9085 -0.0199  0.0786
    1aaa     C4   11   5.167   1.885   3.151  1.1351  0.0388 -0.5155
    1aaa     H7   12   5.107   1.936   3.075 -0.4481  0.4400  0.9367
    1aaa     H8   13   5.195   1.958   3.227  0.1860 -1.0441  0.9397
    1aaa     C5   14   4.796   1.848   3.047 -0.3532  0.7203  0.4713
    1aaa     H9   15   4.741   1.922   3.106  0.2812  1.6970 -0.1250
    1aaa    H10   16   4.885   1.895   3.004 -0.8117  0.5889 -0.6401
    1aaa     C6   17   4.917   1.830   3.514  0.3079 -0.7667  0.5865
    1aaa    H11   18   4.825   1.888   3.515  0.6630 -0.1475 -0.6183
    1aaa    H12   19   4.916   1.782   3.613 -1.2793 -0.6904  0.6374
    1aaa     C7   20   5.037   1.936   3.509 -0.0979  0.1004  0.3939
    1aaa    H13   21   5.053   1.991   3.415  1.6742 -0.6966  0.1732
    1aaa    H14   22   5.014   2.012   3.584 -0.8996  2.7315 -2.3128
    1aaa     C8   23   5.303   1.838   3.097  0.7595 -0.4844 -0.9084
    1aaa    H15   24   5.363   1.925   3.070  1.6732 -0.0354  2.2586
    1aaa    H16   25   5.361   1.799   3.182 -0.4715 -0.2107  0.0806
    1aaa     C9   26   4.702   1.776   2.943 -0.2605  1.1460  0.6136
    1aaa    H17   27   4.757   1.694   2.895 -1.3754  0.6557  0.1294
    1aaa    H18   28   4.617   1.733   2.997  0.7843  1.2472  2.4006
    1aaa    H19   29   4.924   1.900   3.280 -0.2901 -0.0712  1.0729
    2bbb     N1   30   5.345   1.644   3.676 -0.2694  0.4353 -0.1988
    2bbb     C1   31   5.316   1.528   3.578 -0.3079  0.1294 -0.0071
    2bbb     H1   32   5.355   1.436   3.622  0.1170 -0.9996 -2.5554
    2bbb     H2   33   5.385   1.545   3.495 -0.3479 -0.7522 -0.2311
    2bbb     C2   34   5.426   1.591   3.794 -0.0411  0.2406  0.1847
    2bbb     H3   35   5.464   1.680   3.845  0.3225  0.8103 -1.0577
    2bbb     H4   36   5.510   1.529   3.761  0.4246  1.8201 -1.7911
    2bbb     C3   37   5.441   1.753   3.613  0.7394  0.2857 -0.5104
    2bbb     H5   38   5.522   1.689   3.577  1.6665  0.2222  1.5525
    2bbb     H6   39   5.492   1.812   3.690  0.9499 -0.3507 -0.1544
    2bbb     C4   40   5.395   1.840   3.495  0.0443 -0.6459 -0.1477
    2bbb     H7   41   5.363   1.779   3.410  1.3261  0.6386 -1.6479
    2bbb     H8   42   5.479   1.897   3.453 -0.5184  0.0206 -0.3900
    2bbb     C5   43   5.171   1.518   3.533  0.2526  0.0573 -0.1333
    2bbb     H9   44   5.167   1.450   3.447  1.2403 -0.8661  0.5202
    2bbb    H10   45   5.152   1.621   3.502  2.7090  0.1937 -1.4563
    2bbb     C6   46   5.346   1.510   3.903  1.2103 -0.2258  0.1212
    2bbb    H11   47   5.328   1.409   3.866  1.3394 -0.6489  1.2055
    2bbb    H12   48   5.250   1.556   3.929  1.9084  1.2294  0.2227
    2bbb     C7   49   5.283   1.949   3.517 -0.0869  0.4863  0.0867
    2bbb    H13   50   5.286   2.016   3.430  0.4844  0.6851  0.2580
    2bbb    H14   51   5.305   2.010   3.606  0.4161  0.7084 -0.1906
    2bbb     C8   52   5.417   1.495   4.037 -0.2014  0.5321  0.4799
    2bbb    H15   53   5.341   1.446   4.101 -2.0027  2.2360 -0.2745
    2bbb    H16   54   5.506   1.431   4.037 -1.2520 -1.1397  3.1779
    2bbb     C9   55   5.088   1.474   3.650 -0.4657  0.5238 -0.3584
    2bbb    H17   56   4.982   1.469   3.622 -0.6768 -0.6311  0.5717
    2bbb    H18   57   5.104   1.537   3.739 -0.1929 -0.5849  0.4043
    2bbb     O1   58   5.162   1.872   3.529  0.4827  0.3466  0.7232
    2bbb    H19   59   5.263   1.697   3.710  0.2952  0.1390  1.7753
    3bbb     N1   60   5.335   1.467   2.685  0.1046 -0.2915 -0.8242
    3bbb     C1   61   5.281   1.485   2.544  0.1600 -0.1261 -0.3083
    3bbb     H1   62   5.367   1.511   2.481 -0.8918  0.2260 -1.6535
    3bbb     H2   63   5.224   1.578   2.545 -1.4257 -1.0680  0.4852
    3bbb     C2   64   5.476   1.400   2.691  0.1536  0.2234 -0.1634
    3bbb     H3   65   5.550   1.474   2.661  0.5544 -0.5863 -1.2077
    3bbb     H4   66   5.484   1.314   2.625  1.9482 -0.5400  0.9710
    3bbb     C3   67   5.333   1.598   2.758  0.8214 -0.0764 -0.1062
    3bbb     H5   68   5.389   1.672   2.700 -0.3975  0.0285 -1.1934
    3bbb     H6   69   5.375   1.586   2.858 -1.1504  0.7786  0.8817
    3bbb     C4   70   5.194   1.656   2.782  0.3977  0.4885  0.0097
    3bbb     H7   71   5.141   1.587   2.849 -0.4484  0.4954 -0.6449
    3bbb     H8   72   5.133   1.671   2.692 -0.5767  2.0659  0.8769
    3bbb     C5   73   5.207   1.359   2.495  0.4561  0.4769  0.3230
    3bbb     H9   74   5.132   1.339   2.572 -1.0941  1.2773 -0.9205
    3bbb    H10   75   5.283   1.279   2.493  0.8319  0.8073  1.0565
    3bbb     C6   76   5.508   1.350   2.833 -0.4250 -0.3215  0.1243
    3bbb    H11   77   5.432   1.284   2.876 -0.1131  0.4367  1.9465
    3bbb    H12   78   5.521   1.421   2.916 -0.8553 -1.4379  1.1715
    3bbb     C7   79   5.200   1.785   2.874  0.6613 -0.1764 -0.1298
    3bbb    H13   80   5.094   1.806   2.896  1.7942  4.9554  1.7972
    3bbb    H14   81   5.250   1.867   2.820  1.1643 -1.6463 -2.0188
    3bbb     C8   82   5.636   1.268   2.832 -0.3299 -0.0803 -0.3468
    3bbb    H15   83   5.669   1.221   2.925  0.9370  0.0990 -0.6905
    3bbb    H16   84   5.617   1.173   2.781  1.0185 -1.5346  1.7144
    3bbb     C9   85   5.139   1.384   2.361 -0.0293  0.1332 -0.0153
    3bbb    H17   86   5.066   1.463   2.381  0.4121  0.3541  0.7344
    3bbb    H18   87   5.077   1.296   2.336 -1.1642  0.7122  0.7255
    3bbb     O1   88   5.282   1.751   2.987 -0.9107  0.2085 -0.1324
    3bbb    H19   89   5.269   1.408   2.738 -0.2500  0.1951 -0.7110
    4bbb     N1   90   4.404   2.118   2.604  0.4740 -0.0551 -0.7190
    4bbb     C1   91   4.272   2.159   2.668 -0.1933 -0.0161 -0.5139
    4bbb     H1   92   4.229   2.240   2.609  0.2564  0.7249  0.1636
    4bbb     H2   93   4.283   2.195   2.770 -0.9579 -1.2218  0.0079
    4bbb     C2   94   4.502   2.230   2.581  0.8599  0.1093  0.3308
    4bbb     H3   95   4.602   2.186   2.572  0.1637 -1.0934 -2.4065
    4bbb     H4   96   4.499   2.291   2.671 -2.1791 -2.0909  1.8839
    4bbb     C3   97   4.463   2.025   2.700 -0.3302  0.4128  0.6598
    4bbb     H5   98   4.378   1.985   2.754 -0.9892  1.6143  0.5535
    4bbb     H6   99   4.524   2.090   2.764 -0.3728  2.1156 -0.9272
    4bbb     C4  100   4.548   1.917   2.637  0.1957 -0.3814  0.3453
    4bbb     H7  101   4.634   1.946   2.576 -0.8919 -2.7880 -2.6435
    4bbb     H8  102   4.480   1.868   2.566  0.3036  1.3709 -1.0314
    4bbb     C5  103   4.167   2.047   2.664  0.4767  0.4018 -0.0579
    4bbb     H9  104   4.079   2.067   2.727  0.5682 -2.1488  0.9816
    4bbb    H10  105   4.202   1.949   2.697 -1.4404  0.6024  2.9351
    4bbb     C6  106   4.476   2.326   2.464 -0.0604  0.8980 -0.2836
    4bbb    H11  107   4.373   2.364   2.470 -0.7840 -1.1879  2.8290
    4bbb    H12  108   4.482   2.280   2.364 -0.6210  2.2082 -0.9501
    4bbb     C7  109   4.582   1.811   2.733  0.0641  0.3252 -0.6919
    4bbb    H13  110   4.631   1.727   2.682 -0.6013 -0.0888 -0.6683
    4bbb    H14  111   4.496   1.759   2.778  0.1385 -0.4990 -1.4697
    4bbb     C8  112   4.558   2.456   2.471  0.0087 -0.2305  0.0651
    4bbb    H15  113   4.667   2.443   2.470  0.1207  0.6179 -0.5747
    4bbb    H16  114   4.531   2.512   2.380 -0.6867  1.7002  1.3990
    4bbb     C9  115   4.110   2.035   2.521  0.5145 -0.0835  0.4657
    4bbb    H17  116   4.184   2.003   2.447  1.4759 -0.5779  1.6178
    4bbb    H18  117   4.077   2.132   2.480  1.5013 -0.0587 -0.3039
    4bbb     O1  118   4.663   1.868   2.841  0.8748 -0.1124 -0.2574
    4bbb    H19  119   4.384   2.079   2.511 -1.9039  1.8891 -1.1165
    5bbb     N1  120   5.221   1.770   4.404 -0.3781 -0.2023 -0.0175
    5bbb     C1  121   5.112   1.667   4.368 -0.4353  0.9807  0.0005
    5bbb     H1  122   5.032   1.669   4.443 -0.2579  2.1890  0.1840
    5bbb     H2  123   5.151   1.565   4.366 -0.9066  0.7977 -0.0174
    5bbb     C2  124   5.269   1.744   4.549  0.0559 -0.1852 -0.1020
    5bbb     H3  125   5.308   1.642   4.556 -0.6099 -0.4393 -0.1175
    5bbb     H4  126   5.186   1.748   4.619 -0.1833  2.1785 -0.4336
    5bbb     C3  127   5.352   1.757   4.317  0.1663  0.0444 -0.2051
    5bbb     H5  128   5.420   1.835   4.351  2.7250 -1.9931 -0.3845
    5bbb     H6  129   5.337   1.769   4.209  1.2617 -3.3034 -0.8289
    5bbb     C4  130   5.438   1.635   4.332  0.0864 -0.2006  0.2484
    5bbb     H7  131   5.370   1.549   4.331  0.3643 -0.4154  0.0147
    5bbb     H8  132   5.493   1.628   4.427 -1.5044  1.8316  1.4128
    5bbb     C5  133   5.057   1.688   4.226  1.3134 -0.2403 -0.2258
    5bbb     H9  134   5.130   1.671   4.146 -0.4314 -1.1704 -1.7022
    5bbb    H10  135   5.023   1.790   4.204  0.4403  0.0091  2.0291
    5bbb     C6  136   5.374   1.846   4.610  0.8365  0.1110  0.5391
    5bbb    H11  137   5.471   1.839   4.560  0.7400 -1.3988  0.5318
    5bbb    H12  138   5.403   1.826   4.714  1.5965  0.4712  0.3981
    5bbb     C7  139   5.534   1.626   4.215 -0.6483 -0.4035 -0.2806
    5bbb    H13  140   5.597   1.536   4.211 -1.6950 -1.2178  0.7603
    5bbb    H14  141   5.596   1.716   4.209 -0.1090 -0.8132 -0.9880
    5bbb     C8  142   5.316   1.991   4.585 -0.1940 -0.8704 -0.9063
    5bbb    H15  143   5.349   2.013   4.483  1.5129  1.9602  0.1467
    5bbb    H16  144   5.207   2.000   4.598 -0.3863 -3.4188 -0.1564
    5bbb     C9  145   4.936   1.587   4.211  0.1229  0.0580  0.1368
    5bbb    H17  146   4.963   1.481   4.197 -0.9624  0.0629 -2.7978
    5bbb    H18  147   4.897   1.616   4.113  1.1116 -0.2438 -0.3618
    5bbb     O1  148   5.458   1.627   4.089 -0.1203  0.4622  0.3511
    5bbb    H19  149   5.180   1.863   4.390  0.3196  0.3485  1.3894
    6bbb     N1  150   5.339   0.988   3.847  0.8310 -0.0018 -0.1086
    6bbb     C1  151   5.354   0.929   3.709  0.0283  0.0924  0.0411
    6bbb     H1  152   5.449   0.961   3.665  0.8781 -3.9301 -1.5345
    6bbb     H2  153   5.279   0.969   3.641  1.4714  0.1502 -1.5888
    6bbb     C2  154   5.471   1.016   3.912  0.2188 -0.2668 -0.8337
    6bbb     H3  155   5.525   0.926   3.939  1.0109  0.4481  0.0108
    6bbb     H4  156   5.437   1.055   4.008  0.4275  0.8183 -1.1817
    6bbb     C3  157   5.252   1.112   3.859  0.1891  0.4419  0.5489
    6bbb     H5  158   5.314   1.196   3.826  0.7921  1.2729  3.4684
    6bbb     H6  159   5.224   1.117   3.964 -1.2176  0.2550  0.2048
    6bbb     C4  160   5.114   1.115   3.787  0.4856  0.4143  0.5910
    6bbb     H7  161   5.038   1.057   3.840 -0.0790  0.6787  0.0826
    6bbb     H8  162   5.114   1.068   3.687  1.8774 -0.6914  1.0810
    6bbb     C5  163   5.356   0.772   3.714  0.2009 -0.2734 -0.0213
    6bbb     H9  164   5.421   0.728   3.790 -0.1172 -3.0021 -1.2306
    6bbb    H10  165   5.398   0.734   3.620  0.0029 -0.0365 -0.2096
    6bbb     C6  166   5.574   1.118   3.853  0.6917 -0.6613  0.0590
    6bbb    H11  167   5.521   1.213   3.843  2.3701  0.3954  0.7715
    6bbb    H12  168   5.602   1.086   3.752 -0.0956  0.5364 -0.5580
    6bbb     C7  169   5.059   1.259   3.779 -0.5907  0.0988  0.0744
    6bbb    H13  170   5.071   1.303   3.879  2.4263 -0.0163 -0.1506
    6bbb    H14  171   4.955   1.261   3.743 -0.1176  0.3028 -1.3328
    6bbb     C8  172   5.709   1.139   3.946  0.5290 -0.4216  0.1567
    6bbb    H15  173   5.762   1.225   3.903  1.6544 -1.3411 -0.3249
    6bbb    H16  174   5.666   1.167   4.044 -3.0717 -0.4805 -1.2361
    6bbb     C9  175   5.215   0.707   3.736  0.5420 -0.0315  0.1174
    6bbb    H17  176   5.225   0.597   3.738  2.2655  0.1123  0.5079
    6bbb    H18  177   5.147   0.737   3.655  0.1082  0.6065  0.7052
    6bbb     O1  178   5.143   1.345   3.688  0.7202  0.1112  0.0060
    6bbb    H19  179   5.286   0.924   3.908  0.1574  1.9890  1.5214
    7bbb     N1  180   5.842   1.386   2.428  0.5403 -0.2362  0.1375
    7bbb     C1  181   5.797   1.481   2.315 -0.0523  0.4937  0.1067
    7bbb     H1  182   5.880   1.501   2.248  0.1354 -1.0826 -0.1682
    7bbb     H2  183   5.762   1.572   2.365 -1.8528 -1.8645  3.5344
    7bbb     C2  184   5.955   1.293   2.377 -0.2629 -0.8470  0.6270
    7bbb     H3  185   5.981   1.246   2.472  0.3563  0.1752  0.9891
    7bbb     H4  186   6.029   1.366   2.345 -1.9979 -0.1984 -2.2552
    7bbb     C3  187   5.888   1.467   2.545 -0.0496 -0.9175 -0.3204
    7bbb     H5  188   5.788   1.504   2.566 -1.0200 -1.0801 -3.9149
    7bbb     H6  189   5.949   1.545   2.499 -1.0527 -0.4351 -0.8547
    7bbb     C4  190   5.948   1.389   2.664 -0.6434 -0.1229 -0.0743
    7bbb     H7  191   5.973   1.450   2.751  0.6190  1.7034 -1.6309
    7bbb     H8  192   6.044   1.345   2.633 -0.8795  0.9250 -2.5772
    7bbb     C5  193   5.680   1.443   2.220  0.3300  0.4338 -0.3933
    7bbb     H9  194   5.602   1.401   2.285  0.2038 -0.4126 -1.0790
    7bbb    H10  195   5.717   1.371   2.146  0.5783 -0.3074  0.4339
    7bbb     C6  196   5.922   1.211   2.254  0.7380  0.0730  0.5249
    7bbb    H11  197   5.897   1.276   2.170 -1.3575 -0.1929  0.8870
    7bbb    H12  198   5.833   1.148   2.265 -0.1061  1.0383 -0.6531
    7bbb     C7  199   5.855   1.283   2.717  0.4357  0.5992  0.1433
    7bbb    H13  200   5.901   1.230   2.801  0.5313 -0.4060 -0.5203
    7bbb    H14  201   5.836   1.218   2.631  2.6279  1.2916 -0.9430
    7bbb     C8  202   6.039   1.119   2.215  0.5322 -0.7523  0.4701
    7bbb    H15  203   6.137   1.168   2.222  0.3185  0.3848 -2.9562
    7bbb    H16  204   6.034   1.037   2.287 -0.4008  0.9918  2.5193
    7bbb     C9  205   5.633   1.564   2.135 -0.0297 -0.0554  0.1367
    7bbb    H17  206   5.591   1.640   2.202 -2.4133 -1.3358  0.1771
    7bbb    H18  207   5.550   1.539   2.068  0.7470  0.4566 -1.0591
    7bbb     O1  208   5.740   1.353   2.764 -0.1517  0.4296 -0.2335
    7bbb    H19  209   5.766   1.322   2.456 -0.4544  0.5777 -0.6391
    8bbb     N1  210   4.939   1.671   2.025  0.8924 -0.5002  0.5763
    8bbb     C1  211   4.802   1.607   2.040 -0.0445  0.6829  0.0211
    8bbb     H1  212   4.755   1.641   2.132 -1.1241  2.4076 -1.1279
    8bbb     H2  213   4.811   1.499   2.052 -0.0237  0.5379 -1.1426
    8bbb     C2  214   4.930   1.818   2.058 -0.2040  0.3100  0.3865
    8bbb     H3  215   4.931   1.835   2.165 -1.5051 -0.1804  0.5070
    8bbb     H4  216   4.838   1.857   2.013  0.6089  0.4319 -1.2778
    8bbb     C3  217   5.034   1.601   2.122 -0.9639  0.3279 -0.2207
    8bbb     H5  218   5.003   1.614   2.226  0.5797 -0.4529  0.3549
    8bbb     H6  219   5.130   1.650   2.106  0.4172 -1.9949  0.6503
    8bbb     C4  220   5.054   1.448   2.082  0.2361 -0.1162 -0.1240
    8bbb     H7  221   5.033   1.443   1.974 -1.1393  1.6933  0.0111
    8bbb     H8  222   4.976   1.385   2.126  1.5780 -0.5031  1.8391
    8bbb     C5  223   4.723   1.622   1.911 -0.5273 -0.0105 -0.1349
    8bbb     H9  224   4.701   1.729   1.902  0.9809  0.5958  2.3087
    8bbb    H10  225   4.620   1.584   1.920  0.2078 -1.7524  1.7298
    8bbb     C6  226   5.044   1.903   1.998  0.0410 -0.3759  0.4636
    8bbb    H11  227   5.069   1.859   1.901  1.6296  1.1523  0.1338
    8bbb    H12  228   5.131   1.902   2.065 -0.7145  0.7481  1.4952
    8bbb     C7  229   5.187   1.383   2.114  0.3874  0.3645  0.4420
    8bbb    H13  230   5.257   1.395   2.030 -2.1024 -0.7987 -1.9693
    8bbb    H14  231   5.182   1.273   2.108  1.9072  0.1674  2.0456
    8bbb     C8  232   5.014   2.052   1.989  0.6491  0.4909 -0.0133
    8bbb    H15  233   4.957   2.072   2.081  1.0507  0.4114  0.2538
    8bbb    H16  234   5.114   2.097   1.982  0.5407  1.1064  1.9307
    8bbb     C9  235   4.798   1.558   1.789  0.3686 -0.3725  0.5385
    8bbb    H17  236   4.732   1.563   1.702  0.2080 -0.9006  0.6252
    8bbb    H18  237   4.812   1.450   1.806  1.1381 -0.7034 -1.9121
    8bbb     O1  238   5.228   1.418   2.254 -0.1926  0.2995  0.0277
    8bbb    H19  239   4.968   1.655   1.927  0.1801 -0.1767  0.3059
    9bbb     N1  240   4.456   2.990   2.777 -0.4326 -0.3883 -0.4844
    9bbb     C1  241   4.583   2.997   2.866  0.3118  0.2535 -0.1796
    9bbb     H1  242   4.666   3.047   2.815 -0.3344  0.7085 -0.8027
    9bbb     H2  243   4.615   2.892   2.870 -0.4848 -0.1013 -1.9175
    9bbb     C2  244   4.435   3.129   2.723 -0.1510 -0.5419  0.7050
    9bbb     H3  245   4.536   3.158   2.694 -0.1699 -2.2952 -1.4134
    9bbb     H4  246   4.410   3.194   2.807 -0.3364  1.0584 -0.5351
    9bbb     C3  247   4.487   2.889   2.663 -0.5069 -0.4681  0.0750
    9bbb     H5  248   4.575   2.923   2.608  1.2295 -4.6152 -0.0975
    9bbb     H6  249   4.404   2.895   2.592  0.7772  2.1622 -1.3545
    9bbb     C4  250   4.498   2.735   2.706  0.0413 -0.7773  0.2320
    9bbb     H7  251   4.398   2.698   2.731 -0.6854  0.2712 -1.0105
    9bbb     H8  252   4.563   2.716   2.793 -0.6966 -0.8251  0.7854
    9bbb     C5  253   4.550   3.030   3.014  0.0896  0.2576  0.2059
    9bbb     H9  254   4.456   2.983   3.044  0.4802 -0.4998  0.2620
    9bbb    H10  255   4.527   3.137   3.015  0.0512  0.2485  0.3133
    9bbb     C6  256   4.324   3.140   2.617  0.2256 -0.7237 -0.4590
    9bbb    H11  257   4.344   3.076   2.530  1.1916 -1.6362  0.4075
    9bbb    H12  258   4.310   3.244   2.583  0.1388 -0.9068 -0.9959
    9bbb     C7  259   4.545   2.668   2.578 -0.2161  0.2789  0.3780
    9bbb    H13  260   4.652   2.672   2.557 -0.0045 -1.8066  0.8642
    9bbb    H14  261   4.492   2.709   2.491  1.3806 -0.2379 -0.8825
    9bbb     C8  262   4.184   3.097   2.669 -1.0207  0.0942 -0.0292
    9bbb    H15  263   4.100   3.114   2.601 -2.5363  0.8956  1.9389
    9bbb    H16  264   4.204   2.989   2.672  0.9624  0.3346 -1.8699
    9bbb     C9  265   4.666   3.006   3.110  0.9139 -0.3985 -0.4645
    9bbb    H17  266   4.665   2.899   3.138  1.5372 -0.5513 -1.0096
    9bbb    H18  267   4.646   3.059   3.204 -1.6359 -0.0131 -1.1362
    9bbb     O1  268   4.515   2.527   2.588  0.1729 -0.2705  0.1120
    9bbb    H19  269   4.371   2.964   2.830  1.5360  0.3380  3.3241
   10bbb     N1  270   3.827   1.588   2.666 -0.7214  0.3722  0.4360
   10bbb     C1  271   3.891   1.490   2.762 -0.3622 -0.2917 -0.2640
   10bbb     H1  272   3.816   1.471   2.839 -2.2761 -2.5375 -2.4908
   10bbb     H2  273   3.975   1.538   2.811  0.1316 -0.2518 -1.1405
   10bbb     C2  274   3.753   1.691   2.757 -0.2214  0.1578  0.1696
   10bbb     H3  275   3.818   1.778   2.763  1.0561 -0.4867 -2.7605
   10bbb     H4  276   3.737   1.648   2.856  1.6363 -1.3525 -0.1353
   10bbb     C3  277   3.937   1.641   2.578  0.5881 -0.5824 -1.0308
   10bbb     H5  278   3.992   1.557   2.537  2.0092  0.3767 -1.1634
   10bbb     H6  279   4.003   1.697   2.644 -0.2517 -1.8073  0.9514
   10bbb     C4  280   3.886   1.729   2.456 -0.5026 -0.5424 -0.0727
   10bbb     H7  281   3.786   1.774   2.469 -0.3404 -0.4885  1.0975
   10bbb     H8  282   3.884   1.658   2.372 -2.9520  0.4006 -0.9073
   10bbb     C5  283   3.935   1.362   2.690 -0.2240 -0.2875 -0.2961
   10bbb     H9  284   4.034   1.377   2.647 -0.0057 -0.6965  0.0476
   10bbb    H10  285   3.867   1.351   2.605  1.6425 -1.1223 -1.7422
   10bbb     C6  286   3.615   1.741   2.712 -0.0166 -0.4220  0.2741
   10bbb    H11  287   3.559   1.661   2.661 -1.2437  1.6033 -1.7242
   10bbb    H12  288   3.624   1.822   2.639  0.7262 -0.6071  0.1524
   10bbb     C7  289   3.992   1.830   2.420 -0.2226 -0.4976 -0.7702
   10bbb    H13  290   3.951   1.887   2.336 -0.3512  0.6009  0.0310
   10bbb    H14  291   4.089   1.787   2.391  0.5563 -0.3485  1.4780
   10bbb     C8  292   3.537   1.805   2.828  0.0861 -0.1102 -0.1351
   10bbb    H15  293   3.545   1.731   2.909 -0.3617 -0.0563 -0.0344
   10bbb    H16  294   3.574   1.901   2.866  2.1930 -0.9760  0.0894
   10bbb     C9  295   3.935   1.238   2.778  0.1213 -0.2310 -0.1011
   10bbb    H17  296   4.032   1.239   2.829 -0.6662  2.6919  1.5530
   10bbb    H18  297   3.920   1.150   2.714  2.5935  0.8318 -2.3389
   10bbb     O1  298   4.017   1.925   2.537  0.8804 -0.7641  0.0858
   10bbb    H19  299   3.755   1.542   2.609  0.1844  1.0991 -1.3553
   11bbb     N1  300   5.584   2.344   4.966 -0.6324 -0.3868  0.1770
   11bbb     C1  301   5.496   2.459   4.923 -0.9315 -0.0634  0.5035
   11bbb     H1  302   5.524   2.487   4.821 -2.9396 -1.4422 -0.4947
   11bbb     H2  303   5.513   2.543   4.991 -2.0050  1.1548 -0.6820
   11bbb     C2  304   5.572   2.310   5.115 -0.0821 -0.0123 -0.1834
   11bbb     H3  305   5.474   2.267   5.133 -0.0771 -0.4748 -1.2040
   11bbb     H4  306   5.571   2.404   5.170  0.6106 -0.2622  0.2729
   11bbb     C3  307   5.549   2.219   4.892 -0.0167 -0.0104  0.0961
   11bbb     H5  308   5.446   2.195   4.918 -0.5755  2.2476  0.1855
   11bbb     H6  309   5.618   2.139   4.918 -1.5491 -1.5079 -0.1927
   11bbb     C4  310   5.559   2.241   4.735 -0.0652 -0.1165 -0.2602
   11bbb     H7  311   5.665   2.255   4.710  0.0772  0.6854  0.7457
   11bbb     H8  312   5.499   2.329   4.709  1.0988  0.1739 -2.2247
   11bbb     C5  313   5.344   2.441   4.935  1.3522 -0.2859 -0.6827
   11bbb     H9  314   5.320   2.403   5.035  1.1352  3.3982  0.8071
   11bbb    H10  315   5.303   2.374   4.858 -2.4789  0.8303  0.1696
   11bbb     C6  316   5.672   2.222   5.184 -0.4870 -0.7957  0.2497
   11bbb    H11  317   5.659   2.116   5.160 -2.1046 -0.1986 -1.7784
   11bbb    H12  318   5.659   2.233   5.292  0.1282 -2.6161  0.5537
   11bbb     C7  319   5.515   2.120   4.648  0.2651  0.4047  0.0495
   11bbb    H13  320   5.585   2.036   4.657  1.6719  1.7424  3.2841
   11bbb    H14  321   5.523   2.156   4.544 -0.0761  0.1359 -0.0697
   11bbb     C8  322   5.823   2.257   5.146  0.4981 -0.4486  0.4108
   11bbb    H15  323   5.842   2.251   5.038  1.6134  0.6788  0.5136
   11bbb    H16  324   5.843   2.360   5.178  0.5355 -0.4906  0.5237
   11bbb     C9  325   5.267   2.570   4.915  0.9285  0.6258  0.0199
   11bbb    H17  326   5.160   2.545   4.914  0.4516  2.4528  0.9486
   11bbb    H18  327   5.285   2.613   4.816 -3.1040  1.0549 -0.7025
   11bbb     O1  328   5.373   2.081   4.682 -0.4743  0.3252  0.2203
   11bbb    H19  329   5.685   2.366   4.956 -0.2501 -1.1306  1.9865
   12bbb     N1  330   4.588   1.640   4.676  0.2382  0.3545 -0.9818
   12bbb     C1  331   4.654   1.595   4.808  0.2951  0.0082 -0.0371
   12bbb     H1  332   4.581   1.621   4.885  0.7303  0.4512  0.2336
   12bbb     H2  333   4.738   1.662   4.829  0.7251  0.2420 -2.2489
   12bbb     C2  334   4.565   1.792   4.688  0.2531 -0.0269  0.3933
   12bbb     H3  335   4.647   1.842   4.637  1.6053 -0.0504  2.4478
   12bbb     H4  336   4.559   1.815   4.795 -1.1874 -0.1210  0.3604
   12bbb     C3  337   4.683   1.614   4.563 -0.5215  0.3956 -0.5160
   12bbb     H5  338   4.766   1.563   4.612 -0.8644 -0.6444 -1.0095
   12bbb     H6  339   4.732   1.706   4.531  2.9326 -0.4509  1.7060
   12bbb     C4  340   4.645   1.517   4.452 -0.3739 -0.0692  0.8315
   12bbb     H7  341   4.561   1.569   4.404  0.7421  2.2864  1.2800
   12bbb     H8  342   4.610   1.422   4.496  0.1808 -2.0790 -2.6883
   12bbb     C5  343   4.712   1.448   4.822  0.2568  0.1643  0.1034
   12bbb     H9  344   4.795   1.437   4.751  1.1246 -1.2349  1.2911
   12bbb    H10  345   4.649   1.362   4.795 -0.5799  0.4560  1.0561
   12bbb     C6  346   4.441   1.852   4.622  0.3885  0.2257  0.4891
   12bbb    H11  347   4.377   1.772   4.582  0.0904  0.9919 -0.6209
   12bbb    H12  348   4.475   1.903   4.531 -0.0500 -1.7040 -0.8237
   12bbb     C7  349   4.766   1.482   4.359 -0.7387  0.3486  0.7856
   12bbb    H13  350   4.731   1.418   4.278 -0.4410  0.3670  0.6413
   12bbb    H14  351   4.845   1.425   4.408  0.4547  2.0812  0.9733
   12bbb     C8  352   4.355   1.940   4.715 -0.6977  0.4259  0.1738
   12bbb    H15  353   4.249   1.947   4.686 -0.9851  0.0527  1.1075
   12bbb    H16  354   4.344   1.887   4.810  0.3675  0.3909  0.2895
   12bbb     C9  355   4.758   1.440   4.967  0.1633  0.1494  0.1404
   12bbb    H17  356   4.815   1.532   4.984 -0.2637  0.5248 -0.4024
   12bbb    H18  357   4.820   1.352   4.987 -1.2269 -0.8467  0.2221
   12bbb     O1  358   4.830   1.600   4.309 -0.3874 -0.5740 -0.0922
   12bbb    H19  359   4.499   1.590   4.663  0.4352 -0.3427  0.2192
   13bbb     N1  360   6.011   0.631   3.918 -0.2279 -0.2206 -0.1329
   13bbb     C1  361   5.882   0.553   3.905  0.1339 -0.3805  0.0941
   13bbb     H1  362   5.813   0.608   3.842 -0.4163  0.3311  1.2775
   13bbb     H2  363   5.842   0.562   4.007 -2.2988 -3.6490 -0.3827
   13bbb     C2  364   6.108   0.593   3.804  0.3012  0.2976 -0.3303
   13bbb     H3  365   6.061   0.616   3.708 -3.0029  0.0789  1.0902
   13bbb     H4  366   6.118   0.485   3.814 -1.4889  0.0734 -0.5898
   13bbb     C3  367   5.981   0.780   3.920  0.3523  0.0894  0.0774
   13bbb     H5  368   5.924   0.806   3.831  1.2232 -0.2316 -0.5809
   13bbb     H6  369   6.079   0.828   3.919  0.0655  0.6963  0.3049
   13bbb     C4  370   5.909   0.840   4.047 -0.2446 -0.4591 -0.7177
   13bbb     H7  371   5.966   0.827   4.140  1.3813  2.9644 -1.0547
   13bbb     H8  372   5.811   0.791   4.059 -0.6690  0.5953  0.4036
   13bbb     C5  373   5.886   0.403   3.879  0.4974  0.1900 -0.1590
   13bbb     H9  374   5.942   0.351   3.958  0.1822 -0.1605 -0.1633
   13bbb    H10  375   5.934   0.369   3.787 -1.7323  1.5551 -1.9339
   13bbb     C6  376   6.242   0.662   3.814  0.4399  0.3260 -0.0780
   13bbb    H11  377   6.283   0.659   3.916  1.9912  0.9154 -0.6566
   13bbb    H12  378   6.246   0.767   3.783  0.7086  0.5748  0.7799
   13bbb     C7  379   5.890   0.993   4.026 -0.6570 -0.3349 -0.8093
   13bbb    H13  380   5.983   1.040   3.993 -0.2913 -0.4810 -0.0094
   13bbb    H14  381   5.867   1.036   4.124 -0.3343  0.8323 -1.2252
   13bbb     C8  382   6.346   0.587   3.724  0.5502  1.1993  0.3332
   13bbb    H15  383   6.440   0.644   3.722  0.8713  0.6829  0.4720
   13bbb    H16  384   6.375   0.489   3.765  2.1402  0.9969 -1.1484
   13bbb     C9  385   5.744   0.341   3.889  0.4737  0.2804  0.3292
   13bbb    H17  386   5.730   0.266   3.811  1.1379 -0.3153  0.7654
   13bbb    H18  387   5.673   0.423   3.871  1.2520  1.2310  1.4318
   13bbb     O1  388   5.785   1.013   3.933  0.3802  0.5579 -0.5719
   13bbb    H19  389   6.059   0.611   4.007  0.9748  0.8443 -0.5181
   14bbb     N1  390   4.731   0.654   4.044 -0.4028  0.2440 -0.4770
   14bbb     C1  391   4.750   0.616   4.191  0.1891  0.2774  0.8894
   14bbb     H1  392   4.658   0.561   4.208  0.4572  0.1336  1.9339
   14bbb     H2  393   4.756   0.705   4.255  1.3689  0.8530  0.0176
   14bbb     C2  394   4.585   0.672   4.021  0.5588  0.3856 -0.1598
   14bbb     H3  395   4.549   0.732   4.105 -0.4456  0.1003 -0.3643
   14bbb     H4  396   4.537   0.575   4.036  1.1813  0.2447  1.0093
   14bbb     C3  397   4.803   0.780   4.013  0.0368 -0.0239  0.5509
   14bbb     H5  398   4.756   0.858   4.074 -2.2854 -1.6973  1.0378
   14bbb     H6  399   4.766   0.789   3.911 -0.4164 -1.5846  0.5531
   14bbb     C4  400   4.956   0.794   4.019 -0.4810 -0.6582 -0.0474
   14bbb     H7  401   5.007   0.739   4.099  0.3331 -1.2242 -0.9232
   14bbb     H8  402   4.980   0.901   4.030  1.1766 -0.8997 -0.9239
   14bbb     C5  403   4.861   0.514   4.229  0.0923  0.4950  0.0742
   14bbb     H9  404   4.960   0.560   4.246 -0.2102  1.4672 -0.7242
   14bbb    H10  405   4.874   0.429   4.162  1.4608  1.5879 -1.1182
   14bbb     C6  406   4.533   0.737   3.886  0.3591 -0.6167 -0.5466
   14bbb    H11  407   4.576   0.837   3.875 -0.5632 -0.1870 -0.3005
   14bbb    H12  408   4.426   0.759   3.891  1.0677  3.2587  0.7638
   14bbb     C7  409   5.015   0.742   3.879  0.1175  0.1215  0.2565
   14bbb    H13  410   4.982   0.807   3.796  2.8832  1.2960 -0.0495
   14bbb    H14  411   4.977   0.643   3.853 -1.6679  0.5546  1.0477
   14bbb     C8  412   4.560   0.649   3.764  0.5434 -0.7944  0.2966
   14bbb    H15  413   4.522   0.701   3.675  0.9476  0.9701  1.1048
   14bbb    H16  414   4.669   0.636   3.759  0.7526  0.7293  0.2945
   14bbb     C9  415   4.821   0.452   4.358 -0.3815 -1.1037 -0.5110
   14bbb    H17  416   4.779   0.532   4.421  2.6197  1.0335 -1.0324
   14bbb    H18  417   4.917   0.420   4.401  0.9147  1.4221 -1.3517
   14bbb     O1  418   5.157   0.754   3.867  0.3530  0.1413  0.0930
   14bbb    H19  419   4.758   0.570   3.990 -0.2164  0.5724 -0.8965
   15bbb     N1  420   6.096   0.881   1.872 -0.2788  0.0872 -0.2852
   15bbb     C1  421   5.960   0.825   1.888  0.2201  0.1009  0.1510
   15bbb     H1  422   5.909   0.894   1.955 -1.6046  0.0923 -1.1398
   15bbb     H2  423   5.966   0.730   1.940  0.3498  0.6802  1.2225
   15bbb     C2  424   6.189   0.779   1.805  0.1782 -0.2273  0.1090
   15bbb     H3  425   6.281   0.824   1.767  0.2885 -1.1182 -0.7146
   15bbb     H4  426   6.141   0.737   1.716 -0.0508 -2.2514  1.1479
   15bbb     C3  427   6.085   1.008   1.785 -0.4201 -0.0954 -0.2174
   15bbb     H5  428   6.038   0.985   1.689 -2.1295  0.2715  0.4915
   15bbb     H6  429   6.186   1.038   1.758 -0.6124 -0.7005 -1.7662
   15bbb     C4  430   6.001   1.123   1.841  0.0003  0.2248 -1.2042
   15bbb     H7  431   5.896   1.091   1.851 -0.3556  1.1575 -1.7809
   15bbb     H8  432   5.985   1.209   1.774  0.3509  0.2290 -1.2828
   15bbb     C5  433   5.872   0.798   1.761  0.0177  0.6952  0.1226
   15bbb     H9  434   5.919   0.727   1.692 -0.6637 -0.5731  0.9246
   15bbb    H10  435   5.856   0.897   1.715 -1.1070  0.4154 -0.1217
   15bbb     C6  436   6.222   0.652   1.881  0.6028 -0.4846  0.4281
   15bbb    H11  437   6.126   0.616   1.920 -2.2106  1.7228 -3.7378
   15bbb    H12  438   6.279   0.685   1.969 -0.5650  0.2386  0.9370
   15bbb     C7  439   6.056   1.169   1.973 -0.2171 -0.0066 -0.3866
   15bbb    H13  440   6.022   1.272   1.990  1.9021  0.3153  2.7252
   15bbb    H14  441   6.165   1.176   1.967 -0.0603 -0.8738  1.0040
   15bbb     C8  442   6.306   0.552   1.795 -0.1870 -0.4171 -0.2329
   15bbb    H15  443   6.326   0.457   1.846  0.8212 -0.7735 -1.2382
   15bbb    H16  444   6.257   0.525   1.701  2.0572 -3.5360 -0.6757
   15bbb     C9  445   5.739   0.734   1.806 -0.3433  0.1271 -0.1013
   15bbb    H17  446   5.693   0.794   1.886 -1.3847 -0.2901 -0.3719
   15bbb    H18  447   5.759   0.627   1.823 -0.6600 -0.1681 -1.4876
   15bbb     O1  448   6.015   1.071   2.080  0.0465 -0.1955 -0.9779
   15bbb    H19  449   6.139   0.911   1.961  3.1407  0.2551 -1.8393
   16bbb     N1  450   6.066   1.902   1.991  0.1798 -0.1503  0.0190
   16bbb     C1  451   6.041   2.046   1.961  0.1016 -0.4385 -0.0683
   16bbb     H1  452   6.005   2.091   2.053  0.0031 -2.9324  1.1793
   16bbb     H2  453   5.957   2.049   1.892 -1.4145  1.0098  1.7352
   16bbb     C2  454   6.187   1.891   2.089 -0.5503 -0.4189 -0.6455
   16bbb     H3  455   6.274   1.924   2.031  0.2074 -2.4591 -0.7744
   16bbb     H4  456   6.209   1.787   2.113  1.0315  0.6713  3.4661
   16bbb     C3  457   5.937   1.845   2.054 -0.1753  0.4341 -0.8397
   16bbb     H5  458   5.893   1.916   2.124 -1.1883 -0.9157 -0.0753
   16bbb     H6  459   5.960   1.761   2.118  1.5401  2.4375  1.3676
   16bbb     C4  460   5.828   1.801   1.946  0.4377  0.3515 -0.2422
   16bbb     H7  461   5.858   1.731   1.868 -1.3046 -0.8738  0.1394
   16bbb     H8  462   5.798   1.893   1.894 -0.0446 -0.4220 -1.3490
   16bbb     C5  463   6.162   2.118   1.891 -0.1764 -0.1734  0.0270
   16bbb     H9  464   6.173   2.069   1.793 -0.6249  2.4468 -1.4449
   16bbb    H10  465   6.255   2.110   1.949  0.1424 -0.8861 -0.5674
   16bbb     C6  466   6.185   1.962   2.221 -0.4834  0.0022 -0.2118
   16bbb    H11  467   6.084   1.949   2.263 -0.9782  0.7015 -1.1351
   16bbb    H12  468   6.201   2.069   2.203 -3.0258  0.3781 -0.6736
   16bbb     C7  469   5.707   1.736   2.002  0.1344 -0.8895 -0.2242
   16bbb    H13  470   5.631   1.732   1.923  1.5501 -2.8822 -1.5911
   16bbb    H14  471   5.676   1.804   2.082 -0.3408 -1.8515  0.4230
   16bbb     C8  472   6.287   1.911   2.322 -0.0301 -0.2482 -0.0887
   16bbb    H15  473   6.270   1.980   2.406  1.9979  1.0253 -0.6682
   16bbb    H16  474   6.267   1.805   2.343  2.7548 -1.4081 -2.6613
   16bbb     C9  475   6.133   2.269   1.872 -0.6721 -0.4526 -0.0361
   16bbb    H17  476   6.055   2.296   1.800  0.5335  1.9616 -0.5523
   16bbb    H18  477   6.219   2.329   1.840 -0.2337 -0.0002  1.8355
   16bbb     O1  478   5.746   1.616   2.065 -0.0330  0.0201 -0.1860
   16bbb    H19  479   6.085   1.851   1.903  1.0515 -3.4477  1.9373
   17bbb     N1  480   4.667   2.339   1.559  0.2472  0.2044  0.3259
   17bbb     C1  481   4.560   2.450   1.553 -0.5611  0.0198 -0.0213
   17bbb     H1  482   4.491   2.444   1.637 -0.9126  3.2390  0.0550
   17bbb     H2  483   4.499   2.432   1.465 -3.0208  0.5456  1.4971
   17bbb     C2  484   4.747   2.344   1.432  0.1096  0.5899 -0.0267
   17bbb     H3  485   4.837   2.286   1.451  1.2198  2.0299 -0.6222
   17bbb     H4  486   4.795   2.443   1.429 -0.4829  0.9519  1.6251
   17bbb     C3  487   4.755   2.346   1.683  0.2247 -0.3197  0.3438
   17bbb     H5  488   4.693   2.390   1.761  1.2493 -1.0742  1.6337
   17bbb     H6  489   4.838   2.413   1.664  0.1175 -0.7015 -1.7438
   17bbb     C4  490   4.802   2.200   1.724  0.2490 -0.4660  0.2015
   17bbb     H7  491   4.865   2.157   1.646 -0.7666 -1.3357 -0.1602
   17bbb     H8  492   4.707   2.146   1.733  1.1006 -2.3539 -1.5409
   17bbb     C5  493   4.614   2.592   1.540 -0.2510 -0.2319 -0.4563
   17bbb     H9  494   4.661   2.608   1.443  1.5980 -0.8695  0.2824
   17bbb    H10  495   4.675   2.627   1.624 -1.3186 -1.3177  0.8308
   17bbb     C6  496   4.674   2.297   1.295  0.1769 -0.0741  0.2045
   17bbb    H11  497   4.589   2.360   1.267  1.3542  1.0992 -0.8144
   17bbb    H12  498   4.614   2.205   1.307 -1.6047  0.6622 -2.2956
   17bbb     C7  499   4.892   2.208   1.851  0.0537  0.3009  0.1066
   17bbb    H13  500   4.829   2.239   1.936  0.9203  0.0458  0.8671
   17bbb    H14  501   4.981   2.271   1.847  1.9915 -2.3025 -0.4312
   17bbb     C8  502   4.762   2.293   1.168  0.2935  0.1594  0.3076
   17bbb    H15  503   4.848   2.226   1.185  1.4304  1.5645  0.2925
   17bbb    H16  504   4.704   2.239   1.092 -0.2044 -0.3251  1.0158
   17bbb     C9  505   4.487   2.685   1.556 -0.0073  0.5135  0.6859
   17bbb    H17  506   4.428   2.653   1.643  0.1849  1.0709  1.0295
   17bbb    H18  507   4.428   2.671   1.465  0.9774 -0.6973  0.2000
   17bbb     O1  508   4.932   2.069   1.872  0.5200  0.3667 -0.5175
   17bbb    H19  509   4.614   2.251   1.557 -0.2539  0.5126 -0.7224
   18bbb     N1  510   5.066   1.728   1.377 -0.1389 -0.4370  0.1369
   18bbb     C1  511   5.067   1.867   1.319  0.4990 -0.6706 -0.0767
   18bbb     H1  512   5.039   1.861   1.214  0.3947 -1.5404 -0.0072
   18bbb     H2  513   5.172   1.898   1.321  0.4911 -0.5570  2.5810
   18bbb     C2  514   5.159   1.646   1.293  0.0205 -0.2425  0.4789
   18bbb     H3  515   5.188   1.560   1.354 -0.4705  0.9650  2.5049
   18bbb     H4  516   5.251   1.702   1.280  0.2432 -0.9609 -1.3734
   18bbb     C3  517   5.123   1.746   1.519  0.8514  0.4221  0.4587
   18bbb     H5  518   5.076   1.832   1.567 -0.1402  0.2591 -0.1790
   18bbb     H6  519   5.230   1.763   1.510  0.6954  0.9458 -0.5600
   18bbb     C4  520   5.131   1.619   1.615  0.4379 -0.3887  0.3857
   18bbb     H7  521   5.183   1.648   1.707  0.4381  1.6185 -0.1835
   18bbb     H8  522   5.197   1.552   1.558  0.1339  0.7669 -1.4172
   18bbb     C5  523   4.972   1.974   1.382  0.4751 -0.3997  0.0678
   18bbb     H9  524   4.986   2.067   1.325 -1.4423 -1.4879 -2.3804
   18bbb    H10  525   5.002   1.994   1.486 -1.8314 -0.9585  0.9009
   18bbb     C6  526   5.101   1.601   1.151 -0.6145 -0.1001  0.6100
   18bbb    H11  527   5.047   1.685   1.105  0.5336  0.5342  0.3595
   18bbb    H12  528   5.029   1.520   1.165 -0.6398 -0.0235  0.9278
   18bbb     C7  529   4.999   1.550   1.649  0.3269 -0.1491 -0.2834
   18bbb    H13  530   5.040   1.458   1.693  2.5142  0.9426  0.0794
   18bbb    H14  531   4.943   1.537   1.556 -0.2546 -2.0838  0.2821
   18bbb     C8  532   5.215   1.556   1.059 -0.4258 -0.0567 -0.0162
   18bbb    H15  533   5.173   1.532   0.960  1.1507 -0.5196 -0.5960
   18bbb    H16  534   5.290   1.636   1.058  0.7354 -0.9782  3.0580
   18bbb     C9  535   4.825   1.946   1.391  0.2295  0.3680  0.3276
   18bbb    H17  536   4.777   2.016   1.461 -1.5994 -1.4646  1.0331
   18bbb    H18  537   4.807   1.850   1.441  1.9781  0.5413  1.3391
   18bbb     O1  538   4.919   1.621   1.751 -0.1054  0.0615  0.8380
   18bbb    H19  539   4.968   1.697   1.376 -0.8709  1.5912 -2.1804
   19bbb     N1  540   4.116   3.583   2.939 -0.7289  0.1961 -0.5790
   19bbb     C1  541   4.138   3.700   3.039 -0.6876  0.3452  0.1943
   19bbb     H1  542   4.137   3.801   2.999  2.6119  0.3249 -0.2719
   19bbb     H2  543   4.235   3.679   3.086 -1.0377 -0.5139  0.5573
   19bbb     C2  544   4.154   3.636   2.801 -0.3855  0.1820 -0.4134
   19bbb     H3  545   4.182   3.554   2.735 -1.6284 -0.1848 -0.5010
   19bbb     H4  546   4.237   3.706   2.813  1.5107 -2.0906  0.4692
   19bbb     C3  547   4.209   3.474   2.969 -0.5691 -0.0700 -0.0513
   19bbb     H5  548   4.228   3.475   3.076  0.5477  1.4298 -0.2341
   19bbb     H6  549   4.304   3.495   2.920 -1.5285  0.5023 -1.7420
   19bbb     C4  550   4.154   3.333   2.942 -0.4260 -0.7564  0.5741
   19bbb     H7  551   4.058   3.312   2.990 -0.2866 -0.8199  0.8322
   19bbb     H8  552   4.227   3.268   2.993  0.7102  0.0463  0.0127
   19bbb     C5  553   4.048   3.701   3.162 -0.0949 -0.2239 -0.4208
   19bbb     H9  554   4.100   3.752   3.245  1.0067 -1.4312 -0.3343
   19bbb    H10  555   4.026   3.605   3.211  1.7530 -1.5987 -2.1279
   19bbb     C6  556   4.039   3.715   2.740 -0.4962  0.2343  0.3108
   19bbb    H11  557   4.008   3.799   2.804  0.4142  0.6519  0.2253
   19bbb    H12  558   3.950   3.651   2.737 -0.0042 -0.4525  0.0606
   19bbb     C7  559   4.145   3.293   2.797 -0.1479  0.3121 -0.5863
   19bbb    H13  560   4.222   3.348   2.743  0.3858 -0.7358 -0.9033
   19bbb    H14  561   4.045   3.309   2.756 -0.5437 -0.4622  0.0481
   19bbb     C8  562   4.080   3.772   2.605  0.2440  0.3101 -0.1135
   19bbb    H15  563   4.155   3.703   2.567  0.6778  0.4782  0.4168
   19bbb    H16  564   3.992   3.760   2.541 -2.0484 -3.1680  3.2488
   19bbb     C9  565   3.907   3.755   3.121  0.4400  0.3075  0.5188
   19bbb    H17  566   3.846   3.759   3.213 -1.5913  0.6257 -0.7734
   19bbb    H18  567   3.845   3.686   3.062  1.1408  0.5033 -0.4648
   19bbb     O1  568   4.172   3.151   2.797 -0.5066 -0.2943 -0.0788
   19bbb    H19  569   4.018   3.551   2.933 -0.1591 -1.5913 -1.0512
   20bbb     N1  570   5.202   3.161   2.944  0.5141 -0.7378  0.9337
   20bbb     C1  571   5.239   3.311   2.955  0.0268 -0.1894 -0.7516
   20bbb     H1  572   5.320   3.329   2.884  0.0265 -0.4016 -0.8052
   20bbb     H2  573   5.279   3.322   3.056  2.9067 -2.1259 -1.5531
   20bbb     C2  574   5.312   3.054   2.962 -0.0325 -0.8078  0.5271
   20bbb     H3  575   5.270   2.954   2.956 -3.1466  0.4873 -1.9238
   20bbb     H4  576   5.357   3.076   3.059 -1.1969 -0.4496  0.9930
   20bbb     C3  577   5.084   3.128   3.042  0.4412  0.3356 -0.0065
   20bbb     H5  578   5.003   3.199   3.023  1.4844  1.0612 -2.0400
   20bbb     H6  579   5.122   3.147   3.142  1.4048 -0.6901 -0.1629
   20bbb     C4  580   5.038   2.982   3.036  0.1013 -0.2244 -0.3343
   20bbb     H7  581   5.113   2.915   3.077  0.8989  0.7058 -0.2316
   20bbb     H8  582   5.014   2.957   2.932 -0.6107  0.1826 -0.2786
   20bbb     C5  583   5.125   3.410   2.922  0.3220  0.0842 -0.5093
   20bbb     H9  584   5.045   3.387   2.993 -1.2707 -0.5405 -2.4508
   20bbb    H10  585   5.091   3.388   2.821 -0.4163  1.2026 -0.5124
   20bbb     C6  586   5.433   3.051   2.859 -0.3113  0.7107  0.7568
   20bbb    H11  587   5.489   3.146   2.864 -0.6792  0.9979 -0.2583
   20bbb    H12  588   5.400   3.034   2.756 -0.0183 -0.2562  0.8137
   20bbb     C7  589   4.909   2.958   3.118  0.2859  0.8242  0.1668
   20bbb    H13  590   4.929   2.984   3.223  2.4280 -1.2182  0.3546
   20bbb    H14  591   4.897   2.849   3.107  2.4625  0.6093 -0.6788
   20bbb     C8  592   5.526   2.939   2.901 -0.1636  0.1388  0.0392
   20bbb    H15  593   5.618   2.940   2.841 -1.8184 -2.4102 -2.8343
   20bbb    H16  594   5.543   2.947   3.009  1.3921  0.0015 -0.1808
   20bbb     C9  595   5.160   3.558   2.924  0.3361 -0.8272  0.0243
   20bbb    H17  596   5.199   3.585   3.022  2.9822 -0.8632 -0.9356
   20bbb    H18  597   5.071   3.616   2.897  1.6374  1.8048  1.1103
   20bbb     O1  598   4.798   3.026   3.051 -0.2281  0.2036 -0.2430
   20bbb    H19  599   5.167   3.147   2.848  0.5117  1.1875  0.5993
   21bbb     N1  600   3.042   2.004   2.619  0.2388 -0.3435  0.0140
   21bbb     C1  601   3.023   1.867   2.571 -0.3105  0.2723  0.5061
   21bbb     H1  602   2.995   1.800   2.652 -1.4606  1.7132  1.3474
   21bbb     H2  603   3.125   1.838   2.543 -1.0272 -1.0344 -0.9181
   21bbb     C2  604   2.922   2.046   2.704  0.3145  0.4876 -0.1891
   21bbb     H3  605   2.940   1.993   2.798 -0.2262 -0.7621 -0.7739
   21bbb     H4  606   2.830   2.006   2.660  1.6246  0.6203 -3.3118
   21bbb     C3  607   3.171   2.011   2.699  0.4134  0.0216  0.6455
   21bbb     H5  608   3.179   2.114   2.735  2.9631  0.1861 -0.1772
   21bbb     H6  609   3.262   2.000   2.640  0.6953  0.4675  0.9871
   21bbb     C4  610   3.181   1.919   2.824  0.4243  1.4428 -0.2393
   21bbb     H7  611   3.144   1.817   2.810  0.7578  1.1228  1.0570
   21bbb     H8  612   3.120   1.957   2.908  1.5685 -0.0165  1.3197
   21bbb     C5  613   2.943   1.860   2.441 -0.2915  0.5123  0.4227
   21bbb     H9  614   2.999   1.913   2.363  0.7117  0.0149  0.7852
   21bbb    H10  615   2.839   1.895   2.449 -0.1564  1.6260 -1.8474
   21bbb     C6  616   2.911   2.196   2.730  0.2203 -0.5438  0.1201
   21bbb    H11  617   2.904   2.259   2.640  1.1683  1.9952  1.7365
   21bbb    H12  618   3.010   2.222   2.769  1.1416 -2.2061 -0.9784
   21bbb     C7  619   3.324   1.913   2.877  0.2948  0.5229  0.4076
   21bbb    H13  620   3.323   1.865   2.976 -0.1396 -3.8767 -1.5069
   21bbb    H14  621   3.369   2.013   2.874 -0.7386  0.9859 -0.4287
   21bbb     C8  622   2.798   2.247   2.822  0.8447  0.3529  0.3320
   21bbb    H15  623   2.800   2.184   2.913 -0.5940  0.2656  0.3152
   21bbb    H16  624   2.815   2.352   2.850  0.2702 -0.1416  2.7689
   21bbb     C9  625   2.926   1.711   2.391 -0.0269 -0.6487 -0.5511
   21bbb    H17  626   2.843   1.711   2.319 -0.6780  0.1700  0.1893
   21bbb    H18  627   2.891   1.654   2.477 -2.8366  3.0202  0.9679
   21bbb     O1  628   3.403   1.830   2.778 -0.0794 -0.1905 -0.6981
   21bbb    H19  629   3.051   2.065   2.536 -3.0073  2.9159  1.7261
   22bbb     N1  630   3.478   1.209   3.117 -0.3988 -0.6920  0.0695
   22bbb     C1  631   3.478   1.353   3.080 -0.3177 -0.3411  0.5658
   22bbb     H1  632   3.423   1.362   2.987 -0.1910  0.1194  0.5329
   22bbb     H2  633   3.584   1.382   3.074 -0.2440 -0.4755  1.1410
   22bbb     C2  634   3.331   1.152   3.092 -0.2971 -0.4172  0.6930
   22bbb     H3  635   3.256   1.205   3.150 -0.9463 -1.5804  0.9574
   22bbb     H4  636   3.341   1.048   3.124  1.2390 -0.3261  0.5533
   22bbb     C3  637   3.580   1.124   3.042  0.4655  0.1107  0.1839
   22bbb     H5  638   3.570   1.133   2.934 -1.5009  2.6922  0.4813
   22bbb     H6  639   3.562   1.019   3.066 -0.7524  0.2839  0.0906
   22bbb     C4  640   3.723   1.163   3.084 -0.1577 -0.6477  0.4086
   22bbb     H7  641   3.752   1.103   3.171 -0.0565 -0.4977  0.4774
   22bbb     H8  642   3.727   1.267   3.118 -0.8123 -1.3054  2.6596
   22bbb     C5  643   3.419   1.439   3.191  0.1288 -0.2439 -0.0158
   22bbb     H9  644   3.319   1.401   3.211 -0.3523  0.4572 -0.9876
   22bbb    H10  645   3.401   1.542   3.156  1.9668  0.3038  0.5226
   22bbb     C6  646   3.287   1.148   2.943  0.0289 -0.1244 -0.1695
   22bbb    H11  647   3.371   1.100   2.892  0.0493 -0.7450  0.4259
   22bbb    H12  648   3.263   1.248   2.906  2.2903  0.3207 -0.5418
   22bbb     C7  649   3.819   1.134   2.973 -0.2743 -0.2329  0.5955
   22bbb    H13  650   3.784   1.044   2.921 -0.1038  0.5807 -0.9961
   22bbb    H14  651   3.916   1.115   3.020 -1.0039 -1.0314  1.8314
   22bbb     C8  652   3.166   1.052   2.917 -0.3988 -0.0718  0.2938
   22bbb    H15  653   3.154   1.052   2.808 -2.0549  1.9833  0.4234
   22bbb    H16  654   3.179   0.948   2.949 -0.6391  0.4048  2.0512
   22bbb     C9  655   3.508   1.449   3.312  0.4797 -0.8134  0.2072
   22bbb    H17  656   3.476   1.535   3.372 -1.7497 -1.4788  0.0483
   22bbb    H18  657   3.610   1.474   3.281  0.4520  0.3569  0.9869
   22bbb     O1  658   3.834   1.250   2.883  0.4538 -0.3623 -0.3980
   22bbb    H19  659   3.487   1.199   3.219  1.7280  0.0094  0.0026
   23ccc     C1  660   6.047   2.192   5.208  0.3138 -0.7115  0.1905
   23ccc     H1  661   6.087   2.175   5.107 -0.5492 -1.6728 -0.0125
   23ccc     H2  662   6.071   2.293   5.244  5.1300 -0.4001 -2.9567
   23ccc     C2  663   6.118   2.106   5.313 -0.5711  0.3604  0.0232
   23ccc     H3  664   6.225   2.129   5.302 -0.4542  0.2477  0.8770
   23ccc     H4  665   6.100   2.002   5.285  1.9214  0.1615 -1.1460
   23ccc     C3  666   6.084   2.119   5.452 -0.3056 -0.3174  0.2184
   23ccc     H5  667   6.126   2.034   5.506 -2.9789 -0.1850  2.7764
   23ccc     H6  668   5.979   2.104   5.478 -0.1653 -1.0099  0.3986
   23ccc     N1  669   6.128   2.250   5.521 -0.0329  0.2208  0.2422
   23ccc     C4  670   6.005   2.340   5.533  0.3890  0.6778  0.1419
   23ccc     H7  671   5.932   2.298   5.602  1.8201 -2.5827 -0.1683
   23ccc     H8  672   5.957   2.347   5.435 -3.0724  0.6903  1.7047
   23ccc     C5  673   6.026   2.478   5.587 -0.1876 -0.4760 -0.4932
   23ccc     H9  674   6.050   2.463   5.693  1.6315  0.4286 -0.7366
   23ccc    H10  675   6.109   2.530   5.538 -0.4776 -1.8746 -2.5983
   23ccc     C6  676   5.896   2.566   5.569  0.3208  0.2976 -0.0487
   23ccc     O1  677   5.805   2.530   5.494  0.6163 -0.2481 -0.2008
   23ccc     O2  678   5.894   2.678   5.646  0.1708 -0.3771 -0.0415
   23ccc    H11  679   5.974   2.669   5.700  0.8710 -2.0114 -1.2783
   23ccc     C7  680   6.188   2.216   5.653 -0.1584  0.2718  1.1001
   23ccc    H12  681   6.193   2.307   5.713  2.9556  0.9877 -0.0339
   23ccc    H13  682   6.128   2.146   5.710  2.0778 -2.6388  0.1378
   23ccc     C8  683   6.328   2.159   5.637  0.1664  0.2869 -0.1192
   23ccc    H14  684   6.322   2.065   5.581 -2.5036  1.9644 -2.9877
   23ccc    H15  685   6.396   2.225   5.583 -0.6620  0.7087 -0.6612
   23ccc     C9  686   6.395   2.124   5.770  0.0541 -0.6130 -0.5273
   23ccc     O3  687   6.330   2.113   5.873  0.2253  0.0055  0.0099
   23ccc     O4  688   6.527   2.107   5.775 -0.6187  0.0580  0.4475
   23ccc    H16  689   6.559   2.120   5.684 -0.7923  2.3858  0.6477
   23ccc     O5  690   5.907   2.170   5.220 -0.3556 -0.3945 -0.2848
   23ccc    H17  691   6.200   2.298   5.465  0.8551 -1.3353  0.0043
   24ccc     C1  692   5.189   2.705   5.105  0.6641 -0.1926  0.2095
   24ccc     H1  693   5.093   2.716   5.052 -0.8443  1.9659  3.0897
   24ccc     H2  694   5.186   2.630   5.186  2.2582  1.4189  1.8541
   24ccc     C2  695   5.231   2.841   5.173  0.4346  0.6128  0.2762
   24ccc     H3  696   5.321   2.815   5.229  1.9319 -0.1010 -2.2743
   24ccc     H4  697   5.148   2.863   5.241 -0.5092 -1.4558 -0.1449
   24ccc     C3  698   5.270   2.961   5.083  0.1424 -0.2155  0.9671
   24ccc     H5  699   5.185   2.985   5.018  0.2856  1.7447  1.4437
   24ccc     H6  700   5.355   2.930   5.022  0.7473 -1.4446  2.3774
   24ccc     N1  701   5.295   3.094   5.154  0.2518  0.0499  0.2427
   24ccc     C4  702   5.389   3.180   5.066 -0.0160  0.7862 -0.0851
   24ccc     H7  703   5.338   3.260   5.011 -0.8240 -0.5490 -1.3450
   24ccc     H8  704   5.434   3.107   4.999  0.7712 -1.3697  2.6278
   24ccc     C5  705   5.507   3.242   5.139  0.9125 -0.3169  0.6063
   24ccc     H9  706   5.462   3.306   5.216  0.4244 -0.1125  0.1515
   24ccc    H10  707   5.566   3.166   5.192  1.5179 -1.4445 -1.5717
   24ccc     C6  708   5.594   3.338   5.056  0.0040  0.0829  0.4078
   24ccc     O1  709   5.682   3.309   4.975 -1.2334  0.0960  0.0202
   24ccc     O2  710   5.538   3.461   5.061 -0.0821  0.5376  0.2855
   24ccc    H11  711   5.596   3.502   4.994  1.8279 -0.2510  1.3832
   24ccc     C7  712   5.158   3.152   5.178 -1.0552  0.5211  0.3682
   24ccc    H12  713   5.103   3.162   5.084 -0.0989 -0.2644 -0.2904
   24ccc    H13  714   5.100   3.084   5.240 -0.0201 -1.0149 -0.3010
   24ccc     C8  715   5.164   3.287   5.242 -0.1813  0.1809  1.2388
   24ccc    H14  716   5.224   3.290   5.333  0.6613 -0.0292  0.7076
   24ccc    H15  717   5.211   3.356   5.170  0.1463 -1.8497 -0.6131
   24ccc     C9  718   5.021   3.337   5.276  0.3836 -0.3502 -0.0204
   24ccc     O3  719   4.915   3.286   5.249 -0.3298  0.1845  0.5001
   24ccc     O4  720   5.019   3.444   5.359 -0.1225  0.3350 -1.0095
   24ccc    H16  721   4.925   3.447   5.383  0.3597  1.7954  0.9126
   24ccc     O5  722   5.296   2.661   5.021 -0.3321  0.0014 -0.0739
   24ccc    H17  723   5.348   3.082   5.241  0.1463 -0.0816  0.2885
   25ccc     C1  724   4.337   2.162   4.807  1.3170  0.3117 -0.3589
   25ccc     H1  725   4.238   2.171   4.759  0.9164  0.4720  0.4806
   25ccc     H2  726   4.322   2.129   4.910  0.0520  0.2885 -0.5292
   25ccc     C2  727   4.409   2.299   4.801  0.2294 -0.3362  0.9039
   25ccc     H3  728   4.359   2.363   4.875 -1.8029 -1.6492  0.7524
   25ccc     H4  729   4.385   2.348   4.705  1.1223  0.8449  1.2558
   25ccc     C3  730   4.558   2.287   4.824 -0.2061 -0.2366  0.3115
   25ccc     H5  731   4.615   2.374   4.790 -1.3335  0.7377  0.8245
   25ccc     H6  732   4.594   2.210   4.756  0.7526  0.5695 -0.1228
   25ccc     N1  733   4.607   2.252   4.963  0.3322 -0.4856 -0.3724
   25ccc     C4  734   4.634   2.099   4.963 -0.6762  0.3643 -0.1864
   25ccc     H7  735   4.721   2.075   4.901 -0.0894 -0.7015  1.0023
   25ccc     H8  736   4.557   2.045   4.908 -0.4625  0.0080 -0.1352
   25ccc     C5  737   4.646   2.042   5.095  0.3713  0.5242 -0.0188
   25ccc     H9  738   4.723   2.081   5.162  0.5831  0.1498 -0.0431
   25ccc    H10  739   4.555   2.069   5.150  1.1741  0.4248  1.3931
   25ccc     C6  740   4.637   1.892   5.079 -0.3403 -0.2053 -0.0804
   25ccc     O1  741   4.537   1.831   5.048 -0.1566 -0.2133  0.0062
   25ccc     O2  742   4.747   1.829   5.118  0.2505  0.3907  0.7513
   25ccc    H11  743   4.811   1.897   5.146 -0.3081  0.6456  1.4481
   25ccc     C7  744   4.735   2.330   5.000 -0.3142 -0.1858  0.6982
   25ccc    H12  745   4.756   2.281   5.095 -1.1349 -0.9316  0.5050
   25ccc    H13  746   4.811   2.306   4.926  0.0881  2.2366  0.2530
   25ccc     C8  747   4.708   2.479   5.029 -0.4038 -0.3839  0.1199
   25ccc    H14  748   4.697   2.536   4.936  0.9712  1.1152  0.8398
   25ccc    H15  749   4.616   2.492   5.087 -0.6431  1.3781 -0.6027
   25ccc     C9  750   4.819   2.525   5.118 -0.1657 -0.5519  0.1067
   25ccc     O3  751   4.936   2.486   5.112  0.5628 -0.0158 -0.1458
   25ccc     O4  752   4.782   2.626   5.194 -0.1873 -0.2234 -0.1829
   25ccc    H16  753   4.688   2.652   5.192  0.3477  2.4446  2.2856
   25ccc     O5  754   4.417   2.069   4.732  0.3794 -0.1034  0.4098
   25ccc    H17  755   4.535   2.272   5.033  0.7233 -2.3222  0.6284
   26ccc     C1  756   4.671   1.414   5.185  0.2418  0.2813  0.2896
   26ccc     H1  757   4.699   1.309   5.196  2.4318  0.6251 -1.2868
   26ccc     H2  758   4.754   1.478   5.219 -0.5931  0.3656  2.3034
   26ccc     C2  759   4.546   1.461   5.264 -0.3807 -0.0921  0.1867
   26ccc     H3  760   4.554   1.431   5.369  0.5048  2.9123  1.0625
   26ccc     H4  761   4.450   1.426   5.224 -0.5991  1.7812 -1.0719
   26ccc     C3  762   4.545   1.617   5.267 -0.3230  0.4627  0.2774
   26ccc     H5  763   4.541   1.655   5.164 -0.3557  1.1527  0.5326
   26ccc     H6  764   4.636   1.657   5.312  1.1912 -2.8845  0.4853
   26ccc     N1  765   4.434   1.675   5.350  0.7360 -0.2283  0.0112
   26ccc     C4  766   4.451   1.824   5.347 -0.2166  0.6098  0.0013
   26ccc     H7  767   4.414   1.864   5.253  0.9034  0.2138 -0.6292
   26ccc     H8  768   4.559   1.844   5.351 -0.0908  0.2419 -1.1786
   26ccc     C5  769   4.390   1.893   5.475 -0.0978  0.2239  0.6316
   26ccc     H9  770   4.284   1.869   5.489  0.0307 -0.3924  0.5729
   26ccc    H10  771   4.437   1.870   5.571  2.5383  1.4501 -0.2719
   26ccc     C6  772   4.404   2.041   5.462  0.6312 -0.8897 -0.9642
   26ccc     O1  773   4.491   2.091   5.391  0.3857  0.2170  0.1081
   26ccc     O2  774   4.336   2.124   5.550  0.0635 -0.3263  0.1660
   26ccc    H11  775   4.255   2.076   5.573 -1.9603  2.7204 -0.0341
   26ccc     C7  776   4.298   1.634   5.290 -0.5206  0.1579 -0.1118
   26ccc    H12  777   4.292   1.526   5.302  1.0643  0.1778  1.1975
   26ccc    H13  778   4.219   1.660   5.361 -0.8799  0.5429 -0.6411
   26ccc     C8  779   4.276   1.667   5.148 -0.7121 -0.5621  0.6047
   26ccc    H14  780   4.292   1.769   5.112  1.5210 -1.0872 -0.0768
   26ccc    H15  781   4.351   1.618   5.084  0.0252 -0.0377  1.0513
   26ccc     C9  782   4.141   1.621   5.093  0.3993 -0.1967 -0.3273
   26ccc     O3  783   4.079   1.530   5.137  0.7901  0.0702  0.0375
   26ccc     O4  784   4.100   1.686   4.988  0.2694 -0.1484  0.6269
   26ccc    H16  785   4.021   1.646   4.949  0.7147  1.1856 -1.8616
   26ccc     O5  786   4.639   1.439   5.049  0.2093  0.0336  0.6330
   26ccc    H17  787   4.434   1.642   5.447 -1.8021  0.3562  0.2660
   27ccc     C1  788   6.382   0.517   3.496 -0.6049  0.1589  0.2337
   27ccc     H1  789   6.481   0.564   3.501 -0.7072  0.3266  0.8301
   27ccc     H2  790   6.389   0.410   3.521  0.3384  0.4603  1.3720
   27ccc     C2  791   6.316   0.535   3.360  0.4389  0.5572 -0.1334
   27ccc     H3  792   6.381   0.490   3.284 -0.8797  2.1633 -2.3362
   27ccc     H4  793   6.302   0.640   3.331  1.6138  0.5122 -0.8869
   27ccc     C3  794   6.167   0.482   3.365  0.6210  0.0906  0.1677
   27ccc     H5  795   6.112   0.549   3.431 -1.4153  0.5477 -1.8369
   27ccc     H6  796   6.154   0.378   3.393  1.5932 -0.1673 -0.3040
   27ccc     N1  797   6.091   0.493   3.234  0.6033 -0.1708 -0.5306
   27ccc     C4  798   6.158   0.415   3.125  0.0926  0.8928  0.3332
   27ccc     H7  799   6.139   0.309   3.143  0.3689  1.3449  3.8088
   27ccc     H8  800   6.264   0.437   3.131  0.5036  0.2592 -2.8037
   27ccc     C5  801   6.105   0.446   2.981  0.0593 -0.0926  0.7714
   27ccc     H9  802   6.002   0.415   2.961 -0.1290 -0.7052  2.5009
   27ccc    H10  803   6.092   0.554   2.968 -0.0126 -0.1477  0.3835
   27ccc     C6  804   6.200   0.406   2.869 -0.4441 -0.3176 -0.2590
   27ccc     O1  805   6.321   0.400   2.868  0.1071  0.3851  0.1207
   27ccc     O2  806   6.135   0.383   2.753 -0.0718  0.0307  0.7842
   27ccc    H11  807   6.200   0.405   2.683 -2.3578  1.2082 -1.1078
   27ccc     C7  808   5.944   0.436   3.238 -0.4924  0.4436  0.5808
   27ccc    H12  809   5.895   0.477   3.150 -0.4491 -0.9198 -0.1020
   27ccc    H13  810   5.933   0.328   3.235 -4.5673  0.6919  0.4650
   27ccc     C8  811   5.863   0.491   3.355  0.7185 -0.2757 -0.4820
   27ccc    H14  812   5.903   0.591   3.376  1.0820 -0.9948  3.0244
   27ccc    H15  813   5.756   0.496   3.335  0.9004  2.3426 -1.0936
   27ccc     C9  814   5.859   0.421   3.493 -0.1334 -0.4013 -0.1922
   27ccc     O3  815   5.902   0.309   3.510 -0.1394  0.0162 -0.0007
   27ccc     O4  816   5.813   0.504   3.593  1.1071  0.1630  0.6272
   27ccc    H16  817   5.775   0.576   3.540  0.9733 -0.7646 -0.5791
   27ccc     O5  818   6.292   0.574   3.592 -0.6379 -1.1497 -0.3822
   27ccc    H17  819   6.086   0.592   3.207  0.8404 -0.2891 -1.0154
   28ccc     C1  820   5.584   0.257   4.056 -0.4444 -0.2620  0.1403
   28ccc     H1  821   5.513   0.339   4.044  0.8741  0.7306 -1.3967
   28ccc     H2  822   5.556   0.168   3.998  2.2421 -1.6567  0.7823
   28ccc     C2  823   5.569   0.226   4.207 -0.6802 -0.4785 -0.8361
   28ccc     H3  824   5.641   0.147   4.231 -0.0682  0.8443  2.0779
   28ccc     H4  825   5.468   0.190   4.233 -0.7622  0.7534  0.6789
   28ccc     C3  826   5.601   0.350   4.300  0.4237  0.2728  0.2282
   28ccc     H5  827   5.549   0.437   4.261  0.3451 -0.0572 -0.4211
   28ccc     H6  828   5.709   0.366   4.297  0.9113 -2.4891  0.2588
   28ccc     N1  829   5.567   0.322   4.443 -0.3485 -0.0085  0.3210
   28ccc     C4  830   5.417   0.312   4.445  0.2988 -0.1176  0.1413
   28ccc     H7  831   5.383   0.211   4.420  1.7924 -1.0348  1.5168
   28ccc     H8  832   5.378   0.370   4.362  2.2025  0.3733 -0.4572
   28ccc     C5  833   5.366   0.354   4.586  0.7628 -0.1113 -0.1249
   28ccc     H9  834   5.416   0.289   4.659 -0.6893 -0.8102  0.2888
   28ccc    H10  835   5.391   0.460   4.601 -0.9626  0.9422 -3.5910
   28ccc     C6  836   5.217   0.339   4.615  0.0477 -0.3222  0.1871
   28ccc     O1  837   5.130   0.328   4.530  0.1213  0.5572  0.3767
   28ccc     O2  838   5.194   0.299   4.743  0.1884  0.4232  0.2803
   28ccc    H11  839   5.260   0.351   4.792 -1.4375  0.7701  2.2739
   28ccc     C7  840   5.628   0.194   4.504  0.2655  0.2385 -0.3380
   28ccc    H12  841   5.586   0.182   4.604  0.6689 -1.7084 -0.3706
   28ccc    H13  842   5.599   0.108   4.443 -0.1235 -0.5530  0.9091
   28ccc     C8  843   5.783   0.198   4.530  0.0093  0.6959  0.2465
   28ccc    H14  844   5.841   0.199   4.436  1.2527  1.0893  0.9934
   28ccc    H15  845   5.817   0.282   4.592 -1.2217  0.3110  1.4875
   28ccc     C9  846   5.837   0.072   4.599  0.4563 -0.3699  0.9191
   28ccc     O3  847   5.769  -0.024   4.618 -0.3209 -0.0292 -0.3198
   28ccc     O4  848   5.968   0.060   4.613 -0.4354  0.2316 -0.5591
   28ccc    H16  849   6.011   0.148   4.608  1.1577 -0.4019  1.0649
   28ccc     O5  850   5.722   0.295   4.026 -0.2020  0.4943  0.1445
   28ccc    H17  851   5.594   0.403   4.501 -0.1019  0.3114 -0.2387
   29ccc     C1  852   4.360   0.518   3.717 -0.7563 -0.5058 -0.1872
   29ccc     H1  853   4.294   0.596   3.758  0.2036  0.6984 -0.8684
   29ccc     H2  854   4.369   0.526   3.608 -1.1467 -1.5876 -0.3141
   29ccc     C2  855   4.318   0.375   3.745 -0.2996  0.2022  0.3507
   29ccc     H3  856   4.387   0.311   3.689  1.3082  1.8357  0.3724
   29ccc     H4  857   4.216   0.372   3.704 -0.4716 -0.3774  0.8145
   29ccc     C3  858   4.322   0.347   3.893 -0.1069  0.0762  0.0700
   29ccc     H5  859   4.405   0.402   3.939 -0.6565 -1.0313  2.5304
   29ccc     H6  860   4.337   0.240   3.908 -1.4573 -0.0524  0.6185
   29ccc     N1  861   4.196   0.396   3.964  0.2522 -0.3245  0.2986
   29ccc     C4  862   4.105   0.277   4.001 -0.1802  0.1811 -0.1296
   29ccc     H7  863   4.028   0.317   4.069  0.0564 -0.3583  0.4608
   29ccc     H8  864   4.167   0.213   4.064  2.3945  3.3406  0.8404
   29ccc     C5  865   4.049   0.191   3.890 -0.3705 -0.4357 -0.0106
   29ccc     H9  866   4.021   0.260   3.810  0.5467  0.0116  0.0426
   29ccc    H10  867   4.123   0.123   3.847  1.7913  1.6676  0.1874
   29ccc     C6  868   3.928   0.113   3.932 -0.3264  0.3817 -0.0117
   29ccc     O1  869   3.884   0.105   4.044 -0.1358 -0.3082 -0.1151
   29ccc     O2  870   3.852   0.054   3.837 -0.4349 -0.0487  0.4407
   29ccc    H11  871   3.782   0.016   3.894 -1.4239  0.9947 -0.0452
   29ccc     C7  872   4.232   0.464   4.092 -1.0104  0.1809 -0.2021
   29ccc    H12  873   4.303   0.543   4.067 -1.7349  1.0689  0.4548
   29ccc    H13  874   4.150   0.528   4.127  0.7613  2.0321  0.7579
   29ccc     C8  875   4.286   0.377   4.207 -0.6337  0.0143  0.6638
   29ccc    H14  876   4.202   0.327   4.258 -1.1741 -0.3492 -0.5498
   29ccc    H15  877   4.368   0.309   4.180 -1.5501 -0.7857 -0.2173
   29ccc     C9  878   4.348   0.474   4.309  0.0156  0.0278  0.6845
   29ccc     O3  879   4.428   0.564   4.280 -0.4147  0.3579  0.0960
   29ccc     O4  880   4.340   0.433   4.435 -0.2708 -0.3788 -0.6243
   29ccc    H16  881   4.393   0.502   4.478  1.6034 -0.0976 -3.1266
   29ccc     O5  882   4.489   0.533   3.789  0.4410 -0.4457 -0.5172
   29ccc    H17  883   4.150   0.457   3.895 -0.3108 -0.4830  0.5283
   30ccc     C1  884   4.688   0.298   4.457 -0.6319  0.4214  0.1682
   30ccc     H1  885   4.779   0.259   4.504  1.0650  0.8787 -2.5601
   30ccc     H2  886   4.639   0.374   4.519  0.3968 -1.3205  3.4011
   30ccc     C2  887   4.593   0.185   4.425 -0.6039 -0.5193  0.5398
   30ccc     H3  888   4.637   0.089   4.395 -0.2963 -0.4594  0.7884
   30ccc     H4  889   4.528   0.218   4.343 -0.4641  3.6913  1.9001
   30ccc     C3  890   4.510   0.152   4.550  0.4962 -0.4429  0.6384
   30ccc     H5  891   4.431   0.227   4.546 -0.4947 -1.4565  0.6762
   30ccc     H6  892   4.568   0.167   4.642  0.3389  1.0088  0.5260
   30ccc     N1  893   4.440   0.013   4.540 -0.2318 -0.5969  0.1792
   30ccc     C4  894   4.517  -0.088   4.627 -0.3033  1.1546 -0.1975
   30ccc     H7  895   4.618  -0.078   4.586 -0.3780  1.7284 -0.2461
   30ccc     H8  896   4.482  -0.189   4.605 -3.9819  2.0288  0.8366
   30ccc     C5  897   4.516  -0.070   4.779 -0.1383  0.4580 -0.3617
   30ccc     H9  898   4.561   0.021   4.820  0.2798 -1.2215  3.2773
   30ccc    H10  899   4.415  -0.072   4.822  0.3878  0.3817  0.9325
   30ccc     C6  900   4.584  -0.178   4.857  0.2668  0.6847 -0.2922
   30ccc     O1  901   4.599  -0.288   4.809 -0.1680  0.3103  0.2780
   30ccc     O2  902   4.606  -0.145   4.988  0.1137 -0.1393 -0.5278
   30ccc    H11  903   4.566  -0.058   5.009 -0.2145  0.3116 -2.7292
   30ccc     C7  904   4.288   0.027   4.548 -0.2595  0.1932 -0.4598
   30ccc    H12  905   4.258   0.053   4.650 -0.8891 -0.5673 -0.4360
   30ccc    H13  906   4.262   0.107   4.478  0.9516  0.6246 -0.4329
   30ccc     C8  907   4.212  -0.102   4.523 -0.0390  0.5959  0.1364
   30ccc    H14  908   4.238  -0.143   4.424 -1.6445  2.2755 -1.0481
   30ccc    H15  909   4.232  -0.181   4.596 -2.4354 -0.6846 -0.4846
   30ccc     C9  910   4.060  -0.097   4.528 -0.1958 -0.1107  0.6474
   30ccc     O3  911   4.009   0.005   4.557 -0.2387 -0.5278  0.2004
   30ccc     O4  912   3.990  -0.215   4.523 -0.0411 -0.5487 -0.4024
   30ccc    H16  913   4.052  -0.282   4.490 -0.6952 -1.2507 -0.2429
   30ccc     O5  914   4.727   0.346   4.331 -0.1287 -0.6500 -0.4455
   30ccc    H17  915   4.457  -0.025   4.445  1.8143  0.4666  0.0436
   31ccc     C1  916   6.507   0.548   1.669 -0.2844 -0.1368  0.0219
   31ccc     H1  917   6.519   0.441   1.691  0.2145  0.1684  1.2952
   31ccc     H2  918   6.460   0.548   1.570 -0.7631 -1.9167  0.2126
   31ccc     C2  919   6.641   0.619   1.655  0.0241 -0.3655  0.7677
   31ccc     H3  920   6.617   0.726   1.658 -0.2530 -0.3356 -0.9788
   31ccc     H4  921   6.695   0.610   1.560 -0.7751 -2.8350  0.4964
   31ccc     C3  922   6.730   0.586   1.773  0.1075 -0.0496  0.1993
   31ccc     H5  923   6.744   0.478   1.773  2.5455  0.1892  1.6551
   31ccc     H6  924   6.680   0.622   1.862 -0.1624  1.1547 -0.4048
   31ccc     N1  925   6.865   0.657   1.770 -0.3831  0.4217 -0.2908
   31ccc     C4  926   6.850   0.792   1.831  0.3349  0.8795 -0.4017
   31ccc     H7  927   6.795   0.792   1.925 -0.6290 -2.0806 -0.8654
   31ccc     H8  928   6.782   0.851   1.770 -1.2011  0.6310  1.0055
   31ccc     C5  929   6.983   0.867   1.853  0.7000 -0.3191 -0.0845
   31ccc     H9  930   7.032   0.813   1.934  2.1110  0.2147 -0.5490
   31ccc    H10  931   7.042   0.876   1.760  0.2421 -1.3889 -0.4981
   31ccc     C6  932   6.962   1.006   1.911  0.4067  0.6782  0.1835
   31ccc     O1  933   6.879   1.020   1.999  0.3314  0.5160 -0.4279
   31ccc     O2  934   7.025   1.106   1.851  0.6665 -1.0462 -0.5373
   31ccc    H11  935   7.078   1.063   1.782  2.1171 -0.0600 -0.0711
   31ccc     C7  936   6.964   0.577   1.855  0.1249  0.0918 -0.1195
   31ccc    H12  937   7.061   0.625   1.848  0.2012 -0.2684 -3.0845
   31ccc    H13  938   6.920   0.577   1.955 -1.4944 -3.4919 -0.6593
   31ccc     C8  939   6.993   0.430   1.819 -0.0300 -0.6571 -0.3125
   31ccc    H14  940   6.970   0.412   1.713 -0.6673  0.5456 -0.3974
   31ccc    H15  941   7.097   0.409   1.848  1.1609  3.2224 -1.2201
   31ccc     C9  942   6.908   0.340   1.890  0.4530  0.2185 -0.8377
   31ccc     O3  943   6.841   0.374   1.985  0.1877  0.1260 -0.1415
   31ccc     O4  944   6.856   0.237   1.820 -0.1406  0.3061  0.5850
   31ccc    H16  945   6.783   0.214   1.880 -0.4173  2.9822  1.4047
   31ccc     O5  946   6.426   0.617   1.757  0.1489  0.4788  0.2412
   31ccc    H17  947   6.895   0.668   1.672 -0.0563 -0.3528 -0.2829
   32ccc     C1  948   5.544   0.647   1.704 -0.7788 -0.8191  0.2549
   32ccc     H1  949   5.584   0.545   1.704  1.2309 -0.0729 -0.8360
   32ccc     H2  950   5.487   0.651   1.798 -0.6811 -3.9122  0.5616
   32ccc     C2  951   5.460   0.666   1.573  0.2350  0.2525 -0.2359
   32ccc     H3  952   5.408   0.762   1.578 -1.8585 -0.8849  1.1831
   32ccc     H4  953   5.384   0.587   1.575 -0.0266  0.5049  0.0330
   32ccc     C3  954   5.547   0.659   1.452 -0.5480  0.0092  0.0895
   32ccc     H5  955   5.590   0.559   1.448  0.0769  0.3101 -1.7936
   32ccc     H6  956   5.628   0.732   1.461 -1.0959  0.7408 -0.7255
   32ccc     N1  957   5.463   0.670   1.323 -0.1839  0.0474 -0.5926
   32ccc     C4  958   5.424   0.816   1.299 -0.1779 -0.4944 -0.5705
   32ccc     H7  959   5.516   0.873   1.286 -0.5220  0.3950  0.6997
   32ccc     H8  960   5.372   0.857   1.386  1.3106 -0.8891  0.5621
   32ccc     C5  961   5.329   0.836   1.178  0.2687 -0.1559 -0.6362
   32ccc     H9  962   5.355   0.773   1.092  2.2230  1.4220 -1.2843
   32ccc    H10  963   5.228   0.818   1.218  0.5535  2.5079  1.5751
   32ccc     C6  964   5.317   0.981   1.130 -0.0075  0.2992  0.6600
   32ccc     O1  965   5.404   1.060   1.155  0.0645  0.4212  0.7174
   32ccc     O2  966   5.258   0.987   1.011  0.0332  0.1285  0.2243
   32ccc    H11  967   5.215   0.899   1.010 -0.1141  0.1987 -0.6452
   32ccc     C7  968   5.553   0.609   1.211 -0.2945 -0.6156 -0.0501
   32ccc    H12  969   5.509   0.637   1.115  1.9981  0.4157 -0.8723
   32ccc    H13  970   5.650   0.659   1.208 -0.6896  0.1412 -0.4140
   32ccc     C8  971   5.570   0.456   1.213  0.0738 -0.3514 -0.3388
   32ccc    H14  972   5.625   0.428   1.303  0.1341 -0.4061 -0.3924
   32ccc    H15  973   5.470   0.411   1.214 -0.1250 -0.0135 -2.1606
   32ccc     C9  974   5.622   0.411   1.086 -0.3279  0.6756  0.3804
   32ccc     O3  975   5.692   0.485   1.013 -0.3226  0.3516  0.8129
   32ccc     O4  976   5.568   0.296   1.032 -0.9017 -0.1359 -0.3224
   32ccc    H16  977   5.538   0.245   1.110  0.3958 -0.1348  0.2114
   32ccc     O5  978   5.650   0.751   1.696  1.0122  0.5469 -0.4543
   32ccc    H17  979   5.378   0.613   1.321  0.3766 -0.8004 -2.6939
   33ccc     C1  980   6.513   1.835   2.345  0.3229  0.0749  0.1577
   33ccc     H1  981   6.491   1.838   2.452 -1.5124  1.1597 -0.2140
   33ccc     H2  982   6.495   1.734   2.306 -0.0441  0.3986 -0.5222
   33ccc     C2  983   6.656   1.871   2.310  0.1525 -0.2441 -0.0479
   33ccc     H3  984   6.725   1.797   2.351  0.4938 -1.4803 -2.6213
   33ccc     H4  985   6.675   1.967   2.360 -1.2424 -0.6190  1.2794
   33ccc     C3  986   6.682   1.877   2.153 -0.2183  0.7848  0.4720
   33ccc     H5  987   6.629   1.960   2.106  0.9370  1.4745  0.3486
   33ccc     H6  988   6.649   1.783   2.110  0.0898  1.5995 -1.6547
   33ccc     N1  989   6.833   1.889   2.108 -0.3667  0.1516 -0.2433
   33ccc     C4  990   6.833   1.886   1.956 -0.5226 -0.9368 -0.3805
   33ccc     H7  991   6.801   1.987   1.929  2.6274 -0.1058 -1.3822
   33ccc     H8  992   6.761   1.811   1.922 -0.3812 -0.5166 -1.6779
   33ccc     C5  993   6.980   1.854   1.901  0.6433  0.7067 -0.0909
   33ccc     H9  994   7.035   1.949   1.905  0.1926  0.9888 -0.4902
   33ccc    H10  995   7.020   1.767   1.953 -2.4552 -0.8213 -0.0302
   33ccc     C6  996   6.971   1.804   1.760 -0.5728 -0.3827 -0.5227
   33ccc     O1  997   6.885   1.735   1.717 -0.0239  0.3519  0.1965
   33ccc     O2  998   7.073   1.849   1.683 -0.3676  0.6031 -0.0614
   33ccc    H11  999   7.052   1.805   1.599  0.6186 -1.1659  0.5382
   33ccc     C7 1000   6.896   2.019   2.169 -0.8652  0.1827  0.1312
   33ccc    H12 1001   6.934   2.018   2.271 -0.2279  2.3908 -0.0382
   33ccc    H13 1002   6.991   2.033   2.116  0.1409 -0.0821  1.8041
   33ccc     C8 1003   6.804   2.137   2.148  0.2255 -0.6520 -0.0132
   33ccc    H14 1004   6.766   2.154   2.047 -3.7233  3.4452  1.7868
   33ccc    H15 1005   6.715   2.123   2.212  0.8385  0.8243  1.2308
   33ccc     C9 1006   6.880   2.264   2.196  0.6001  0.3335  0.2887
   33ccc     O3 1007   6.930   2.344   2.119 -0.1510 -0.0865 -1.3308
   33ccc     O4 1008   6.819   2.301   2.312 -0.3087 -0.4110  0.3481
   33ccc    H16 1009   6.848   2.393   2.326 -0.4265 -0.5789  1.8400
   33ccc     O5 1010   6.419   1.922   2.278  0.3357 -0.4556  0.0860
   33ccc    H17 1011   6.873   1.804   2.150  3.0014  2.4954  1.8145
   34ccc     C1 1012   6.187   2.389   2.080  0.1239  0.0094  0.4937
   34ccc     H1 1013   6.266   2.320   2.112  0.5516  0.3933  0.2885
   34ccc     H2 1014   6.234   2.462   2.013 -0.5564 -1.5781 -1.8455
   34ccc     C2 1015   6.136   2.456   2.212  0.2561 -0.2535  0.4917
   34ccc     H3 1016   6.091   2.377   2.275  1.2618 -1.3137 -0.0951
   34ccc     H4 1017   6.055   2.528   2.197  0.1726 -0.2358  0.9977
   34ccc     C3 1018   6.253   2.522   2.297 -0.6372 -0.1382 -0.2245
   34ccc     H5 1019   6.294   2.600   2.233 -1.5436 -1.0021 -1.9219
   34ccc     H6 1020   6.329   2.447   2.319 -0.6805 -0.5524 -1.4130
   34ccc     N1 1021   6.201   2.584   2.426 -0.0357  0.1637 -0.5071
   34ccc     C4 1022   6.312   2.634   2.516 -0.0178 -0.6313  1.2154
   34ccc     H7 1023   6.332   2.736   2.483  0.7589 -0.5935  1.7519
   34ccc     H8 1024   6.391   2.561   2.497 -0.4820 -0.8921  0.2609
   34ccc     C5 1025   6.287   2.628   2.670  0.2048  0.1315 -0.5713
   34ccc     H9 1026   6.186   2.662   2.693  0.3071  0.7688 -1.0517
   34ccc    H10 1027   6.289   2.522   2.698 -0.8280 -0.0384 -1.1049
   34ccc     C6 1028   6.404   2.673   2.758 -0.8839  0.5950  0.1726
   34ccc     O1 1029   6.506   2.716   2.714 -0.4403  0.1580  0.0908
   34ccc     O2 1030   6.391   2.671   2.890  0.7947 -0.2525 -0.5147
   34ccc    H11 1031   6.301   2.637   2.910  0.6420 -0.0398 -0.8348
   34ccc     C7 1032   6.104   2.698   2.406  1.1245 -1.2451  0.7883
   34ccc    H12 1033   6.015   2.644   2.373 -0.1375  0.3695  1.4263
   34ccc    H13 1034   6.074   2.739   2.502 -1.1064  0.1684 -0.4190
   34ccc     C8 1035   6.135   2.811   2.305 -0.5800  0.2758  0.4039
   34ccc    H14 1036   6.211   2.880   2.344 -2.2695  1.8407  1.0817
   34ccc    H15 1037   6.172   2.774   2.209 -0.2828 -0.4398  0.7847
   34ccc     C9 1038   6.022   2.907   2.279  0.2083  0.3430  0.1614
   34ccc     O3 1039   5.904   2.890   2.297 -0.1701  0.4777 -0.0762
   34ccc     O4 1040   6.060   3.005   2.199 -0.1268 -0.0929 -0.0267
   34ccc    H16 1041   6.156   3.007   2.211 -0.1621  1.3336  0.1988
   34ccc     O5 1042   6.082   2.322   1.999 -0.5081 -0.1179 -0.0009
   34ccc    H17 1043   6.147   2.510   2.474 -0.8794  0.6591 -0.6814
   35ccc     C1 1044   4.916   2.437   1.035  0.6472  0.2036  0.1022
   35ccc     H1 1045   4.956   2.539   1.030 -2.2999  1.5197 -4.9902
   35ccc     H2 1046   4.988   2.359   1.060  0.3674  0.0051  0.2865
   35ccc     C2 1047   4.851   2.420   0.896 -0.6417  0.6393 -0.7683
   35ccc     H3 1048   4.772   2.496   0.888 -0.8779  0.6832  1.4256
   35ccc     H4 1049   4.796   2.325   0.897 -0.3632  0.4587 -1.8268
   35ccc     C3 1050   4.942   2.435   0.770 -0.4668  0.2992  0.0959
   35ccc     H5 1051   4.871   2.411   0.691 -0.5469 -0.5910  0.4205
   35ccc     H6 1052   5.017   2.357   0.779  1.2359  1.8478 -0.0238
   35ccc     N1 1053   5.020   2.568   0.742 -0.1963  1.1480 -0.4460
   35ccc     C4 1054   5.127   2.531   0.638  0.3509 -0.3404  0.0707
   35ccc     H7 1055   5.074   2.528   0.543 -1.1587  0.7200  0.8565
   35ccc     H8 1056   5.171   2.432   0.657  0.8400 -0.2008 -0.2925
   35ccc     C5 1057   5.233   2.633   0.640 -0.4721 -0.3815  0.4428
   35ccc     H9 1058   5.187   2.733   0.646 -1.5192 -0.8867  0.9108
   35ccc    H10 1059   5.288   2.638   0.735 -1.2506 -3.3645  1.1213
   35ccc     C6 1060   5.321   2.633   0.517 -0.0025 -0.3646  0.7081
   35ccc     O1 1061   5.341   2.535   0.441  0.1269 -0.5243  0.7679
   35ccc     O2 1062   5.422   2.721   0.523  0.1141 -0.2251  0.1902
   35ccc    H11 1063   5.472   2.690   0.446 -1.5447 -2.7664  0.0224
   35ccc     C7 1064   4.920   2.671   0.686  0.1681  0.4353 -1.0312
   35ccc    H12 1065   4.957   2.732   0.604  1.3646  0.9012 -0.1668
   35ccc    H13 1066   4.830   2.616   0.658 -0.4596  0.7397  0.3323
   35ccc     C8 1067   4.884   2.774   0.804 -0.0547  0.3338 -0.5745
   35ccc    H14 1068   4.826   2.723   0.882  1.5430 -0.0575  0.3950
   35ccc    H15 1069   4.971   2.820   0.851 -1.1186 -0.4626  2.3695
   35ccc     C9 1070   4.798   2.890   0.757 -0.3903 -0.0236 -0.0413
   35ccc     O3 1071   4.822   2.951   0.651  0.4599 -1.0746 -0.2857
   35ccc     O4 1072   4.706   2.926   0.847  0.1783 -0.0824 -0.0318
   35ccc    H16 1073   4.670   3.009   0.812  1.2093 -0.0197 -1.0383
   35ccc     O5 1074   4.810   2.430   1.136 -0.5498  0.0636 -0.2545
   35ccc    H17 1075   5.068   2.597   0.829 -0.5538  1.7127 -0.4412
   36ccc     C1 1076   4.443   2.914   1.612  0.1767 -0.0891 -0.2476
   36ccc     H1 1077   4.358   2.929   1.544  0.0596  0.7259  0.0686
   36ccc     H2 1078   4.397   2.870   1.701  0.1489 -0.4619 -0.4437
   36ccc     C2 1079   4.515   3.039   1.652  0.2027  0.8074 -1.3513
   36ccc     H3 1080   4.589   3.006   1.725  0.1976  0.5191 -1.4754
   36ccc     H4 1081   4.446   3.105   1.707  0.4863  0.3005 -0.3639
   36ccc     C3 1082   4.570   3.117   1.533 -0.0610 -0.7240  0.5664
   36ccc     H5 1083   4.484   3.148   1.474 -2.2564 -3.9222  1.8640
   36ccc     H6 1084   4.630   3.056   1.466  2.5785  1.6547  0.5347
   36ccc     N1 1085   4.649   3.233   1.574 -0.0579  0.0545  0.3257
   36ccc     C4 1086   4.785   3.177   1.626  0.7576 -0.1282 -0.2976
   36ccc     H7 1087   4.838   3.141   1.537 -1.3882  0.3449 -1.8398
   36ccc     H8 1088   4.772   3.093   1.694 -0.3500  0.7102  0.5442
   36ccc     C5 1089   4.852   3.295   1.707  0.2304  0.3444  1.1114
   36ccc     H9 1090   4.913   3.354   1.638  1.3746 -1.3169  0.6287
   36ccc    H10 1091   4.767   3.354   1.743  1.1870  1.8025  1.0497
   36ccc     C6 1092   4.932   3.250   1.830  0.1973 -0.1441 -0.4854
   36ccc     O1 1093   4.921   3.140   1.887  0.2141 -0.3028 -0.0625
   36ccc     O2 1094   5.033   3.336   1.866 -0.1630  0.0515 -0.1880
   36ccc    H11 1095   5.026   3.408   1.801  0.5725 -0.2324 -0.6059
   36ccc     C7 1096   4.684   3.318   1.454 -0.2125 -0.1317 -0.5213
   36ccc    H12 1097   4.765   3.386   1.477  1.0542 -2.3304  2.1084
   36ccc    H13 1098   4.717   3.256   1.370  0.3466  0.3418 -0.6590
   36ccc     C8 1099   4.562   3.405   1.405 -0.8492  0.9734 -0.0219
   36ccc    H14 1100   4.470   3.352   1.378 -1.0494  1.5843 -0.5852
   36ccc    H15 1101   4.542   3.473   1.488 -0.1282  2.0923 -0.7403
   36ccc     C9 1102   4.588   3.500   1.291  0.0371  0.1247  0.7877
   36ccc     O3 1103   4.653   3.473   1.195  0.0709 -0.3576  0.0996
   36ccc     O4 1104   4.562   3.634   1.318  0.2266  0.0251  0.4854
   36ccc    H16 1105   4.577   3.676   1.232  0.0348  2.3943  1.5481
   36ccc     O5 1106   4.540   2.819   1.559 -0.1347  0.4321  0.4144
   36ccc    H17 1107   4.603   3.284   1.650  0.1556  0.2770  0.3059
   37ccc     C1 1108   5.417   1.401   1.055  0.2939  0.2486 -0.3357
   37ccc     H1 1109   5.484   1.486   1.036 -2.3568  2.2691 -1.2732
   37ccc     H2 1110   5.471   1.342   1.131 -0.9543 -1.3641 -0.6601
   37ccc     C2 1111   5.392   1.326   0.925 -0.5679  0.2623  0.4897
   37ccc     H3 1112   5.340   1.391   0.853  0.6754  0.6757 -0.0535
   37ccc     H4 1113   5.324   1.243   0.948  0.3237 -0.4332  0.6833
   37ccc     C3 1114   5.526   1.273   0.867 -0.1634  0.4599 -0.0912
   37ccc     H5 1115   5.589   1.209   0.929  0.1831  0.7036 -0.1842
   37ccc     H6 1116   5.584   1.365   0.855  0.8282 -0.2205 -0.7612
   37ccc     N1 1117   5.512   1.212   0.729 -0.0206 -0.2514  0.1714
   37ccc     C4 1118   5.632   1.228   0.638 -0.2177 -0.3910  0.7281
   37ccc     H7 1119   5.594   1.199   0.540  1.4176  1.5140 -0.5547
   37ccc     H8 1120   5.713   1.166   0.675  2.2585  1.5601 -1.0562
   37ccc     C5 1121   5.681   1.378   0.627 -0.1782  0.0566 -0.6042
   37ccc     H9 1122   5.599   1.450   0.619 -1.2847 -1.1058 -0.0325
   37ccc    H10 1123   5.744   1.398   0.715 -1.5353 -0.3279  0.4940
   37ccc     C6 1124   5.761   1.396   0.494  0.1399 -0.3773 -0.2495
   37ccc     O1 1125   5.702   1.407   0.391 -0.7151 -0.1336  0.4543
   37ccc     O2 1126   5.900   1.392   0.490  0.5912  0.2204 -0.0780
   37ccc    H11 1127   5.931   1.352   0.573  2.2749  1.1263 -0.2135
   37ccc     C7 1128   5.472   1.060   0.745 -0.1100  0.3293  0.5484
   37ccc    H12 1129   5.372   1.048   0.787  0.4250 -1.6929  1.3760
   37ccc    H13 1130   5.464   1.006   0.650  0.7212 -0.8963  1.1483
   37ccc     C8 1131   5.567   0.974   0.821  0.1877  0.1988 -0.0181
   37ccc    H14 1132   5.667   0.980   0.775 -0.0802  1.2028 -0.4961
   37ccc    H15 1133   5.568   1.015   0.922 -0.8057  0.2494 -0.0228
   37ccc     C9 1134   5.536   0.832   0.852  0.2941 -0.0976  0.5894
   37ccc     O3 1135   5.424   0.797   0.840  0.0078 -0.0502  0.1987
   37ccc     O4 1136   5.613   0.783   0.947  0.0113 -0.2448  0.1638
   37ccc    H16 1137   5.682   0.851   0.950 -2.4724  2.4329  1.2244
   37ccc     O5 1138   5.291   1.441   1.109  0.4958  0.5593 -0.1015
   37ccc    H17 1139   5.445   1.278   0.687  0.6947 -0.9912 -2.3036
   38ccc     C1 1140   4.625   1.908   1.267 -0.4087 -0.2214 -0.0975
   38ccc     H1 1141   4.617   1.805   1.301 -0.6778 -0.3309 -0.4822
   38ccc     H2 1142   4.572   1.975   1.336 -0.6036 -0.4579 -0.0185
   38ccc     C2 1143   4.571   1.924   1.124  0.1147  0.0841  0.8627
   38ccc     H3 1144   4.631   1.854   1.065  0.0971  0.5481  0.2930
   38ccc     H4 1145   4.590   2.028   1.094  0.8644 -0.5488 -0.9885
   38ccc     C3 1146   4.426   1.884   1.134  0.0926  0.3395 -0.2297
   38ccc     H5 1147   4.388   1.943   1.217  0.2792  0.9443 -0.5675
   38ccc     H6 1148   4.426   1.778   1.158  1.1491  0.3761 -0.0101
   38ccc     N1 1149   4.334   1.901   1.010 -0.0450 -0.2010 -0.6319
   38ccc     C4 1150   4.345   2.049   0.967  0.0186 -0.3264  0.1512
   38ccc     H7 1151   4.422   2.064   0.891  1.5293  1.8270  1.9763
   38ccc     H8 1152   4.373   2.108   1.055  0.0421  1.6251 -1.1066
   38ccc     C5 1153   4.209   2.113   0.916 -0.1517  0.0344  0.0582
   38ccc     H9 1154   4.165   2.056   0.834 -1.8130  0.2677  0.7445
   38ccc    H10 1155   4.137   2.117   0.999 -1.1467  2.1111 -0.8476
   38ccc     C6 1156   4.219   2.263   0.885 -1.3292  0.5598  0.5750
   38ccc     O1 1157   4.219   2.352   0.976  0.3428  0.1554  0.8291
   38ccc     O2 1158   4.250   2.292   0.755 -0.1105 -0.1641 -0.0134
   38ccc    H11 1159   4.249   2.389   0.749 -0.3181 -0.2349 -1.7111
   38ccc     C7 1160   4.370   1.800   0.902  0.4437  0.6349  0.4048
   38ccc    H12 1161   4.472   1.814   0.866 -0.1828  1.4719 -1.1162
   38ccc    H13 1162   4.371   1.702   0.950  4.6975  0.6637  0.7552
   38ccc     C8 1163   4.286   1.806   0.779  0.0662 -0.2737 -0.8907
   38ccc    H14 1164   4.301   1.715   0.720 -0.3280 -0.1633 -1.1628
   38ccc    H15 1165   4.179   1.800   0.803  0.0681  0.7551 -0.5761
   38ccc     C9 1166   4.315   1.916   0.677  0.0462 -0.0938  0.2207
   38ccc     O3 1167   4.411   1.995   0.682 -0.2247  0.9150  0.6641
   38ccc     O4 1168   4.225   1.929   0.575  0.7351  0.2702 -0.1338
   38ccc    H16 1169   4.161   1.856   0.582  2.4335 -1.3288 -0.1055
   38ccc     O5 1170   4.758   1.944   1.264 -0.2676 -0.5190 -0.0803
   38ccc    H17 1171   4.240   1.879   1.046  0.7424  2.3090  3.6367
   39ccc     C1 1172   4.177   3.969   2.489 -0.0604  0.0907 -0.3869
   39ccc     H1 1173   4.105   3.955   2.408  0.7157 -1.7640 -0.8167
   39ccc     H2 1174   4.200   4.075   2.508 -1.2071  0.3408 -0.3306
   39ccc     C2 1175   4.309   3.908   2.465  0.1694  0.2525 -0.3605
   39ccc     H3 1176   4.294   3.812   2.415 -3.6613  1.4099 -1.7867
   39ccc     H4 1177   4.348   3.889   2.566 -3.3187  0.6508  1.2221
   39ccc     C3 1178   4.398   3.994   2.377 -0.3920  0.4651  0.0180
   39ccc     H5 1179   4.393   4.092   2.426 -0.0767  0.4177  0.1463
   39ccc     H6 1180   4.360   3.993   2.275  0.0594 -0.7983 -0.1580
   39ccc     N1 1181   4.538   3.941   2.363 -0.2713 -0.3029  0.0184
   39ccc     C4 1182   4.621   4.025   2.270 -0.5366  0.2686  0.2353
   39ccc     H7 1183   4.718   3.977   2.270 -1.4360 -1.6225 -0.1943
   39ccc     H8 1184   4.622   4.125   2.315 -1.2980 -0.0041  0.8829
   39ccc     C5 1185   4.573   4.026   2.128  1.0189 -0.3833  0.5164
   39ccc     H9 1186   4.557   3.922   2.099 -0.0100 -0.2347  0.5107
   39ccc    H10 1187   4.477   4.078   2.116 -0.9179 -3.5851  1.2051
   39ccc     C6 1188   4.668   4.086   2.032 -0.0957 -0.9238  0.6435
   39ccc     O1 1189   4.787   4.081   2.047 -0.1032 -0.0809 -0.3346
   39ccc     O2 1190   4.606   4.132   1.918  0.0693  0.0497 -0.0001
   39ccc    H11 1191   4.510   4.119   1.927  0.1797 -0.3775  0.5929
   39ccc     C7 1192   4.618   3.935   2.495 -0.2950  0.1808 -0.6907
   39ccc    H12 1193   4.678   4.025   2.501  1.4286 -0.9687  0.0093
   39ccc    H13 1194   4.549   3.926   2.580  2.6751 -1.7642  1.7213
   39ccc     C8 1195   4.705   3.807   2.489 -0.2171 -0.5485  0.6676
   39ccc    H14 1196   4.642   3.718   2.479  1.0996 -1.7361  2.3018
   39ccc    H15 1197   4.773   3.808   2.402  0.0487  0.2698  0.8754
   39ccc     C9 1198   4.802   3.785   2.603  0.0688 -0.1526 -0.1453
   39ccc     O3 1199   4.767   3.724   2.699  0.4269  0.0453  0.3458
   39ccc     O4 1200   4.925   3.836   2.597 -0.2600  0.1366 -0.3613
   39ccc    H16 1201   4.925   3.877   2.509  2.1913  0.3952 -0.3161
   39ccc     O5 1202   4.124   3.909   2.613 -0.5627  0.7341 -0.9736
   39ccc    H17 1203   4.535   3.844   2.331  2.9670 -0.6660  0.5024
   40ccc     C1 1204   3.790   3.967   3.089  0.0869 -0.2304 -0.3003
   40ccc     H1 1205   3.703   3.932   3.033 -4.1436  4.2277  2.6588
   40ccc     H2 1206   3.756   3.968   3.193  0.2383  0.2943 -0.2553
   40ccc     C2 1207   3.814   4.114   3.034  0.0643 -0.7085  0.4311
   40ccc     H3 1208   3.724   4.169   3.063 -0.0851 -0.8931  0.3157
   40ccc     H4 1209   3.814   4.111   2.924 -1.6349  3.8696  0.0682
   40ccc     C3 1210   3.930   4.195   3.099 -0.4461 -0.0322  0.5758
   40ccc     H5 1211   3.985   4.143   3.177 -1.2613 -2.8075 -0.5648
   40ccc     H6 1212   3.889   4.288   3.138  0.2813  2.4705 -3.9271
   40ccc     N1 1213   4.040   4.256   3.006 -0.2737 -0.2793  0.3507
   40ccc     C4 1214   4.126   4.145   2.934  0.5446 -0.0743  0.1195
   40ccc     H7 1215   4.058   4.085   2.873 -0.4140  1.4245 -0.3489
   40ccc     H8 1216   4.171   4.082   3.011  0.6942 -1.9381 -1.4018
   40ccc     C5 1217   4.246   4.196   2.852 -0.1052  0.1650  0.2582
   40ccc     H9 1218   4.206   4.234   2.757 -1.2051  1.2557  1.1199
   40ccc    H10 1219   4.293   4.273   2.914 -1.9575  1.3730  0.2130
   40ccc     C6 1220   4.348   4.090   2.813  0.4026 -0.0662 -0.3179
   40ccc     O1 1221   4.330   3.970   2.822 -0.2130 -0.2750  0.6167
   40ccc     O2 1222   4.452   4.143   2.744  0.1861 -0.2012  0.4034
   40ccc    H11 1223   4.437   4.239   2.738  2.2777  0.2391  1.4853
   40ccc     C7 1224   3.971   4.346   2.905  0.3509 -0.7276 -0.0074
   40ccc    H12 1225   4.053   4.385   2.844 -0.2738 -0.0988 -0.4491
   40ccc    H13 1226   3.900   4.282   2.853 -2.3214  0.8199  1.5511
   40ccc     C8 1227   3.887   4.470   2.954 -0.3395  0.4856  0.2845
   40ccc    H14 1228   3.812   4.432   3.024  1.3998 -1.6339  1.1062
   40ccc    H15 1229   3.958   4.528   3.015  2.1053 -0.3283 -1.6235
   40ccc     C9 1230   3.826   4.543   2.839 -0.5611 -0.3701  0.4986
   40ccc     O3 1231   3.748   4.497   2.759 -0.0210 -0.4948  0.1058
   40ccc     O4 1232   3.842   4.671   2.852  0.2854  0.3869 -0.0110
   40ccc    H16 1233   3.798   4.708   2.773 -3.0683 -0.5852  1.2538
   40ccc     O5 1234   3.920   3.891   3.072  1.0193  0.1124 -0.5229
   40ccc    H17 1235   4.099   4.317   3.065 -0.4017 -0.7770  1.0105
   41ccc     C1 1236   5.531   2.707   2.884  0.1756  0.0774  0.0902
   41ccc     H1 1237   5.623   2.712   2.825  0.7905 -1.0398  0.9279
   41ccc     H2 1238   5.548   2.695   2.992  0.2508  2.2119  0.3697
   41ccc     C2 1239   5.445   2.589   2.829  0.3418  0.1941  0.3132
   41ccc     H3 1240   5.483   2.493   2.866 -1.8016  0.5131  3.7978
   41ccc     H4 1241   5.462   2.599   2.721 -2.4340  0.6554 -0.1525
   41ccc     C3 1242   5.293   2.591   2.862 -0.5605  0.3730  0.5409
   41ccc     H5 1243   5.251   2.691   2.867 -0.9613  0.1865  0.9158
   41ccc     H6 1244   5.272   2.532   2.951 -0.3763  0.5715  0.7155
   41ccc     N1 1245   5.217   2.502   2.758  0.0942 -0.1999 -0.2767
   41ccc     C4 1246   5.251   2.353   2.770  0.2006 -0.5274 -0.7619
   41ccc     H7 1247   5.233   2.333   2.876 -0.1454 -0.7716 -0.8656
   41ccc     H8 1248   5.358   2.344   2.752  0.2346 -1.6893 -0.0581
   41ccc     C5 1249   5.164   2.260   2.691 -0.0764 -0.5994  0.1503
   41ccc     H9 1250   5.060   2.256   2.723 -0.6646  0.0776 -1.5509
   41ccc    H10 1251   5.166   2.294   2.587  1.6582  1.5642  0.8212
   41ccc     C6 1252   5.218   2.117   2.690 -0.0478 -0.0014  0.3026
   41ccc     O1 1253   5.333   2.092   2.684  0.1671 -0.3107 -0.2382
   41ccc     O2 1254   5.130   2.020   2.665 -0.3631 -0.0896  0.0812
   41ccc    H11 1255   5.048   2.071   2.652  0.7830  1.4626 -1.6495
   41ccc     C7 1256   5.066   2.529   2.777  0.0560 -0.0723 -0.3033
   41ccc    H12 1257   5.017   2.445   2.727 -2.3283  0.5785  0.7884
   41ccc    H13 1258   5.042   2.533   2.883 -3.1499  2.0517 -0.9853
   41ccc     C8 1259   5.018   2.657   2.711  0.7643 -0.2795  0.3371
   41ccc    H14 1260   5.072   2.742   2.754  0.3560  0.5037 -0.6527
   41ccc    H15 1261   5.050   2.651   2.606  1.4919 -0.2394  0.5503
   41ccc     C9 1262   4.867   2.692   2.727 -0.0375 -0.2574  0.2074
   41ccc     O3 1263   4.794   2.649   2.817 -0.1423  0.0046 -0.2924
   41ccc     O4 1264   4.835   2.797   2.657  0.3512  0.6127 -0.6548
   41ccc    H16 1265   4.903   2.807   2.588 -0.7589  0.5839 -1.7804
   41ccc     O5 1266   5.455   2.823   2.868 -0.3210 -0.6305  0.0949
   41ccc    H17 1267   5.240   2.533   2.662  1.3393 -1.6671 -0.4947
   42ccc     C1 1268   5.285   3.733   2.807  0.3977  0.0555 -0.6053
   42ccc     H1 1269   5.197   3.796   2.826  0.0629 -0.8638  1.0300
   42ccc     H2 1270   5.352   3.768   2.886 -1.4180  0.1257  0.9561
   42ccc     C2 1271   5.352   3.759   2.671  0.4805  0.0031  0.5355
   42ccc     H3 1272   5.442   3.696   2.672 -1.9873 -3.8525 -0.2353
   42ccc     H4 1273   5.382   3.865   2.670  1.5736 -0.3036 -0.8057
   42ccc     C3 1274   5.273   3.718   2.546 -0.0023  0.7600  0.3394
   42ccc     H5 1275   5.183   3.780   2.538 -0.9224 -0.4896  0.8005
   42ccc     H6 1276   5.243   3.615   2.565 -0.6449  1.1319  1.4338
   42ccc     N1 1277   5.342   3.725   2.406 -0.0312 -0.4106  0.1576
   42ccc     C4 1278   5.470   3.639   2.392 -0.4162 -0.2415  0.6994
   42ccc     H7 1279   5.473   3.596   2.292  1.0557 -1.8845  1.3968
   42ccc     H8 1280   5.458   3.551   2.455  0.5668 -0.5469  0.4766
   42ccc     C5 1281   5.609   3.705   2.419  0.8118 -0.1042 -0.2224
   42ccc     H9 1282   5.646   3.753   2.327  2.3521  0.1656  0.5007
   42ccc    H10 1283   5.607   3.783   2.496 -1.0039 -0.2056 -0.1215
   42ccc     C6 1284   5.708   3.602   2.477  0.8037 -0.1157  0.2787
   42ccc     O1 1285   5.674   3.496   2.533 -0.2407  0.3355 -0.1976
   42ccc     O2 1286   5.832   3.647   2.481  0.1854 -0.2668 -0.4135
   42ccc    H11 1287   5.888   3.579   2.522 -0.3725  0.5760  1.9454
   42ccc     C7 1288   5.234   3.703   2.294  0.2918 -0.0149  0.2176
   42ccc    H12 1289   5.191   3.604   2.298 -3.1177  1.3721  0.8820
   42ccc    H13 1290   5.151   3.771   2.315  0.0891  0.2607 -1.3062
   42ccc     C8 1291   5.290   3.732   2.149  0.4604 -0.5625 -0.3185
   42ccc    H14 1292   5.347   3.826   2.155 -0.7143  0.0660  1.8386
   42ccc    H15 1293   5.363   3.657   2.113  1.3717 -0.1256  0.5663
   42ccc     C9 1294   5.181   3.753   2.040 -0.2392  0.5315  0.0418
   42ccc     O3 1295   5.063   3.760   2.070 -0.2555 -0.0439  0.0889
   42ccc     O4 1296   5.224   3.814   1.928 -0.5376 -0.5264 -0.4972
   42ccc    H16 1297   5.321   3.818   1.936 -0.6787  0.4048  1.2673
   42ccc     O5 1298   5.257   3.592   2.821  0.3186  0.3770  0.0884
   42ccc    H17 1299   5.370   3.822   2.390 -1.1644 -0.1457 -0.3169
   43ccc     C1 1300   2.572   2.315   2.784  0.1017  0.3694 -0.1910
   43ccc     H1 1301   2.535   2.290   2.884  1.3182 -2.8923 -0.4185
   43ccc     H2 1302   2.597   2.419   2.760 -0.3635 -0.1650 -3.3794
   43ccc     C2 1303   2.463   2.276   2.683 -0.1156  0.1865  0.5954
   43ccc     H3 1304   2.383   2.351   2.692 -0.0186  0.4374 -0.4444
   43ccc     H4 1305   2.422   2.176   2.705 -0.7543  0.1641 -0.5859
   43ccc     C3 1306   2.513   2.292   2.542  0.0304  0.9243 -0.0543
   43ccc     H5 1307   2.596   2.229   2.511 -1.2230  0.3583 -2.4414
   43ccc     H6 1308   2.547   2.396   2.537  0.9842  0.6771  0.8403
   43ccc     N1 1309   2.411   2.272   2.434 -0.7674 -0.3634  0.0757
   43ccc     C4 1310   2.469   2.321   2.297  0.3993 -0.1761  0.0177
   43ccc     H7 1311   2.401   2.296   2.216  0.3383 -2.0751  0.6042
   43ccc     H8 1312   2.559   2.259   2.289 -0.0092 -0.7341 -0.3712
   43ccc     C5 1313   2.509   2.462   2.278  0.4496  0.2901  0.7136
   43ccc     H9 1314   2.421   2.527   2.271  1.2893  1.4037  0.1723
   43ccc    H10 1315   2.583   2.490   2.355  0.8554  1.4989 -0.0884
   43ccc     C6 1316   2.574   2.482   2.147 -0.1305  0.0283  0.0990
   43ccc     O1 1317   2.558   2.413   2.049 -0.0832  0.3475  0.4810
   43ccc     O2 1318   2.665   2.579   2.139 -0.5541  0.5051 -1.0170
   43ccc    H11 1319   2.668   2.616   2.229  0.6485 -0.9371 -0.4273
   43ccc     C7 1320   2.361   2.128   2.424 -0.2045  0.4545  0.1794
   43ccc    H12 1321   2.448   2.065   2.406  0.5860  2.0580 -2.1569
   43ccc    H13 1322   2.308   2.101   2.515  0.0547  1.1113  0.5348
   43ccc     C8 1323   2.259   2.112   2.313  0.1351  0.8826  0.2067
   43ccc    H14 1324   2.162   2.160   2.333  0.0227  0.0451  1.8548
   43ccc    H15 1325   2.307   2.141   2.219  1.3216 -0.3874  0.3794
   43ccc     C9 1326   2.222   1.965   2.291 -1.1952  0.1056 -0.6874
   43ccc     O3 1327   2.297   1.874   2.325 -0.2731  0.0407 -0.5068
   43ccc     O4 1328   2.128   1.946   2.202  0.1373 -0.0484  0.0287
   43ccc    H16 1329   2.110   2.038   2.179  1.0733  0.4098  1.0193
   43ccc     O5 1330   2.681   2.223   2.748  0.3099 -0.2323 -0.2676
   43ccc    H17 1331   2.325   2.325   2.451 -0.8135 -0.2089 -0.6338
   44ccc     C1 1332   3.021   1.505   2.332  0.6744  0.2759 -1.3850
   44ccc     H1 1333   2.981   1.460   2.424  2.4713 -1.2056 -1.2753
   44ccc     H2 1334   2.954   1.483   2.249 -0.2192 -2.8603  0.0273
   44ccc     C2 1335   3.167   1.457   2.297  0.3580  0.0478  0.1179
   44ccc     H3 1336   3.169   1.351   2.267 -0.8863  0.0086  0.1274
   44ccc     H4 1337   3.236   1.467   2.382  0.1726 -1.0521  0.4199
   44ccc     C3 1338   3.229   1.544   2.185 -0.1705 -0.2305 -0.1339
   44ccc     H5 1339   3.236   1.649   2.212 -0.0008  0.0916 -1.3882
   44ccc     H6 1340   3.159   1.549   2.101  0.5556  0.2984 -0.7229
   44ccc     N1 1341   3.367   1.491   2.127 -0.4382  0.1884  0.2683
   44ccc     C4 1342   3.410   1.564   1.998  0.3562 -0.2179 -0.1970
   44ccc     H7 1343   3.511   1.531   1.976  1.0243  0.9144  0.9943
   44ccc     H8 1344   3.414   1.672   2.017  1.6450  0.2055 -2.6116
   44ccc     C5 1345   3.312   1.532   1.880 -0.1860 -0.5136 -0.4122
   44ccc     H9 1346   3.308   1.425   1.856 -0.5511 -0.4030 -0.8525
   44ccc    H10 1347   3.210   1.569   1.896  0.2020  0.4835 -0.1311
   44ccc     C6 1348   3.357   1.601   1.752 -0.1617  0.5411 -0.2909
   44ccc     O1 1349   3.470   1.650   1.747 -0.7081 -0.3748  0.0757
   44ccc     O2 1350   3.284   1.568   1.637 -0.3203 -0.1157 -0.3112
   44ccc    H11 1351   3.214   1.508   1.666 -0.0886 -0.0618  0.3672
   44ccc     C7 1352   3.479   1.502   2.234 -0.5947  0.6570  0.0892
   44ccc    H12 1353   3.492   1.610   2.246 -2.0166  0.9435 -0.7688
   44ccc    H13 1354   3.439   1.465   2.329 -0.3950  0.7675  0.2174
   44ccc     C8 1355   3.611   1.421   2.210  0.3047  0.7525 -0.1476
   44ccc    H14 1356   3.584   1.314   2.205  1.5355  0.2298  2.6119
   44ccc    H15 1357   3.660   1.463   2.121  0.1946 -0.2181 -0.6835
   44ccc     C9 1358   3.696   1.431   2.337  0.0516  0.3146 -0.0730
   44ccc     O3 1359   3.668   1.513   2.421 -0.7460  0.0741 -0.2999
   44ccc     O4 1360   3.819   1.368   2.335 -0.3592  0.3893  0.3352
   44ccc    H16 1361   3.824   1.317   2.252 -0.2245 -0.3267  0.7790
   44ccc     O5 1362   3.045   1.646   2.348 -0.0315 -0.7788 -0.8634
   44ccc    H17 1363   3.357   1.393   2.097  2.4182  0.6907 -2.9103
   45ccc     C1 1364   2.927   1.024   2.944  0.3290  0.4814 -0.6381
   45ccc     H1 1365   2.911   1.013   2.836 -1.2742 -1.5340 -0.2602
   45ccc     H2 1366   2.931   0.925   2.991  1.7934  0.7074 -0.2160
   45ccc     C2 1367   2.810   1.113   2.990  0.4797 -0.1256  1.1842
   45ccc     H3 1368   2.797   1.094   3.097  0.4489 -0.7611  1.0668
   45ccc     H4 1369   2.719   1.082   2.937  0.8318 -0.6097  0.8573
   45ccc     C3 1370   2.827   1.270   2.972  0.2053  0.5660  0.0344
   45ccc     H5 1371   2.744   1.298   2.906 -0.6203 -3.2879 -0.8478
   45ccc     H6 1372   2.915   1.288   2.910 -1.2136  2.0237 -1.6827
   45ccc     N1 1373   2.832   1.362   3.092  0.3252  0.0675 -0.0376
   45ccc     C4 1374   2.941   1.318   3.182  0.5644  0.3248  0.2641
   45ccc     H7 1375   3.027   1.322   3.115  0.7045  2.1342  0.5121
   45ccc     H8 1376   2.922   1.220   3.225  0.3048  0.7858  1.2162
   45ccc     C5 1377   2.965   1.404   3.303 -0.5569 -0.1252  0.0384
   45ccc     H9 1378   2.993   1.506   3.274  2.1587 -0.5793  0.7383
   45ccc    H10 1379   2.874   1.412   3.363 -1.4141 -2.4177 -0.8078
   45ccc     C6 1380   3.087   1.364   3.380 -0.0890  0.7210 -0.5435
   45ccc     O1 1381   3.144   1.263   3.361 -0.4044  0.1384  0.1415
   45ccc     O2 1382   3.157   1.463   3.436 -0.1528 -0.5054  0.2363
   45ccc    H11 1383   3.096   1.537   3.452  0.9155 -0.0759  2.8039
   45ccc     C7 1384   2.849   1.510   3.047  0.0444 -0.0081  0.0984
   45ccc    H12 1385   2.877   1.572   3.133  2.8769 -0.9556 -0.0128
   45ccc    H13 1386   2.937   1.510   2.982  0.1292 -1.8217  0.1517
   45ccc     C8 1387   2.725   1.572   2.979 -0.0562  0.2368  0.1086
   45ccc    H14 1388   2.707   1.531   2.878  0.7312 -0.3451  0.1885
   45ccc    H15 1389   2.642   1.557   3.048  1.6947 -1.4039  2.0077
   45ccc     C9 1390   2.744   1.723   2.955  0.4409 -0.5308  0.1930
   45ccc     O3 1391   2.823   1.773   2.879  0.2075 -0.1612 -0.0771
   45ccc     O4 1392   2.672   1.797   3.040  0.2453 -0.7688 -0.3063
   45ccc    H16 1393   2.716   1.884   3.051 -1.1782 -0.0704  0.0666
   45ccc     O5 1394   3.046   1.101   2.970  0.5040  0.9816 -0.3175
   45ccc    H17 1395   2.741   1.360   3.140 -0.4530  2.6109 -1.1921
   46ccc     C1 1396   3.511   1.345   3.528 -0.2592  0.2910 -0.4073
   46ccc     H1 1397   3.598   1.405   3.557  0.4068 -0.1487 -1.4056
   46ccc     H2 1398   3.422   1.401   3.560 -0.2614 -0.8483  1.7691
   46ccc     C2 1399   3.515   1.200   3.587  0.0294  0.1726  0.7098
   46ccc     H3 1400   3.567   1.198   3.684  0.5090 -3.5285  0.5278
   46ccc     H4 1401   3.579   1.135   3.526 -1.6402 -0.0951 -0.8391
   46ccc     C3 1402   3.370   1.151   3.572  0.0296  0.0906 -0.5198
   46ccc     H5 1403   3.342   1.161   3.467 -2.2570  0.6845  0.0929
   46ccc     H6 1404   3.298   1.211   3.627 -0.2961 -1.0387  0.3248
   46ccc     N1 1405   3.337   1.006   3.602  0.2024 -0.1524 -0.6410
   46ccc     C4 1406   3.357   0.972   3.753  0.3473  0.0534 -0.2463
   46ccc     H7 1407   3.300   1.047   3.808  1.3337  0.8007 -0.2104
   46ccc     H8 1408   3.464   0.972   3.775  0.1396 -2.7965  1.2069
   46ccc     C5 1409   3.314   0.833   3.802  0.6866 -0.0500 -0.0056
   46ccc     H9 1410   3.207   0.813   3.787  0.0335  2.6627  0.4743
   46ccc    H10 1411   3.351   0.746   3.746 -0.4662 -1.3004  1.1120
   46ccc     C6 1412   3.345   0.801   3.946  0.4120  0.8051  0.2816
   46ccc     O1 1413   3.265   0.767   4.030  0.3381 -0.0902 -0.3101
   46ccc     O2 1414   3.471   0.807   3.981  0.2696  0.5763 -0.1523
   46ccc    H11 1415   3.468   0.779   4.075  3.7216  0.7888  0.1680
   46ccc     C7 1416   3.195   0.962   3.544 -0.6853 -0.7750  0.8509
   46ccc    H12 1417   3.204   0.990   3.439 -1.4946 -0.3203  0.8917
   46ccc    H13 1418   3.186   0.854   3.553  0.0377 -1.3462 -3.3696
   46ccc     C8 1419   3.069   1.025   3.598 -0.3214  0.3176  0.1799
   46ccc    H14 1420   3.069   1.001   3.705 -0.5395 -1.3728 -0.1560
   46ccc    H15 1421   3.061   1.134   3.589 -0.9037  0.3411  0.8632
   46ccc     C9 1422   2.955   0.957   3.530 -0.5645 -0.2175 -0.2923
   46ccc     O3 1423   2.854   0.917   3.589 -0.0348  0.3233  0.0961
   46ccc     O4 1424   2.931   1.014   3.419  0.3174  0.0563 -0.1480
   46ccc    H16 1425   2.835   0.995   3.411  0.1616  0.2389  1.1086
   46ccc     O5 1426   3.511   1.327   3.386 -0.2583 -0.6264 -0.1633
   46ccc    H17 1427   3.409   0.949   3.556  0.9598  0.2014  0.0826
   47SOL     OW 1428   6.333   3.977   1.532  0.4787  0.1381 -0.2848
   47SOL    HW1 1429   6.240   3.999   1.540  0.3549 -0.7371  1.1227
   47SOL    HW2 1430   6.376   4.061   1.517 -0.6598  0.3861 -2.7208
   48SOL     OW 1431   2.508   1.658   5.235  0.2116 -0.4545 -0.3783
   48SOL    HW1 1432   2.489   1.649   5.141  0.4933  0.6835 -0.5579
   48SOL    HW2 1433   2.442   1.605   5.278 -0.1182 -0.7340 -1.2131
   49SOL     OW 1434   1.587   6.810   7.499  0.2868  0.0615  0.3953
   49SOL    HW1 1435   1.650   6.830   7.429  0.8394  0.0972  0.8975
   49SOL    HW2 1436   1.639   6.769   7.567 -0.3760 -0.6107  0.5033
   50SOL     OW 1437   1.110   4.030   2.410  0.7489  0.0213 -0.3038
   50SOL    HW1 1438   1.132   4.083   2.334 -1.0376  2.1409  0.5438
   50SOL    HW2 1439   1.034   3.978   2.382 -0.0467  0.9640  0.0551
   51SOL     OW 1440   8.017   8.181   1.602  0.2946  0.3686  0.7001
   51SOL    HW1 1441   7.964   8.102   1.595 -0.6646  0.8545  2.1120
   51SOL    HW2 1442   7.999   8.215   1.689  1.4676  1.6100  0.4990
   52SOL     OW 1443   1.177   7.875   2.970  0.2039  0.3200 -0.2916
   52SOL    HW1 1444   1.217   7.830   3.045  1.1074 -0.2038 -1.0584
   52SOL    HW2 1445   1.167   7.966   2.999  1.3001  0.3070  0.1970
   53SOL     OW 1446   8.459   2.175   0.562  0.0439  0.3683 -0.4523
   53SOL    HW1 1447   8.495   2.158   0.649  3.1218  1.7804 -1.2930
   53SOL    HW2 1448   8.375   2.218   0.578  0.2526  0.0683  1.7743
   54SOL     OW 1449   1.692   7.163   7.552  0.4115 -0.0093 -0.0126
   54SOL    HW1 1450   1.714   7.254   7.574  3.6124 -0.5506 -0.4312
   54SOL    HW2 1451   1.721   7.113   7.628  0.9708 -0.8707 -0.7777
   55SOL     OW 1452   2.244   4.165   1.078  0.5519  0.5939  0.5280
   55SOL    HW1 1453   2.311   4.222   1.041  0.9914 -0.4839 -0.3957
   55SOL    HW2 1454   2.235   4.194   1.169  1.3426  1.5822  0.3060
   56SOL     OW 1455   4.998   5.561   0.419  0.4255 -0.3267  0.2014
   56SOL    HW1 1456   4.969   5.613   0.344  0.8365 -0.6030 -0.1503
   56SOL    HW2 1457   5.093   5.567   0.418  0.4140  0.3536  1.2001
   57SOL     OW 1458   8.439   8.676   1.469 -0.7167 -0.1384 -0.2823
   57SOL    HW1 1459   8.508   8.738   1.446  0.1053 -0.5287  1.0205
   57SOL    HW2 1460   8.480   8.590   1.461 -1.2790 -0.4175 -0.2279
   58SOL     OW 1461   7.566   4.452   3.923  0.5625  0.2936  0.3326
   58SOL    HW1 1462   7.638   4.422   3.978  0.7151 -1.8301 -0.8982
   58SOL    HW2 1463   7.609   4.499   3.852  0.6880 -0.2540  0.0397
   59SOL     OW 1464   0.311   7.780   7.760 -0.3565 -0.0088  0.4584
   59SOL    HW1 1465   0.394   7.776   7.713 -1.5186 -2.0664 -1.6671
   59SOL    HW2 1466   0.333   7.757   7.850  1.3274 -0.9358 -0.1493
   60SOL     OW 1467   0.510   3.684   0.418 -0.0287  0.1720 -0.4674
   60SOL    HW1 1468   0.452   3.760   0.419  0.5050  0.5840  0.2622
   60SOL    HW2 1469   0.542   3.680   0.328 -2.7922 -1.3414 -1.5015
   61SOL     OW 1470   3.006   2.884   5.600 -0.8823  0.3783 -0.1819
   61SOL    HW1 1471   2.980   2.953   5.662 -1.3189  0.0986 -0.0510
   61SOL    HW2 1472   3.036   2.812   5.656  0.9196  0.9577 -0.3296
   62SOL     OW 1473   0.615   5.062   3.979  0.4550  0.2073  0.9412
   62SOL    HW1 1474   0.541   5.064   3.919  0.1822 -0.4115  1.2498
   62SOL    HW2 1475   0.670   4.991   3.947  1.4541  1.3100  0.1046
   63SOL     OW 1476   4.266   0.794   0.610  0.0361 -0.3483 -0.5354
   63SOL    HW1 1477   4.302   0.708   0.588 -0.7587 -1.7935  3.2175
   63SOL    HW2 1478   4.215   0.780   0.689 -0.5833  3.5238 -0.0553
   64SOL     OW 1479   7.917   8.101   3.519  0.2347 -0.2867 -0.0729
   64SOL    HW1 1480   7.965   8.177   3.486  1.2920 -1.0586 -0.3482
   64SOL    HW2 1481   7.916   8.039   3.446  0.1438 -0.8908  0.4337
   65SOL     OW 1482   7.440   2.215   2.084  0.4212  0.0500  0.0528
   65SOL    HW1 1483   7.494   2.170   2.149  0.5806  0.8099  0.4529
   65SOL    HW2 1484   7.440   2.307   2.111 -1.4852  0.0085  0.3600
   66SOL     OW 1485   5.051   6.853   1.294 -0.1566 -0.5068 -0.1740
   66SOL    HW1 1486   5.086   6.770   1.328  0.4903  0.7365  2.4093
   66SOL    HW2 1487   5.126   6.898   1.256  0.4082  0.5934  2.1065
   67SOL     OW 1488   8.543   0.302   2.715 -0.6757 -0.4005 -0.4605
   67SOL    HW1 1489   8.621   0.279   2.765 -1.4192 -0.1020  0.9036
   67SOL    HW2 1490   8.557   0.392   2.687 -1.9599  1.0061  2.8980
   68SOL     OW 1491   3.849   4.767   0.191  0.4881 -0.0884  0.1121
   68SOL    HW1 1492   3.885   4.842   0.239 -0.5035 -0.1774  1.0500
   68SOL    HW2 1493   3.785   4.729   0.251  0.1146 -0.9829 -0.8169
   69SOL     OW 1494   6.427   8.018   8.546  0.3919 -0.0298  0.0126
   69SOL    HW1 1495   6.413   8.001   8.639 -0.6703 -1.6847 -0.4042
   69SOL    HW2 1496   6.512   7.978   8.528  0.3545 -0.1767  0.1564
   70SOL     OW 1497   6.796   4.726   1.890 -0.6709 -0.1752  0.5284
   70SOL    HW1 1498   6.794   4.793   1.822  0.2678 -0.9886 -0.3172
   70SOL    HW2 1499   6.889   4.709   1.905 -0.8931 -1.4191  0.6027
   71SOL     OW 1500   5.259   7.401   6.161  0.4617  0.0829  0.0660
   71SOL    HW1 1501   5.216   7.485   6.170  2.6268  1.2023  0.5820
   71SOL    HW2 1502   5.341   7.420   6.115  0.3164 -1.9910 -1.2050
   72SOL     OW 1503   2.243   3.053   8.567  0.1796 -0.0933 -0.2799
   72SOL    HW1 1504   2.245   3.137   8.521  1.8529  0.3977  0.6222
   72SOL    HW2 1505   2.221   2.989   8.499 -2.2137  1.1505 -0.7876
   73SOL     OW 1506   2.142   4.737   1.964  0.2897 -0.1193 -0.1643
   73SOL    HW1 1507   2.130   4.677   2.038  0.0111 -1.2136 -1.0678
   73SOL    HW2 1508   2.062   4.727   1.912  0.7323  0.1896 -0.9208
   74SOL     OW 1509   8.172   7.530   0.224 -0.5742  0.0026  0.3398
   74SOL    HW1 1510   8.180   7.620   0.256 -1.1161 -0.2433  1.1898
   74SOL    HW2 1511   8.125   7.539   0.140 -1.6175  0.4345  0.9465
   75SOL     OW 1512   6.074   5.084   1.898  0.1217 -0.0952  0.1494
   75SOL    HW1 1513   5.981   5.101   1.913  0.4259  1.6638  0.3544
   75SOL    HW2 1514   6.080   5.060   1.806 -0.4963  0.3071 -0.0041
   76SOL     OW 1515   8.186   2.863   3.125 -0.2703  0.1049  0.3423
   76SOL    HW1 1516   8.238   2.889   3.201 -0.0059 -1.5151  0.7448
   76SOL    HW2 1517   8.236   2.792   3.085 -0.2551  1.0967 -1.5316
   77SOL     OW 1518   1.856   7.233   3.685  0.3187 -0.1136 -0.3268
   77SOL    HW1 1519   1.894   7.311   3.644 -0.9260  0.5016 -0.3752
   77SOL    HW2 1520   1.928   7.170   3.690  1.0712  0.6421 -1.3001
   78SOL     OW 1521   1.666   6.382   1.417  0.2384 -0.3513  0.8316
   78SOL    HW1 1522   1.593   6.435   1.449 -0.7602 -1.0774 -0.1813
   78SOL    HW2 1523   1.658   6.299   1.464  0.8927 -0.1615  1.2925
   79SOL     OW 1524   7.136   2.646   8.277 -0.5847  0.4486  0.3126
   79SOL    HW1 1525   7.150   2.552   8.285 -1.2343  0.2826 -0.3747
   79SOL    HW2 1526   7.218   2.686   8.307 -0.3303 -0.3295  0.6623
   80SOL     OW 1527   0.267   4.660   3.826  0.7833 -0.2667 -0.2072
   80SOL    HW1 1528   0.317   4.581   3.803  0.7863 -0.4416  0.3893
   80SOL    HW2 1529   0.257   4.707   3.743  1.4633 -0.5050 -0.4287
   81SOL     OW 1530   0.720   2.080   3.363 -0.0100  0.0674  0.8712
   81SOL    HW1 1531   0.645   2.122   3.405  0.0200  1.4200 -0.3669
   81SOL    HW2 1532   0.789   2.083   3.429 -0.1100  1.6884  0.9451
   82SOL     OW 1533   2.304   3.094   3.279  0.2168  0.1861  0.3894
   82SOL    HW1 1534   2.261   3.169   3.237  2.0200  1.7845  1.2546
   82SOL    HW2 1535   2.233   3.030   3.292 -0.9760  0.8382 -2.2715
   83SOL     OW 1536   3.418   6.744   2.141  0.3834  0.0529  0.2135
   83SOL    HW1 1537   3.381   6.686   2.074  1.0352 -0.5220  0.3379
   83SOL    HW2 1538   3.407   6.695   2.223  3.5170 -1.2286 -0.0112
   84SOL     OW 1539   4.673   1.215   6.363  0.2906 -0.0555 -0.4901
   84SOL    HW1 1540   4.756   1.189   6.325  0.3299 -1.0429  0.2274
   84SOL    HW2 1541   4.610   1.211   6.291  0.5093 -1.1258 -0.6315
   85SOL     OW 1542   3.722   3.911   7.931 -0.4523  0.3212 -0.0256
   85SOL    HW1 1543   3.711   3.934   8.023  0.2888  0.7904 -0.0464
   85SOL    HW2 1544   3.669   3.976   7.884 -1.3973 -0.3450  0.0906
   86SOL     OW 1545   0.399   3.900   0.064  0.0361 -0.0840  0.0815
   86SOL    HW1 1546   0.369   3.826   0.116 -0.0869  0.8157  1.3404
   86SOL    HW2 1547   0.339   3.902  -0.011  0.8002 -1.9633 -0.6499
   87SOL     OW 1548   3.690   7.948   3.605  0.1478 -0.2763  0.1419
   87SOL    HW1 1549   3.737   7.938   3.522 -0.8037  0.4240 -0.5150
   87SOL    HW2 1550   3.758   7.963   3.670  0.8113  2.7224 -1.0882
   88SOL     OW 1551   7.096   6.302   3.059  0.4067 -0.4951 -0.3290
   88SOL    HW1 1552   7.056   6.231   3.110  0.2641  1.1733  2.0042
   88SOL    HW2 1553   7.190   6.295   3.077  0.3530  0.1164  0.2357
   89SOL     OW 1554   6.118   6.215   3.025  0.1805 -0.1798  0.7741
   89SOL    HW1 1555   6.122   6.194   3.118  0.0303 -0.9684  0.6069
   89SOL    HW2 1556   6.025   6.213   3.004 -0.0664  2.5936  1.1634
   90SOL     OW 1557   4.811   2.941   6.043  0.5482 -0.1803  0.5055
   90SOL    HW1 1558   4.892   2.898   6.070  0.2686 -0.7864  0.3982
   90SOL    HW2 1559   4.839   3.027   6.010  1.0191  0.0914  1.5684
   91SOL     OW 1560   1.189   6.624   0.053  0.4662 -0.2384 -0.4341
   91SOL    HW1 1561   1.170   6.694  -0.009  0.7378 -0.8819 -1.2649
   91SOL    HW2 1562   1.281   6.635   0.075 -0.0224  0.9664  1.1344
   92SOL     OW 1563   7.394   3.013   2.614 -0.2863  0.0419  0.3648
   92SOL    HW1 1564   7.352   2.934   2.648  0.9036  0.1281  2.1919
   92SOL    HW2 1565   7.425   2.989   2.527 -2.1569 -0.6741 -0.1621
   93SOL     OW 1566   7.660   7.546   0.649  0.3678 -0.2531  0.0926
   93SOL    HW1 1567   7.650   7.466   0.701  0.0173  0.9704  2.0510
   93SOL    HW2 1568   7.741   7.585   0.681  0.2476  0.4383 -0.4288
   94SOL     OW 1569   1.622   1.548   3.534  0.1325  0.2659  0.4047
   94SOL    HW1 1570   1.672   1.574   3.611  0.0602 -0.6144  0.7526
   94SOL    HW2 1571   1.680   1.490   3.486  0.5161  1.4926 -0.6812
   95SOL     OW 1572   0.088   2.233   7.734  0.1027  0.5462  0.2107
   95SOL    HW1 1573   0.181   2.256   7.733  0.4852 -0.8992  0.1434
   95SOL    HW2 1574   0.043   2.316   7.743  1.4289  1.2222  0.9141
   96SOL     OW 1575   0.454   0.596   3.691  0.3984 -0.3487 -0.4744
   96SOL    HW1 1576   0.524   0.538   3.662  0.1575 -0.5326 -0.6914
   96SOL    HW2 1577   0.412   0.549   3.764  0.6687 -0.1201 -0.1668
   97SOL     OW 1578   6.286   6.770   6.860  0.0503 -0.3085 -0.1077
   97SOL    HW1 1579   6.265   6.726   6.942  0.3351  0.7166  0.5327
   97SOL    HW2 1580   6.382   6.767   6.855  0.0516 -0.0628 -0.2357
   98SOL     OW 1581   8.259   0.922   2.847  0.0491  0.7820  0.0785
   98SOL    HW1 1582   8.238   1.015   2.855 -1.0363  0.4443  1.4259
   98SOL    HW2 1583   8.276   0.893   2.936 -1.4005 -0.7129 -0.0725
   99SOL     OW 1584   2.049   3.715   5.060  0.1329 -0.1432 -0.5017
   99SOL    HW1 1585   1.953   3.710   5.053 -0.2481  3.6855 -0.0619
   99SOL    HW2 1586   2.066   3.722   5.154  1.0456 -2.1601 -0.4647
  100SOL     OW 1587   4.846   8.119   7.554  0.0216  0.2396 -0.2564
  100SOL    HW1 1588   4.812   8.178   7.487  1.6740  2.0965  0.4498
  100SOL    HW2 1589   4.825   8.161   7.637  0.2702 -0.7243  0.3162
  101SOL     OW 1590   1.075   0.690   1.691 -0.1751  0.2676 -0.0299
  101SOL    HW1 1591   1.046   0.780   1.707 -0.2962  0.3132 -0.4719
  101SOL    HW2 1592   1.002   0.636   1.719  0.1625  0.2693  0.8687
  102SOL     OW 1593   1.444   4.090   1.827 -0.1676 -0.2334 -0.2700
  102SOL    HW1 1594   1.359   4.083   1.872 -0.9918  0.5226 -1.6508
  102SOL    HW2 1595   1.485   4.004   1.841 -0.6026 -0.1849  1.4701
  103SOL     OW 1596   3.323   6.408   4.651 -0.1081 -0.3448 -0.1911
  103SOL    HW1 1597   3.326   6.503   4.660  0.0381 -0.3134 -0.5451
  103SOL    HW2 1598   3.239   6.391   4.608  0.5258 -0.2549 -1.4941
  104SOL     OW 1599   7.498   1.554   3.667 -0.2682 -0.3130 -0.1890
  104SOL    HW1 1600   7.497   1.615   3.741  0.1055 -1.4953  0.8320
  104SOL    HW2 1601   7.520   1.608   3.591  0.7962  0.7121  0.7978
  105SOL     OW 1602   0.494   7.274   3.189 -0.1145  0.1403 -0.3403
  105SOL    HW1 1603   0.465   7.328   3.262  0.1299 -2.3017  1.7046
  105SOL    HW2 1604   0.415   7.262   3.135 -0.4634  1.4359 -0.1378
  106SOL     OW 1605   1.029   3.725   2.938 -0.2046  0.0006 -0.1849
  106SOL    HW1 1606   0.979   3.655   2.897 -1.3129 -0.5499  1.9431
  106SOL    HW2 1607   1.001   3.805   2.893 -3.6295 -0.1836  1.3560
  107SOL     OW 1608   4.513   0.406   5.227  0.0947 -0.4479  0.2614
  107SOL    HW1 1609   4.550   0.371   5.308 -1.9452  3.2059  3.0278
  107SOL    HW2 1610   4.445   0.342   5.202  0.0376 -1.1309  2.0528
  108SOL     OW 1611   1.417   7.467   3.906  1.0395 -0.0954  0.3218
  108SOL    HW1 1612   1.473   7.509   3.971  0.8891  1.3839 -0.4708
  108SOL    HW2 1613   1.467   7.390   3.878  1.6621 -0.0454  1.2433
  109SOL     OW 1614   5.845   8.353   3.182  0.0759 -0.5636  0.3425
  109SOL    HW1 1615   5.770   8.369   3.124  2.1962 -1.2626 -2.8450
  109SOL    HW2 1616   5.815   8.285   3.242 -2.5274  0.8045  0.7639
  110SOL     OW 1617   7.793   1.496   1.014  0.3982  0.2422 -0.5859
  110SOL    HW1 1618   7.835   1.440   0.948  0.3944 -1.5745  0.8539
  110SOL    HW2 1619   7.767   1.435   1.083  0.4774  2.0740  1.1386
  111SOL     OW 1620   7.743   2.092   6.283 -0.1175 -0.3485 -0.0814
  111SOL    HW1 1621   7.706   2.036   6.350 -1.0866 -0.4376 -0.6697
  111SOL    HW2 1622   7.763   2.174   6.328  0.3515 -0.8087  0.5601
  112SOL     OW 1623   1.621   4.349   0.267  0.3597  0.4573  0.1960
  112SOL    HW1 1624   1.701   4.308   0.236 -1.4017 -3.9284  0.6751
  112SOL    HW2 1625   1.580   4.386   0.188  1.2147 -0.3924 -0.6554
  113SOL     OW 1626   4.336   3.560   7.789 -0.6737  0.0663 -0.2573
  113SOL    HW1 1627   4.303   3.472   7.769 -0.1254 -0.2815  0.3361
  113SOL    HW2 1628   4.267   3.619   7.757 -1.7053 -0.6206  0.6090
  114SOL     OW 1629   0.608   3.958   4.570  0.4633 -0.3621  0.0117
  114SOL    HW1 1630   0.569   3.892   4.513  2.2694 -0.7604 -0.8275
  114SOL    HW2 1631   0.644   3.907   4.643 -0.3231 -0.0244  0.6517
  115SOL     OW 1632   0.792   8.238   7.682  0.3905  0.2034  0.5644
  115SOL    HW1 1633   0.837   8.322   7.691  0.3339  0.2988 -0.0075
  115SOL    HW2 1634   0.846   8.188   7.622 -0.6815  0.6288 -0.8103
  116SOL     OW 1635   2.551   8.064   1.064  0.1510  0.6161  0.3161
  116SOL    HW1 1636   2.614   8.071   1.135 -0.0448  0.5774  0.4946
  116SOL    HW2 1637   2.466   8.055   1.108  0.2574 -2.0775  0.1742
  117SOL     OW 1638   3.653   0.278   2.895  0.4123  0.1022 -0.8897
  117SOL    HW1 1639   3.688   0.366   2.904  1.2910 -0.2897 -0.2784
  117SOL    HW2 1640   3.717   0.231   2.842  0.7616 -0.5705  0.0747
  118SOL     OW 1641   1.758   5.285   1.452 -0.2679  0.3905 -0.1754
  118SOL    HW1 1642   1.756   5.190   1.439  0.6848  0.1325  1.3392
  118SOL    HW2 1643   1.845   5.312   1.422 -0.9278  0.9808 -1.6396
  119SOL     OW 1644   2.686   6.558   6.149  0.0740  0.5376  0.7634
  119SOL    HW1 1645   2.614   6.617   6.127  0.9117  0.9752 -1.0517
  119SOL    HW2 1646   2.764   6.602   6.113  0.9934 -0.7606  1.1014
  120SOL     OW 1647   6.287   3.978   5.994 -0.2631 -0.1272 -0.3350
  120SOL    HW1 1648   6.228   4.031   6.046 -0.1315  0.6817 -0.9850
  120SOL    HW2 1649   6.267   4.001   5.903 -0.5109 -1.5304 -0.6620
  121SOL     OW 1650   1.674   4.635   2.412 -0.2328 -0.0808  0.0665
  121SOL    HW1 1651   1.612   4.708   2.410 -0.0757  0.0394 -0.4656
  121SOL    HW2 1652   1.684   4.615   2.505  1.3620  1.9563  0.3881
  122SOL     OW 1653   5.157   7.280   1.441  0.1705 -0.3034  0.4045
  122SOL    HW1 1654   5.219   7.235   1.383 -0.0847  0.2536 -0.3121
  122SOL    HW2 1655   5.136   7.361   1.395 -2.4887 -1.2650 -0.2595
  123SOL     OW 1656   4.305   8.555   6.973  0.3754 -0.0254  0.2518
  123SOL    HW1 1657   4.288   8.469   7.009 -0.5347 -0.6122 -1.4673
  123SOL    HW2 1658   4.380   8.542   6.914 -0.1910  0.1933 -0.5284
  124SOL     OW 1659   4.864   7.991   3.894 -0.5219  0.2259 -0.4147
  124SOL    HW1 1660   4.891   7.900   3.899 -1.7807 -0.1302  0.8867
  124SOL    HW2 1661   4.942   8.039   3.866  0.4781 -1.1137 -0.0101
  125SOL     OW 1662   0.035   6.449   7.753  0.5025  0.3583 -0.0919
  125SOL    HW1 1663  -0.005   6.533   7.730  0.5466  0.6518  0.8777
  125SOL    HW2 1664   0.117   6.472   7.796  0.1194 -0.1415  0.9396
  126SOL     OW 1665   0.034   2.603   7.092 -0.2280 -0.2770  0.4210
  126SOL    HW1 1666  -0.042   2.660   7.102 -0.2135  0.1898 -1.6404
  126SOL    HW2 1667   0.106   2.650   7.135 -1.3789 -1.5961  4.1364
  127SOL     OW 1668   7.668   1.454   0.507  0.0993 -0.4262  0.0411
  127SOL    HW1 1669   7.587   1.498   0.482  0.8909 -0.2596 -2.5576
  127SOL    HW2 1670   7.643   1.363   0.521 -0.8006 -0.0457  1.0268
  128SOL     OW 1671   2.389   4.386   1.457  0.1160  0.4148 -0.4601
  128SOL    HW1 1672   2.472   4.338   1.461 -0.3565 -0.5274 -1.3297
  128SOL    HW2 1673   2.414   4.477   1.441  1.0914  0.7660  2.4673
  129SOL     OW 1674   0.456   6.414   6.935  0.2408  0.2990  0.5281
  129SOL    HW1 1675   0.397   6.415   7.010 -0.5074  1.4603 -0.0322
  129SOL    HW2 1676   0.450   6.325   6.901 -0.8251  0.2601  0.7734
  130SOL     OW 1677   2.697   7.175   2.476 -0.4598 -0.4210 -0.1476
  130SOL    HW1 1678   2.735   7.253   2.435 -0.2472 -0.4526 -0.0120
  130SOL    HW2 1679   2.657   7.127   2.403  1.2589 -1.2650 -0.5911
  131SOL     OW 1680   0.134   3.175   5.396  0.0445  0.6262 -0.1877
  131SOL    HW1 1681   0.169   3.157   5.309 -1.3925  0.2590 -0.7300
  131SOL    HW2 1682   0.151   3.095   5.446  1.1027  0.9345 -0.0381
  132SOL     OW 1683   6.873   8.231   7.872 -0.3090 -0.4396  0.2865
  132SOL    HW1 1684   6.784   8.244   7.840 -0.1060  1.1286  0.3045
  132SOL    HW2 1685   6.908   8.319   7.883  1.7119 -1.0312 -0.9724
  133SOL     OW 1686   2.243   7.015   8.260  0.7368 -0.1458 -0.6461
  133SOL    HW1 1687   2.231   7.080   8.190 -0.4005  1.4349  0.9326
  133SOL    HW2 1688   2.250   6.931   8.213  1.0241  0.9424 -2.6883
  134SOL     OW 1689   3.012   2.241   7.513  0.2440 -0.0993 -0.4392
  134SOL    HW1 1690   2.958   2.320   7.506 -1.1497 -0.6632  2.3487
  134SOL    HW2 1691   3.102   2.273   7.510 -0.2874  1.6844  0.9327
  135SOL     OW 1692   7.049   4.998   7.436  0.7384  0.1914  0.1673
  135SOL    HW1 1693   7.111   5.008   7.508  0.3272  0.2491  0.5227
  135SOL    HW2 1694   7.001   5.081   7.435  0.1183 -0.1557  0.4333
  136SOL     OW 1695   6.999   3.187   8.264 -0.2970 -0.1507  0.1222
  136SOL    HW1 1696   7.071   3.140   8.305 -1.2452 -0.3323  1.6714
  136SOL    HW2 1697   6.923   3.131   8.277 -0.8448  0.3180 -0.9245
  137SOL     OW 1698   5.541   2.158   2.477 -0.8302  0.6969 -0.3036
  137SOL    HW1 1699   5.477   2.134   2.544 -2.5737 -1.1770 -2.4596
  137SOL    HW2 1700   5.580   2.075   2.451  0.2976  1.4678 -1.1563
  138SOL     OW 1701   4.833   1.420   3.977 -0.2816  0.1062 -0.1807
  138SOL    HW1 1702   4.874   1.506   3.977  0.1494 -0.0616 -2.1146
  138SOL    HW2 1703   4.739   1.438   3.969 -0.1430  0.4225 -1.3335
  139SOL     OW 1704   1.176   5.480   0.110  0.0723  0.1405  0.2779
  139SOL    HW1 1705   1.112   5.520   0.169  1.4657  1.8354  0.7496
  139SOL    HW2 1706   1.162   5.523   0.026  0.5197  0.4930  0.3736
  140SOL     OW 1707   5.856   5.522   7.465 -0.1245 -0.1784  0.0624
  140SOL    HW1 1708   5.898   5.457   7.408  0.3963 -0.0815  0.3227
  140SOL    HW2 1709   5.888   5.606   7.431  0.1180 -0.1177  0.4362
  141SOL     OW 1710   4.191   5.769   3.982  0.1566 -0.2361 -0.1973
  141SOL    HW1 1711   4.265   5.829   3.978 -1.1916  1.7303  1.8098
  141SOL    HW2 1712   4.165   5.757   3.891  0.5322  2.2419 -0.7132
  142SOL     OW 1713   1.910   4.189   3.701 -0.0033  0.4110 -0.3126
  142SOL    HW1 1714   1.817   4.182   3.683 -0.1192  1.1391 -0.0308
  142SOL    HW2 1715   1.929   4.283   3.695  0.2004  0.5748  2.0856
  143SOL     OW 1716   6.255   3.178   3.193  0.8939  0.1451 -0.5163
  143SOL    HW1 1717   6.290   3.244   3.253  0.7293 -0.2821  0.0640
  143SOL    HW2 1718   6.270   3.094   3.238  1.3878 -0.2466 -1.3805
  144SOL     OW 1719   6.744   7.558   6.173  0.6141  0.2122 -0.2610
  144SOL    HW1 1720   6.661   7.548   6.219 -0.4803 -0.6976 -2.3172
  144SOL    HW2 1721   6.730   7.518   6.088  2.0028  3.1584 -2.0643
  145SOL     OW 1722   7.780   3.212   0.084 -0.3516  0.0962 -0.1168
  145SOL    HW1 1723   7.713   3.146   0.099 -2.7004  0.7044 -5.6732
  145SOL    HW2 1724   7.857   3.162   0.055  0.5282 -0.3616  2.6694
  146SOL     OW 1725   6.410   6.529   4.668 -0.5403  0.2941  0.0739
  146SOL    HW1 1726   6.432   6.577   4.589 -1.0101 -1.6788 -1.3289
  146SOL    HW2 1727   6.435   6.588   4.740  2.0119  1.2732 -1.4766
  147SOL     OW 1728   4.004   8.286   3.843  0.2475 -0.0196 -0.2963
  147SOL    HW1 1729   4.029   8.347   3.774 -1.2740 -0.1776 -1.0260
  147SOL    HW2 1730   4.085   8.238   3.864  0.6949 -0.1089 -2.0970
  148SOL     OW 1731   0.813   7.062   7.292 -0.2527 -0.0624  0.2111
  148SOL    HW1 1732   0.811   7.093   7.202 -2.4102  2.7669  1.0897
  148SOL    HW2 1733   0.903   7.080   7.321  0.4752 -1.0189 -1.2901
  149SOL     OW 1734   0.284   1.200   5.572  0.2088  0.2579 -0.0430
  149SOL    HW1 1735   0.311   1.239   5.655 -0.6597  0.9104 -0.0574
  149SOL    HW2 1736   0.208   1.147   5.594  0.0973  0.2691 -0.3943
  150SOL     OW 1737   5.466   1.026   1.574  0.1315  0.1042 -0.0682
  150SOL    HW1 1738   5.512   1.047   1.656  0.6614 -2.4886  0.3799
  150SOL    HW2 1739   5.520   1.066   1.506  0.6983  0.7400  0.7270
  151SOL     OW 1740   2.050   8.432   1.101  0.0282  0.9457  0.5462
  151SOL    HW1 1741   2.131   8.442   1.051 -0.5654  0.1655 -0.6110
  151SOL    HW2 1742   2.068   8.476   1.184  2.1698 -0.4835  0.9331
  152SOL     OW 1743   6.967   0.595   2.884  0.1642  0.3950 -0.3744
  152SOL    HW1 1744   6.921   0.679   2.881  0.6995  0.7173  0.2967
  152SOL    HW2 1745   7.059   0.618   2.877  0.2720 -0.2079 -1.1163
  153SOL     OW 1746   2.161   4.744   3.418  0.2137  0.3309 -0.0011
  153SOL    HW1 1747   2.232   4.785   3.468 -0.6115  1.0640  0.5843
  153SOL    HW2 1748   2.155   4.796   3.338  1.2830 -0.6147 -0.7292
  154SOL     OW 1749   3.368   0.751   1.064 -0.3389 -0.5409  1.1638
  154SOL    HW1 1750   3.398   0.814   1.130  0.8045 -2.1047  2.2274
  154SOL    HW2 1751   3.406   0.668   1.093 -2.9360 -2.0111  0.6150
  155SOL     OW 1752   7.005   2.607   1.999  0.3149  0.1465 -0.3003
  155SOL    HW1 1753   6.983   2.524   2.043  0.1731  0.3987  0.1069
  155SOL    HW2 1754   7.015   2.583   1.907  3.7477 -1.0293  0.2265
  156SOL     OW 1755   8.015   5.469   5.926  0.2522 -0.1430  0.1358
  156SOL    HW1 1756   7.937   5.507   5.967  0.0278  0.1161 -0.5254
  156SOL    HW2 1757   8.019   5.380   5.961 -0.3357 -0.1558  0.1776
  157SOL     OW 1758   5.026   4.095   4.426  0.1111  0.2899  1.0394
  157SOL    HW1 1759   5.108   4.082   4.475  0.4833 -0.7155  0.1951
  157SOL    HW2 1760   5.008   4.189   4.434  2.9555  1.1637 -1.1679
  158SOL     OW 1761   1.986   2.815   8.166  0.4241  0.1158  0.2630
  158SOL    HW1 1762   2.002   2.896   8.216 -1.6177  0.1406  0.9517
  158SOL    HW2 1763   1.898   2.788   8.192  0.2006 -1.1389 -1.6503
  159SOL     OW 1764   0.631   0.328   5.397  0.0814 -0.3850 -0.8542
  159SOL    HW1 1765   0.691   0.387   5.351  1.4083 -0.9154  0.1323
  159SOL    HW2 1766   0.680   0.247   5.408  0.2836  0.0291  2.3646
  160SOL     OW 1767   2.620   5.609   7.687  0.0582  0.0296  0.2367
  160SOL    HW1 1768   2.689   5.621   7.622 -1.2963  1.1694 -1.0524
  160SOL    HW2 1769   2.595   5.698   7.712 -0.3983 -0.3809  1.3046
  161SOL     OW 1770   4.232   2.198   2.210  0.1960 -0.3807  0.1622
  161SOL    HW1 1771   4.150   2.240   2.237  1.8504  3.5965 -0.4120
  161SOL    HW2 1772   4.262   2.250   2.136  2.7648 -2.3861 -0.3332
  162SOL     OW 1773   5.617   1.755   6.716 -0.0385 -0.1334 -0.0836
  162SOL    HW1 1774   5.578   1.690   6.775  0.1672  0.9411  1.2844
  162SOL    HW2 1775   5.550   1.822   6.707  0.3085  0.1946 -0.2564
  163SOL     OW 1776   6.705   7.559   1.038 -0.5599 -0.1447 -0.1002
  163SOL    HW1 1777   6.788   7.582   0.997 -1.4241 -0.0071 -1.8895
  163SOL    HW2 1778   6.727   7.492   1.102  0.8749 -0.3633 -0.7943
  164SOL     OW 1779   6.514   3.787   3.452  0.0988 -0.5026 -0.2926
  164SOL    HW1 1780   6.548   3.789   3.541 -2.4356  0.8149  0.7593
  164SOL    HW2 1781   6.546   3.867   3.411 -0.8660  0.2577  0.3802
  165SOL     OW 1782   8.111   8.616   3.297 -0.1040 -0.0047  0.3898
  165SOL    HW1 1783   8.018   8.597   3.308 -0.5419  1.3487 -0.6758
  165SOL    HW2 1784   8.148   8.537   3.258 -1.2420  0.1944 -1.1627
  166SOL     OW 1785   0.840   0.021   0.130  0.1776 -0.2243  0.1514
  166SOL    HW1 1786   0.895   0.082   0.080  1.7576 -2.1026 -0.5400
  166SOL    HW2 1787   0.751   0.046   0.108  0.8022  0.4200 -1.9136
  167SOL     OW 1788   2.182   3.660   4.510 -0.6074  0.2408 -0.1112
  167SOL    HW1 1789   2.171   3.717   4.587 -0.0039  0.4909 -0.2133
  167SOL    HW2 1790   2.183   3.720   4.436 -0.3902  0.0619 -0.2514
  168SOL     OW 1791   5.851   6.275   6.668 -0.3730 -0.0447  0.2546
  168SOL    HW1 1792   5.870   6.204   6.606 -0.8571 -0.7788  0.9201
  168SOL    HW2 1793   5.768   6.312   6.637 -0.1463  0.2078 -0.0632
  169SOL     OW 1794   5.913   6.831   0.390  0.5877  0.1721  0.2690
  169SOL    HW1 1795   5.936   6.838   0.482  0.2985  1.4574  0.2745
  169SOL    HW2 1796   5.826   6.791   0.390  0.6304  0.0788  0.5547
  170SOL     OW 1797   7.962   5.971   3.865  0.0516  0.0474 -0.4599
  170SOL    HW1 1798   7.999   6.058   3.850  0.5122 -0.4024 -2.2409
  170SOL    HW2 1799   7.874   5.988   3.900  0.5394  1.1896  0.2748
  171SOL     OW 1800   8.030   7.044   2.652 -0.3430  0.1059  0.8033
  171SOL    HW1 1801   8.085   7.025   2.728  0.3855 -0.5375  0.1324
  171SOL    HW2 1802   8.011   7.138   2.659  1.0584  0.4043  0.9227
  172SOL     OW 1803   5.517   1.518   1.455 -0.0374 -0.3751  0.1484
  172SOL    HW1 1804   5.599   1.498   1.410 -0.5971  0.7713 -1.4970
  172SOL    HW2 1805   5.464   1.439   1.442 -0.4020  0.1243 -1.8382
  173SOL     OW 1806   4.711   4.704   5.733  0.2976 -0.2144  0.3396
  173SOL    HW1 1807   4.622   4.692   5.702  0.0205 -0.6563  1.2829
  173SOL    HW2 1808   4.726   4.631   5.793  1.2142 -0.0210  0.3690
  174SOL     OW 1809   1.320   3.466   4.014  0.0659 -0.6940  0.0908
  174SOL    HW1 1810   1.318   3.378   4.052 -1.4926 -1.9274 -2.5171
  174SOL    HW2 1811   1.383   3.459   3.942  0.0846  0.3915 -0.0125
  175SOL     OW 1812   1.716   7.806   0.658  0.2253 -0.0163  0.0250
  175SOL    HW1 1813   1.725   7.901   0.665 -0.4769  0.1701 -1.2124
  175SOL    HW2 1814   1.803   7.775   0.633 -0.0030  0.5592 -1.6264
  176SOL     OW 1815   4.805   7.800   6.252 -0.2936 -0.0173 -0.0990
  176SOL    HW1 1816   4.859   7.721   6.259  0.6599  0.5870 -0.3855
  176SOL    HW2 1817   4.818   7.845   6.335  1.1809  1.0587 -0.8669
  177SOL     OW 1818   6.489   7.972   7.801  0.3289 -0.0166  0.0555
  177SOL    HW1 1819   6.488   8.066   7.821  0.8318  0.0937 -0.4018
  177SOL    HW2 1820   6.420   7.935   7.855 -0.5526  0.7714 -0.4937
  178SOL     OW 1821   7.711   2.181   2.699 -0.6419 -0.7745  0.6105
  178SOL    HW1 1822   7.617   2.168   2.693 -0.7191  0.2504 -0.6721
  178SOL    HW2 1823   7.742   2.180   2.609  0.2100  1.3937  0.8259
  179SOL     OW 1824   8.168   2.049   8.326  0.0862  0.0986  0.7607
  179SOL    HW1 1825   8.195   2.141   8.325  0.4786 -0.0178 -0.0900
  179SOL    HW2 1826   8.131   2.036   8.414 -0.6036  1.2397  0.6581
  180SOL     OW 1827   3.453   2.336   0.761 -0.1941 -0.0401 -0.1598
  180SOL    HW1 1828   3.394   2.366   0.692 -0.5603 -0.4107 -0.0133
  180SOL    HW2 1829   3.528   2.300   0.714 -0.9784 -1.4200 -0.4248
  181SOL     OW 1830   4.188   3.005   3.170 -0.5221  0.2831 -0.2386
  181SOL    HW1 1831   4.103   3.048   3.155 -0.0209  1.1265 -0.7547
  181SOL    HW2 1832   4.231   3.061   3.236  0.6079  1.2813 -1.7554
  182SOL     OW 1833   1.003   6.143   7.803  0.1132  0.0709  0.2059
  182SOL    HW1 1834   1.093   6.147   7.770 -0.0656  1.1124 -0.1928
  182SOL    HW2 1835   0.963   6.224   7.772 -0.8101 -0.1328  0.8415
  183SOL     OW 1836   0.648   5.062   7.064 -0.1821 -0.3172 -0.8312
  183SOL    HW1 1837   0.676   5.039   6.976  0.2977  0.2847 -0.8371
  183SOL    HW2 1838   0.728   5.063   7.116 -0.2363  0.9480 -0.7503
  184SOL     OW 1839   2.481   2.449   7.143 -0.1095  0.0004 -0.4604
  184SOL    HW1 1840   2.530   2.498   7.209 -2.9677 -0.5398  2.3210
  184SOL    HW2 1841   2.514   2.359   7.152  2.4104  0.5481 -2.8640
  185SOL     OW 1842   3.719   3.133   2.368 -0.5288 -0.0617  0.1509
  185SOL    HW1 1843   3.723   3.128   2.464 -1.5671 -0.0366  0.2132
  185SOL    HW2 1844   3.784   3.199   2.345 -1.1010  0.8159  0.9529
  186SOL     OW 1845   8.220   6.466   3.330 -0.4180  0.0941 -0.1171
  186SOL    HW1 1846   8.263   6.514   3.401  0.1721  1.0998 -1.1392
  186SOL    HW2 1847   8.283   6.398   3.306 -0.4723 -0.0283  0.0820
  187SOL     OW 1848   1.823   0.944   4.604 -0.0283 -0.4072 -0.0268
  187SOL    HW1 1849   1.885   0.932   4.676 -0.0529 -0.3209  0.0088
  187SOL    HW2 1850   1.874   0.931   4.525 -0.4061 -2.6027  0.0197
  188SOL     OW 1851   0.715   4.698   4.595 -0.8880 -0.2176  0.3445
  188SOL    HW1 1852   0.656   4.720   4.522 -0.7064  0.3881  0.3712
  188SOL    HW2 1853   0.675   4.622   4.636 -1.3145 -0.2004 -0.0305
  189SOL     OW 1854   1.063   6.379   1.341  0.4678 -0.3628 -0.1948
  189SOL    HW1 1855   1.053   6.471   1.316 -0.9539 -0.5796 -0.5298
  189SOL    HW2 1856   1.131   6.345   1.283  0.4080  0.2672 -0.6368
  190SOL     OW 1857   0.777   0.922   2.505  0.1214 -0.6486  0.2730
  190SOL    HW1 1858   0.823   0.994   2.462  2.1007 -2.6960 -1.3331
  190SOL    HW2 1859   0.845   0.880   2.559 -1.2478 -0.7269  2.0056
  191SOL     OW 1860   4.507   3.845   8.206 -0.1167  0.2005  0.7335
  191SOL    HW1 1861   4.442   3.775   8.205  1.9987 -1.9097  1.1197
  191SOL    HW2 1862   4.568   3.821   8.136  0.5797  1.7503  0.7804
  192SOL     OW 1863   4.219   3.777   5.103 -0.8607  0.3368 -0.2430
  192SOL    HW1 1864   4.160   3.829   5.157 -2.5974 -0.1466 -1.5613
  192SOL    HW2 1865   4.163   3.745   5.032  0.4251 -2.1997 -0.2296
  193SOL     OW 1866   6.842   4.263   5.275 -0.2994 -0.1045  0.2602
  193SOL    HW1 1867   6.889   4.181   5.260 -0.3275  0.2878 -2.5650
  193SOL    HW2 1868   6.751   4.237   5.288  0.0426 -0.6234  1.8166
  194SOL     OW 1869   2.139   6.660   2.620 -0.0311  0.0500 -0.2403
  194SOL    HW1 1870   2.234   6.666   2.621 -0.0273 -0.0801  0.7577
  194SOL    HW2 1871   2.114   6.684   2.530  0.8796  0.9233 -0.2680
  195SOL     OW 1872   6.602   6.458   1.460 -0.7555 -0.1785  0.1947
  195SOL    HW1 1873   6.690   6.473   1.495 -0.0462 -0.7462 -1.2610
  195SOL    HW2 1874   6.548   6.525   1.502  0.4703  0.5094  0.7313
  196SOL     OW 1875   6.083   4.133   6.387  0.0969 -0.4949  0.1133
  196SOL    HW1 1876   6.111   4.140   6.296  1.1500 -2.1162  0.2848
  196SOL    HW2 1877   6.015   4.065   6.387 -1.1449  0.6890  0.3149
  197SOL     OW 1878   5.675   4.637   6.365  0.0748  0.3667  0.2477
  197SOL    HW1 1879   5.624   4.717   6.381  0.5733  0.5882  0.7748
  197SOL    HW2 1880   5.611   4.567   6.376 -1.1075  0.7326 -3.1377
  198SOL     OW 1881   2.633   0.672   5.835 -0.1119 -0.1566 -0.1377
  198SOL    HW1 1882   2.601   0.652   5.923  0.1041  1.6589  0.3954
  198SOL    HW2 1883   2.727   0.683   5.845  0.0312 -0.7020 -0.7737
  199SOL     OW 1884   4.027   6.947   6.663  0.3802  0.3058  0.5845
  199SOL    HW1 1885   4.073   6.890   6.725  0.3487  0.4117  0.7070
  199SOL    HW2 1886   3.953   6.894   6.633  0.9986 -0.1346 -0.1857
  200SOL     OW 1887   5.752   0.349   6.716  0.2911 -0.1311  0.3463
  200SOL    HW1 1888   5.694   0.281   6.751  1.6157 -1.6380 -0.2719
  200SOL    HW2 1889   5.765   0.326   6.624  0.5277  1.1475  0.0377
  201SOL     OW 1890   8.309   2.624   1.729 -0.7292  0.0710 -0.2749
  201SOL    HW1 1891   8.344   2.656   1.646 -1.5746  1.5048 -0.1111
  201SOL    HW2 1892   8.340   2.688   1.794  1.3559 -1.9284  0.8517
  202SOL     OW 1893   4.392   2.724   3.109 -0.0471  0.7930  0.2522
  202SOL    HW1 1894   4.324   2.735   3.042  0.1594  1.9378  0.2056
  202SOL    HW2 1895   4.354   2.762   3.188 -0.0427  0.0306  0.6266
  203SOL     OW 1896   7.464   8.333   7.229 -0.2299  0.0048  0.2427
  203SOL    HW1 1897   7.472   8.252   7.279 -2.8957 -1.8617 -2.0414
  203SOL    HW2 1898   7.392   8.380   7.271  0.7663  0.8889  1.0469
  204SOL     OW 1899   6.407   7.168   1.514 -0.1300  0.5855  0.0872
  204SOL    HW1 1900   6.481   7.147   1.456 -0.0309 -0.6730  0.6283
  204SOL    HW2 1901   6.447   7.213   1.588  0.2866 -1.0496  0.8984
  205SOL     OW 1902   5.214   5.887   0.560  0.2841  0.0855  0.3636
  205SOL    HW1 1903   5.208   5.835   0.480 -0.7584  1.3483 -0.4209
  205SOL    HW2 1904   5.124   5.894   0.591  0.6106  0.0715  1.3582
  206SOL     OW 1905   0.126   6.689   6.078 -0.3650 -0.0184  0.1636
  206SOL    HW1 1906   0.094   6.659   5.993  0.3230  2.0857 -0.8825
  206SOL    HW2 1907   0.062   6.655   6.141 -0.9155 -1.5541 -1.1638
  207SOL     OW 1908   8.661   0.229   3.649 -0.1290  0.5173  0.9311
  207SOL    HW1 1909   8.645   0.250   3.557  0.0377 -1.9967  0.2410
  207SOL    HW2 1910   8.578   0.248   3.693 -0.4324  1.0761  0.1330
  208SOL     OW 1911   5.339   1.952   1.820  0.4700  0.0334  0.4883
  208SOL    HW1 1912   5.315   1.884   1.882 -0.6456 -0.0776 -0.0391
  208SOL    HW2 1913   5.434   1.961   1.829  0.5184 -1.0195  1.1373
  209SOL     OW 1914   7.595   3.342   1.858 -0.0740 -0.1355 -0.1157
  209SOL    HW1 1915   7.623   3.356   1.767 -0.3916 -2.0391 -0.5529
  209SOL    HW2 1916   7.675   3.314   1.903  0.2755  1.6548  0.4298
  210SOL     OW 1917   1.526   1.696   6.855  0.2070  1.3716 -0.2364
  210SOL    HW1 1918   1.616   1.706   6.825 -0.1349  1.5478 -1.2688
  210SOL    HW2 1919   1.473   1.732   6.783 -0.7170  0.2440 -0.1488
  211SOL     OW 1920   0.529   0.708   2.869 -0.0769 -0.3163  0.2950
  211SOL    HW1 1921   0.595   0.644   2.840  0.4979  0.1838  0.4905
  211SOL    HW2 1922   0.576   0.764   2.931 -1.0797 -0.8695  1.6018
  212SOL     OW 1923   7.278   5.417   5.506  0.4898 -0.2403 -0.1487
  212SOL    HW1 1924   7.218   5.365   5.559 -1.3054  0.7053 -1.1704
  212SOL    HW2 1925   7.313   5.482   5.567  1.6814 -1.6825  0.7984
  213SOL     OW 1926   2.965   2.235   3.830 -0.7779 -0.4082  0.1008
  213SOL    HW1 1927   2.970   2.329   3.811  1.5044 -0.3580  0.7187
  213SOL    HW2 1928   2.883   2.207   3.788 -0.6618  1.5057 -1.5776
  214SOL     OW 1929   3.922   2.661   6.567 -0.5179  0.1183  0.0444
  214SOL    HW1 1930   3.851   2.700   6.619  0.0421  1.8641 -0.4501
  214SOL    HW2 1931   3.912   2.699   6.480  3.2313  3.5424  0.8484
  215SOL     OW 1932   6.573   7.649   3.607  0.1762 -0.0689 -0.5082
  215SOL    HW1 1933   6.493   7.701   3.605  1.2202  1.5823 -1.5058
  215SOL    HW2 1934   6.643   7.713   3.606  1.5384 -1.4759  0.5726
  216SOL     OW 1935   7.726   7.793   1.648  0.2158 -0.2153 -0.0615
  216SOL    HW1 1936   7.645   7.830   1.613 -0.2130  0.0179  1.1399
  216SOL    HW2 1937   7.790   7.803   1.577 -0.9535 -0.9985 -1.2711
  217SOL     OW 1938   2.810   6.964   4.452  0.0018  0.1148  0.1245
  217SOL    HW1 1939   2.716   6.979   4.443 -0.2447 -1.4032 -0.1673
  217SOL    HW2 1940   2.818   6.903   4.525  0.6341 -0.8626 -0.7398
  218SOL     OW 1941   7.909   8.444   5.090 -0.3381  0.1817  0.3738
  218SOL    HW1 1942   7.968   8.497   5.037 -0.1332  0.6831  1.0826
  218SOL    HW2 1943   7.965   8.404   5.156 -0.6202 -0.2561  0.3547
  219SOL     OW 1944   5.800   1.007   4.866 -0.3737  0.2128 -0.1880
  219SOL    HW1 1945   5.877   1.040   4.912  0.0488 -0.8017 -0.1337
  219SOL    HW2 1946   5.757   0.949   4.929 -0.3208 -0.4340 -0.7246
  220SOL     OW 1947   0.203   5.497   7.095  0.7146 -0.0537  0.0166
  220SOL    HW1 1948   0.114   5.484   7.062  1.3118  0.0138 -1.7084
  220SOL    HW2 1949   0.204   5.454   7.180 -1.2696  0.8622  0.5543
  221SOL     OW 1950   7.699   8.423   6.357  0.0851 -0.0364  0.0621
  221SOL    HW1 1951   7.708   8.328   6.365 -0.5737 -0.0756  0.4150
  221SOL    HW2 1952   7.789   8.455   6.357  0.3204 -0.6667 -0.1725
  222SOL     OW 1953   1.034   3.548   6.876  0.1256 -0.2725  0.0005
  222SOL    HW1 1954   1.062   3.565   6.965 -0.6244 -0.0348  0.2023
  222SOL    HW2 1955   1.112   3.560   6.823  0.1008  1.8243  0.3541
  223SOL     OW 1956   7.642   4.636   1.675 -0.0478  0.3076 -0.1195
  223SOL    HW1 1957   7.708   4.632   1.744  1.6539 -1.9894 -1.7404
  223SOL    HW2 1958   7.644   4.550   1.634 -2.8031  0.7618 -1.4373
  224SOL     OW 1959   4.317   3.358   5.356 -0.3995  0.3619  0.5731
  224SOL    HW1 1960   4.267   3.277   5.359 -0.6171  0.5195  1.6231
  224SOL    HW2 1961   4.310   3.388   5.265  0.9642 -1.5807 -0.2518
  225SOL     OW 1962   2.672   2.856   2.740 -0.0050 -1.0597 -0.2166
  225SOL    HW1 1963   2.752   2.883   2.783 -0.4429  3.4722 -1.7711
  225SOL    HW2 1964   2.609   2.845   2.811  0.8326 -0.0534  0.7008
  226SOL     OW 1965   5.915   3.882   3.195 -0.5079  0.1865 -0.0980
  226SOL    HW1 1966   6.009   3.893   3.210 -0.1177 -1.6602 -0.7847
  226SOL    HW2 1967   5.873   3.931   3.265  1.0115 -0.3975  1.2996
  227SOL     OW 1968   5.946   1.486   1.731 -0.2664  0.0002  0.0003
  227SOL    HW1 1969   5.919   1.561   1.678 -0.7189 -0.3505 -0.2675
  227SOL    HW2 1970   6.022   1.450   1.685  0.1502  0.4822  0.3025
  228SOL     OW 1971   2.964   5.396   1.016 -0.6435  0.1348  0.2678
  228SOL    HW1 1972   2.888   5.453   1.019 -1.4840 -1.0046  1.8630
  228SOL    HW2 1973   2.933   5.312   1.051  0.2436 -1.6767 -2.8479
  229SOL     OW 1974   2.383   7.723   4.021 -0.6120  0.0530 -0.4907
  229SOL    HW1 1975   2.418   7.674   4.095 -0.3467  0.3099 -0.4430
  229SOL    HW2 1976   2.409   7.814   4.037 -3.0036  0.6331  0.6033
  230SOL     OW 1977   0.517   1.672   0.288 -0.4702  0.1021  0.1441
  230SOL    HW1 1978   0.531   1.586   0.248  0.3618 -0.3057  1.2474
  230SOL    HW2 1979   0.445   1.659   0.349 -1.2955  0.5568 -0.7116
  231SOL     OW 1980   1.844   3.726   0.196 -0.3416 -0.1063  0.3698
  231SOL    HW1 1981   1.912   3.783   0.161 -0.4442 -0.1520  0.0920
  231SOL    HW2 1982   1.823   3.764   0.282  1.1063 -0.9767  1.1487
  232SOL     OW 1983   7.968   4.812   7.819 -0.6254  0.0552  0.4130
  232SOL    HW1 1984   7.887   4.855   7.846  0.5445  1.1197  2.4229
  232SOL    HW2 1985   7.957   4.721   7.847 -1.9726 -0.3849 -1.3437
  233SOL     OW 1986   7.942   6.266   3.844 -0.4272  0.2950  0.5571
  233SOL    HW1 1987   7.921   6.275   3.751 -0.7131  0.3490  0.6233
  233SOL    HW2 1988   7.969   6.353   3.871 -0.6567  0.3534  0.5984
  234SOL     OW 1989   4.072   6.649   2.660 -0.5035 -0.4758  0.3258
  234SOL    HW1 1990   4.119   6.624   2.580  1.9253 -0.4650  1.6646
  234SOL    HW2 1991   4.073   6.570   2.714 -0.8300 -0.0568  0.9516
  235SOL     OW 1992   7.649   8.611   4.657  0.8037 -0.0851  0.6366
  235SOL    HW1 1993   7.718   8.604   4.591  0.1807  1.4148 -0.2285
  235SOL    HW2 1994   7.569   8.625   4.606  0.4351  2.0116  1.6919
  236SOL     OW 1995   0.688   8.654   6.620  0.8390  0.5697  0.1806
  236SOL    HW1 1996   0.630   8.715   6.666  0.9911  0.5713  0.3657
  236SOL    HW2 1997   0.680   8.679   6.528  0.9155  0.8820  0.2594
  237SOL     OW 1998   8.144   7.535   8.438 -0.0658 -0.4054 -0.0592
  237SOL    HW1 1999   8.064   7.518   8.488  0.4696  1.0125  1.3832
  237SOL    HW2 2000   8.140   7.628   8.416  1.2813 -0.2325  0.2742
  238SOL     OW 2001   3.027   8.433   7.072 -0.1465  0.4109  0.3807
  238SOL    HW1 2002   3.006   8.440   7.165 -0.9568 -1.1047  0.3519
  238SOL    HW2 2003   2.946   8.460   7.027 -0.7481 -1.5230  0.2006
  239SOL     OW 2004   0.246   7.071   0.891  0.2448 -0.1913 -0.0831
  239SOL    HW1 2005   0.201   6.989   0.909 -1.3334  1.0248  1.8980
  239SOL    HW2 2006   0.189   7.118   0.830 -0.0434  0.3986  0.6297
  240SOL     OW 2007   4.317   2.380   2.893  0.7245  0.0129  0.4831
  240SOL    HW1 2008   4.411   2.396   2.898  0.8590 -0.6522  0.1837
  240SOL    HW2 2009   4.297   2.327   2.970  0.6573 -0.1255  0.3720
  241SOL     OW 2010   3.521   5.641   4.139 -0.2831  0.6746  0.3556
  241SOL    HW1 2011   3.529   5.676   4.228  0.0848  3.0190 -0.5231
  241SOL    HW2 2012   3.494   5.716   4.086 -1.4869 -0.8812 -1.3728
  242SOL     OW 2013   5.065   2.747   6.651 -0.6825 -0.0813  0.1705
  242SOL    HW1 2014   4.997   2.812   6.633 -1.0430 -0.1742  1.1291
  242SOL    HW2 2015   5.139   2.797   6.684 -0.8205 -0.1123  0.5347
  243SOL     OW 2016   7.502   5.316   4.087 -0.2334  0.2756  0.3023
  243SOL    HW1 2017   7.490   5.288   4.178 -1.2630  0.3503  0.2009
  243SOL    HW2 2018   7.413   5.323   4.053  0.0616  1.9367 -0.2077
  244SOL     OW 2019   3.941   0.312   0.867  0.1998  0.0807 -0.2251
  244SOL    HW1 2020   4.021   0.329   0.915 -0.7781 -0.1852  1.5903
  244SOL    HW2 2021   3.961   0.335   0.776  1.8834  1.3075  0.4247
  245SOL     OW 2022   2.585   4.296   5.926 -0.3315 -0.8507 -0.4011
  245SOL    HW1 2023   2.612   4.298   6.018  0.2011 -3.1731 -0.4439
  245SOL    HW2 2024   2.496   4.260   5.929 -0.0989 -1.4699 -0.8099
  246SOL     OW 2025   5.584   4.888   4.420 -0.1236  0.1809 -0.5548
  246SOL    HW1 2026   5.640   4.964   4.402  1.2507 -0.3962  0.9652
  246SOL    HW2 2027   5.644   4.823   4.459 -1.6331 -0.9362  0.0074
  247SOL     OW 2028   4.055   1.702   0.608  0.0084 -0.0642 -0.0155
  247SOL    HW1 2029   3.999   1.695   0.685  0.7814  1.9055  0.7955
  247SOL    HW2 2030   4.089   1.613   0.595  0.2058 -0.3800  2.2124
  248SOL     OW 2031   0.925   1.284   7.549  0.2377  0.4304  0.4264
  248SOL    HW1 2032   0.963   1.309   7.633 -0.4834 -0.3212  1.0074
  248SOL    HW2 2033   0.871   1.207   7.570  0.8245 -0.3819 -0.9083
  249SOL     OW 2034   1.588   2.727   1.402  0.7466 -0.4535  0.1502
  249SOL    HW1 2035   1.549   2.649   1.363  2.8963 -2.0929  1.0627
  249SOL    HW2 2036   1.652   2.757   1.337 -0.0524  0.5818 -0.1882
  250SOL     OW 2037   1.642   7.556   4.226 -0.2487  0.0683 -0.1719
  250SOL    HW1 2038   1.567   7.615   4.213 -0.7392 -0.2406  1.1451
  250SOL    HW2 2039   1.604   7.474   4.256  0.3889 -1.1524 -2.4625
  251SOL     OW 2040   0.547   1.360   1.029 -0.0126  0.2776 -0.3414
  251SOL    HW1 2041   0.598   1.327   1.103  0.0098 -1.1734 -0.9594
  251SOL    HW2 2042   0.508   1.442   1.061  2.3322  1.2193  0.2801
  252SOL     OW 2043   5.122   4.091   0.476  0.6637  0.1668 -0.7366
  252SOL    HW1 2044   5.099   4.029   0.546 -0.0255 -0.1197 -1.2076
  252SOL    HW2 2045   5.048   4.087   0.416  0.5703  1.5172 -0.7369
  253SOL     OW 2046   5.258   7.777   0.957  0.5227 -0.0847 -0.4938
  253SOL    HW1 2047   5.309   7.770   0.876 -0.2541  1.1947 -1.1129
  253SOL    HW2 2048   5.247   7.686   0.986  2.4587 -0.4434 -0.7580
  254SOL     OW 2049   7.767   3.618   6.790 -0.1955  0.1650 -0.5104
  254SOL    HW1 2050   7.826   3.558   6.835 -1.2826  0.1829  1.0507
  254SOL    HW2 2051   7.822   3.692   6.764  0.5461  0.0148  0.5657
  255SOL     OW 2052   0.011   1.543   0.335 -0.0579  0.4127  0.1744
  255SOL    HW1 2053  -0.002   1.537   0.241 -0.1801  0.3147  0.1989
  255SOL    HW2 2054   0.007   1.453   0.367  1.4351  0.2776  0.0744
  256SOL     OW 2055   6.711   7.443   3.715  0.2900 -0.2686 -0.3684
  256SOL    HW1 2056   6.800   7.478   3.710  0.4489 -0.7683 -1.1795
  256SOL    HW2 2057   6.655   7.513   3.681  0.1912  0.6153  1.4846
  257SOL     OW 2058   8.015   7.396   7.983 -0.2553 -0.1654 -0.0882
  257SOL    HW1 2059   7.964   7.431   7.910  0.4011 -1.3243 -1.1444
  257SOL    HW2 2060   7.976   7.309   7.999  0.3077 -0.3651  0.1948
  258SOL     OW 2061   4.056   5.457   4.067  0.0311 -0.3724  0.1090
  258SOL    HW1 2062   4.049   5.498   4.153 -0.7450 -0.3693  0.0558
  258SOL    HW2 2063   4.113   5.515   4.016  1.7907 -1.1777  1.0793
  259SOL     OW 2064   5.031   6.526   5.254 -0.7491  0.0260  0.7298
  259SOL    HW1 2065   5.117   6.493   5.228 -1.2545 -1.7440  1.1573
  259SOL    HW2 2066   5.045   6.566   5.340 -0.2100  0.4822  0.4330
  260SOL     OW 2067   8.106   6.138   5.257  0.5058 -0.3386 -0.1482
  260SOL    HW1 2068   8.192   6.118   5.221  0.1114 -2.7600  0.0650
  260SOL    HW2 2069   8.054   6.164   5.180  1.1562  0.2380 -0.4087
  261SOL     OW 2070   0.908   2.838   6.706  1.0437  0.4130 -0.2905
  261SOL    HW1 2071   0.847   2.912   6.700 -0.3795 -0.7607 -1.0701
  261SOL    HW2 2072   0.852   2.761   6.716  2.4437 -0.6513 -0.2331
  262SOL     OW 2073   7.409   4.779   0.060  0.8862 -0.0600  0.3585
  262SOL    HW1 2074   7.453   4.696   0.079  1.8585  0.0268 -1.3431
  262SOL    HW2 2075   7.474   4.846   0.080  0.3394  0.2859  1.0453
  263SOL     OW 2076   7.835   7.475   6.204  0.3800 -0.1464 -0.4263
  263SOL    HW1 2077   7.741   7.468   6.220  0.5042 -1.1843 -0.0532
  263SOL    HW2 2078   7.872   7.488   6.291  0.5201  1.2640 -0.6719
  264SOL     OW 2079   3.549   4.151   8.655 -0.1284 -0.8440  0.1323
  264SOL    HW1 2080   3.515   4.080   8.601 -1.2476  0.2013 -0.5821
  264SOL    HW2 2081   3.566   4.223   8.593 -0.5470  0.0581  1.0384
  265SOL     OW 2082   6.870   4.847   6.236  0.1059  0.3348  0.2333
  265SOL    HW1 2083   6.958   4.869   6.207  0.2558 -0.2791  0.1976
  265SOL    HW2 2084   6.882   4.769   6.291 -0.4465  0.0493 -0.0418
  266SOL     OW 2085   4.379   3.394   5.756  0.4402 -0.6241 -0.6083
  266SOL    HW1 2086   4.293   3.352   5.763 -0.2186  0.7356 -0.2679
  266SOL    HW2 2087   4.412   3.395   5.845  1.4832 -2.4369 -0.9278
  267SOL     OW 2088   4.681   1.132   4.595  0.3341  0.1762  0.4400
  267SOL    HW1 2089   4.675   1.134   4.691 -0.1953  0.0127  0.4176
  267SOL    HW2 2090   4.590   1.128   4.566  0.4836  0.4889 -0.0784
  268SOL     OW 2091   3.191   6.254   0.892  0.0154 -0.2951 -0.1294
  268SOL    HW1 2092   3.260   6.227   0.954  0.1403 -0.4758 -0.3455
  268SOL    HW2 2093   3.164   6.172   0.850  0.5654 -0.0544 -0.9640
  269SOL     OW 2094   2.042   2.903   7.115  0.1701 -0.2187  0.4289
  269SOL    HW1 2095   2.068   2.952   7.037 -1.7215 -1.0934 -0.8040
  269SOL    HW2 2096   1.974   2.957   7.156  0.1231 -0.4554  0.6662
  270SOL     OW 2097   2.989   4.906   2.034 -0.5782 -0.1960 -0.2695
  270SOL    HW1 2098   2.904   4.950   2.030 -1.1769 -1.2531  0.4018
  270SOL    HW2 2099   3.034   4.946   2.108  0.6074  2.1868 -2.1438
  271SOL     OW 2100   5.323   6.969   6.949 -0.5560  0.0874 -0.1904
  271SOL    HW1 2101   5.305   6.875   6.957 -1.5485  0.2632 -0.2711
  271SOL    HW2 2102   5.285   6.995   6.866 -0.5541  0.6250 -0.0306
  272SOL     OW 2103   0.235   2.476   6.108  0.2344  0.3407 -0.8984
  272SOL    HW1 2104   0.241   2.564   6.144  0.2024 -0.1674  0.4408
  272SOL    HW2 2105   0.143   2.465   6.087  0.1114  0.3980 -0.4100
  273SOL     OW 2106   8.408   8.237   6.326 -0.4773 -0.8484  0.7651
  273SOL    HW1 2107   8.452   8.224   6.242 -2.0463 -0.6323 -0.1275
  273SOL    HW2 2108   8.436   8.323   6.355 -0.5657 -0.5655  0.0337
  274SOL     OW 2109   2.322   3.392   1.617  0.4706  0.1377  0.1903
  274SOL    HW1 2110   2.270   3.317   1.588  2.0342 -0.2703 -1.8215
  274SOL    HW2 2111   2.362   3.426   1.537 -0.1809  3.1858  1.0171
  275SOL     OW 2112   5.414   4.070   2.113 -0.0698  0.3237  0.5288
  275SOL    HW1 2113   5.414   4.097   2.022  0.1966  0.9622  0.7142
  275SOL    HW2 2114   5.482   4.123   2.154  0.7274 -0.8861  0.8258
  276SOL     OW 2115   6.471   7.971   6.242 -0.0594 -0.5343  0.2953
  276SOL    HW1 2116   6.377   7.968   6.257  0.1597 -0.5876  1.8432
  276SOL    HW2 2117   6.507   7.902   6.299  0.9656 -0.0778  0.2279
  277SOL     OW 2118   1.587   4.358   7.894 -0.0510 -0.1385 -0.4753
  277SOL    HW1 2119   1.632   4.442   7.883 -0.3094 -0.1518 -1.8014
  277SOL    HW2 2120   1.656   4.296   7.913  0.1937  0.2975  0.0722
  278SOL     OW 2121   0.757   8.580   3.998  0.5350  0.7984  0.2768
  278SOL    HW1 2122   0.685   8.546   3.944  0.0042 -0.6089  1.8099
  278SOL    HW2 2123   0.811   8.630   3.936 -0.1228 -0.6245 -1.5382
  279SOL     OW 2124   6.337   4.702   7.097 -0.1568 -0.2910  0.0200
  279SOL    HW1 2125   6.246   4.683   7.122  0.3402 -0.4808  1.8832
  279SOL    HW2 2126   6.372   4.750   7.172  2.2214 -3.0724  0.8632
  280SOL     OW 2127   6.006   5.901   8.147  0.0665 -0.8419 -0.0275
  280SOL    HW1 2128   6.007   5.839   8.074 -0.7303 -1.5708  0.5564
  280SOL    HW2 2129   5.949   5.860   8.213  0.9573 -0.3253  1.1068
  281SOL     OW 2130   8.319   6.904   7.327  0.0311 -0.1203  0.0720
  281SOL    HW1 2131   8.317   6.978   7.388  2.6365  1.8237 -1.9880
  281SOL    HW2 2132   8.267   6.933   7.252 -1.0799 -1.5047  0.2486
  282SOL     OW 2133   7.742   6.898   5.678  0.2040 -0.3240 -0.1124
  282SOL    HW1 2134   7.710   6.885   5.589  0.6549 -0.5893 -0.2420
  282SOL    HW2 2135   7.741   6.993   5.690  1.5357 -0.1693 -0.9461
  283SOL     OW 2136   0.355   4.541   4.931 -0.0948 -0.2475  0.3962
  283SOL    HW1 2137   0.364   4.631   4.900 -2.6299 -0.5525 -1.5531
  283SOL    HW2 2138   0.426   4.494   4.888 -0.6297  0.2876 -1.1496
  284SOL     OW 2139   7.464   4.417   1.824 -0.1004  0.0212 -0.0542
  284SOL    HW1 2140   7.482   4.462   1.906 -0.3939  1.8028 -0.9108
  284SOL    HW2 2141   7.540   4.361   1.810 -0.7603 -1.5516  2.1723
  285SOL     OW 2142   1.684   1.653   5.168 -0.4558 -0.9384 -1.1382
  285SOL    HW1 2143   1.622   1.629   5.237  0.4550 -1.1528 -0.3538
  285SOL    HW2 2144   1.642   1.627   5.087 -1.1743 -1.5264 -0.5915
  286SOL     OW 2145   4.997   0.684   5.578  0.0833  0.4446 -0.4425
  286SOL    HW1 2146   4.983   0.746   5.649 -0.6783 -1.1024  0.8112
  286SOL    HW2 2147   4.918   0.630   5.577  1.8912 -2.4433  0.5480
  287SOL     OW 2148   4.778   7.206   7.520  0.1106 -0.1786 -0.3126
  287SOL    HW1 2149   4.811   7.295   7.506  0.3157 -0.3360 -0.8796
  287SOL    HW2 2150   4.706   7.198   7.457 -0.4568 -0.1282  0.3238
  288SOL     OW 2151   8.480   3.442   4.498  0.3849 -0.2701 -0.8031
  288SOL    HW1 2152   8.398   3.449   4.450 -1.0183 -1.8572  1.1967
  288SOL    HW2 2153   8.497   3.530   4.531 -2.0930 -0.4080  1.1144
  289SOL     OW 2154   6.958   4.176   6.967  0.0224 -0.1686  0.1947
  289SOL    HW1 2155   6.897   4.226   6.912  0.0757  0.0483  0.3311
  289SOL    HW2 2156   7.040   4.226   6.962  0.9167 -1.6898 -1.9058
  290SOL     OW 2157   3.083   4.084   8.486 -0.2410 -0.2336  0.3728
  290SOL    HW1 2158   3.097   4.175   8.460 -0.5533 -0.9624 -2.8334
  290SOL    HW2 2159   2.998   4.084   8.530  0.8095  1.3035  2.5571
  291SOL     OW 2160   1.794   2.814   1.228  0.0276 -0.3943 -0.4956
  291SOL    HW1 2161   1.824   2.894   1.185 -1.7030  0.5114 -0.1418
  291SOL    HW2 2162   1.772   2.755   1.156  2.2081 -0.9614 -0.7550
  292SOL     OW 2163   4.205   0.811   7.422 -0.3755 -0.3650  0.0351
  292SOL    HW1 2164   4.241   0.812   7.511 -1.2556  1.2923  0.4181
  292SOL    HW2 2165   4.248   0.884   7.378  0.4084 -1.4690 -1.0883
  293SOL     OW 2166   8.056   1.592   3.097  0.0836  0.2268  0.0026
  293SOL    HW1 2167   8.087   1.506   3.124 -0.7221 -0.3892 -0.9964
  293SOL    HW2 2168   8.135   1.647   3.097  0.5172 -0.3610  1.1353
  294SOL     OW 2169   0.233   0.348   5.927  0.2082  0.1454 -0.2188
  294SOL    HW1 2170   0.223   0.254   5.940  1.0227  0.1105  0.2398
  294SOL    HW2 2171   0.190   0.388   6.003 -1.2609  0.1995 -1.0576
  295SOL     OW 2172   3.130   5.308   2.648  0.6267 -0.1171 -0.3509
  295SOL    HW1 2173   3.038   5.325   2.626  0.6680  0.9947  0.2286
  295SOL    HW2 2174   3.130   5.304   2.744  1.0527 -0.9400 -0.3848
  296SOL     OW 2175   5.995   8.576   0.076 -0.5673  0.0913 -0.0954
  296SOL    HW1 2176   6.076   8.601   0.120 -0.2857 -0.2814 -0.3968
  296SOL    HW2 2177   5.954   8.512   0.134 -0.9494  0.7277  0.3471
  297SOL     OW 2178   5.224   3.774   7.099  0.0384  0.2928 -0.0291
  297SOL    HW1 2179   5.289   3.760   7.168 -0.3839  0.5371  0.4265
  297SOL    HW2 2180   5.183   3.688   7.087  0.8257  0.0026 -0.7178
  298SOL     OW 2181   7.633   8.145   6.313 -0.3335  0.1080 -0.0135
  298SOL    HW1 2182   7.586   8.143   6.396 -5.1536  1.3109 -2.3964
  298SOL    HW2 2183   7.601   8.069   6.265 -0.8860  1.6561 -2.2229
  299SOL     OW 2184   1.491   1.005   0.531 -0.1074  0.5679 -0.2963
  299SOL    HW1 2185   1.503   1.083   0.477 -0.5549 -0.1136 -1.4208
  299SOL    HW2 2186   1.568   1.003   0.588  1.0797  0.6099 -1.8186
  300SOL     OW 2187   5.370   6.949   1.707  0.0587  0.3745  0.1341
  300SOL    HW1 2188   5.347   7.041   1.719  1.1969  1.0636 -2.3765
  300SOL    HW2 2189   5.376   6.937   1.613  0.4971 -2.1551  0.4001
  301SOL     OW 2190   8.445   6.845   5.317 -0.6729  0.1829  0.2552
  301SOL    HW1 2191   8.356   6.879   5.304 -0.6860 -0.1941 -0.7255
  301SOL    HW2 2192   8.444   6.758   5.277 -0.2018 -0.3491  1.3517
  302SOL     OW 2193   1.824   1.462   6.827  0.1904 -0.2946  0.3939
  302SOL    HW1 2194   1.778   1.454   6.743 -0.2350  0.0329  0.5882
  302SOL    HW2 2195   1.902   1.514   6.806  0.4579 -0.8213  0.0670
  303SOL     OW 2196   8.492   7.490   7.163  0.1059 -0.5108  0.2270
  303SOL    HW1 2197   8.502   7.555   7.233  1.2756 -0.0300 -0.3460
  303SOL    HW2 2198   8.477   7.407   7.209  1.3866 -0.2941  1.0944
  304SOL     OW 2199   0.963   7.915   6.823  0.3111  0.1193 -0.4584
  304SOL    HW1 2200   1.030   7.900   6.755  0.3944  0.0331 -0.3568
  304SOL    HW2 2201   0.886   7.942   6.774  0.6071  0.8503 -0.5329
  305SOL     OW 2202   1.711   4.568   5.277 -0.2895 -0.8866 -0.3618
  305SOL    HW1 2203   1.678   4.515   5.204  1.2741 -2.0316 -0.2989
  305SOL    HW2 2204   1.747   4.504   5.339 -0.3861  0.1427  0.7964
  306SOL     OW 2205   5.454   6.280   3.427  0.1720  0.1092 -0.8183
  306SOL    HW1 2206   5.387   6.250   3.366  0.0312  1.6116 -1.4519
  306SOL    HW2 2207   5.481   6.366   3.392  2.0710 -0.2419 -0.3133
  307SOL     OW 2208   5.061   4.493   4.499 -0.7264  0.1898  0.3219
  307SOL    HW1 2209   4.975   4.486   4.458  0.5332 -0.5748 -2.4831
  307SOL    HW2 2210   5.074   4.409   4.542 -0.9968 -0.0656 -0.0903
  308SOL     OW 2211   7.747   2.065   4.392 -0.1581  0.0702  0.7258
  308SOL    HW1 2212   7.681   2.003   4.362  0.2509  0.0589 -0.2039
  308SOL    HW2 2213   7.817   2.011   4.428  0.3296 -0.0465 -0.3529
  309SOL     OW 2214   3.819   1.608   8.671 -0.7478 -0.0602  0.6088
  309SOL    HW1 2215   3.742   1.572   8.627 -0.2075 -2.3926  1.4260
  309SOL    HW2 2216   3.882   1.623   8.601 -1.5823  1.0139  0.0490
  310SOL     OW 2217   4.316   2.616   3.638  0.1510  0.1641  0.7700
  310SOL    HW1 2218   4.296   2.708   3.626  1.9324  0.5414  0.4253
  310SOL    HW2 2219   4.387   2.598   3.576 -0.2401 -1.4657  0.7489
  311SOL     OW 2220   7.709   7.626   5.204 -0.0815  0.2222 -0.7395
  311SOL    HW1 2221   7.641   7.595   5.264 -0.4247 -0.9060 -1.6635
  311SOL    HW2 2222   7.699   7.721   5.203  0.8262  0.4334  2.0087
  312SOL     OW 2223   6.447   5.348   0.752  0.5499  0.3653  0.0083
  312SOL    HW1 2224   6.371   5.406   0.753  1.1237  1.1544  1.3565
  312SOL    HW2 2225   6.413   5.263   0.779  0.3336  1.0173  1.9237
  313SOL     OW 2226   6.984   6.002   5.410  0.8041 -0.1164  0.1069
  313SOL    HW1 2227   6.999   6.002   5.505  1.0707 -0.1773  0.0665
  313SOL    HW2 2228   6.972   6.094   5.387  2.0915  0.0484 -0.0042
  314SOL     OW 2229   7.146   3.527   2.238 -0.6076  0.0747 -0.1857
  314SOL    HW1 2230   7.124   3.606   2.288 -1.2060  0.0162 -0.3441
  314SOL    HW2 2231   7.099   3.538   2.155 -2.8495 -1.6078  0.7501
  315SOL     OW 2232   5.979   4.465   2.985 -0.0137  0.2428  0.3290
  315SOL    HW1 2233   6.060   4.416   2.974 -0.2998  0.1839 -2.0103
  315SOL    HW2 2234   5.910   4.399   2.979 -0.3215  0.6263 -0.4055
  316SOL     OW 2235   2.279   2.737   1.746  0.7475 -0.0345 -0.1543
  316SOL    HW1 2236   2.241   2.670   1.689 -0.3978  1.3679 -1.1169
  316SOL    HW2 2237   2.347   2.779   1.692 -0.5026  1.4597 -0.6343
  317SOL     OW 2238   5.230   0.723   1.855  0.0755 -0.1051  0.1342
  317SOL    HW1 2239   5.218   0.652   1.792  1.1168 -0.6446  0.5278
  317SOL    HW2 2240   5.159   0.711   1.918 -0.3574 -0.1811 -0.3640
  318SOL     OW 2241   2.553   2.522   1.173 -0.1043  0.9304 -0.3602
  318SOL    HW1 2242   2.648   2.508   1.179  0.0301  2.0505  0.5190
  318SOL    HW2 2243   2.544   2.603   1.124 -0.4415  2.4156  1.9907
  319SOL     OW 2244   1.504   5.213   0.580  0.1147 -0.0590 -0.1544
  319SOL    HW1 2245   1.460   5.289   0.541  0.3658 -1.3627 -3.2523
  319SOL    HW2 2246   1.437   5.172   0.634  0.0814  2.4798  1.9441
  320SOL     OW 2247   6.698   5.323   0.961  0.7536  0.5665 -0.2661
  320SOL    HW1 2248   6.634   5.259   0.930 -0.7193  2.0982 -0.5460
  320SOL    HW2 2249   6.679   5.402   0.911  1.7448  1.5761  0.8782
  321SOL     OW 2250   5.491   3.775   7.796 -0.1990  0.1340 -0.1035
  321SOL    HW1 2251   5.532   3.697   7.760  0.3778  0.2038  0.3892
  321SOL    HW2 2252   5.544   3.848   7.765 -0.1714  0.2561  0.2257
  322SOL     OW 2253   2.394   8.386   0.440  0.2487 -0.1160 -0.5041
  322SOL    HW1 2254   2.483   8.368   0.409  0.5528  0.0325  0.2470
  322SOL    HW2 2255   2.407   8.439   0.520 -0.5139 -0.0523 -0.4141
  323SOL     OW 2256   6.737   7.647   1.992 -0.2826 -0.2447  0.1561
  323SOL    HW1 2257   6.668   7.590   2.026  0.6528 -0.7198  1.3019
  323SOL    HW2 2258   6.816   7.621   2.039  0.7227  0.1999 -1.2264
  324SOL     OW 2259   6.187   7.287   2.860 -0.4521 -0.0918 -0.1247
  324SOL    HW1 2260   6.158   7.377   2.847  0.0034 -0.0390 -0.8103
  324SOL    HW2 2261   6.132   7.235   2.800  0.5558 -0.0393 -1.1273
  325SOL     OW 2262   0.749   4.050   7.531 -0.1655  0.2663 -0.1829
  325SOL    HW1 2263   0.830   4.047   7.480  0.3421  0.8712  0.5640
  325SOL    HW2 2264   0.726   4.142   7.537  0.3527  0.3296  1.5074
  326SOL     OW 2265   3.455   1.151   4.452 -0.0725 -0.4525  0.1830
  326SOL    HW1 2266   3.389   1.103   4.502 -1.9760  1.6509 -0.1082
  326SOL    HW2 2267   3.435   1.243   4.469  2.2247  0.2774 -0.7283
  327SOL     OW 2268   1.447   4.183   8.151 -0.0948 -0.5438 -0.3447
  327SOL    HW1 2269   1.401   4.135   8.083 -1.5176  0.0620  0.1607
  327SOL    HW2 2270   1.449   4.123   8.226  2.0617 -1.4717 -1.0682
  328SOL     OW 2271   0.709   2.536   2.842 -0.2983 -0.3064 -0.1906
  328SOL    HW1 2272   0.777   2.595   2.875 -1.2866  0.3985  0.6381
  328SOL    HW2 2273   0.758   2.462   2.806  0.9370 -1.0381  2.6453
  329SOL     OW 2274   6.584   8.402   4.874  0.7526  0.5897  0.6565
  329SOL    HW1 2275   6.651   8.417   4.807  0.9461 -0.4464  0.6028
  329SOL    HW2 2276   6.529   8.480   4.872  0.4816  0.3841 -1.0400
  330SOL     OW 2277   6.891   6.595   6.726 -0.1654  0.6408 -0.0009
  330SOL    HW1 2278   6.819   6.636   6.677  0.5082 -0.4692 -2.0389
  330SOL    HW2 2279   6.868   6.608   6.818 -1.5262  2.8054 -0.5778
  331SOL     OW 2280   3.630   0.614   0.408 -0.0683  0.1727  0.1263
  331SOL    HW1 2281   3.668   0.537   0.451 -1.2739 -1.1515 -1.0831
  331SOL    HW2 2282   3.675   0.688   0.448 -0.0172 -1.0598  2.5261
  332SOL     OW 2283   1.802   4.107   5.968 -0.3796  0.6759  0.8521
  332SOL    HW1 2284   1.841   4.186   5.930  0.0941 -0.7139 -1.7859
  332SOL    HW2 2285   1.734   4.082   5.905  0.6116 -1.9093  0.7176
  333SOL     OW 2286   7.233   5.051   4.122  0.0937  0.2645  0.5234
  333SOL    HW1 2287   7.244   5.121   4.058 -0.1819  0.8590  1.1170
  333SOL    HW2 2288   7.264   5.089   4.205  1.4794 -0.8431  0.5540
  334SOL     OW 2289   6.967   7.867   8.682  0.3267 -0.1530  0.2138
  334SOL    HW1 2290   6.995   7.778   8.703 -0.5607 -0.2925  0.8365
  334SOL    HW2 2291   7.000   7.881   8.593 -1.0638 -1.7816 -0.6333
  335SOL     OW 2292   8.151   6.770   2.743  0.2802 -0.0418  0.3584
  335SOL    HW1 2293   8.241   6.803   2.737  0.5724 -0.4089  2.0211
  335SOL    HW2 2294   8.159   6.676   2.730 -0.0429  0.0697 -0.7033
  336SOL     OW 2295   5.631   5.937   4.414 -0.1760  0.1822 -0.2364
  336SOL    HW1 2296   5.726   5.945   4.399 -0.2956  0.5695 -0.8295
  336SOL    HW2 2297   5.596   6.021   4.386 -0.6615  0.1650  0.3184
  337SOL     OW 2298   1.245   4.757   0.283  0.1883  0.3156  0.6521
  337SOL    HW1 2299   1.239   4.835   0.338  1.6844  0.5605  0.5288
  337SOL    HW2 2300   1.324   4.712   0.315 -0.2148 -0.7259  0.2005
  338SOL     OW 2301   3.491   4.621   7.216 -0.1358 -0.1494  0.2178
  338SOL    HW1 2302   3.479   4.631   7.122 -1.3529 -0.2276  0.3494
  338SOL    HW2 2303   3.471   4.529   7.233 -0.3240 -0.0428  0.5994
  339SOL     OW 2304   6.880   3.332   5.734  0.4696 -0.3892 -0.2112
  339SOL    HW1 2305   6.968   3.364   5.754  0.7455 -0.9254 -0.5504
  339SOL    HW2 2306   6.854   3.382   5.656  0.1328  0.3657  0.3688
  340SOL     OW 2307   8.681   5.770   2.339 -0.1861 -0.0322 -0.5469
  340SOL    HW1 2308   8.638   5.852   2.316 -0.2710  0.6531  1.8115
  340SOL    HW2 2309   8.619   5.725   2.396  0.6561 -0.8569 -0.2484
  341SOL     OW 2310   1.587   2.334   4.866  0.3144  0.1733  0.2505
  341SOL    HW1 2311   1.654   2.366   4.805  0.3063  0.6623  0.4976
  341SOL    HW2 2312   1.549   2.258   4.822  0.4247  0.4243 -0.2803
  342SOL     OW 2313   4.916   6.508   4.846 -0.5266 -0.8627 -0.0343
  342SOL    HW1 2314   4.965   6.586   4.819 -1.6557 -0.7154 -1.8181
  342SOL    HW2 2315   4.960   6.435   4.801  0.1615 -1.2068  1.1555
  343SOL     OW 2316   7.930   2.559   0.203 -0.5672 -0.6234 -0.2516
  343SOL    HW1 2317   7.898   2.645   0.175 -0.3240  0.0918  1.5320
  343SOL    HW2 2318   8.016   2.576   0.240 -1.3482 -1.2385  2.0270
  344SOL     OW 2319   6.052   1.344   7.965  0.1676 -0.0515 -0.3357
  344SOL    HW1 2320   5.974   1.400   7.971 -0.4443 -0.8714 -0.5013
  344SOL    HW2 2321   6.111   1.391   7.905 -0.2421  0.5143 -0.3074
  345SOL     OW 2322   3.452   8.663   1.551  0.3379 -0.1925  0.1874
  345SOL    HW1 2323   3.536   8.660   1.598 -0.1707 -2.1816  1.0487
  345SOL    HW2 2324   3.456   8.590   1.490  0.4172  1.5306 -1.9909
  346SOL     OW 2325   7.485   0.652   5.094 -0.2310  0.5159 -0.0889
  346SOL    HW1 2326   7.416   0.695   5.144 -0.9871  0.4374 -1.0339
  346SOL    HW2 2327   7.536   0.724   5.056  0.7428  0.5853  1.2805
  347SOL     OW 2328   3.034   3.362   3.300 -0.5676 -0.3460  0.2443
  347SOL    HW1 2329   3.020   3.285   3.354  2.4631 -1.5614 -0.4733
  347SOL    HW2 2330   3.100   3.413   3.348 -1.0998  0.8366 -0.2222
  348SOL     OW 2331   3.061   6.485   2.721  0.3545  0.2095 -0.2249
  348SOL    HW1 2332   3.043   6.454   2.632  0.3117 -1.0914  0.2193
  348SOL    HW2 2333   3.085   6.577   2.709  0.9596 -0.0989 -1.6510
  349SOL     OW 2334   2.859   3.668   0.069  0.4426  0.1323 -0.0954
  349SOL    HW1 2335   2.777   3.715   0.057  0.5244  0.5907  1.0952
  349SOL    HW2 2336   2.890   3.693   0.156  1.5416 -0.5030 -0.2775
  350SOL     OW 2337   3.510   8.491   3.415  0.6981  0.6887  0.7345
  350SOL    HW1 2338   3.538   8.522   3.501 -0.8147 -1.9549  2.3255
  350SOL    HW2 2339   3.589   8.449   3.379  0.4524 -1.7495  2.7159
  351SOL     OW 2340   0.088   3.339   7.384  0.3661 -0.0547  0.1154
  351SOL    HW1 2341   0.066   3.248   7.404  0.6168 -0.6512 -2.0736
  351SOL    HW2 2342   0.179   3.348   7.412  0.3465 -0.4888  0.3258
  352SOL     OW 2343   2.186   0.487   3.198 -0.1214  0.4045  0.0535
  352SOL    HW1 2344   2.142   0.404   3.217  0.0311  0.1779 -0.5292
  352SOL    HW2 2345   2.279   0.469   3.210 -0.0953  0.5168  0.0278
  353SOL     OW 2346   1.439   2.676   2.682  0.2609  0.0488 -0.0662
  353SOL    HW1 2347   1.392   2.593   2.689 -0.8542  0.5143 -1.4559
  353SOL    HW2 2348   1.374   2.742   2.704  0.8536  0.6118  0.0308
  354SOL     OW 2349   1.412   5.587   2.433  0.0453 -0.4129  0.1277
  354SOL    HW1 2350   1.418   5.493   2.417  2.0767 -0.1657 -0.8661
  354SOL    HW2 2351   1.426   5.596   2.528 -0.4620 -1.1264  0.2739
  355SOL     OW 2352   0.762   2.930   5.001  0.2000  0.0352 -0.4600
  355SOL    HW1 2353   0.784   3.022   5.015  0.9855 -0.2280  0.0951
  355SOL    HW2 2354   0.755   2.893   5.088  1.8966 -0.8849 -0.6807
  356SOL     OW 2355   7.778   3.419   7.662  0.3699 -0.5241  0.3210
  356SOL    HW1 2356   7.712   3.415   7.593  1.7544  1.9256 -1.3142
  356SOL    HW2 2357   7.730   3.450   7.739 -0.3445  2.0536 -1.0569
  357SOL     OW 2358   5.521   0.715   7.591 -0.8548 -0.2268  0.0866
  357SOL    HW1 2359   5.509   0.784   7.656  3.8473  0.9945 -0.0033
  357SOL    HW2 2360   5.472   0.640   7.627 -2.3518  1.7449  2.4982
  358SOL     OW 2361   4.448   6.586   1.391  0.0592  0.1772  0.0710
  358SOL    HW1 2362   4.518   6.650   1.380  0.9776 -0.8486 -0.3116
  358SOL    HW2 2363   4.455   6.559   1.483 -0.8580  1.1891  0.4591
  359SOL     OW 2364   5.950   6.748   5.492  0.0404  0.3827  0.1945
  359SOL    HW1 2365   5.880   6.737   5.557 -1.2015 -2.7543 -1.5016
  359SOL    HW2 2366   6.021   6.691   5.523 -0.8662 -1.7623 -1.4961
  360SOL     OW 2367   5.109   4.332   1.558  0.0776  0.1336  0.3479
  360SOL    HW1 2368   5.085   4.384   1.635  0.8579 -1.8987  2.0730
  360SOL    HW2 2369   5.043   4.263   1.555 -0.0388  0.2807 -0.9528
  361SOL     OW 2370   0.353   3.149   7.599  0.4641 -0.2551 -0.4950
  361SOL    HW1 2371   0.358   3.239   7.565 -1.9949 -0.5465 -1.8982
  361SOL    HW2 2372   0.444   3.125   7.618  1.2927  2.1665 -1.0303
  362SOL     OW 2373   7.270   8.396   5.185 -0.7974  0.4302  0.1654
  362SOL    HW1 2374   7.212   8.321   5.175  0.8948 -1.0762  0.9957
  362SOL    HW2 2375   7.286   8.402   5.279 -0.1788  1.2670  0.0231
  363SOL     OW 2376   5.429   0.803   2.032 -0.3658 -0.0808 -0.5246
  363SOL    HW1 2377   5.469   0.718   2.051  0.2113 -0.0989 -1.7252
  363SOL    HW2 2378   5.369   0.786   1.960 -1.0237  0.3504 -0.0909
  364SOL     OW 2379   8.217   3.848   0.659  0.2552  0.1033  0.3369
  364SOL    HW1 2380   8.249   3.760   0.678  0.0164 -0.2003 -0.6456
  364SOL    HW2 2381   8.283   3.886   0.601 -0.9815 -0.4281 -1.4788
  365SOL     OW 2382   0.952   2.262   5.244  0.0657 -0.1552  0.8836
  365SOL    HW1 2383   1.035   2.215   5.240 -0.1308 -0.4767  0.5731
  365SOL    HW2 2384   0.891   2.208   5.194 -0.3532  0.0332  1.1871
  366SOL     OW 2385   4.083   3.821   0.277  0.3456  0.1552 -0.0026
  366SOL    HW1 2386   4.153   3.842   0.339  0.3504 -0.5216  0.2259
  366SOL    HW2 2387   4.128   3.779   0.204  0.3202  0.7998 -0.3931
  367SOL     OW 2388   7.481   7.274   7.069  0.2308  0.0063  0.4233
  367SOL    HW1 2389   7.425   7.253   7.144 -0.6664  0.1422 -0.1852
  367SOL    HW2 2390   7.564   7.231   7.088 -1.1955 -3.4076 -0.3302
  368SOL     OW 2391   8.179   4.034   1.908 -0.1382  0.9710 -0.1534
  368SOL    HW1 2392   8.131   4.081   1.840  1.8131  0.7672 -1.7798
  368SOL    HW2 2393   8.156   4.079   1.989 -2.9314  0.9053 -0.8210
  369SOL     OW 2394   6.240   5.118   6.798 -0.2471 -0.5056 -0.0940
  369SOL    HW1 2395   6.325   5.113   6.754 -0.5514  1.0420 -0.9569
  369SOL    HW2 2396   6.225   5.031   6.832  1.7895 -0.7527  0.2702
  370SOL     OW 2397   1.069   4.239   2.585  0.3098  0.1770 -0.1321
  370SOL    HW1 2398   1.150   4.244   2.637 -0.0852 -1.0397  0.6474
  370SOL    HW2 2399   1.090   4.179   2.514  0.1632  0.0453 -0.0633
  371SOL     OW 2400   2.330   3.632   0.103  0.3042  0.3900  0.4917
  371SOL    HW1 2401   2.381   3.562   0.145  0.0158 -0.3506 -0.3547
  371SOL    HW2 2402   2.352   3.624   0.010 -1.8551 -0.4173 -0.0122
  372SOL     OW 2403   3.509   6.141   7.946  0.0374 -0.4927 -0.5063
  372SOL    HW1 2404   3.544   6.128   7.858  0.2117  1.2835 -0.7494
  372SOL    HW2 2405   3.457   6.063   7.963  1.5899 -1.7712 -1.3755
  373SOL     OW 2406   6.617   1.315   1.328  0.5066  0.1679  0.7202
  373SOL    HW1 2407   6.707   1.290   1.350  0.5487 -0.1545  0.1947
  373SOL    HW2 2408   6.581   1.351   1.409  1.1083  0.2896  0.9343
  374SOL     OW 2409   6.502   3.004   7.933  0.5203 -0.5281  0.6194
  374SOL    HW1 2410   6.543   2.999   7.847  0.5793 -1.0114  0.6712
  374SOL    HW2 2411   6.430   2.940   7.929  0.6169 -0.6630  0.9771
  375SOL     OW 2412   4.306   7.980   1.978 -0.0712  0.2247 -0.3775
  375SOL    HW1 2413   4.384   7.994   1.924  0.2223  0.8666  0.1940
  375SOL    HW2 2414   4.306   7.886   1.996 -0.6299 -0.1504 -2.1429
  376SOL     OW 2415   5.638   6.331   1.526  0.1081 -0.0024 -0.3574
  376SOL    HW1 2416   5.719   6.282   1.510 -0.1719 -0.8684  0.7075
  376SOL    HW2 2417   5.569   6.271   1.498 -0.2079  0.1237  0.1410
  377SOL     OW 2418   0.410   0.956   0.847  0.2910  0.3105  0.1939
  377SOL    HW1 2419   0.394   0.930   0.938 -0.8260 -0.2414 -0.1350
  377SOL    HW2 2420   0.338   0.916   0.798  1.0155  0.3773 -0.9754
  378SOL     OW 2421   1.697   1.825   4.907 -0.0214 -0.1290  0.0563
  378SOL    HW1 2422   1.620   1.782   4.869 -0.0356 -0.7224  0.7347
  378SOL    HW2 2423   1.770   1.770   4.881  0.3023  0.9056 -1.3230
  379SOL     OW 2424   4.025   0.263   6.034 -0.0897 -0.3530 -0.1397
  379SOL    HW1 2425   4.091   0.298   5.974  0.1536  1.2430  0.9946
  379SOL    HW2 2426   4.076   0.223   6.105 -0.3680 -1.0194 -0.3080
  380SOL     OW 2427   3.879   2.482   1.740  0.1084 -0.2169  0.2485
  380SOL    HW1 2428   3.967   2.449   1.718 -0.1004 -0.4141 -0.3098
  380SOL    HW2 2429   3.866   2.455   1.831  0.9447  0.5139  0.6040
  381SOL     OW 2430   3.273   0.019   5.276 -0.7952  0.0112  0.3654
  381SOL    HW1 2431   3.274  -0.074   5.256 -0.1796 -0.0309  0.5696
  381SOL    HW2 2432   3.234   0.026   5.363  0.8532 -0.2391  1.1654
  382SOL     OW 2433   3.275   2.181   1.958 -0.1669  0.1751  0.0557
  382SOL    HW1 2434   3.286   2.250   1.892 -1.4363  2.5997  2.2023
  382SOL    HW2 2435   3.272   2.100   1.907  3.7862  1.3322 -2.4210
  383SOL     OW 2436   4.053   2.463   3.989  0.6258  0.5938 -0.3093
  383SOL    HW1 2437   3.971   2.496   4.024  0.8794 -0.0332  0.9229
  383SOL    HW2 2438   4.059   2.502   3.901 -0.6169  1.2210 -0.1376
  384SOL     OW 2439   6.887   2.769   6.564 -0.1566 -0.4242 -0.2899
  384SOL    HW1 2440   6.849   2.690   6.524  1.1087 -0.7077 -0.9812
  384SOL    HW2 2441   6.908   2.825   6.490 -2.0477  1.0927  0.2339
  385SOL     OW 2442   8.558   8.301   3.259 -0.0012 -0.3246 -0.3046
  385SOL    HW1 2443   8.557   8.275   3.351 -0.2712 -1.6192 -0.6518
  385SOL    HW2 2444   8.644   8.271   3.228  1.2658  2.5295  0.1422
  386SOL     OW 2445   0.476   3.107   4.760  0.4507  0.7204 -0.2815
  386SOL    HW1 2446   0.397   3.101   4.705  0.3195 -1.5661  0.0715
  386SOL    HW2 2447   0.500   3.016   4.777  1.7557  1.3791  1.6572
  387SOL     OW 2448   0.119   7.419   0.449 -0.2270  0.0467 -0.4256
  387SOL    HW1 2449   0.193   7.359   0.460  0.2412  0.6759 -0.0987
  387SOL    HW2 2450   0.099   7.416   0.355  1.4568  1.3248 -0.8604
  388SOL     OW 2451   1.992   1.241   6.370 -0.2203 -0.5339 -0.1504
  388SOL    HW1 2452   2.030   1.222   6.456 -2.2010 -1.5696  0.5685
  388SOL    HW2 2453   2.014   1.165   6.317  1.4407  0.3327 -0.7632
  389SOL     OW 2454   0.420   5.918   3.694 -0.0156 -0.4868  0.2995
  389SOL    HW1 2455   0.429   5.825   3.670  1.7501 -0.4169  0.6015
  389SOL    HW2 2456   0.450   5.965   3.616 -3.3180 -0.0327 -0.8777
  390SOL     OW 2457   1.919   7.359   1.253 -0.4274  0.5763  0.3346
  390SOL    HW1 2458   1.982   7.301   1.297  0.6982 -0.1155 -1.9856
  390SOL    HW2 2459   1.973   7.430   1.218 -0.6726 -0.5475 -2.5687
  391SOL     OW 2460   6.559   2.842   5.970  0.0617 -0.5237 -0.3478
  391SOL    HW1 2461   6.624   2.862   6.038 -0.2199  0.5469 -0.3731
  391SOL    HW2 2462   6.601   2.777   5.914  0.9999 -0.0695 -0.1831
  392SOL     OW 2463   8.170   6.284   0.697 -0.0015 -0.0270  0.1425
  392SOL    HW1 2464   8.153   6.350   0.764  0.3173  0.4366 -0.2248
  392SOL    HW2 2465   8.100   6.297   0.633  0.3467  0.2966 -0.1801
  393SOL     OW 2466   1.085   7.087   7.286 -0.0447  0.8864  0.2950
  393SOL    HW1 2467   1.157   7.128   7.336 -1.3642  0.6446  2.5169
  393SOL    HW2 2468   1.085   6.996   7.314  0.1185  0.3514 -1.3497
  394SOL     OW 2469   0.049   6.337   8.041  0.3065  0.1107  0.5849
  394SOL    HW1 2470   0.099   6.366   7.965  1.6629  0.4595  1.5684
  394SOL    HW2 2471   0.086   6.386   8.114 -2.1587  1.1730  1.2585
  395SOL     OW 2472   1.865   2.504   6.934  0.3859 -0.5707 -0.1238
  395SOL    HW1 2473   1.858   2.487   7.028 -0.8250 -0.0560 -0.0943
  395SOL    HW2 2474   1.775   2.499   6.902  0.8707 -1.5906 -1.4264
  396SOL     OW 2475   4.020   1.600   6.905  0.2254 -0.0719 -0.2423
  396SOL    HW1 2476   4.053   1.525   6.856 -0.9301 -0.6526 -0.1648
  396SOL    HW2 2477   4.099   1.646   6.935  0.9464 -0.8499 -0.8899
  397SOL     OW 2478   0.055   0.201   7.998 -0.3576  0.3454 -0.0654
  397SOL    HW1 2479   0.022   0.161   7.918 -0.0420 -1.6471  0.7569
  397SOL    HW2 2480   0.109   0.275   7.967 -1.0746  0.2583 -1.6193
  398SOL     OW 2481   5.014   4.025   1.895 -0.0879 -0.3034  0.5344
  398SOL    HW1 2482   4.941   4.035   1.956 -0.5158 -0.6208  0.0884
  398SOL    HW2 2483   5.052   3.940   1.916 -0.8158 -0.8379 -0.2307
  399SOL     OW 2484   8.602   7.793   4.098 -0.6025  0.0541 -0.0190
  399SOL    HW1 2485   8.675   7.843   4.061 -1.3255  1.2756  0.1494
  399SOL    HW2 2486   8.556   7.759   4.021  0.9665 -2.0106 -0.1083
  400SOL     OW 2487   6.909   1.166   7.350 -0.1009 -0.3623 -0.1932
  400SOL    HW1 2488   6.955   1.129   7.274 -0.7206 -1.5946 -0.0021
  400SOL    HW2 2489   6.907   1.094   7.413 -2.0675 -0.2771 -0.1122
  401SOL     OW 2490   6.018   4.056   5.246  0.3462  0.1662  0.1300
  401SOL    HW1 2491   6.050   3.975   5.285  0.8866  0.8793  1.2439
  401SOL    HW2 2492   5.964   4.028   5.173  1.0899 -1.1724  0.0546
  402SOL     OW 2493   8.694   7.179   2.634 -0.1685 -0.5095 -0.5389
  402SOL    HW1 2494   8.744   7.123   2.693 -1.0657 -0.5327  0.2202
  402SOL    HW2 2495   8.727   7.267   2.652  1.2043 -0.7524 -1.6935
  403SOL     OW 2496   2.270   5.266   0.285 -0.5728 -0.1518  0.3488
  403SOL    HW1 2497   2.286   5.263   0.191  1.0841 -0.9456  0.6248
  403SOL    HW2 2498   2.354   5.292   0.323 -0.8809 -1.0042  1.6781
  404SOL     OW 2499   7.390   1.172   0.177 -0.4724  0.3702  0.0513
  404SOL    HW1 2500   7.339   1.252   0.193  0.3835  0.9826 -0.1559
  404SOL    HW2 2501   7.470   1.185   0.229 -0.0371 -0.0483 -0.5018
  405SOL     OW 2502   1.728   1.374   1.459  0.0546  0.2143  0.0723
  405SOL    HW1 2503   1.768   1.403   1.377  0.8668  0.7680  0.6454
  405SOL    HW2 2504   1.785   1.303   1.490  0.7163  1.1044  0.9689
  406SOL     OW 2505   2.834   2.836   0.694  0.2314 -0.1325  0.2373
  406SOL    HW1 2506   2.924   2.869   0.690  0.9737 -1.9914  0.4197
  406SOL    HW2 2507   2.816   2.824   0.787  0.5950 -1.7066  0.1358
  407SOL     OW 2508   0.827   0.164   3.623  0.0812 -0.0969  0.1499
  407SOL    HW1 2509   0.868   0.150   3.537 -0.5574  0.6810 -0.2987
  407SOL    HW2 2510   0.856   0.252   3.649 -1.9427  0.8467 -0.5796
  408SOL     OW 2511   2.073   3.738   2.845  0.7008  0.1592 -0.5445
  408SOL    HW1 2512   2.017   3.795   2.793  1.3177  0.2806 -1.0865
  408SOL    HW2 2513   2.154   3.731   2.795  0.7086 -1.0399 -0.3850
  409SOL     OW 2514   0.976   8.299   0.411 -0.2667  0.0404  0.6413
  409SOL    HW1 2515   0.944   8.257   0.331 -0.5267 -1.4151  1.4729
  409SOL    HW2 2516   0.939   8.387   0.409 -1.7293 -0.5605  0.0255
  410SOL     OW 2517   7.196   6.605   0.006 -0.2908  0.0492 -0.0649
  410SOL    HW1 2518   7.274   6.557   0.034  0.3837  1.0533 -0.1707
  410SOL    HW2 2519   7.123   6.548   0.031  0.3629  0.0162  1.9561
  411SOL     OW 2520   5.875   3.027   7.536  0.2724  0.7010  0.3803
  411SOL    HW1 2521   5.891   3.105   7.590  3.0394  0.9131 -0.5414
  411SOL    HW2 2522   5.825   2.968   7.592  1.3227  1.6981  2.4652
  412SOL     OW 2523   0.255   7.095   3.452 -0.2941 -0.2528  0.2196
  412SOL    HW1 2524   0.174   7.076   3.499 -0.3132 -0.8342 -0.0456
  412SOL    HW2 2525   0.319   7.033   3.488 -0.7221 -1.8755 -1.6657
  413SOL     OW 2526   3.115   2.701   6.105  0.3362  0.0460  0.1170
  413SOL    HW1 2527   3.152   2.734   6.187 -1.6446  0.0185  1.0723
  413SOL    HW2 2528   3.054   2.632   6.132  1.1813 -1.4649 -1.5476
  414SOL     OW 2529   3.724   2.862   5.715  0.2380  0.3257 -0.0148
  414SOL    HW1 2530   3.645   2.808   5.717  0.7056 -0.4060 -0.4336
  414SOL    HW2 2531   3.715   2.922   5.788  0.2822 -1.1966  1.2842
  415SOL     OW 2532   1.788   7.622   5.730 -0.2792  0.2063  0.3384
  415SOL    HW1 2533   1.767   7.577   5.811 -2.7602  0.5007 -0.0824
  415SOL    HW2 2534   1.724   7.591   5.667  1.2094  0.4514 -1.3907
  416SOL     OW 2535   2.115   0.672   4.007  0.2186 -0.0381  0.0893
  416SOL    HW1 2536   2.079   0.666   4.095  1.2365 -0.7679  0.4735
  416SOL    HW2 2537   2.100   0.585   3.969  0.7333 -0.0675 -0.0630
  417SOL     OW 2538   7.467   6.668   1.057  0.4206 -0.3356 -0.2769
  417SOL    HW1 2539   7.460   6.739   0.993  1.8705 -0.2390 -0.3692
  417SOL    HW2 2540   7.393   6.611   1.038 -1.3702  1.6285  0.4405
  418SOL     OW 2541   8.158   6.725   7.457 -0.9781 -0.3623  0.2318
  418SOL    HW1 2542   8.224   6.772   7.406 -0.4876 -0.2245  0.9875
  418SOL    HW2 2543   8.207   6.683   7.527 -1.4038 -1.9805 -0.3929
  419SOL     OW 2544   6.625   1.116   7.491 -0.2063 -0.1676 -0.1911
  419SOL    HW1 2545   6.580   1.187   7.445  0.5802  0.3927 -0.1190
  419SOL    HW2 2546   6.707   1.155   7.521 -0.2851 -0.7795  0.8838
  420SOL     OW 2547   0.958   5.631   7.275 -0.0321  0.7050 -0.2500
  420SOL    HW1 2548   1.053   5.624   7.278  0.0061  0.9227 -0.7532
  420SOL    HW2 2549   0.940   5.675   7.192 -0.4122  3.2186  1.0378
  421SOL     OW 2550   0.950   1.512   5.269  0.1253 -0.3988  0.7073
  421SOL    HW1 2551   0.976   1.604   5.259  0.1918 -0.3947  0.9150
  421SOL    HW2 2552   1.022   1.472   5.318  0.4077 -0.7138  0.0437
  422SOL     OW 2553   7.579   7.225   5.105  0.5827 -0.1071 -0.0843
  422SOL    HW1 2554   7.633   7.149   5.082  0.4959 -0.4181  0.6772
  422SOL    HW2 2555   7.626   7.267   5.177  0.7173  0.6734 -0.6187
  423SOL     OW 2556   2.656   5.950   7.203 -0.2671 -0.2929  0.4630
  423SOL    HW1 2557   2.712   5.961   7.280  0.6129 -0.3026 -0.1486
  423SOL    HW2 2558   2.590   5.887   7.230  0.5931 -1.0208  0.9231
  424SOL     OW 2559   5.338   3.590   4.871 -0.4585 -0.2771 -0.0565
  424SOL    HW1 2560   5.407   3.634   4.921  0.3350 -2.0483  0.4625
  424SOL    HW2 2561   5.364   3.498   4.869 -1.3018 -0.5183 -2.3869
  425SOL     OW 2562   2.625   3.488   2.270 -0.5383  0.2523 -0.7881
  425SOL    HW1 2563   2.626   3.565   2.213  0.5351  0.0574 -1.0564
  425SOL    HW2 2564   2.657   3.417   2.215  3.8163  0.6640  0.7930
  426SOL     OW 2565   4.212   0.860   8.525 -0.0821 -0.4306  0.5232
  426SOL    HW1 2566   4.302   0.829   8.533 -0.1217 -0.4302  0.9499
  426SOL    HW2 2567   4.160   0.796   8.574 -0.3051 -0.3728  0.3662
  427SOL     OW 2568   3.047   4.212   6.418 -0.4253 -0.1821 -0.2403
  427SOL    HW1 2569   3.000   4.262   6.484 -1.6996 -0.3187 -1.0044
  427SOL    HW2 2570   3.090   4.279   6.364  0.1435 -0.0492  0.3676
  428SOL     OW 2571   5.634   7.740   0.958  0.0977 -0.1681  0.5765
  428SOL    HW1 2572   5.575   7.688   0.903  0.6107 -0.5065  0.3373
  428SOL    HW2 2573   5.721   7.724   0.921  0.6515 -1.5142  2.3211
  429SOL     OW 2574   4.658   5.472   4.628  0.6776 -0.3983 -0.1911
  429SOL    HW1 2575   4.645   5.566   4.620  0.8002 -0.4686 -1.3780
  429SOL    HW2 2576   4.694   5.460   4.717  1.5432  0.7682 -0.3571
  430SOL     OW 2577   2.668   6.446   2.536 -0.1162 -0.4273 -0.0847
  430SOL    HW1 2578   2.707   6.404   2.612  0.3266  0.2616  0.0777
  430SOL    HW2 2579   2.664   6.377   2.470  0.4906 -0.7536  0.2119
  431SOL     OW 2580   5.287   4.672   4.956  0.9775  0.6425 -0.3335
  431SOL    HW1 2581   5.279   4.679   5.051 -1.3893  1.2780 -0.5161
  431SOL    HW2 2582   5.214   4.616   4.930  1.7424  0.2544 -1.7899
  432SOL     OW 2583   7.926   2.486   7.631 -0.1413  0.1919 -0.0359
  432SOL    HW1 2584   7.840   2.517   7.603  0.0303 -0.4961 -1.4158
  432SOL    HW2 2585   7.915   2.464   7.723 -1.3191  0.5630 -0.0756
  433SOL     OW 2586   0.045   2.168   4.785  0.3372  0.4079 -0.3372
  433SOL    HW1 2587  -0.041   2.191   4.750 -0.2636 -0.3901  0.5590
  433SOL    HW2 2588   0.058   2.077   4.759  0.5305  0.2681  0.2229
  434SOL     OW 2589   1.013   8.360   1.377 -0.3459 -0.2754  0.0709
  434SOL    HW1 2590   1.033   8.450   1.404 -1.4753 -0.0260  0.1454
  434SOL    HW2 2591   1.079   8.339   1.311 -0.5785  0.9194 -0.5691
  435SOL     OW 2592   3.371   3.751   4.509 -0.3043 -0.3663  0.1001
  435SOL    HW1 2593   3.335   3.719   4.427  3.1940  1.5926 -2.4385
  435SOL    HW2 2594   3.394   3.842   4.491  1.9993 -0.3070  2.7533
  436SOL     OW 2595   8.287   3.705   3.483  0.4545  0.4287 -0.4351
  436SOL    HW1 2596   8.263   3.614   3.493 -0.6097  0.6424 -0.9481
  436SOL    HW2 2597   8.236   3.736   3.408  0.3299  1.6007  0.1026
  437SOL     OW 2598   0.848   6.942   4.948  0.5516 -0.1119  0.6267
  437SOL    HW1 2599   0.922   7.002   4.952  0.6399 -0.2551  1.3395
  437SOL    HW2 2600   0.864   6.889   4.870  1.0524  0.0523  0.6153
  438SOL     OW 2601   5.160   4.157   6.820 -0.7073  0.3429  0.0024
  438SOL    HW1 2602   5.202   4.162   6.735  2.0472  1.1113  1.2878
  438SOL    HW2 2603   5.109   4.076   6.818  0.2938 -0.2797 -1.9406
  439SOL     OW 2604   8.530   7.220   6.490 -0.0033 -0.0090  0.3102
  439SOL    HW1 2605   8.445   7.261   6.476 -0.4069 -0.6293  0.8527
  439SOL    HW2 2606   8.593   7.278   6.447 -0.6847  0.5264  0.0219
  440SOL     OW 2607   3.058   8.563   8.393 -0.2976 -0.3880 -0.4254
  440SOL    HW1 2608   3.084   8.569   8.301  1.4865 -0.9702 -0.0006
  440SOL    HW2 2609   3.059   8.653   8.425  0.0320 -0.2819 -0.7337
  441SOL     OW 2610   4.655   3.503   8.031 -0.0288 -0.0591 -0.2246
  441SOL    HW1 2611   4.576   3.448   8.025 -0.0323 -0.0457 -0.2995
  441SOL    HW2 2612   4.697   3.475   8.113  0.7592 -1.2223 -1.0008
  442SOL     OW 2613   0.584   5.401   7.798  0.8518  0.4542  0.5787
  442SOL    HW1 2614   0.603   5.318   7.753 -0.7643  0.2937  0.1269
  442SOL    HW2 2615   0.495   5.423   7.771  0.0690  0.7366  3.1223
  443SOL     OW 2616   3.700   4.064   0.161 -0.1560 -0.5547 -0.1855
  443SOL    HW1 2617   3.639   4.085   0.090 -0.5169 -1.0371 -0.0228
  443SOL    HW2 2618   3.695   3.969   0.169 -0.0997 -0.5039  0.4647
  444SOL     OW 2619   5.653   3.924   4.664  0.5548 -0.1229 -0.2790
  444SOL    HW1 2620   5.712   3.979   4.716  1.3207 -0.5813 -0.6423
  444SOL    HW2 2621   5.586   3.895   4.727  1.7043 -1.0109  0.5867
  445SOL     OW 2622   0.192   7.039   2.253  0.7647 -0.2732 -0.3788
  445SOL    HW1 2623   0.276   6.997   2.274  0.2115  0.3254  3.9014
  445SOL    HW2 2624   0.207   7.132   2.270 -0.4326  0.0456 -0.9759
  446SOL     OW 2625   0.463   0.216   2.482 -0.3082 -0.2738 -0.6308
  446SOL    HW1 2626   0.482   0.306   2.456  1.9871 -0.7394 -0.7522
  446SOL    HW2 2627   0.516   0.203   2.561  1.3280 -2.2220 -1.9554
  447SOL     OW 2628   6.021   5.355   7.672 -0.2670  0.9340  0.1882
  447SOL    HW1 2629   5.953   5.405   7.628 -1.6988 -0.9608  0.1206
  447SOL    HW2 2630   5.981   5.326   7.754  0.2496 -0.6097 -0.0660
  448SOL     OW 2631   1.126   1.639   6.131 -0.2739 -0.9995 -0.0354
  448SOL    HW1 2632   1.075   1.610   6.206 -1.4907 -0.0771 -0.4930
  448SOL    HW2 2633   1.172   1.560   6.102 -0.4428 -1.5524  1.1470
  449SOL     OW 2634   5.657   6.732   0.207 -0.3302 -0.3074 -0.7488
  449SOL    HW1 2635   5.661   6.772   0.120 -1.2835  0.3806 -0.5022
  449SOL    HW2 2636   5.564   6.710   0.219 -0.7620  2.0765  1.1348
  450SOL     OW 2637   5.812   1.140   1.180 -0.2729  0.3815  0.0765
  450SOL    HW1 2638   5.899   1.174   1.199 -0.4095  0.0273  1.4203
  450SOL    HW2 2639   5.761   1.217   1.155  0.0363  0.8272  0.7950
  451SOL     OW 2640   6.429   8.226   7.881  0.3744 -0.2223 -0.0452
  451SOL    HW1 2641   6.429   8.273   7.798 -0.1224  0.4502  0.3228
  451SOL    HW2 2642   6.342   8.243   7.918  0.1354 -1.5171  0.0588
  452SOL     OW 2643   8.148   5.431   2.783  0.1833  0.1739  0.5042
  452SOL    HW1 2644   8.073   5.484   2.810  0.7708  0.4171  1.7573
  452SOL    HW2 2645   8.143   5.353   2.839  0.6349 -0.0004  0.3074
  453SOL     OW 2646   5.927   8.505   0.760  0.0867 -0.0515  0.3680
  453SOL    HW1 2647   5.838   8.471   0.754 -0.4323  1.1518  0.9742
  453SOL    HW2 2648   5.927   8.583   0.704  0.7922 -0.1210  0.2620
  454SOL     OW 2649   0.138   7.321   6.570 -0.0483  0.2781  0.0496
  454SOL    HW1 2650   0.180   7.392   6.521  1.0811  1.0042  1.9603
  454SOL    HW2 2651   0.206   7.254   6.579 -1.1310 -1.1595 -1.8141
  455SOL     OW 2652   4.432   5.493   5.012 -0.2573 -0.2082 -0.2952
  455SOL    HW1 2653   4.438   5.401   5.037 -3.6982 -0.0354  1.6909
  455SOL    HW2 2654   4.405   5.538   5.092  1.8056  2.6878 -1.0710
  456SOL     OW 2655   6.012   3.017   3.126 -0.4061  0.7836  0.0662
  456SOL    HW1 2656   6.082   3.068   3.168  0.9621 -0.8736 -0.0870
  456SOL    HW2 2657   5.953   2.994   3.197 -0.5259  1.7460  0.2985
  457SOL     OW 2658   5.585   0.140   2.548 -1.1041 -0.1841 -0.1319
  457SOL    HW1 2659   5.568   0.088   2.469  0.9681  0.2634 -0.9551
  457SOL    HW2 2660   5.681   0.145   2.552 -1.2057  1.7579  1.1184
  458SOL     OW 2661   0.210   1.078   7.169  0.1015 -0.2976 -0.2795
  458SOL    HW1 2662   0.125   1.083   7.126 -0.6233 -1.3325  0.9688
  458SOL    HW2 2663   0.241   1.168   7.171 -3.1453  0.9983  3.4491
  459SOL     OW 2664   2.982   4.036   7.154  0.3789  0.3338 -0.7790
  459SOL    HW1 2665   3.011   4.124   7.130 -1.3480  0.6111 -2.0518
  459SOL    HW2 2666   2.895   4.049   7.191  0.9136 -0.6690  0.9850
  460SOL     OW 2667   8.681   6.566   1.575 -0.5554 -0.1657 -0.4702
  460SOL    HW1 2668   8.775   6.569   1.595 -0.7626 -1.6554  0.9127
  460SOL    HW2 2669   8.664   6.474   1.552 -1.8591 -0.1363  0.3029
  461SOL     OW 2670   1.371   8.229   4.900  0.3248 -0.2814  0.7560
  461SOL    HW1 2671   1.403   8.312   4.935  0.2928 -0.1847  0.5570
  461SOL    HW2 2672   1.280   8.247   4.875  0.1525 -0.5154  1.1925
  462SOL     OW 2673   7.437   5.972   0.190  0.3975 -0.9392  0.4675
  462SOL    HW1 2674   7.531   5.959   0.204  0.4388 -0.5955  0.5176
  462SOL    HW2 2675   7.395   5.908   0.248  0.5831 -0.1128  1.5458
  463SOL     OW 2676   0.582   8.696   2.689  0.1114  0.0114  0.4045
  463SOL    HW1 2677   0.657   8.637   2.689  0.2806  0.2136 -0.4721
  463SOL    HW2 2678   0.615   8.777   2.728  0.1614 -0.1249  0.6478
  464SOL     OW 2679   0.530   1.946   5.490 -0.2933 -0.0289  0.0149
  464SOL    HW1 2680   0.624   1.960   5.486 -0.0108 -1.1328  1.6827
  464SOL    HW2 2681   0.502   1.997   5.567 -1.1113  0.4498 -0.5790
  465SOL     OW 2682   6.255   0.613   6.258  0.7826 -0.3485  0.0039
  465SOL    HW1 2683   6.283   0.613   6.350  0.9280 -1.5893 -0.0344
  465SOL    HW2 2684   6.312   0.677   6.216  0.7986  0.1410  0.7469
  466SOL     OW 2685   1.094   3.539   5.233  0.1463  0.6009 -0.1603
  466SOL    HW1 2686   1.097   3.514   5.325 -0.5352  0.1558 -0.2489
  466SOL    HW2 2687   1.080   3.633   5.234  0.2088  0.6087  0.1888
  467SOL     OW 2688   5.432   0.885   0.032  0.0849  0.5270 -0.3475
  467SOL    HW1 2689   5.503   0.904  -0.030 -0.3199  0.4354 -0.8530
  467SOL    HW2 2690   5.464   0.809   0.082  0.4663  0.6730 -0.3626
  468SOL     OW 2691   0.527   7.125   1.280 -0.5565 -0.0193 -0.2885
  468SOL    HW1 2692   0.446   7.125   1.229 -0.7517  1.2681 -0.0035
  468SOL    HW2 2693   0.596   7.125   1.215 -0.7839 -0.7084 -0.5370
  469SOL     OW 2694   6.316   0.908   3.358  0.2122 -0.5187  0.1881
  469SOL    HW1 2695   6.318   0.991   3.311 -0.5932  0.4265  1.7369
  469SOL    HW2 2696   6.392   0.860   3.326  0.1998  0.4432 -1.3713
  470SOL     OW 2697   7.369   0.122   8.194  0.1907 -0.2035 -0.1348
  470SOL    HW1 2698   7.379   0.057   8.125 -0.0307 -0.8142  0.4045
  470SOL    HW2 2699   7.315   0.079   8.260  0.0885  0.5058  0.2530
  471SOL     OW 2700   0.670   7.990   2.439 -0.6676  0.2091 -0.7096
  471SOL    HW1 2701   0.575   7.998   2.445 -0.6070 -0.0627  1.0966
  471SOL    HW2 2702   0.684   7.910   2.389 -1.4121 -0.3486 -0.0589
  472SOL     OW 2703   0.700   4.411   7.785  0.5248 -0.0339  0.1835
  472SOL    HW1 2704   0.781   4.370   7.815  0.5699  0.0643  0.1943
  472SOL    HW2 2705   0.729   4.481   7.727  0.4464 -0.0147  0.1675
  473SOL     OW 2706   6.114   3.709   1.209 -0.2186 -0.0536  0.5893
  473SOL    HW1 2707   6.197   3.660   1.209 -1.2842 -1.9540  0.5802
  473SOL    HW2 2708   6.100   3.733   1.118  0.3678  0.3969  0.6090
  474SOL     OW 2709   0.651   0.658   4.440 -0.4064 -0.1095  1.1460
  474SOL    HW1 2710   0.657   0.660   4.345 -3.8089  0.7085  0.8060
  474SOL    HW2 2711   0.679   0.570   4.464 -0.1065 -0.5470 -0.6769
  475SOL     OW 2712   6.610   0.196   8.273  0.4203  0.1066  0.0676
  475SOL    HW1 2713   6.611   0.100   8.277 -0.2977  0.0570 -0.7058
  475SOL    HW2 2714   6.701   0.221   8.287  0.6159 -0.6878  0.2781
  476SOL     OW 2715   7.328   7.515   5.964  0.2581  0.4307  0.5490
  476SOL    HW1 2716   7.256   7.572   5.991  0.6336  1.0915  0.1920
  476SOL    HW2 2717   7.316   7.435   6.015 -0.0875  0.9571  1.3136
  477SOL     OW 2718   0.292   4.522   2.360 -0.1664  0.2233  0.2228
  477SOL    HW1 2719   0.220   4.488   2.307 -0.6535 -1.5034  1.8870
  477SOL    HW2 2720   0.369   4.473   2.330 -0.2511 -0.0391  0.4329
  478SOL     OW 2721   2.909   4.496   7.556  0.3331 -0.0665 -0.4264
  478SOL    HW1 2722   2.905   4.491   7.461 -0.4496 -0.7071 -0.3717
  478SOL    HW2 2723   2.858   4.421   7.586  0.4406  0.2154  0.4998
  479SOL     OW 2724   2.881   4.196   5.094 -0.4129  0.2050 -0.0573
  479SOL    HW1 2725   2.953   4.231   5.145 -0.1441  0.8326 -0.8377
  479SOL    HW2 2726   2.845   4.271   5.047  0.6096 -0.5889 -2.3003
  480SOL     OW 2727   3.606   1.230   2.717 -0.0360  0.0175 -0.1192
  480SOL    HW1 2728   3.647   1.171   2.654  1.0682  1.2128 -0.5467
  480SOL    HW2 2729   3.663   1.226   2.794  0.8504  1.5707 -0.6619
  481SOL     OW 2730   6.680   0.542   8.582  0.1877 -0.0759 -0.0093
  481SOL    HW1 2731   6.723   0.589   8.510 -0.2093  0.5477  0.1447
  481SOL    HW2 2732   6.706   0.451   8.571  0.2534  0.0366 -0.8586
  482SOL     OW 2733   6.009   3.093   7.287  0.0897 -0.7470 -0.3633
  482SOL    HW1 2734   5.965   3.064   7.367  1.5367  1.4309  1.3616
  482SOL    HW2 2735   6.009   3.189   7.293  1.9266 -0.5705 -2.0119
  483SOL     OW 2736   4.567   2.088   5.871 -0.4877 -0.0626 -0.2843
  483SOL    HW1 2737   4.492   2.144   5.893 -1.0887 -1.1964  0.6807
  483SOL    HW2 2738   4.590   2.046   5.954  0.0964 -1.0692 -0.9422
  484SOL     OW 2739   5.093   2.683   3.654 -1.5575 -0.0643 -0.7818
  484SOL    HW1 2740   5.069   2.770   3.686  1.3991  1.6228 -2.6832
  484SOL    HW2 2741   5.050   2.623   3.714 -1.4385  2.7214  2.4211
  485SOL     OW 2742   3.867   5.946   3.613 -0.1811  0.0999  0.0065
  485SOL    HW1 2743   3.807   5.920   3.683 -1.1888 -2.9733 -1.7963
  485SOL    HW2 2744   3.952   5.914   3.642 -0.6169 -1.3011 -0.1931
  486SOL     OW 2745   3.884   5.890   5.941  0.0294 -0.2829 -0.1960
  486SOL    HW1 2746   3.861   5.834   6.015 -0.4469  0.1266 -0.0328
  486SOL    HW2 2747   3.961   5.939   5.972  1.6947 -2.2482 -1.0382
  487SOL     OW 2748   8.461   3.938   7.366  0.6748 -0.6176 -0.3912
  487SOL    HW1 2749   8.382   3.887   7.348  0.5390 -0.5724  0.0683
  487SOL    HW2 2750   8.440   3.987   7.446  0.3578  1.0542 -1.4351
  488SOL     OW 2751   6.089   0.846   0.594 -0.7379  0.5394  0.1843
  488SOL    HW1 2752   6.181   0.856   0.616 -0.6286  3.4690 -1.0867
  488SOL    HW2 2753   6.089   0.808   0.506 -0.7105  0.8473  0.0490
  489SOL     OW 2754   4.465   4.376   4.301 -0.1967 -0.1549 -0.1007
  489SOL    HW1 2755   4.525   4.434   4.254 -0.1896 -0.7237 -0.8086
  489SOL    HW2 2756   4.380   4.417   4.290  0.0320  0.5756  0.7784
  490SOL     OW 2757   5.711   0.650   4.273 -0.1986  0.0543  0.8058
  490SOL    HW1 2758   5.715   0.731   4.325 -1.0275  0.7965 -0.2462
  490SOL    HW2 2759   5.802   0.621   4.267  0.1690  1.1700  0.8016
  491SOL     OW 2760   3.557   8.315   3.898  0.5586  0.0712  0.4726
  491SOL    HW1 2761   3.531   8.228   3.867 -0.4390 -0.5169  2.7244
  491SOL    HW2 2762   3.481   8.345   3.948 -0.0314  3.2547 -2.0495
  492SOL     OW 2763   5.838   6.035   1.337  0.0034  0.3224  0.1526
  492SOL    HW1 2764   5.816   5.980   1.412  1.3351  0.4112  0.6288
  492SOL    HW2 2765   5.877   6.113   1.375  3.5002 -0.8634 -0.6220
  493SOL     OW 2766   3.014   5.667   7.925 -0.0349 -0.2857 -0.4667
  493SOL    HW1 2767   2.981   5.627   8.006 -0.0645  1.3831  0.3946
  493SOL    HW2 2768   3.062   5.597   7.881 -0.3917 -1.3539  0.7815
  494SOL     OW 2769   3.105   1.543   6.619 -0.2318  0.3567  0.2414
  494SOL    HW1 2770   3.196   1.516   6.609 -0.4644 -0.9852  1.4888
  494SOL    HW2 2771   3.064   1.522   6.535  0.0611 -1.3626  0.5068
  495SOL     OW 2772   7.376   4.075   4.094  0.5790  0.0727 -0.3951
  495SOL    HW1 2773   7.316   4.041   4.028  1.5142  0.2922 -1.3914
  495SOL    HW2 2774   7.395   4.165   4.066 -0.7410  0.9748  1.4124
  496SOL     OW 2775   1.887   3.437   3.118  0.0307  0.3152  0.3313
  496SOL    HW1 2776   1.809   3.464   3.070 -0.7689 -1.4746  0.5383
  496SOL    HW2 2777   1.935   3.518   3.136 -0.0709  1.1318 -2.7032
  497SOL     OW 2778   8.363   5.273   7.050 -0.2766  0.1952 -0.1311
  497SOL    HW1 2779   8.444   5.257   7.001 -0.1024  1.2164 -0.2003
  497SOL    HW2 2780   8.380   5.237   7.137  0.6646  1.3460  0.1860
  498SOL     OW 2781   7.548   0.154   7.687 -0.4610 -0.1577  0.3891
  498SOL    HW1 2782   7.568   0.088   7.753  1.3777  1.2589  1.3250
  498SOL    HW2 2783   7.517   0.104   7.612  0.6972 -2.0711  1.1242
  499SOL     OW 2784   7.790   7.978   4.625  0.4010 -0.1420  0.0505
  499SOL    HW1 2785   7.818   8.068   4.611 -0.3377 -0.0173 -0.7081
  499SOL    HW2 2786   7.754   7.950   4.541  0.2291 -1.0054  0.3928
  500SOL     OW 2787   4.988   6.374   5.997  0.1048 -0.2590  0.1288
  500SOL    HW1 2788   4.978   6.423   5.915 -0.4996 -0.1227  0.2781
  500SOL    HW2 2789   5.082   6.359   6.004  0.6257  2.8688  1.2038
  501SOL     OW 2790   4.572   5.411   6.311  0.1625  0.4760 -0.1842
  501SOL    HW1 2791   4.666   5.401   6.328  0.4489 -0.6418 -2.1070
  501SOL    HW2 2792   4.549   5.494   6.352  1.7447  0.2756  1.2282
  502SOL     OW 2793   2.872   7.058   5.790  0.4477 -0.5209 -0.0427
  502SOL    HW1 2794   2.912   7.119   5.852  1.6240 -1.2013 -0.1081
  502SOL    HW2 2795   2.784   7.094   5.775  0.8072  0.6762  0.5703
  503SOL     OW 2796   5.000   7.804   0.759 -0.0441  0.2125 -0.1228
  503SOL    HW1 2797   4.917   7.806   0.808 -0.0098 -0.7982  0.0031
  503SOL    HW2 2798   5.057   7.864   0.806 -0.5821  0.6141  0.0250
  504SOL     OW 2799   6.796   4.296   2.566  0.1047  0.2391 -0.5061
  504SOL    HW1 2800   6.844   4.214   2.571 -3.0994 -1.7661  1.4340
  504SOL    HW2 2801   6.738   4.286   2.491 -0.1770  0.7989 -0.3711
  505SOL     OW 2802   6.754   8.123   3.323  0.3439  0.1859 -0.3634
  505SOL    HW1 2803   6.718   8.113   3.234  0.1943  0.4281 -0.3311
  505SOL    HW2 2804   6.699   8.190   3.363 -0.1206 -0.5177  0.1992
  506SOL     OW 2805   6.016   1.928   0.405  0.0909 -0.2942  0.3786
  506SOL    HW1 2806   6.046   1.920   0.495 -0.7662 -0.4887  0.6590
  506SOL    HW2 2807   6.093   1.956   0.356  0.9935 -1.8017  0.8796
  507SOL     OW 2808   6.163   6.278   2.550 -0.6387 -0.0607 -0.3923
  507SOL    HW1 2809   6.253   6.284   2.580 -0.0398  1.9773 -2.2929
  507SOL    HW2 2810   6.112   6.326   2.615 -0.4609 -1.4647  0.8381
  508SOL     OW 2811   1.486   3.509   2.662 -0.1508 -0.0927 -0.0405
  508SOL    HW1 2812   1.405   3.519   2.712 -1.0207  1.4479 -1.6335
  508SOL    HW2 2813   1.457   3.469   2.579  0.9116 -0.5683 -0.1992
  509SOL     OW 2814   6.285   6.644   0.928 -0.1623 -0.1244  0.4390
  509SOL    HW1 2815   6.272   6.737   0.949 -2.6802 -0.7745  2.2500
  509SOL    HW2 2816   6.249   6.634   0.840  0.2114  0.6275  0.1907
  510SOL     OW 2817   0.334   0.721   3.474  0.3841 -0.0708  0.1058
  510SOL    HW1 2818   0.360   0.697   3.564  1.0291 -0.4309 -0.1658
  510SOL    HW2 2819   0.404   0.684   3.419 -1.6254 -2.7698 -0.8717
  511SOL     OW 2820   4.753   2.368   0.260  0.2265  0.0640  0.1098
  511SOL    HW1 2821   4.747   2.392   0.167  0.7851  2.1699  0.5741
  511SOL    HW2 2822   4.845   2.351   0.275  0.4528  1.6238  0.6715
  512SOL     OW 2823   3.497   5.239   3.012  0.0749 -0.0892  0.4720
  512SOL    HW1 2824   3.575   5.293   3.003  1.3799 -1.7231  1.4812
  512SOL    HW2 2825   3.488   5.224   3.106 -2.1922  1.0390  0.5137
  513SOL     OW 2826   3.925   7.081   1.126 -0.1530  0.2064 -0.2240
  513SOL    HW1 2827   3.962   7.076   1.038 -0.8449  0.0440 -0.5058
  513SOL    HW2 2828   3.834   7.108   1.113 -0.2305  0.2866  0.4482
  514SOL     OW 2829   3.427   1.599   7.385  0.8199 -0.3974 -0.0940
  514SOL    HW1 2830   3.522   1.602   7.397  0.7076  0.7521  0.6955
  514SOL    HW2 2831   3.411   1.660   7.313  0.4720  1.4218  1.4662
  515SOL     OW 2832   4.177   2.400   7.054 -0.0164 -0.4914  0.0923
  515SOL    HW1 2833   4.202   2.439   7.137  1.1628 -0.9868 -0.0188
  515SOL    HW2 2834   4.259   2.368   7.016 -0.4206  0.3397 -1.5875
  516SOL     OW 2835   0.241   0.749   0.137 -0.7112 -0.6809  0.0432
  516SOL    HW1 2836   0.316   0.708   0.094 -1.4854 -1.7422 -0.3436
  516SOL    HW2 2837   0.174   0.754   0.069 -0.4151  1.9957 -0.1485
  517SOL     OW 2838   0.067   0.062   5.672  0.1929  0.0041  0.0243
  517SOL    HW1 2839   0.135   0.120   5.638  0.0699 -0.9470 -1.9940
  517SOL    HW2 2840  -0.004   0.068   5.608  0.0848 -2.1604 -0.1334
  518SOL     OW 2841   5.788   8.171   4.824 -0.5049  0.1350 -0.3811
  518SOL    HW1 2842   5.783   8.146   4.916 -2.0892  1.2047 -0.1324
  518SOL    HW2 2843   5.881   8.170   4.803 -0.2286 -2.0331  0.6695
  519SOL     OW 2844   1.578   5.907   0.484  0.2423 -0.0482  0.0073
  519SOL    HW1 2845   1.554   5.825   0.528  0.9209 -0.8537 -1.0686
  519SOL    HW2 2846   1.659   5.934   0.527  0.3767 -0.2978 -0.0888
  520SOL     OW 2847   2.009   1.421   1.618  0.0194 -0.5313  0.3362
  520SOL    HW1 2848   2.013   1.444   1.525  0.3527 -0.5108  0.3548
  520SOL    HW2 2849   2.063   1.343   1.626  0.9759  0.1432  0.7110
  521SOL     OW 2850   5.013   1.197   4.945  0.4125  0.3136 -0.2947
  521SOL    HW1 2851   5.107   1.214   4.936  0.4364  0.1938 -0.2785
  521SOL    HW2 2852   4.997   1.203   5.039  0.5433 -0.3661 -0.2195
  522SOL     OW 2853   7.009   5.042   8.260  0.4614  0.6942  0.0296
  522SOL    HW1 2854   7.032   4.949   8.265  3.3492  1.4136  1.8847
  522SOL    HW2 2855   6.915   5.044   8.278  0.1865 -1.8805 -0.6891
  523SOL     OW 2856   6.823   6.316   3.578 -0.0121 -0.0832 -0.3609
  523SOL    HW1 2857   6.738   6.274   3.566 -0.1621 -0.3503  1.3263
  523SOL    HW2 2858   6.882   6.245   3.605  0.4023  0.3140 -0.1836
  524SOL     OW 2859   6.613   2.085   5.500 -0.4519 -0.3937  0.0225
  524SOL    HW1 2860   6.704   2.056   5.501 -0.6234 -0.9322  0.5810
  524SOL    HW2 2861   6.616   2.174   5.465  0.1029 -1.0239 -1.6278
  525SOL     OW 2862   5.112   0.149   7.739  0.0897  0.0466  0.0856
  525SOL    HW1 2863   5.172   0.092   7.691  2.1926  1.8517  0.4524
  525SOL    HW2 2864   5.124   0.125   7.831  1.5040  1.4674  0.3087
  526SOL     OW 2865   4.719   7.153   4.761 -0.0107 -0.1273  0.7174
  526SOL    HW1 2866   4.744   7.090   4.693  2.2183  1.6902 -0.2646
  526SOL    HW2 2867   4.625   7.166   4.747  0.2834 -0.1788 -1.7583
  527SOL     OW 2868   3.947   6.562   0.612 -0.0738 -0.0010 -0.3172
  527SOL    HW1 2869   3.978   6.548   0.701  0.6823 -0.6147 -0.6606
  527SOL    HW2 2870   3.879   6.496   0.600  0.8585 -0.9261 -0.6729
  528SOL     OW 2871   7.790   8.215   3.760 -0.2870 -0.4824  0.5663
  528SOL    HW1 2872   7.834   8.188   3.680 -0.8001 -0.0105  0.1070
  528SOL    HW2 2873   7.746   8.137   3.792  1.0557 -1.0187  1.1660
  529SOL     OW 2874   8.044   4.445   0.241 -0.3305 -0.6430 -0.4153
  529SOL    HW1 2875   8.044   4.349   0.231 -2.2505 -0.7716  0.3575
  529SOL    HW2 2876   8.036   4.459   0.336 -0.0352  0.3031 -0.5187
  530SOL     OW 2877   5.086   3.397   2.496 -0.3924 -0.0821 -0.1262
  530SOL    HW1 2878   5.093   3.309   2.459  0.3325  1.2788 -3.6730
  530SOL    HW2 2879   4.992   3.411   2.507 -0.7851 -0.2005 -2.7427
  531SOL     OW 2880   6.795   2.044   0.587  0.2347 -0.3697 -0.2529
  531SOL    HW1 2881   6.885   2.044   0.552  0.4507 -2.7821  0.1573
  531SOL    HW2 2882   6.788   1.963   0.636 -1.1901  1.2424  2.4795
  532SOL     OW 2883   2.958   4.459   4.594 -0.0578  0.2720 -0.4373
  532SOL    HW1 2884   2.993   4.409   4.667  0.4526 -0.8549 -1.4188
  532SOL    HW2 2885   2.957   4.397   4.520 -2.9741  0.5620 -0.7872
  533SOL     OW 2886   8.097   4.970   3.010 -0.4673  0.2279  0.1930
  533SOL    HW1 2887   8.072   4.878   3.018  0.2140  0.0539  0.3578
  533SOL    HW2 2888   8.032   5.007   2.950 -0.3733 -0.5024 -0.3634
  534SOL     OW 2889   0.611   5.552   0.346 -0.4929  0.4880 -0.8854
  534SOL    HW1 2890   0.705   5.560   0.334 -0.2702  3.1239  1.6181
  534SOL    HW2 2891   0.573   5.611   0.281 -0.6749 -1.9565 -3.1911
  535SOL     OW 2892   2.775   6.557   3.214 -0.0482 -0.4766  0.0779
  535SOL    HW1 2893   2.743   6.633   3.261 -1.5623 -0.1295 -1.4235
  535SOL    HW2 2894   2.813   6.592   3.133 -1.5138 -1.3188 -1.0223
  536SOL     OW 2895   3.797   7.497   7.767  0.5358  0.2211 -0.0480
  536SOL    HW1 2896   3.876   7.445   7.785  0.5431  0.3316  0.2513
  536SOL    HW2 2897   3.807   7.575   7.822  0.0143  0.0378  0.3067
  537SOL     OW 2898   4.224   3.017   4.040 -0.1031  0.0051 -0.4024
  537SOL    HW1 2899   4.294   3.034   3.978  0.4741 -0.6301  0.0569
  537SOL    HW2 2900   4.264   3.029   4.126 -0.0272 -2.1269 -0.0762
  538SOL     OW 2901   7.776   6.808   6.883  0.0474 -0.5040  0.0655
  538SOL    HW1 2902   7.719   6.806   6.806  1.0106 -0.5946 -0.6651
  538SOL    HW2 2903   7.773   6.899   6.912  0.4258 -0.2504 -0.6639
  539SOL     OW 2904   2.274   0.387   8.679 -0.2446 -0.5006  0.1421
  539SOL    HW1 2905   2.324   0.306   8.690 -0.2978 -0.5124  0.3002
  539SOL    HW2 2906   2.215   0.369   8.606  0.5655 -0.2016 -0.6081
  540SOL     OW 2907   2.088   2.004   0.488 -0.2698  0.1385  0.3785
  540SOL    HW1 2908   2.001   1.990   0.451 -0.7102  1.7633  0.7035
  540SOL    HW2 2909   2.148   1.987   0.416 -0.9520  0.4529 -0.2818
  541SOL     OW 2910   6.774   7.588   6.539 -0.0411 -0.3672 -0.5108
  541SOL    HW1 2911   6.709   7.519   6.525 -1.5930  1.0179 -0.4604
  541SOL    HW2 2912   6.722   7.664   6.566  1.3301  1.4835 -2.7380
  542SOL     OW 2913   0.403   4.952   2.439 -0.5625  0.3944 -0.5777
  542SOL    HW1 2914   0.411   4.905   2.523 -0.5298  0.5514 -0.4927
  542SOL    HW2 2915   0.419   4.885   2.373 -2.3211 -0.1284 -0.5206
  543SOL     OW 2916   1.444   3.102   2.782  0.3848  0.5165  0.1077
  543SOL    HW1 2917   1.520   3.081   2.836 -0.2540  1.7486  1.5347
  543SOL    HW2 2918   1.376   3.042   2.812  0.1385  0.9376  0.3828
  544SOL     OW 2919   2.335   0.267   6.436  0.4971 -0.0423  0.0449
  544SOL    HW1 2920   2.422   0.303   6.455  1.0544 -0.7218 -1.1185
  544SOL    HW2 2921   2.340   0.175   6.462 -0.2519  0.1870  1.0421
  545SOL     OW 2922   6.200   7.801   3.058  0.8590 -0.0204  0.3068
  545SOL    HW1 2923   6.219   7.801   2.964 -0.3279 -1.2170  0.0390
  545SOL    HW2 2924   6.153   7.884   3.073  0.4470 -0.1384 -0.2992
  546SOL     OW 2925   0.517   5.982   6.474 -0.0745 -0.3457 -0.0634
  546SOL    HW1 2926   0.516   5.921   6.548  0.5051 -2.9422 -2.0337
  546SOL    HW2 2927   0.577   5.941   6.411  0.5864  2.4800 -1.4012
  547SOL     OW 2928   4.621   1.744   8.501 -0.2783  0.3235  0.3405
  547SOL    HW1 2929   4.715   1.732   8.509  0.0105  1.7320 -0.5200
  547SOL    HW2 2930   4.594   1.685   8.430  0.0883  0.4367  0.1046
  548SOL     OW 2931   0.258   4.322   5.248 -0.0794 -0.2744  0.3969
  548SOL    HW1 2932   0.215   4.387   5.194 -0.4304  0.8216  1.9340
  548SOL    HW2 2933   0.235   4.346   5.338  2.9525 -0.2118  1.2396
  549SOL     OW 2934   4.890   2.509   4.709 -0.0574 -0.2934 -0.3534
  549SOL    HW1 2935   4.981   2.536   4.715 -0.1635 -0.0762  0.4237
  549SOL    HW2 2936   4.840   2.584   4.741 -0.5632 -0.1230 -1.4866
  550SOL     OW 2937   3.169   6.525   0.560 -0.2927  0.3701  0.5016
  550SOL    HW1 2938   3.105   6.496   0.625  0.7756 -0.1512  1.3462
  550SOL    HW2 2939   3.190   6.446   0.511  0.4155  0.3284  0.8632
  551SOL     OW 2940   3.365   1.194   5.352 -0.1527 -0.3791  0.0370
  551SOL    HW1 2941   3.370   1.271   5.408  3.2463 -1.6232  1.7043
  551SOL    HW2 2942   3.306   1.134   5.397 -1.4188  0.4812 -0.3943
  552SOL     OW 2943   7.041   4.404   6.128 -0.5413  0.6297  0.1299
  552SOL    HW1 2944   7.110   4.339   6.132  0.4627  1.6965  0.8285
  552SOL    HW2 2945   7.035   4.428   6.036 -0.7947 -0.2946 -0.1017
  553SOL     OW 2946   3.500   8.709   6.847  0.0571 -0.0692  0.0263
  553SOL    HW1 2947   3.411   8.674   6.852  0.6462 -1.5082  3.3025
  553SOL    HW2 2948   3.548   8.647   6.792 -0.7188  0.2133 -0.9953
  554SOL     OW 2949   2.992   7.592   1.735 -0.0286 -0.6277  0.0938
  554SOL    HW1 2950   2.919   7.634   1.780 -0.7959 -0.3868 -1.2963
  554SOL    HW2 2951   3.063   7.656   1.738 -0.8680  0.4282 -1.1365
  555SOL     OW 2952   5.808   0.806   7.615  0.2006 -0.1862  0.4515
  555SOL    HW1 2953   5.871   0.735   7.606 -0.1564 -0.2679 -1.8033
  555SOL    HW2 2954   5.726   0.770   7.584 -0.5320  0.5510  1.4461
  556SOL     OW 2955   5.266   4.307   1.312 -0.0270 -0.1273 -0.5160
  556SOL    HW1 2956   5.219   4.309   1.396  0.4912  0.5039 -0.2371
  556SOL    HW2 2957   5.339   4.247   1.327  0.2922  0.2917 -0.3947
  557SOL     OW 2958   8.415   1.272   3.070 -0.1477 -0.7921 -0.5355
  557SOL    HW1 2959   8.498   1.242   3.034 -0.1241 -1.9220  0.3775
  557SOL    HW2 2960   8.439   1.341   3.132  0.1885 -1.5653  0.2108
  558SOL     OW 2961   4.290   4.338   2.516 -0.3254 -0.3904  0.2339
  558SOL    HW1 2962   4.198   4.324   2.540  0.0480 -0.9968  1.3977
  558SOL    HW2 2963   4.298   4.433   2.505 -1.3661 -0.4319 -1.1454
  559SOL     OW 2964   0.968   3.459   1.603 -0.0815  0.5177 -0.7550
  559SOL    HW1 2965   1.051   3.468   1.649 -0.2036  1.3879 -0.6986
  559SOL    HW2 2966   0.955   3.364   1.596 -0.3420  0.3518  1.5006
  560SOL     OW 2967   2.837   2.586   2.374 -0.1431 -0.6174 -0.2337
  560SOL    HW1 2968   2.792   2.597   2.458 -0.7661 -2.3304 -0.3064
  560SOL    HW2 2969   2.885   2.668   2.362 -2.1824  0.7559  0.4703
  561SOL     OW 2970   7.343   1.614   4.759  0.3615  0.3770  0.0095
  561SOL    HW1 2971   7.393   1.605   4.677  2.7659 -1.9649  1.5633
  561SOL    HW2 2972   7.345   1.526   4.797  1.3670  1.8317  3.6794
  562SOL     OW 2973   8.226   0.566   4.626  0.1107 -0.3849 -0.0956
  562SOL    HW1 2974   8.268   0.491   4.669 -1.0414 -0.7082  0.5129
  562SOL    HW2 2975   8.150   0.528   4.582 -1.0625  0.5429  1.0515
  563SOL     OW 2976   5.596   4.370   8.462 -0.0402 -0.0809 -0.0856
  563SOL    HW1 2977   5.655   4.315   8.410 -0.7992 -0.8590 -0.1374
  563SOL    HW2 2978   5.523   4.389   8.403 -0.0775  0.4712  0.1375
  564SOL     OW 2979   6.369   2.931   7.495  0.1846  1.1779 -0.4812
  564SOL    HW1 2980   6.367   2.857   7.555 -1.2998  0.8018 -0.9469
  564SOL    HW2 2981   6.419   2.900   7.419  1.1884  1.3158  0.1050
  565SOL     OW 2982   2.729   5.933   4.005  0.5266  0.3440  0.0423
  565SOL    HW1 2983   2.655   5.919   3.946 -0.0922  1.5234  0.5090
  565SOL    HW2 2984   2.750   6.026   3.996 -0.2673  0.8315  2.4314
  566SOL     OW 2985   6.838   5.482   0.161  0.0511 -0.2997  0.5426
  566SOL    HW1 2986   6.872   5.479   0.251  1.5937  0.3620  0.0209
  566SOL    HW2 2987   6.893   5.420   0.113 -0.9729 -0.8907  0.0932
  567SOL     OW 2988   6.218   7.260   2.291 -0.5884 -0.5107  0.2787
  567SOL    HW1 2989   6.215   7.166   2.308  3.0560 -0.2899  3.0750
  567SOL    HW2 2990   6.273   7.268   2.213 -2.1961 -0.6353 -0.9419
  568SOL     OW 2991   1.049   0.788   5.159  0.3791  0.5801 -0.0530
  568SOL    HW1 2992   1.118   0.731   5.125 -0.7788 -0.8565 -0.0695
  568SOL    HW2 2993   1.061   0.870   5.111  2.9205  0.8782  0.9433
  569SOL     OW 2994   7.754   1.183   8.576  0.2940  0.2666  0.3509
  569SOL    HW1 2995   7.681   1.221   8.625 -0.7975 -1.5614  0.2504
  569SOL    HW2 2996   7.735   1.089   8.574  1.3919  0.0233 -1.7555
  570SOL     OW 2997   3.426   3.447   0.002 -0.3240  0.1540  0.3842
  570SOL    HW1 2998   3.495   3.430  -0.062 -0.7624  0.7733 -0.2570
  570SOL    HW2 2999   3.466   3.507   0.065 -1.0378  2.7481 -1.4603
  571SOL     OW 3000   4.839   4.411   0.337  0.4029  0.0806 -0.3127
  571SOL    HW1 3001   4.783   4.435   0.263 -0.0766  0.5652  0.1966
  571SOL    HW2 3002   4.779   4.365   0.397  0.7436 -0.1433 -0.1436
  572SOL     OW 3003   2.187   3.106   5.413  0.0461  0.6467  0.1883
  572SOL    HW1 3004   2.249   3.049   5.367  0.1097  0.4944  0.4652
  572SOL    HW2 3005   2.102   3.064   5.399  0.1405  0.2660  0.7259
  573SOL     OW 3006   1.253   7.427   2.918  0.6468  0.2313 -0.4312
  573SOL    HW1 3007   1.229   7.401   3.008  1.1560  1.0994 -0.0331
  573SOL    HW2 3008   1.227   7.352   2.864  1.3632 -0.7887  0.5828
  574SOL     OW 3009   8.293   1.536   3.551  0.2581  0.9717 -0.0781
  574SOL    HW1 3010   8.342   1.591   3.613  0.2195 -1.0905  1.9287
  574SOL    HW2 3011   8.314   1.572   3.465  2.9912  1.9743  0.9048
  575SOL     OW 3012   4.588   4.416   3.810 -0.0204 -0.5520 -0.2105
  575SOL    HW1 3013   4.581   4.500   3.765 -1.5071 -0.3709  0.2884
  575SOL    HW2 3014   4.641   4.361   3.752 -1.4749 -0.1842 -1.9649
  576SOL     OW 3015   3.675   3.999   6.024  0.0059  0.4427 -0.4456
  576SOL    HW1 3016   3.768   4.006   6.000 -0.1659  0.1238 -1.2534
  576SOL    HW2 3017   3.629   4.025   5.945 -0.6144  2.1588  0.4358
  577SOL     OW 3018   6.297   7.458   5.410 -0.2323 -0.4139 -0.6010
  577SOL    HW1 3019   6.304   7.518   5.335  1.0517 -0.9247 -0.9220
  577SOL    HW2 3020   6.383   7.461   5.451 -0.6376 -0.8578  0.3000
  578SOL     OW 3021   1.559   7.875   7.396  0.0163 -0.2689  0.6109
  578SOL    HW1 3022   1.487   7.812   7.403 -1.5095  1.2289 -0.5409
  578SOL    HW2 3023   1.607   7.849   7.318 -0.8362  0.1777 -0.0791
  579SOL     OW 3024   6.876   2.231   3.727 -0.0221  0.2872  0.2842
  579SOL    HW1 3025   6.781   2.234   3.738 -0.1104 -1.7140  0.5492
  579SOL    HW2 3026   6.892   2.147   3.683  1.7447 -0.3472  1.9615
  580SOL     OW 3027   1.830   1.744   0.589  0.4859 -0.2874  0.1927
  580SOL    HW1 3028   1.808   1.798   0.514 -1.1565 -0.5288  0.4522
  580SOL    HW2 3029   1.919   1.769   0.612  0.0584  1.7646 -0.1570
  581SOL     OW 3030   4.708   7.934   4.444 -0.1614  0.8223  0.0093
  581SOL    HW1 3031   4.729   7.846   4.413  0.1488  1.4682 -1.7266
  581SOL    HW2 3032   4.769   7.991   4.397 -0.3096  1.9646  1.1595
  582SOL     OW 3033   0.721   7.592   7.309 -0.1839  0.2169 -0.6806
  582SOL    HW1 3034   0.770   7.510   7.303 -0.3082  0.1335 -0.5625
  582SOL    HW2 3035   0.648   7.580   7.248  0.3766  0.6510 -1.4576
  583SOL     OW 3036   6.094   7.804   0.754 -0.1553 -0.1407  0.1090
  583SOL    HW1 3037   6.084   7.852   0.672  1.6802 -1.3478 -0.8831
  583SOL    HW2 3038   6.188   7.801   0.769 -0.2702 -2.3024  0.7836
  584SOL     OW 3039   6.295   1.685   5.006  0.2492 -1.0215 -0.5367
  584SOL    HW1 3040   6.291   1.623   5.078 -0.8102 -0.3105  0.0352
  584SOL    HW2 3041   6.362   1.748   5.032 -1.5547  0.4319  0.8576
  585SOL     OW 3042   5.030   3.217   1.446 -0.2073  0.1592 -0.2414
  585SOL    HW1 3043   5.109   3.230   1.499 -0.2193 -0.5379 -0.0409
  585SOL    HW2 3044   5.046   3.270   1.368 -0.7292  2.1958  0.9652
  586SOL     OW 3045   3.925   3.165   4.843 -0.2071  0.4329 -0.2569
  586SOL    HW1 3046   3.946   3.211   4.925 -1.2452 -0.0842  0.3193
  586SOL    HW2 3047   3.998   3.185   4.785  1.4326 -0.5999  1.3529
  587SOL     OW 3048   1.125   6.895   3.304  0.3220  0.0166  0.2695
  587SOL    HW1 3049   1.073   6.816   3.291  1.4905 -0.9006  0.9036
  587SOL    HW2 3050   1.067   6.967   3.280 -0.5701 -1.0584 -0.9299
  588SOL     OW 3051   0.779   5.931   1.777 -0.1945 -0.2434 -0.1631
  588SOL    HW1 3052   0.780   6.024   1.797 -4.0706 -0.3127  1.0130
  588SOL    HW2 3053   0.833   5.891   1.845  1.0273  1.0403 -0.3386
  589SOL     OW 3054   6.775   3.431   3.872 -0.7536  0.5279  0.1642
  589SOL    HW1 3055   6.791   3.472   3.787 -1.8744  1.0224  0.1669
  589SOL    HW2 3056   6.680   3.432   3.881 -0.6406  0.5736  1.4792
  590SOL     OW 3057   1.675   5.919   2.562 -0.2043 -0.7642 -0.4436
  590SOL    HW1 3058   1.688   5.829   2.531  0.3289 -1.0716  0.6408
  590SOL    HW2 3059   1.665   5.970   2.482  0.3464 -1.6611 -1.1043
  591SOL     OW 3060   7.492   4.040   7.687 -0.4470  0.3678  0.5474
  591SOL    HW1 3061   7.442   4.110   7.644  1.9733  2.2257  0.5038
  591SOL    HW2 3062   7.518   3.982   7.616 -1.1046  0.3218  0.3347
  592SOL     OW 3063   3.730   6.005   5.450 -0.8167  0.4839 -0.2212
  592SOL    HW1 3064   3.766   6.078   5.401 -0.5412 -0.1613 -1.0107
  592SOL    HW2 3065   3.657   6.042   5.499 -0.0150  1.5026  0.2322
  593SOL     OW 3066   1.065   6.864   2.689  0.1877 -0.1576 -0.2539
  593SOL    HW1 3067   1.146   6.815   2.703  0.9976  0.7209 -1.5905
  593SOL    HW2 3068   1.090   6.955   2.699 -0.8133  0.0976  0.0474
  594SOL     OW 3069   1.690   6.508   7.212  0.2829  0.7147  0.3822
  594SOL    HW1 3070   1.659   6.595   7.185  1.6903  1.8125  2.1181
  594SOL    HW2 3071   1.761   6.526   7.273  1.0520 -1.6953  0.2667
  595SOL     OW 3072   6.397   7.618   2.363  0.1136 -0.1423 -0.4481
  595SOL    HW1 3073   6.371   7.555   2.430  1.8118 -1.4728 -0.9468
  595SOL    HW2 3074   6.428   7.694   2.412 -2.6679  0.6924  0.1553
  596SOL     OW 3075   2.588   4.508   4.954  0.3391  0.0313 -0.4248
  596SOL    HW1 3076   2.494   4.504   4.933  0.3393  0.0691 -0.4316
  596SOL    HW2 3077   2.607   4.601   4.964  0.6082  0.1017 -1.4713
  597SOL     OW 3078   0.725   7.246   4.008  0.7623 -0.1479 -0.2953
  597SOL    HW1 3079   0.702   7.160   3.972  1.3908 -0.5726  0.2945
  597SOL    HW2 3080   0.802   7.229   4.062 -0.2585  0.4361  1.4196
  598SOL     OW 3081   6.049   3.993   7.017 -0.6839  0.1249  0.1061
  598SOL    HW1 3082   6.020   3.953   7.099  0.7470  0.0834  0.6223
  598SOL    HW2 3083   6.092   3.922   6.969 -1.3604  0.1897 -0.6153
  599SOL     OW 3084   7.260   2.911   3.819 -0.5331  0.0189 -0.2086
  599SOL    HW1 3085   7.225   2.988   3.774 -0.2171  0.6835  0.6462
  599SOL    HW2 3086   7.284   2.851   3.748 -1.5404  0.3624 -0.8635
  600SOL     OW 3087   3.618   0.180   5.452  0.1967 -0.1503  0.1914
  600SOL    HW1 3088   3.534   0.210   5.487  0.5602  1.5776 -0.3152
  600SOL    HW2 3089   3.595   0.115   5.385 -0.5474 -2.6830  2.7137
  601SOL     OW 3090   2.222   2.041   1.877  0.0450  0.6064 -1.0244
  601SOL    HW1 3091   2.163   2.116   1.875 -0.1259  0.4552 -1.6632
  601SOL    HW2 3092   2.164   1.965   1.880  0.2168  0.4870 -0.4683
  602SOL     OW 3093   6.993   7.062   7.169 -0.7725 -0.1060  0.3498
  602SOL    HW1 3094   6.963   7.141   7.125 -2.5395 -0.0305  1.5701
  602SOL    HW2 3095   6.912   7.016   7.194  0.1528 -0.8752  2.1400
  603SOL     OW 3096   7.922   3.719   7.215 -0.5726 -0.6888 -0.2426
  603SOL    HW1 3097   7.847   3.663   7.235 -1.1731  0.9464  2.7539
  603SOL    HW2 3098   7.884   3.802   7.188 -0.1798  1.0566  3.8246
  604SOL     OW 3099   5.348   8.353   0.243 -0.0828  0.5607 -0.2307
  604SOL    HW1 3100   5.261   8.343   0.203  0.2679  1.1780 -1.2080
  604SOL    HW2 3101   5.395   8.274   0.217 -0.3423  0.2291  0.2932
  605SOL     OW 3102   2.685   4.700   6.167  0.4715  0.2794 -0.1108
  605SOL    HW1 3103   2.711   4.625   6.114  0.8125  0.4191 -0.1406
  605SOL    HW2 3104   2.642   4.759   6.105  0.3160  0.1665 -0.1119
  606SOL     OW 3105   3.526   6.466   5.374  0.2454 -0.4179  0.1251
  606SOL    HW1 3106   3.465   6.527   5.334  0.0726 -1.1320 -0.7256
  606SOL    HW2 3107   3.591   6.521   5.417 -0.1706  0.3541 -0.2263
  607SOL     OW 3108   7.787   0.385   0.859 -0.0983 -0.1673  0.6554
  607SOL    HW1 3109   7.846   0.450   0.821 -0.7259  0.7529  1.2221
  607SOL    HW2 3110   7.712   0.436   0.891 -0.2263 -1.0754  1.8656
  608SOL     OW 3111   1.635   5.137   6.752  0.1025 -0.1655 -0.0995
  608SOL    HW1 3112   1.551   5.106   6.717 -1.6170  3.0196  0.7807
  608SOL    HW2 3113   1.627   5.124   6.847  0.6030  0.1386 -0.0145
  609SOL     OW 3114   6.172   2.554   2.948 -0.0205 -0.5479 -0.1488
  609SOL    HW1 3115   6.108   2.490   2.916  0.2262 -1.4324  1.0580
  609SOL    HW2 3116   6.127   2.596   3.022  0.2758 -0.1768 -0.1793
  610SOL     OW 3117   2.364   6.479   6.451 -0.0996 -0.0684 -0.0344
  610SOL    HW1 3118   2.331   6.555   6.403 -0.1883  0.2170  0.4753
  610SOL    HW2 3119   2.306   6.407   6.425 -0.3271  0.1489 -0.1310
  611SOL     OW 3120   1.183   0.158   0.837  0.5055 -0.0254 -0.5936
  611SOL    HW1 3121   1.112   0.186   0.779 -0.8388  2.0661  1.8289
  611SOL    HW2 3122   1.237   0.237   0.848 -0.0720  0.1017  1.9627
  612SOL     OW 3123   1.684   4.128   8.412 -0.2756 -0.0638 -0.7775
  612SOL    HW1 3124   1.765   4.143   8.363  0.6184 -1.5691  0.1511
  612SOL    HW2 3125   1.638   4.060   8.363  0.4062 -1.2425  0.1416
  613SOL     OW 3126   0.484   6.032   1.750  0.1939  0.4272  0.3706
  613SOL    HW1 3127   0.548   5.973   1.791  1.0065  0.8744 -0.2192
  613SOL    HW2 3128   0.463   5.990   1.666  0.7997  0.9818 -0.0659
  614SOL     OW 3129   0.808   2.377   5.431 -0.0203  0.0013  0.0427
  614SOL    HW1 3130   0.829   2.318   5.503 -1.2561 -0.8937 -0.2943
  614SOL    HW2 3131   0.841   2.333   5.353 -0.6113 -0.0875 -0.1675
  615SOL     OW 3132   4.808   7.144   0.536 -0.0781 -0.1851  0.1621
  615SOL    HW1 3133   4.745   7.075   0.517 -0.7648  0.4018  0.2911
  615SOL    HW2 3134   4.806   7.154   0.631  1.1328 -1.0178  0.3025
  616SOL     OW 3135   4.132   5.828   0.054 -0.2937  0.1714 -0.1093
  616SOL    HW1 3136   4.183   5.909   0.062  0.1334 -0.2527  1.8129
  616SOL    HW2 3137   4.046   5.856   0.024 -0.2443  1.3876  0.8380
  617SOL     OW 3138   5.925   0.267   6.316  0.5428  0.4032 -0.0859
  617SOL    HW1 3139   5.944   0.354   6.280  0.6296 -0.6223 -2.7132
  617SOL    HW2 3140   6.008   0.237   6.351  1.1148  0.4051 -1.4085
  618SOL     OW 3141   3.392   3.629   2.479  0.3047  0.3444  0.0582
  618SOL    HW1 3142   3.416   3.641   2.571 -0.3458  0.9177  0.1613
  618SOL    HW2 3143   3.475   3.613   2.434  0.8034  1.5153  0.5188
  619SOL     OW 3144   0.252   1.973   8.221 -0.0966 -0.1741  0.4003
  619SOL    HW1 3145   0.328   2.023   8.251  0.7700 -1.6533  0.7854
  619SOL    HW2 3146   0.213   2.026   8.151  0.9218  0.8939  0.6232
  620SOL     OW 3147   1.652   5.057   1.321  0.0400  0.1040 -0.0892
  620SOL    HW1 3148   1.653   5.015   1.234 -0.7828  0.4979 -0.3016
  620SOL    HW2 3149   1.584   5.124   1.314 -0.3319 -0.1447  0.9928
  621SOL     OW 3150   4.712   2.360   8.093 -0.5499 -0.3678  0.1653
  621SOL    HW1 3151   4.753   2.399   8.015 -2.8421  0.0932 -0.8733
  621SOL    HW2 3152   4.677   2.276   8.063 -1.1989 -0.3265  0.7818
  622SOL     OW 3153   4.088   0.193   8.616 -0.1222 -0.1557  0.0594
  622SOL    HW1 3154   4.012   0.168   8.562  0.0256  3.3180 -2.0508
  622SOL    HW2 3155   4.055   0.264   8.671  1.3094  0.6315 -0.0724
  623SOL     OW 3156   0.981   6.641   1.256 -0.3747  0.1495 -0.0566
  623SOL    HW1 3157   0.917   6.695   1.211  0.7004  1.4258 -0.0952
  623SOL    HW2 3158   0.972   6.664   1.349 -1.2738 -1.0827  0.1865
  624SOL     OW 3159   3.950   7.072   4.141  0.5101  0.4204 -0.4062
  624SOL    HW1 3160   3.857   7.069   4.164  0.8777  0.0508  1.1449
  624SOL    HW2 3161   3.976   7.163   4.158  0.7412  0.1881  0.5698
  625SOL     OW 3162   2.300   7.019   7.673  0.2847  0.0964 -0.5027
  625SOL    HW1 3163   2.294   7.111   7.700 -2.9943  0.0284 -0.5718
  625SOL    HW2 3164   2.220   7.004   7.624  1.6956 -2.3243 -2.2312
  626SOL     OW 3165   0.626   1.054   4.002  0.1664 -0.5487  0.2362
  626SOL    HW1 3166   0.537   1.080   3.979  0.8322  1.1064 -0.6006
  626SOL    HW2 3167   0.651   0.993   3.932  0.3885  0.5477 -0.6586
  627SOL     OW 3168   8.466   6.977   2.821  0.4191  0.0122 -0.7007
  627SOL    HW1 3169   8.508   7.041   2.764  2.9961 -0.2668  0.7357
  627SOL    HW2 3170   8.462   6.897   2.769  1.1276  0.2182 -1.0868
  628SOL     OW 3171   2.102   5.801   1.650  0.4806  0.6180  0.6517
  628SOL    HW1 3172   2.031   5.751   1.609  0.3438  1.0978  0.2981
  628SOL    HW2 3173   2.116   5.875   1.591  1.8745  0.0627  0.2374
  629SOL     OW 3174   0.502   2.543   1.047 -0.3240 -0.0187 -0.0470
  629SOL    HW1 3175   0.517   2.456   1.010  1.9995 -0.3364  1.4004
  629SOL    HW2 3176   0.411   2.542   1.077 -0.2326 -2.1131  0.2922
  630SOL     OW 3177   0.872   4.595   0.458 -0.6198  0.0612  0.0593
  630SOL    HW1 3178   0.796   4.542   0.433  0.1277 -0.4982 -1.0945
  630SOL    HW2 3179   0.853   4.623   0.547 -1.9100 -0.5610  0.0038
  631SOL     OW 3180   6.543   5.057   6.505  0.5603 -0.1574  0.2421
  631SOL    HW1 3181   6.624   5.064   6.555  0.5055 -0.8831  0.4460
  631SOL    HW2 3182   6.513   5.147   6.495  1.9270  0.2113 -0.7362
  632SOL     OW 3183   1.102   8.282   4.915 -0.4240  0.2483 -0.1238
  632SOL    HW1 3184   1.029   8.224   4.893  0.0507  0.2883 -1.9376
  632SOL    HW2 3185   1.096   8.353   4.851  0.7709  0.6171  0.1589
  633SOL     OW 3186   5.205   8.285   6.127  0.4180 -0.1797  0.3660
  633SOL    HW1 3187   5.278   8.272   6.066 -0.2018 -1.3044 -0.1730
  633SOL    HW2 3188   5.225   8.228   6.201 -0.0159 -0.6914  0.1017
  634SOL     OW 3189   6.212   0.969   4.642  0.4896  0.2016 -0.0329
  634SOL    HW1 3190   6.133   0.947   4.692  0.0799  0.4900 -0.5480
  634SOL    HW2 3191   6.273   1.003   4.708  0.6457 -1.1729  0.5723
  635SOL     OW 3192   6.706   1.628   4.308  0.1720 -0.0170 -0.4664
  635SOL    HW1 3193   6.636   1.671   4.357  1.6865  1.6971  0.2995
  635SOL    HW2 3194   6.718   1.682   4.230  2.0333  1.0039  0.4578
  636SOL     OW 3195   1.578   3.328   3.544  0.1033 -0.5259  0.5073
  636SOL    HW1 3196   1.562   3.396   3.610 -0.3487 -1.1882  1.0974
  636SOL    HW2 3197   1.504   3.334   3.484  1.5885  1.5612 -1.2997
  637SOL     OW 3198   2.112   4.120   5.650 -0.0060 -0.3610 -0.5129
  637SOL    HW1 3199   2.088   4.081   5.734  1.5012 -0.4556 -0.1003
  637SOL    HW2 3200   2.135   4.211   5.671 -0.4254 -0.1454 -0.9646
  638SOL     OW 3201   3.740   8.345   2.071  0.0335  0.2636 -0.0578
  638SOL    HW1 3202   3.802   8.351   2.143 -0.2088 -0.8713  0.2662
  638SOL    HW2 3203   3.660   8.308   2.110  0.2457 -1.3963 -1.0654
  639SOL     OW 3204   3.144   3.036   5.907 -0.2564 -0.2253 -1.3118
  639SOL    HW1 3205   3.112   3.126   5.914 -0.2006 -0.2344 -0.9279
  639SOL    HW2 3206   3.240   3.045   5.910 -0.2305 -0.2352 -2.0166
  640SOL     OW 3207   2.311   0.173   1.514 -0.4713 -1.0831 -0.2833
  640SOL    HW1 3208   2.403   0.196   1.500 -0.0169 -0.6911  2.7480
  640SOL    HW2 3209   2.301   0.087   1.473  1.4994 -1.5064  0.0305
  641SOL     OW 3210   6.825   8.627   7.702  0.0297  0.2698  0.1178
  641SOL    HW1 3211   6.911   8.622   7.744 -0.1355  1.8670  0.7240
  641SOL    HW2 3212   6.766   8.581   7.762  0.4237 -0.6416 -0.1933
  642SOL     OW 3213   3.340   1.127   2.332 -0.4125 -0.0542 -0.0993
  642SOL    HW1 3214   3.363   1.207   2.380 -1.9358 -0.2098  0.9626
  642SOL    HW2 3215   3.420   1.074   2.333 -0.4071 -0.1048  2.4171
  643SOL     OW 3216   2.891   6.730   1.573  0.1176  0.7971 -0.2367
  643SOL    HW1 3217   2.902   6.732   1.478 -1.7941  0.2250 -0.5257
  643SOL    HW2 3218   2.803   6.695   1.585 -0.0248  1.7269  1.7276
  644SOL     OW 3219   0.851   1.031   8.301 -0.8836 -0.1252  0.0698
  644SOL    HW1 3220   0.899   1.028   8.218 -0.8340  2.5283 -0.0902
  644SOL    HW2 3221   0.918   1.022   8.368 -1.1036 -4.2496 -0.0163
  645SOL     OW 3222   1.492   1.344   2.321  0.0712  0.0311  0.2374
  645SOL    HW1 3223   1.417   1.347   2.380 -0.6919 -1.1633 -0.6152
  645SOL    HW2 3224   1.484   1.424   2.268 -0.8768 -0.3098 -0.1542
  646SOL     OW 3225   8.395   3.545   6.089 -0.3626  0.1317  0.2468
  646SOL    HW1 3226   8.436   3.525   6.173  1.5045  0.7542 -0.4731
  646SOL    HW2 3227   8.321   3.484   6.084  0.1762 -0.7213  1.8178
  647SOL     OW 3228   7.865   5.081   4.851  0.2743 -0.2540  0.3659
  647SOL    HW1 3229   7.824   5.163   4.821  0.1824  0.1006  1.4295
  647SOL    HW2 3230   7.793   5.028   4.883  0.2222 -1.1246 -1.0707
  648SOL     OW 3231   7.770   2.579   1.542 -0.0477  0.3125 -0.5229
  648SOL    HW1 3232   7.782   2.514   1.473  1.5633 -2.0207  1.7286
  648SOL    HW2 3233   7.857   2.592   1.579 -1.0387  0.1044  2.1280
  649SOL     OW 3234   7.610   6.889   7.444  0.0256  0.0075 -0.2435
  649SOL    HW1 3235   7.515   6.896   7.442  0.1370  1.8253 -0.4708
  649SOL    HW2 3236   7.630   6.867   7.535 -0.5688  0.2292 -0.0542
  650SOL     OW 3237   3.353   2.094   0.566 -0.3961  0.5224  0.1308
  650SOL    HW1 3238   3.402   2.046   0.633  2.4412  2.2860 -0.4995
  650SOL    HW2 3239   3.294   2.151   0.616  1.0958  1.2369  1.1547
  651SOL     OW 3240   5.628   3.176   8.689  0.3719 -0.0293  0.1235
  651SOL    HW1 3241   5.592   3.098   8.647  0.4659  0.2066 -0.4025
  651SOL    HW2 3242   5.554   3.237   8.694  0.3670 -0.0463  0.2902
  652SOL     OW 3243   6.744   1.880   8.115  0.3512 -0.4353 -0.1262
  652SOL    HW1 3244   6.822   1.829   8.137  1.3994  0.5330 -1.4646
  652SOL    HW2 3245   6.752   1.898   8.022 -0.1125  1.9490  0.2264
  653SOL     OW 3246   5.517   0.304   1.538  0.0981  0.1823  0.5392
  653SOL    HW1 3247   5.488   0.257   1.616 -2.4110  1.8704  0.7420
  653SOL    HW2 3248   5.441   0.302   1.479  0.9324  1.4034 -0.6427
  654SOL     OW 3249   0.218   4.700   5.893 -0.2436 -0.0325 -0.5995
  654SOL    HW1 3250   0.228   4.725   5.985 -0.7201 -0.2014 -0.5022
  654SOL    HW2 3251   0.203   4.782   5.847  1.3887  0.2326 -0.7356
  655SOL     OW 3252   4.532   3.353   7.298 -0.9603  0.2993  0.5457
  655SOL    HW1 3253   4.591   3.345   7.223 -0.4150 -1.0913  1.0895
  655SOL    HW2 3254   4.577   3.413   7.357 -0.4052 -0.2152  0.6556
  656SOL     OW 3255   2.850   7.380   0.736 -0.5696 -0.0373 -0.6320
  656SOL    HW1 3256   2.794   7.448   0.775 -0.5458  0.3489 -1.2613
  656SOL    HW2 3257   2.789   7.314   0.704 -0.6882  0.4219 -1.3911
  657SOL     OW 3258   4.156   8.531   3.966  0.4191 -0.2237  0.5015
  657SOL    HW1 3259   4.100   8.473   3.914  2.2059 -1.2804 -0.3709
  657SOL    HW2 3260   4.211   8.575   3.901 -1.8182  3.6880  0.9944
  658SOL     OW 3261   0.207   1.725   1.176 -0.1215 -0.0542 -0.2620
  658SOL    HW1 3262   0.114   1.748   1.169 -0.1184 -0.2749 -1.1480
  658SOL    HW2 3263   0.251   1.808   1.193 -0.3768  0.2199 -0.9016
  659SOL     OW 3264   8.565   1.556   6.618  0.3274  0.0069  0.2033
  659SOL    HW1 3265   8.607   1.632   6.659 -1.0496 -0.2298  2.1906
  659SOL    HW2 3266   8.547   1.496   6.690 -0.7100 -1.2030 -0.9949
  660SOL     OW 3267   4.134   4.471   5.355  0.2452  0.0189 -0.7875
  660SOL    HW1 3268   4.170   4.544   5.306  0.0299  0.8677  0.2713
  660SOL    HW2 3269   4.195   4.458   5.428 -0.6730  0.3779  0.0736
  661SOL     OW 3270   4.411   0.590   0.506 -0.0841 -0.2886  0.5560
  661SOL    HW1 3271   4.505   0.592   0.526 -0.2673  0.2107  1.3909
  661SOL    HW2 3272   4.406   0.617   0.415  0.4192  2.1693  1.1873
  662SOL     OW 3273   3.553   2.237   1.630  0.1831  0.0443  0.3503
  662SOL    HW1 3274   3.630   2.183   1.649  0.5386  1.0856  2.1024
  662SOL    HW2 3275   3.496   2.180   1.578  2.3976 -0.5355 -1.6129
  663SOL     OW 3276   1.273   2.040   1.899  0.3342  0.4263  0.0561
  663SOL    HW1 3277   1.277   2.125   1.855 -0.5152  0.1645 -0.5698
  663SOL    HW2 3278   1.260   1.977   1.828 -0.0135 -0.1212  0.5930
  664SOL     OW 3279   4.728   7.075   8.604 -0.3791  0.6323 -0.4445
  664SOL    HW1 3280   4.726   7.050   8.697  1.1859  0.1595 -0.5077
  664SOL    HW2 3281   4.793   7.144   8.599  0.0550  0.1789 -1.2913
  665SOL     OW 3282   6.053   7.947   1.475 -0.0247 -0.1623 -0.3439
  665SOL    HW1 3283   6.131   7.961   1.529  0.0580  0.0141 -0.5086
  665SOL    HW2 3284   6.018   7.863   1.505  0.3193 -0.3193 -0.3770
  666SOL     OW 3285   0.192   7.043   6.363 -0.1770  0.1242 -0.1559
  666SOL    HW1 3286   0.270   7.043   6.419  0.2285 -1.5082 -0.6774
  666SOL    HW2 3287   0.212   6.981   6.294 -1.7070  0.1603 -0.6573
  667SOL     OW 3288   8.703   5.309   4.462  1.0150 -0.2528 -0.4945
  667SOL    HW1 3289   8.719   5.397   4.498  0.2500  0.8845 -2.7300
  667SOL    HW2 3290   8.690   5.254   4.539 -0.9199  2.0904  1.0327
  668SOL     OW 3291   2.877   3.417   4.620  0.0111 -0.2951 -0.3036
  668SOL    HW1 3292   2.823   3.397   4.543 -0.8745 -0.2904  0.3000
  668SOL    HW2 3293   2.880   3.335   4.669  0.9752 -0.4322 -0.5672
  669SOL     OW 3294   4.023   5.923   0.538 -0.1193  0.1850  0.2937
  669SOL    HW1 3295   4.071   5.846   0.507  0.3641  0.4232  0.4485
  669SOL    HW2 3296   3.989   5.897   0.624  0.2881  0.2391  0.4755
  670SOL     OW 3297   5.546   2.726   3.251 -0.3470 -0.1098  0.7855
  670SOL    HW1 3298   5.457   2.706   3.220  0.2172  0.4669 -1.4241
  670SOL    HW2 3299   5.546   2.821   3.261 -0.5214 -0.2866  2.7639
  671SOL     OW 3300   3.858   8.216   7.652 -0.2694 -0.3924 -0.0410
  671SOL    HW1 3301   3.871   8.121   7.648 -1.0993 -0.5777  1.0069
  671SOL    HW2 3302   3.820   8.239   7.568 -1.1679 -1.1904  0.1335
  672SOL     OW 3303   4.676   2.746   5.899 -0.4826  0.2061  0.1147
  672SOL    HW1 3304   4.682   2.709   5.987 -1.8141 -1.4599 -0.4310
  672SOL    HW2 3305   4.750   2.806   5.892  1.9171 -2.4269  1.0622
  673SOL     OW 3306   8.162   3.624   2.606 -0.0049 -0.1274  0.0626
  673SOL    HW1 3307   8.198   3.594   2.522  3.2462  1.5437  0.7044
  673SOL    HW2 3308   8.211   3.574   2.671 -1.0221  0.1075  1.0363
  674SOL     OW 3309   4.573   4.045   7.493  0.0183 -0.3029 -0.0025
  674SOL    HW1 3310   4.668   4.052   7.485  0.0472 -0.4617  0.2246
  674SOL    HW2 3311   4.542   4.136   7.494  0.3148 -0.1847  1.8166
  675SOL     OW 3312   3.097   3.746   1.309 -0.5183  0.5571  0.8377
  675SOL    HW1 3313   3.028   3.699   1.356 -0.3790  0.1809  0.6648
  675SOL    HW2 3314   3.050   3.795   1.241 -0.6229  0.3696  0.7750
  676SOL     OW 3315   7.448   3.597   6.166  0.1574  0.1412 -0.1642
  676SOL    HW1 3316   7.465   3.511   6.126  0.2741  0.2028 -0.2469
  676SOL    HW2 3317   7.403   3.647   6.099 -0.7728 -0.1730  0.2103
  677SOL     OW 3318   6.952   2.515   2.687 -0.1074  0.4709  0.5603
  677SOL    HW1 3319   6.960   2.516   2.591  2.0137  0.1865  0.6813
  677SOL    HW2 3320   6.896   2.440   2.706  1.1402 -0.7622 -0.4071
  678SOL     OW 3321   4.313   4.967   7.361  0.3770 -0.0141 -0.2994
  678SOL    HW1 3322   4.303   4.973   7.266  1.1420  0.3495 -0.3646
  678SOL    HW2 3323   4.272   4.884   7.385 -0.6159  0.3197 -0.8303
  679SOL     OW 3324   5.255   5.995   7.451  0.1291 -0.6230  0.0047
  679SOL    HW1 3325   5.317   6.059   7.486  1.1840  0.1404 -2.9741
  679SOL    HW2 3326   5.310   5.929   7.410 -0.9728 -3.0851  2.2086
  680SOL     OW 3327   1.554   2.816   7.844 -0.2942 -0.0531  0.4613
  680SOL    HW1 3328   1.615   2.872   7.893 -0.4252  1.3111 -0.8345
  680SOL    HW2 3329   1.486   2.877   7.812 -1.2191 -1.2015  0.1834
  681SOL     OW 3330   1.708   8.512   3.896 -0.0198 -0.3724 -0.4579
  681SOL    HW1 3331   1.701   8.587   3.838  0.6368 -1.2203 -1.6938
  681SOL    HW2 3332   1.619   8.475   3.898 -1.1356  2.0891  2.6052
  682SOL     OW 3333   7.419   5.042   2.441 -0.0296 -0.0656 -0.9498
  682SOL    HW1 3334   7.371   4.982   2.384 -1.0352  0.6452 -0.8715
  682SOL    HW2 3335   7.495   5.070   2.388 -1.2231  1.0045 -2.1842
  683SOL     OW 3336   5.251   6.819   1.938  0.0960  0.2776 -0.6555
  683SOL    HW1 3337   5.337   6.852   1.965  0.8694 -1.4305 -0.8819
  683SOL    HW2 3338   5.238   6.855   1.850 -0.5936  2.5655  0.3178
  684SOL     OW 3339   5.266   1.207   7.527 -0.0568 -0.5782  0.1131
  684SOL    HW1 3340   5.251   1.300   7.544 -0.2188 -0.4638 -0.5927
  684SOL    HW2 3341   5.289   1.204   7.434  2.1648 -1.0016  0.6344
  685SOL     OW 3342   3.127   3.695   2.980 -0.3051  0.1137 -1.0985
  685SOL    HW1 3343   3.118   3.769   3.040 -1.8251  0.1117 -1.2902
  685SOL    HW2 3344   3.092   3.620   3.028 -0.8251 -0.0369 -1.6892
  686SOL     OW 3345   7.176   0.069   0.622  0.4128 -0.0676 -0.8277
  686SOL    HW1 3346   7.153   0.060   0.715 -0.8005  0.0997 -1.0899
  686SOL    HW2 3347   7.114   0.013   0.576  0.9854 -0.1256 -1.5451
  687SOL     OW 3348   6.093   0.437   0.207  0.5867 -0.1205 -0.0344
  687SOL    HW1 3349   6.088   0.394   0.122  0.6584  1.8983 -1.1165
  687SOL    HW2 3350   6.008   0.480   0.218  0.6139 -0.2713  0.8746
  688SOL     OW 3351   2.000   7.559   6.301  0.4722  0.0035 -0.7079
  688SOL    HW1 3352   1.966   7.470   6.299 -0.4484  0.1181  2.7003
  688SOL    HW2 3353   1.961   7.602   6.225 -0.2797 -2.0692 -1.5610
  689SOL     OW 3354   7.473   0.960   1.177  0.0442  0.0998  0.1673
  689SOL    HW1 3355   7.404   0.994   1.121 -0.6933 -1.0242  0.3627
  689SOL    HW2 3356   7.542   0.932   1.117  0.4584  1.4408 -0.0169
  690SOL     OW 3357   4.091   1.688   7.365 -0.6243 -0.3206  0.4232
  690SOL    HW1 3358   4.165   1.737   7.329  0.0654 -0.5718  1.4851
  690SOL    HW2 3359   4.032   1.677   7.290  1.1010 -1.4722 -0.8507
  691SOL     OW 3360   5.942   7.981   3.951 -0.5274  0.3039 -0.2167
  691SOL    HW1 3361   6.033   8.006   3.966 -0.3311 -1.6249  2.4170
  691SOL    HW2 3362   5.946   7.906   3.892 -0.5281  0.9262 -1.0264
  692SOL     OW 3363   4.172   5.488   6.420  0.2050 -0.3408  0.0862
  692SOL    HW1 3364   4.079   5.467   6.428  0.3103 -0.4306  1.2668
  692SOL    HW2 3365   4.178   5.579   6.449  0.2330  0.2853 -1.7852
  693SOL     OW 3366   5.435   2.700   1.477 -0.1705 -0.0471  0.4012
  693SOL    HW1 3367   5.511   2.758   1.475  0.6035 -1.0020  1.1292
  693SOL    HW2 3368   5.401   2.701   1.387 -0.0685  1.3622  0.3595
  694SOL     OW 3369   5.968   3.977   2.595  0.2447  0.0844  0.5450
  694SOL    HW1 3370   5.912   3.912   2.553 -1.1812 -0.4485  3.0715
  694SOL    HW2 3371   5.988   3.940   2.681  2.9949  1.1066  0.4298
  695SOL     OW 3372   7.821   1.417   7.549 -0.0635  0.0547 -0.4491
  695SOL    HW1 3373   7.859   1.443   7.465  1.5154 -1.4139 -0.2339
  695SOL    HW2 3374   7.845   1.325   7.559 -1.3470 -0.1633  1.0223
  696SOL     OW 3375   5.613   4.002   7.699  0.5053  0.2493 -0.7699
  696SOL    HW1 3376   5.671   4.030   7.770  0.4567  0.7008 -0.9064
  696SOL    HW2 3377   5.576   4.083   7.664  3.3529  0.4766 -3.7718
  697SOL     OW 3378   5.256   5.715   0.348  0.1623 -0.1197  0.2053
  697SOL    HW1 3379   5.324   5.745   0.289 -0.6006 -1.2633 -1.3253
  697SOL    HW2 3380   5.302   5.658   0.410  0.9044  0.7506  0.4700
  698SOL     OW 3381   2.071   2.444   5.101 -0.2932 -0.1534  0.0765
  698SOL    HW1 3382   2.120   2.388   5.040  0.4038  0.4867  0.0238
  698SOL    HW2 3383   2.136   2.471   5.166 -0.0309  2.2872 -1.0762
  699SOL     OW 3384   0.536   5.090   1.007  0.3263  0.1328 -0.4595
  699SOL    HW1 3385   0.622   5.095   1.048 -0.6453  2.5071  1.5116
  699SOL    HW2 3386   0.550   5.121   0.917  1.3502  1.6787  0.1935
  700SOL     OW 3387   1.868   4.140   6.808 -0.2783 -0.2244  0.1099
  700SOL    HW1 3388   1.883   4.046   6.804  0.9098 -0.1004  1.0155
  700SOL    HW2 3389   1.945   4.179   6.768 -0.2801  0.3711  0.6637
  701SOL     OW 3390   1.025   4.463   6.383  0.4539 -0.6764 -0.1556
  701SOL    HW1 3391   1.045   4.439   6.292 -1.3009 -1.1577 -0.4497
  701SOL    HW2 3392   1.013   4.379   6.427 -0.4067 -0.4168  0.1065
  702SOL     OW 3393   0.697   6.407   0.305  0.0441 -0.0204  0.0613
  702SOL    HW1 3394   0.733   6.375   0.388 -1.1739 -0.3554  0.4792
  702SOL    HW2 3395   0.607   6.432   0.326 -0.1190  0.3848 -1.0522
  703SOL     OW 3396   1.955   4.347   5.146 -0.4118 -0.1365  0.1518
  703SOL    HW1 3397   1.913   4.405   5.082 -0.3711 -0.0533  0.2010
  703SOL    HW2 3398   1.906   4.360   5.227 -2.1936 -2.1815 -0.4886
  704SOL     OW 3399   0.739   4.352   2.432 -0.1881 -0.2762 -0.1069
  704SOL    HW1 3400   0.830   4.384   2.432 -0.5744  0.9111  0.4945
  704SOL    HW2 3401   0.699   4.396   2.507 -1.1182 -1.2242 -0.0355
  705SOL     OW 3402   2.219   7.372   3.295  0.5976 -0.0660  0.0001
  705SOL    HW1 3403   2.242   7.438   3.230  1.8661 -0.6522 -0.1711
  705SOL    HW2 3404   2.124   7.381   3.306  0.0329 -0.9817 -3.1015
  706SOL     OW 3405   0.952   4.008   7.973 -0.1460 -0.5513  0.1180
  706SOL    HW1 3406   0.996   4.062   8.038  0.1593 -0.0811 -0.4710
  706SOL    HW2 3407   1.023   3.960   7.930 -0.2989 -0.4846 -0.2101
  707SOL     OW 3408   4.998   5.214   6.017 -0.5011 -0.5487 -0.0081
  707SOL    HW1 3409   5.026   5.291   6.068  1.8228  0.0273 -1.9582
  707SOL    HW2 3410   4.953   5.251   5.941  2.8026 -0.7535 -2.2948
  708SOL     OW 3411   4.599   7.456   6.975  0.5275  0.8830 -0.3632
  708SOL    HW1 3412   4.652   7.426   7.048 -1.2369  0.7314  0.9233
  708SOL    HW2 3413   4.610   7.551   6.973  1.4971  0.7744 -0.6777
  709SOL     OW 3414   5.873   6.154   2.449 -0.5259 -0.2844 -0.2627
  709SOL    HW1 3415   5.918   6.238   2.435 -0.0061 -0.4928  0.1299
  709SOL    HW2 3416   5.811   6.172   2.519  0.8686 -0.6720  1.1250
  710SOL     OW 3417   3.011   7.227   5.996 -0.1964  0.0642  0.1077
  710SOL    HW1 3418   2.949   7.227   6.069 -0.1559  0.3398  0.1422
  710SOL    HW2 3419   3.027   7.319   5.978  0.1829 -0.0039  0.0797
  711SOL     OW 3420   7.392   2.205   7.167  0.0381  0.3630 -0.6081
  711SOL    HW1 3421   7.373   2.299   7.161  0.4601  0.4473 -0.6356
  711SOL    HW2 3422   7.478   2.200   7.208  0.1008 -0.0034 -0.7773
  712SOL     OW 3423   6.413   1.602   4.739  0.2022 -0.0891  0.2415
  712SOL    HW1 3424   6.355   1.661   4.788  0.4228 -0.0094  0.4071
  712SOL    HW2 3425   6.395   1.622   4.647  0.2318  0.1959  0.2951
  713SOL     OW 3426   8.241   7.073   8.311  0.2457  0.6534  0.1170
  713SOL    HW1 3427   8.150   7.042   8.310  0.2432  0.6619 -0.1804
  713SOL    HW2 3428   8.257   7.100   8.220  0.7487  0.0559  0.0242
  714SOL     OW 3429   0.306   2.901   4.142 -0.2699  0.0385 -0.5445
  714SOL    HW1 3430   0.378   2.940   4.094 -1.8963  2.1312 -1.4448
  714SOL    HW2 3431   0.275   2.970   4.200 -0.9078 -1.1526  0.5973
  715SOL     OW 3432   0.328   3.032   7.870 -0.2154 -0.3066  0.0897
  715SOL    HW1 3433   0.265   3.104   7.873  0.5034  0.3580  2.9764
  715SOL    HW2 3434   0.402   3.067   7.822 -0.7440  0.0899 -0.4450
  716SOL     OW 3435   3.081   0.706   4.261  0.1838  0.2649  0.2228
  716SOL    HW1 3436   3.019   0.710   4.334 -3.2897 -1.4810 -2.3373
  716SOL    HW2 3437   3.110   0.797   4.249 -1.6227  1.1157  1.7686
  717SOL     OW 3438   0.387   2.174   0.340 -0.6768  0.0405 -0.3529
  717SOL    HW1 3439   0.464   2.231   0.343 -0.8859  0.2959  0.2201
  717SOL    HW2 3440   0.424   2.086   0.327 -0.3581  0.2973 -1.2104
  718SOL     OW 3441   2.357   1.969   6.755 -0.4516  0.0370  0.1067
  718SOL    HW1 3442   2.295   1.973   6.683 -0.2796  0.8654 -0.0072
  718SOL    HW2 3443   2.432   1.921   6.720  1.1992  3.4492 -1.5479
  719SOL     OW 3444   2.065   6.734   5.247 -0.2386 -0.4882  0.4239
  719SOL    HW1 3445   2.085   6.723   5.154 -1.0771 -0.8901  0.2776
  719SOL    HW2 3446   2.077   6.647   5.284 -1.4005 -0.6826  0.3813
  720SOL     OW 3447   0.783   0.955   7.000  0.1008 -0.2022  0.4683
  720SOL    HW1 3448   0.765   0.901   7.077  2.1042 -0.8326  0.5498
  720SOL    HW2 3449   0.712   1.019   6.998 -2.0089 -2.3963  0.7435
  721SOL     OW 3450   0.555   1.039   3.311  0.2225 -0.6528  0.2312
  721SOL    HW1 3451   0.466   1.005   3.321  0.0135 -0.5020 -0.9441
  721SOL    HW2 3452   0.581   1.013   3.223  0.6151  0.9523 -0.1530
  722SOL     OW 3453   3.870   1.062   7.140  0.2656 -0.0154 -0.3915
  722SOL    HW1 3454   3.836   1.073   7.229 -2.6882  2.3906 -1.6412
  722SOL    HW2 3455   3.928   1.137   7.127  0.7322 -0.3900 -0.5223
  723SOL     OW 3456   8.199   0.627   5.013  0.0147 -0.2556 -0.4197
  723SOL    HW1 3457   8.120   0.647   4.962 -1.2279  0.2569  1.6011
  723SOL    HW2 3458   8.235   0.712   5.035 -1.2193 -0.2927  2.0869
  724SOL     OW 3459   1.349   4.966   5.507  0.0496  0.1784  0.0242
  724SOL    HW1 3460   1.426   4.909   5.505 -0.5167 -0.5635 -1.0093
  724SOL    HW2 3461   1.361   5.018   5.587  0.7119 -1.1775  0.8477
  725SOL     OW 3462   6.405   4.542   3.561  0.2511  0.1735 -0.6282
  725SOL    HW1 3463   6.399   4.634   3.537  0.4793 -0.0420 -1.5238
  725SOL    HW2 3464   6.402   4.543   3.657  0.3811  1.1161 -0.6202
  726SOL     OW 3465   6.149   1.753   6.116 -0.2676 -0.0952 -0.2237
  726SOL    HW1 3466   6.109   1.836   6.091  1.0202  0.2182 -1.3376
  726SOL    HW2 3467   6.194   1.772   6.199  3.1719  1.4607 -2.2274
  727SOL     OW 3468   7.994   0.495   4.103  0.6819 -0.2241 -0.1164
  727SOL    HW1 3469   8.074   0.522   4.058  0.4930  1.8200  0.6692
  727SOL    HW2 3470   7.962   0.575   4.144 -2.6421 -0.5829 -1.6968
  728SOL     OW 3471   6.286   4.457   7.583 -0.3417  0.1972 -0.2227
  728SOL    HW1 3472   6.193   4.477   7.576 -0.3260  0.5257  0.3714
  728SOL    HW2 3473   6.308   4.412   7.502 -0.4732  2.2744 -1.4668
  729SOL     OW 3474   0.728   3.763   0.530  0.1561  1.0473 -0.8922
  729SOL    HW1 3475   0.650   3.732   0.484  0.7157 -0.6193 -0.7754
  729SOL    HW2 3476   0.708   3.855   0.551 -1.5369  0.8234 -1.3425
  730SOL     OW 3477   1.196   7.783   4.890 -0.1692 -0.1138  0.0939
  730SOL    HW1 3478   1.229   7.753   4.976 -0.9317  1.4164  0.9623
  730SOL    HW2 3479   1.262   7.753   4.828  0.8166 -0.5976  1.3168
  731SOL     OW 3480   5.358   1.178   4.494 -0.0037 -0.1733 -0.4372
  731SOL    HW1 3481   5.442   1.144   4.463 -0.4653 -1.3963 -0.3796
  731SOL    HW2 3482   5.382   1.241   4.562  0.8448 -1.0928  0.1429
  732SOL     OW 3483   0.654   3.735   4.158 -0.5525 -0.2163 -0.3433
  732SOL    HW1 3484   0.745   3.725   4.185 -1.3631  0.0475  2.8727
  732SOL    HW2 3485   0.655   3.805   4.094  1.3550  0.8927  0.8088
  733SOL     OW 3486   0.146   6.131   4.167 -0.1172  0.1435 -0.1885
  733SOL    HW1 3487   0.218   6.168   4.217 -0.4592  0.1936  0.2686
  733SOL    HW2 3488   0.132   6.044   4.205 -0.5694  0.2974 -0.0005
  734SOL     OW 3489   7.596   3.890   2.557 -0.1842  0.1667  0.4675
  734SOL    HW1 3490   7.685   3.863   2.532  0.3859  1.8503  0.5262
  734SOL    HW2 3491   7.584   3.853   2.644  1.8013  2.5166  1.8942
  735SOL     OW 3492   6.377   7.067   1.771 -0.3914 -0.3387  0.0566
  735SOL    HW1 3493   6.456   7.028   1.735  0.2296  1.3311 -0.4840
  735SOL    HW2 3494   6.339   7.116   1.698 -0.4568  1.0704  0.9958
  736SOL     OW 3495   7.224   3.596   5.181 -0.1439  0.0207 -0.3035
  736SOL    HW1 3496   7.221   3.650   5.260 -2.1951 -1.7043  0.9199
  736SOL    HW2 3497   7.316   3.572   5.172  0.2199  0.6608  1.2912
  737SOL     OW 3498   0.916   2.262   0.012 -0.2354  0.1757 -0.2802
  737SOL    HW1 3499   1.000   2.289  -0.025 -0.1784  0.5381  0.1062
  737SOL    HW2 3500   0.937   2.189   0.070  0.3826  2.4628  2.6170
  738SOL     OW 3501   6.444   3.982   7.568  0.1917  0.2973 -0.4483
  738SOL    HW1 3502   6.472   3.910   7.625  0.5773  1.0327  0.2946
  738SOL    HW2 3503   6.521   4.038   7.560 -0.0284  0.5032 -1.2358
  739SOL     OW 3504   2.296   3.998   7.777 -0.4265  0.0876 -0.2602
  739SOL    HW1 3505   2.337   4.076   7.814  0.2414 -0.2843 -0.1907
  739SOL    HW2 3506   2.266   4.024   7.690 -1.2169  0.7271  0.1943
  740SOL     OW 3507   0.628   5.821   1.518  0.7705  0.2738 -0.0806
  740SOL    HW1 3508   0.619   5.727   1.528  0.4546  0.3119  0.0082
  740SOL    HW2 3509   0.690   5.847   1.585  0.2095  0.2462  0.4521
  741SOL     OW 3510   3.931   4.388   5.589  0.2455  0.2503 -0.3074
  741SOL    HW1 3511   4.013   4.416   5.548 -1.2124  1.3796 -2.6616
  741SOL    HW2 3512   3.886   4.470   5.610 -0.7082 -0.3502  0.0543
  742SOL     OW 3513   6.933   6.067   7.780 -0.2632 -0.0919 -0.1197
  742SOL    HW1 3514   7.021   6.089   7.751  0.2017  0.0056  1.2912
  742SOL    HW2 3515   6.906   5.994   7.724  0.5782  0.0899 -0.7752
  743SOL     OW 3516   0.577   4.330   4.616  0.0671  0.2151 -0.4098
  743SOL    HW1 3517   0.569   4.292   4.704 -0.7696  1.3258  0.0129
  743SOL    HW2 3518   0.671   4.337   4.602  0.2266 -1.0624 -0.0924
  744SOL     OW 3519   6.929   7.031   1.577 -0.4031 -0.2259 -0.3616
  744SOL    HW1 3520   6.859   7.041   1.642 -0.5896 -0.5022 -0.5219
  744SOL    HW2 3521   7.002   6.993   1.627 -0.1060  0.7275 -0.0253
  745SOL     OW 3522   6.982   3.612   8.689  0.2664 -0.3945 -0.4077
  745SOL    HW1 3523   6.977   3.578   8.778 -1.2995  1.3680  0.2314
  745SOL    HW2 3524   7.070   3.648   8.682  0.9573 -1.9339 -0.1511
  746SOL     OW 3525   2.504   5.782   6.952  0.0348  0.2204  0.2272
  746SOL    HW1 3526   2.518   5.744   6.865  2.1464  0.4509  0.4270
  746SOL    HW2 3527   2.589   5.779   6.994 -0.2430  2.8825  1.1879
  747SOL     OW 3528   1.483   6.104   5.003  0.5009 -0.1839  0.0792
  747SOL    HW1 3529   1.499   6.022   5.049  0.3999 -0.0526  0.3518
  747SOL    HW2 3530   1.388   6.107   4.992  0.5791 -0.5369 -0.7409
  748SOL     OW 3531   2.423   5.200   3.069 -0.4911  0.1857 -0.5012
  748SOL    HW1 3532   2.495   5.262   3.055 -0.8376  0.7999  0.3423
  748SOL    HW2 3533   2.436   5.133   3.003  1.3307 -0.1510  0.1409
  749SOL     OW 3534   4.702   7.934   5.307 -0.4005 -0.0307 -0.2337
  749SOL    HW1 3535   4.686   7.962   5.398  1.7455  1.5761 -0.2688
  749SOL    HW2 3536   4.627   7.879   5.286 -1.7915  0.8426  1.9806
  750SOL     OW 3537   7.175   8.447   7.331 -0.0226 -0.3980  0.1648
  750SOL    HW1 3538   7.119   8.371   7.346  0.0139 -0.8369 -1.7224
  750SOL    HW2 3539   7.137   8.516   7.386 -0.3690 -1.6028  1.4978
  751SOL     OW 3540   4.604   7.210   0.307  0.0413 -0.1341 -0.4296
  751SOL    HW1 3541   4.669   7.149   0.272  1.8317 -0.7926  3.4655
  751SOL    HW2 3542   4.526   7.156   0.322  0.0820 -0.3893 -1.1194
  752SOL     OW 3543   6.675   7.021   7.452 -0.1614  0.3729 -0.8730
  752SOL    HW1 3544   6.679   6.945   7.509  0.3912  0.9358 -0.1459
  752SOL    HW2 3545   6.645   7.092   7.509  2.1864  1.3702 -0.7785
  753SOL     OW 3546   2.127   7.429   5.072 -0.6704  0.2064  0.2497
  753SOL    HW1 3547   2.047   7.482   5.065 -0.3903  0.5955 -0.0547
  753SOL    HW2 3548   2.184   7.463   5.003 -0.9708 -1.3345 -0.8286
  754SOL     OW 3549   8.196   0.242   5.404 -0.5550 -0.5258  0.7318
  754SOL    HW1 3550   8.164   0.167   5.455 -1.9593 -1.3172 -1.2071
  754SOL    HW2 3551   8.120   0.300   5.396 -0.5823 -0.7608 -1.0192
  755SOL     OW 3552   6.623   6.859   2.530  0.0541  0.3420  0.6079
  755SOL    HW1 3553   6.567   6.790   2.494  0.3810  0.0256  0.7025
  755SOL    HW2 3554   6.592   6.871   2.620 -0.0237  0.3434  0.5810
  756SOL     OW 3555   4.503   8.078   5.866 -0.6140 -0.3025  0.1429
  756SOL    HW1 3556   4.457   8.027   5.933  0.5817 -1.1331  0.3683
  756SOL    HW2 3557   4.590   8.038   5.862 -0.3181  0.4327 -1.1446
  757SOL     OW 3558   1.307   7.863   2.153 -0.1682  0.3462  0.0356
  757SOL    HW1 3559   1.257   7.900   2.225 -1.7993 -0.2501 -0.7191
  757SOL    HW2 3560   1.286   7.919   2.078  0.4616  0.2017 -0.2531
  758SOL     OW 3561   7.751   4.118   2.637 -0.4411  0.6398 -0.4725
  758SOL    HW1 3562   7.799   4.115   2.555 -0.9821  0.4917 -0.7905
  758SOL    HW2 3563   7.677   4.059   2.624 -1.5989  2.0499 -0.5670
  759SOL     OW 3564   6.104   3.753   1.907  0.3041 -0.3708 -0.5812
  759SOL    HW1 3565   6.118   3.847   1.910 -1.0727 -0.1257 -1.0877
  759SOL    HW2 3566   6.149   3.719   1.985 -1.8228  1.1017  1.4282
  760SOL     OW 3567   6.082   1.632   8.514  0.6279 -0.4893  0.3602
  760SOL    HW1 3568   6.176   1.649   8.507  0.2672  1.0098 -2.0888
  760SOL    HW2 3569   6.068   1.549   8.468  0.5322  0.5090 -1.5443
  761SOL     OW 3570   8.658   6.568   7.287 -0.2399 -0.4470  0.1292
  761SOL    HW1 3571   8.598   6.572   7.361  0.3334 -2.0102  0.7389
  761SOL    HW2 3572   8.737   6.612   7.319 -0.3428 -0.2331  0.0873
  762SOL     OW 3573   8.470   2.166   5.127 -0.5140  0.4280 -0.6473
  762SOL    HW1 3574   8.553   2.158   5.175 -1.0661  0.7725  0.3719
  762SOL    HW2 3575   8.446   2.258   5.135 -0.9951  0.3313 -0.9488
  763SOL     OW 3576   1.739   4.843   6.425 -0.3547  0.4982  0.4455
  763SOL    HW1 3577   1.692   4.761   6.436  2.6439 -1.2193  1.4401
  763SOL    HW2 3578   1.687   4.907   6.475 -0.8265 -1.6365  2.9018
  764SOL     OW 3579   7.516   8.593   2.584 -0.5874  0.3100 -0.2840
  764SOL    HW1 3580   7.557   8.508   2.563  0.4182  0.7975 -0.3471
  764SOL    HW2 3581   7.577   8.634   2.645  0.0809  1.9410 -1.9601
  765SOL     OW 3582   7.660   2.236   8.299  0.5660 -0.1925 -0.3670
  765SOL    HW1 3583   7.569   2.262   8.287  1.1026  3.1830  1.6225
  765SOL    HW2 3584   7.707   2.273   8.224  0.5748  0.0453 -0.2469
  766SOL     OW 3585   4.279   3.828   2.080  0.2129  0.2515  0.7986
  766SOL    HW1 3586   4.195   3.791   2.108 -0.4508 -0.2475 -1.6347
  766SOL    HW2 3587   4.344   3.771   2.121 -0.7429 -1.6488 -0.1791
  767SOL     OW 3588   6.336   2.707   7.667 -0.6784  0.0793  0.2178
  767SOL    HW1 3589   6.309   2.618   7.686 -0.4274 -0.1834 -0.6143
  767SOL    HW2 3590   6.296   2.760   7.736  1.1496 -0.9472  2.1553
  768SOL     OW 3591   4.373   2.487   6.683  0.1002  0.3812 -0.2730
  768SOL    HW1 3592   4.372   2.573   6.725 -1.9672 -0.4128  1.5074
  768SOL    HW2 3593   4.282   2.470   6.660  0.7742 -0.4520 -2.6392
  769SOL     OW 3594   0.103   6.661   2.114 -0.1430 -0.0441 -0.0192
  769SOL    HW1 3595   0.054   6.579   2.111  0.0387 -0.2080  1.0960
  769SOL    HW2 3596   0.133   6.674   2.024 -1.6876 -0.2587 -0.6035
  770SOL     OW 3597   1.207   7.100   2.658  0.1991 -0.0042 -0.5430
  770SOL    HW1 3598   1.291   7.122   2.699 -0.0521 -2.1083  1.2907
  770SOL    HW2 3599   1.147   7.169   2.687  0.4330 -0.5533  1.3998
  771SOL     OW 3600   7.544   4.631   3.079  0.5200 -0.2162  0.3624
  771SOL    HW1 3601   7.498   4.605   2.999  0.7092  0.6929 -0.0563
  771SOL    HW2 3602   7.590   4.552   3.107  2.3498 -0.0109 -1.7501
  772SOL     OW 3603   6.398   3.692   6.349  0.0249 -0.4465 -0.2162
  772SOL    HW1 3604   6.424   3.771   6.397 -0.8396 -0.0722 -0.3508
  772SOL    HW2 3605   6.458   3.690   6.274  0.3238 -0.1426  0.0082
  773SOL     OW 3606   8.385   2.836   0.650  0.1244 -0.2984 -0.2773
  773SOL    HW1 3607   8.345   2.766   0.599 -3.0366  0.8209  0.4654
  773SOL    HW2 3608   8.417   2.793   0.730  1.6081 -1.4163 -1.4255
  774SOL     OW 3609   3.328   3.980   7.907 -0.2959  0.1415  0.2966
  774SOL    HW1 3610   3.234   4.000   7.905 -0.5602 -1.0397  0.0100
  774SOL    HW2 3611   3.332   3.885   7.921  0.7978 -0.1703 -1.6946
  775SOL     OW 3612   4.834   0.591   1.053  0.3389 -0.1469 -0.2309
  775SOL    HW1 3613   4.798   0.545   0.978  2.7494 -0.9563 -0.9786
  775SOL    HW2 3614   4.796   0.546   1.129 -2.3871  0.8983 -0.8587
  776SOL     OW 3615   5.696   6.332   7.349 -0.0302 -0.0509 -0.5997
  776SOL    HW1 3616   5.748   6.405   7.383  1.0220  0.3149 -2.8584
  776SOL    HW2 3617   5.742   6.254   7.382  0.0452  0.2817  0.1066
  777SOL     OW 3618   5.203   1.786   7.588  1.0323 -0.0789 -0.0430
  777SOL    HW1 3619   5.179   1.694   7.601 -0.1946  0.3538  0.9339
  777SOL    HW2 3620   5.227   1.791   7.495  2.0572 -1.5700  0.0993
  778SOL     OW 3621   2.776   8.004   7.406  0.5617  0.3982  0.4222
  778SOL    HW1 3622   2.814   8.025   7.491 -0.8889  0.1657  1.1519
  778SOL    HW2 3623   2.772   8.087   7.359  2.0742  0.4087  0.2448
  779SOL     OW 3624   1.046   1.202   7.155  0.8894  0.2094  0.2975
  779SOL    HW1 3625   1.075   1.238   7.071  0.0059 -0.8927 -0.5050
  779SOL    HW2 3626   1.065   1.271   7.219  0.2390  1.6506 -1.0206
  780SOL     OW 3627   6.660   8.134   7.475 -0.4107 -0.7278  0.0923
  780SOL    HW1 3628   6.615   8.149   7.392  2.4851  1.1503 -1.2807
  780SOL    HW2 3629   6.671   8.039   7.480 -0.3171 -0.8478 -1.8665
  781SOL     OW 3630   2.419   1.472   1.464  0.3929  0.0507 -0.2751
  781SOL    HW1 3631   2.370   1.550   1.438  1.1633  0.0135 -1.9280
  781SOL    HW2 3632   2.509   1.489   1.435  0.1623 -2.3417 -2.8196
  782SOL     OW 3633   8.193   4.348   2.442  0.3515  0.5435 -0.6716
  782SOL    HW1 3634   8.106   4.383   2.425  0.3207  1.1955  0.6795
  782SOL    HW2 3635   8.236   4.346   2.356 -0.4044  1.8300 -1.0995
  783SOL     OW 3636   4.514   3.104   5.035  0.3764  0.2615 -0.3925
  783SOL    HW1 3637   4.479   3.175   4.981 -0.6506 -0.1892 -0.3310
  783SOL    HW2 3638   4.552   3.149   5.111 -2.6845  0.6820  1.0336
  784SOL     OW 3639   6.447   0.380   4.737  0.6072 -0.3631  0.1313
  784SOL    HW1 3640   6.506   0.454   4.719 -0.0514  0.3023  0.6282
  784SOL    HW2 3641   6.499   0.302   4.717  1.8671  0.1807  1.1271
  785SOL     OW 3642   1.957   8.688   4.430  0.0539  0.5030 -0.2979
  785SOL    HW1 3643   1.998   8.614   4.384  2.5962  0.0146  2.3958
  785SOL    HW2 3644   1.951   8.658   4.521 -0.6514  2.9437  0.5137
  786SOL     OW 3645   0.070   0.302   2.543 -0.3798  0.0663  0.9445
  786SOL    HW1 3646   0.092   0.209   2.539  0.2536  0.2248  0.4660
  786SOL    HW2 3647   0.114   0.340   2.467 -1.1476  0.6573  0.7812
  787SOL     OW 3648   8.111   2.419   4.598 -0.8331 -0.3423  0.6342
  787SOL    HW1 3649   8.174   2.465   4.542 -0.0658 -0.8098  1.1072
  787SOL    HW2 3650   8.156   2.409   4.682 -1.0070 -1.9079  0.5647
  788SOL     OW 3651   2.462   4.076   1.596 -0.0410  0.1238  0.0454
  788SOL    HW1 3652   2.448   4.036   1.682  0.1244  0.0214  0.0241
  788SOL    HW2 3653   2.384   4.053   1.546  0.5834 -1.2103 -0.3651
  789SOL     OW 3654   4.149   8.203   8.358 -0.4166  0.1769 -0.0532
  789SOL    HW1 3655   4.132   8.289   8.320  2.1724  0.6698 -0.2717
  789SOL    HW2 3656   4.244   8.198   8.363 -0.5380 -2.3346  0.7959
  790SOL     OW 3657   4.533   6.989   0.628  0.1727  0.2648  0.2929
  790SOL    HW1 3658   4.501   6.922   0.569 -1.6731  0.5829  0.8781
  790SOL    HW2 3659   4.540   6.945   0.713  1.0158  0.2884  0.2463
  791SOL     OW 3660   0.548   4.449   0.577  0.2485 -0.8563 -0.8940
  791SOL    HW1 3661   0.599   4.416   0.503  0.8211  2.4436 -2.1403
  791SOL    HW2 3662   0.613   4.491   0.634 -0.6123 -0.0133 -0.5036
  792SOL     OW 3663   5.563   2.247   4.089  0.2991 -0.7656 -0.5564
  792SOL    HW1 3664   5.649   2.289   4.091 -0.0274  0.0385 -1.8021
  792SOL    HW2 3665   5.507   2.310   4.042 -0.7003 -1.7434 -0.7283
  793SOL     OW 3666   6.931   4.938   0.790 -0.2869 -0.4328  0.5009
  793SOL    HW1 3667   6.849   4.979   0.761 -0.5928  0.4307  2.4346
  793SOL    HW2 3668   6.997   4.971   0.729 -1.0053  0.7218  0.3092
  794SOL     OW 3669   2.164   3.115   2.914 -0.0107  0.4017 -0.2481
  794SOL    HW1 3670   2.162   3.183   2.847 -1.8287 -0.6381 -1.3391
  794SOL    HW2 3671   2.183   3.034   2.867 -0.1136 -0.1732  0.6616
  795SOL     OW 3672   3.387   4.199   0.490 -0.0300  0.2194  0.2922
  795SOL    HW1 3673   3.417   4.128   0.433  1.0360  1.7145 -1.0735
  795SOL    HW2 3674   3.446   4.272   0.471 -0.7563  1.3119  2.0605
  796SOL     OW 3675   8.306   1.619   1.634 -0.0379  0.0841  0.4499
  796SOL    HW1 3676   8.396   1.586   1.643 -0.7575 -1.8525  1.0544
  796SOL    HW2 3677   8.252   1.551   1.674 -1.9086  0.5457 -1.1731
  797SOL     OW 3678   2.123   4.567   6.462 -0.2100 -0.3936  0.0130
  797SOL    HW1 3679   2.116   4.653   6.420 -0.3033 -0.0438  0.7327
  797SOL    HW2 3680   2.208   4.533   6.433 -1.1271 -1.0804 -2.1265
  798SOL     OW 3681   7.876   5.509   6.510 -0.2420 -0.1537 -0.2944
  798SOL    HW1 3682   7.949   5.451   6.533 -1.7189 -2.1088 -0.2053
  798SOL    HW2 3683   7.884   5.521   6.416  1.8791  2.1964  0.0868
  799SOL     OW 3684   4.072   1.822   1.063  0.7550 -0.1169 -0.0501
  799SOL    HW1 3685   4.014   1.894   1.088  0.9013  0.4508 -1.2830
  799SOL    HW2 3686   4.074   1.765   1.140  1.2916  1.6013  1.2826
  800SOL     OW 3687   1.627   5.267   0.145  0.2320  0.8260  0.4589
  800SOL    HW1 3688   1.641   5.335   0.080 -0.6703  0.3614 -0.2484
  800SOL    HW2 3689   1.533   5.246   0.138  0.3038  0.1675  1.3001
  801SOL     OW 3690   2.927   0.320   7.173 -0.4168 -0.3487  0.3396
  801SOL    HW1 3691   2.907   0.227   7.168  0.8876 -0.7028  1.1476
  801SOL    HW2 3692   2.978   0.329   7.254  1.6621  0.6191 -0.9831
  802SOL     OW 3693   1.256   4.584   2.505 -0.7187 -0.2338  0.3239
  802SOL    HW1 3694   1.244   4.600   2.598  2.6512 -2.5536  1.3676
  802SOL    HW2 3695   1.312   4.655   2.475 -0.4713 -0.3541  0.4950
  803SOL     OW 3696   1.349   6.568   4.580 -0.6070 -0.1647  0.1669
  803SOL    HW1 3697   1.408   6.545   4.509  0.6800  2.2152  0.3579
  803SOL    HW2 3698   1.325   6.659   4.564 -1.8303 -0.1465  1.7499
  804SOL     OW 3699   0.349   7.860   4.504  0.1547 -0.1334  0.2984
  804SOL    HW1 3700   0.298   7.891   4.578 -0.4841  0.4724 -0.3843
  804SOL    HW2 3701   0.316   7.909   4.429 -0.1366 -1.6675 -0.6327
  805SOL     OW 3702   0.007   0.216   3.294 -0.0660  0.1179 -0.1678
  805SOL    HW1 3703  -0.002   0.311   3.304  1.2361  0.0640  2.0180
  805SOL    HW2 3704   0.101   0.203   3.279 -0.5561 -0.6951 -3.3124
  806SOL     OW 3705   7.209   7.482   2.631 -0.7613 -0.2744 -0.1115
  806SOL    HW1 3706   7.159   7.543   2.687 -1.6564 -1.9369  0.9809
  806SOL    HW2 3707   7.300   7.503   2.650 -0.9445  2.3795 -1.6367
  807SOL     OW 3708   8.615   0.524   3.595 -0.0544 -0.1851  0.2519
  807SOL    HW1 3709   8.645   0.519   3.505  0.3443  1.1596  0.2756
  807SOL    HW2 3710   8.681   0.475   3.645  1.1101  1.1184  0.0741
  808SOL     OW 3711   2.657   4.935   0.768 -0.0485 -0.7574  0.2934
  808SOL    HW1 3712   2.611   4.911   0.848  1.6784 -0.8640  1.3190
  808SOL    HW2 3713   2.709   4.857   0.747 -1.4029 -1.1814 -1.6654
  809SOL     OW 3714   2.102   3.556   3.488  0.1523 -0.3133 -0.4481
  809SOL    HW1 3715   2.015   3.527   3.461 -0.2505 -0.1812  0.6693
  809SOL    HW2 3716   2.158   3.534   3.414 -0.8294 -0.3803 -1.1986
  810SOL     OW 3717   4.460   3.803   7.557 -0.3962  0.4523  0.0950
  810SOL    HW1 3718   4.366   3.809   7.573 -0.1283  1.5737  1.4626
  810SOL    HW2 3719   4.485   3.890   7.526 -0.0383 -0.2862 -1.8921
  811SOL     OW 3720   2.194   0.433   2.035  0.6745 -0.2769  0.5061
  811SOL    HW1 3721   2.173   0.526   2.045 -0.2624 -0.6737  3.0988
  811SOL    HW2 3722   2.135   0.403   1.966  1.0356  1.0461 -0.4160
  812SOL     OW 3723   7.043   0.171   0.362  0.1825 -0.0312 -0.1033
  812SOL    HW1 3724   7.095   0.175   0.282 -0.5882  1.4272 -0.5613
  812SOL    HW2 3725   7.072   0.246   0.414 -2.2798  1.6126 -0.9357
  813SOL     OW 3726   3.357   7.451   0.536  0.2942  0.4316  0.1086
  813SOL    HW1 3727   3.300   7.381   0.569  1.2006  0.3162  1.5391
  813SOL    HW2 3728   3.316   7.479   0.454 -0.3952 -1.3849 -0.2207
  814SOL     OW 3729   8.182   7.681   1.079 -0.2704  0.0767  0.3329
  814SOL    HW1 3730   8.234   7.656   1.155  1.4217 -0.7795 -1.0128
  814SOL    HW2 3731   8.099   7.636   1.090  0.2935 -0.7809  1.2398
  815SOL     OW 3732   3.624   0.192   6.661  0.3764 -0.0689 -0.3277
  815SOL    HW1 3733   3.591   0.169   6.748  1.8726  1.7941  0.8071
  815SOL    HW2 3734   3.647   0.108   6.621  1.3874 -0.8877  1.8138
  816SOL     OW 3735   7.354   2.504   7.430  0.6069 -0.0680  0.1235
  816SOL    HW1 3736   7.407   2.433   7.466  1.7453  1.0672  0.7737
  816SOL    HW2 3737   7.378   2.508   7.338  2.6372  1.2009  0.6424
  817SOL     OW 3738   0.665   0.401   3.592 -0.2864  0.0523 -0.1155
  817SOL    HW1 3739   0.752   0.433   3.613 -0.6172  1.9284 -1.3622
  817SOL    HW2 3740   0.650   0.330   3.655  1.8517  0.1141  0.5479
  818SOL     OW 3741   7.707   8.088   6.835  0.1106 -0.1032  0.1666
  818SOL    HW1 3742   7.729   8.003   6.796  1.2525 -0.1413  0.8559
  818SOL    HW2 3743   7.749   8.152   6.778 -1.0991  0.0427 -0.5909
  819SOL     OW 3744   0.152   3.739   2.304  0.1291 -0.3020 -0.1971
  819SOL    HW1 3745   0.231   3.793   2.301  0.1366 -0.3289 -0.4457
  819SOL    HW2 3746   0.143   3.703   2.216 -1.6322  1.8158 -0.9713
  820SOL     OW 3747   5.146   5.743   1.126 -0.1435  0.1887  0.0916
  820SOL    HW1 3748   5.202   5.668   1.145 -1.0624 -1.1162 -1.9651
  820SOL    HW2 3749   5.205   5.811   1.093  0.2190 -1.9488 -4.3500
  821SOL     OW 3750   5.133   5.796   6.336 -0.1505 -0.0323  0.3869
  821SOL    HW1 3751   5.127   5.726   6.401  1.0222 -0.0574  0.4795
  821SOL    HW2 3752   5.136   5.877   6.387 -0.3455  0.0248  0.3134
  822SOL     OW 3753   6.156   6.736   6.421  0.0276  0.0625 -0.0413
  822SOL    HW1 3754   6.064   6.713   6.414  0.1293 -0.3361 -0.0772
  822SOL    HW2 3755   6.203   6.660   6.387  0.4522 -0.8608  2.3801
  823SOL     OW 3756   3.862   5.814   5.016 -0.5404  0.5205 -0.2548
  823SOL    HW1 3757   3.907   5.732   4.999 -0.7330  0.4435 -0.4024
  823SOL    HW2 3758   3.930   5.873   5.050 -0.6028 -0.0221  0.8788
  824SOL     OW 3759   3.553   5.873   1.271 -0.0103 -0.5911  0.4064
  824SOL    HW1 3760   3.581   5.905   1.357  0.4399  1.6313 -0.4892
  824SOL    HW2 3761   3.635   5.845   1.229 -0.1956 -1.4182  0.5770
  825SOL     OW 3762   8.144   2.726   3.441 -0.6820  0.0635  0.0447
  825SOL    HW1 3763   8.110   2.679   3.518 -2.0556  1.1395  0.1559
  825SOL    HW2 3764   8.160   2.658   3.376 -0.7924 -0.7376  0.8331
  826SOL     OW 3765   1.240   4.466   4.508 -0.4378 -0.3640 -0.3856
  826SOL    HW1 3766   1.294   4.516   4.446  0.9366 -0.5200  0.6332
  826SOL    HW2 3767   1.171   4.428   4.454 -0.2633  0.8766 -1.5383
  827SOL     OW 3768   6.851   7.789   8.169 -0.3464  0.0867 -1.0464
  827SOL    HW1 3769   6.807   7.835   8.097  2.0236  0.0514 -2.6271
  827SOL    HW2 3770   6.890   7.712   8.128  0.4152 -0.3528  0.4550
  828SOL     OW 3771   2.646   5.305   2.811  0.6464  0.0081  0.3226
  828SOL    HW1 3772   2.735   5.305   2.844  1.0957  1.3961 -0.7535
  828SOL    HW2 3773   2.596   5.353   2.877  0.9830  0.3883  0.3059
  829SOL     OW 3774   1.158   6.084   3.360  0.1340  0.3252  0.2435
  829SOL    HW1 3775   1.168   6.027   3.437 -0.0603  0.4937  0.3955
  829SOL    HW2 3776   1.227   6.150   3.370  0.4615  0.0247 -0.0163
  830SOL     OW 3777   8.244   1.992   5.194 -0.1124  0.0128 -0.1723
  830SOL    HW1 3778   8.310   2.059   5.211  0.1936 -0.5436  0.9371
  830SOL    HW2 3779   8.201   2.020   5.113  0.5155  1.1383 -0.1331
  831SOL     OW 3780   6.074   1.714   6.953 -0.0457 -0.0655  0.4300
  831SOL    HW1 3781   6.059   1.732   7.046  0.3800 -0.7957  0.6503
  831SOL    HW2 3782   5.987   1.720   6.913 -0.5191 -1.4132  1.1779
  832SOL     OW 3783   8.508   0.561   4.458 -0.1034 -0.2687 -0.1013
  832SOL    HW1 3784   8.473   0.482   4.417 -1.8301 -0.1001  0.9400
  832SOL    HW2 3785   8.562   0.528   4.530 -1.2772 -0.5419  0.6882
  833SOL     OW 3786   5.027   6.700   4.421  1.0848 -0.5075 -0.3088
  833SOL    HW1 3787   4.962   6.694   4.491  1.1692 -1.4437 -0.2937
  833SOL    HW2 3788   5.009   6.784   4.378 -0.7766 -1.1729 -0.9370
  834SOL     OW 3789   0.085   1.000   8.092 -0.7804  0.4342  0.5608
  834SOL    HW1 3790   0.084   0.995   8.188 -0.4747  0.0785  0.5498
  834SOL    HW2 3791   0.149   0.934   8.066 -2.5153 -1.1140  0.0142
  835SOL     OW 3792   6.530   2.448   1.994 -0.2322 -0.5838  0.2657
  835SOL    HW1 3793   6.507   2.538   1.971 -0.9760 -1.0616 -0.9244
  835SOL    HW2 3794   6.555   2.408   1.911  0.4966 -1.3686  0.8530
  836SOL     OW 3795   1.448   2.203   0.426 -0.2686 -0.0285  0.1870
  836SOL    HW1 3796   1.531   2.243   0.399 -0.6444  0.0030 -0.9598
  836SOL    HW2 3797   1.413   2.264   0.492 -0.4954  1.2081 -1.0215
  837SOL     OW 3798   8.031   4.959   0.818  0.2721 -0.2781  0.8097
  837SOL    HW1 3799   7.950   5.005   0.797  0.4354 -0.3331  0.0114
  837SOL    HW2 3800   8.029   4.881   0.762  1.1592  0.0366  0.3176
  838SOL     OW 3801   1.503   5.459   1.395 -0.6133 -0.4497 -0.0179
  838SOL    HW1 3802   1.583   5.408   1.381 -0.7011  0.0400 -2.8079
  838SOL    HW2 3803   1.435   5.394   1.409 -0.2723 -1.0237 -0.9309
  839SOL     OW 3804   3.832   1.499   4.052  0.0116  0.0805  0.0721
  839SOL    HW1 3805   3.885   1.562   4.003 -1.1614  0.1883 -1.1331
  839SOL    HW2 3806   3.817   1.541   4.137  1.0983  0.4182  0.1150
  840SOL     OW 3807   6.544   2.357   5.192  0.1993  0.1571  0.0612
  840SOL    HW1 3808   6.611   2.312   5.243 -1.4197 -2.5880 -0.0671
  840SOL    HW2 3809   6.591   2.391   5.116  1.7036 -0.3321  0.7299
  841SOL     OW 3810   1.223   2.172   5.238 -0.1862  0.0323  0.3144
  841SOL    HW1 3811   1.264   2.254   5.208 -2.3262  0.1103 -2.9071
  841SOL    HW2 3812   1.269   2.103   5.190 -0.5398 -0.3206  0.4778
  842SOL     OW 3813   0.935   5.521   5.206 -0.7147 -0.3236  0.4785
  842SOL    HW1 3814   0.916   5.467   5.129  0.0665 -0.5518  0.4326
  842SOL    HW2 3815   0.962   5.458   5.273  2.0220  0.0877 -0.1262
  843SOL     OW 3816   5.139   7.919   5.982  0.0758  0.3571  0.2279
  843SOL    HW1 3817   5.086   7.986   6.027 -0.0876 -0.0396  0.6268
  843SOL    HW2 3818   5.098   7.911   5.896  1.4957  2.4636 -0.7305
  844SOL     OW 3819   4.819   8.359   7.713 -0.0798 -0.3507  0.6669
  844SOL    HW1 3820   4.732   8.390   7.741 -0.1164 -0.9411  1.2126
  844SOL    HW2 3821   4.838   8.412   7.635 -1.7537 -1.5060 -0.6031
  845SOL     OW 3822   1.442   3.477   2.374  0.2777 -0.2142  0.7566
  845SOL    HW1 3823   1.467   3.562   2.340  0.6247 -0.2178  1.0004
  845SOL    HW2 3824   1.347   3.483   2.388  0.4025  0.3466  1.3805
  846SOL     OW 3825   3.338   3.679   8.569  0.4768  0.3146 -0.1325
  846SOL    HW1 3826   3.253   3.634   8.568  0.1366  0.9445 -0.7376
  846SOL    HW2 3827   3.372   3.665   8.657 -0.0845 -0.2703 -0.0042
  847SOL     OW 3828   2.768   1.572   8.419  0.2800  0.3481 -0.2976
  847SOL    HW1 3829   2.704   1.585   8.349  0.7964  2.1591 -0.4849
  847SOL    HW2 3830   2.716   1.553   8.497 -0.4297  0.6903 -0.6821
  848SOL     OW 3831   1.757   5.043   3.806  0.1018 -0.1958  0.3403
  848SOL    HW1 3832   1.676   5.056   3.757  0.4023  1.7858  0.2912
  848SOL    HW2 3833   1.827   5.062   3.743  0.7446 -3.1980 -0.0181
  849SOL     OW 3834   1.943   2.454   2.465  0.1611  0.2643  0.0103
  849SOL    HW1 3835   1.904   2.368   2.455  0.2267  0.3344 -0.9996
  849SOL    HW2 3836   1.932   2.495   2.379 -3.5200  2.8312  1.4131
  850SOL     OW 3837   8.158   6.249   2.142 -0.4162 -0.2825 -0.5205
  850SOL    HW1 3838   8.076   6.276   2.102  0.2275 -1.4304 -2.7995
  850SOL    HW2 3839   8.140   6.247   2.236 -2.4682  1.1021 -0.8317
  851SOL     OW 3840   5.987   5.195   3.848 -0.0901 -0.1638 -0.3469
  851SOL    HW1 3841   6.059   5.220   3.906  0.9619 -1.2203 -1.1278
  851SOL    HW2 3842   5.966   5.105   3.872 -0.1767 -0.3427 -1.0511
  852SOL     OW 3843   3.615   2.317   2.024  0.4690 -0.6095 -0.1070
  852SOL    HW1 3844   3.561   2.284   2.095 -0.1215  0.6988  0.0739
  852SOL    HW2 3845   3.554   2.333   1.952  1.0799 -2.0605 -0.9924
  853SOL     OW 3846   7.258   2.490   2.158 -0.0346 -0.2468  0.2500
  853SOL    HW1 3847   7.342   2.500   2.201  0.5425  1.7787 -1.2347
  853SOL    HW2 3848   7.272   2.521   2.069 -1.8511 -1.8050 -0.6537
  854SOL     OW 3849   3.061   2.102   0.407 -0.4153  0.1690  0.1523
  854SOL    HW1 3850   3.122   2.074   0.476 -1.1549  0.2309  0.8503
  854SOL    HW2 3851   2.990   2.038   0.411 -1.0978  0.9169  0.3339
  855SOL     OW 3852   7.548   0.346   3.913  0.5108  0.1671 -0.4218
  855SOL    HW1 3853   7.560   0.277   3.979  0.9722  0.6860  0.0392
  855SOL    HW2 3854   7.457   0.335   3.885  0.7593 -1.0494 -0.8415
  856SOL     OW 3855   6.586   1.765   6.594 -0.8414 -0.6600 -0.1226
  856SOL    HW1 3856   6.641   1.762   6.672 -0.1587 -1.5331 -0.6209
  856SOL    HW2 3857   6.541   1.681   6.593 -1.5669 -0.2735 -0.1617
  857SOL     OW 3858   3.782   5.784   8.568  0.3554  0.1891 -0.2007
  857SOL    HW1 3859   3.844   5.850   8.598  0.5280 -0.6289  1.3503
  857SOL    HW2 3860   3.732   5.828   8.499  0.2625  2.0593  0.9690
  858SOL     OW 3861   6.907   0.660   3.250 -0.4368  0.2487  0.5456
  858SOL    HW1 3862   6.864   0.717   3.186  1.2045  1.1324  0.1661
  858SOL    HW2 3863   6.927   0.718   3.324 -0.9019 -0.4047  1.1914
  859SOL     OW 3864   3.137   4.381   0.161  0.1891 -0.0984 -0.6239
  859SOL    HW1 3865   3.112   4.413   0.074  0.1585 -0.1454 -0.6321
  859SOL    HW2 3866   3.216   4.329   0.146 -0.8634 -1.6748 -0.8922
  860SOL     OW 3867   6.211   2.474   7.484  0.1544  0.1421 -0.0148
  860SOL    HW1 3868   6.202   2.390   7.438  1.4572  0.4296 -0.8468
  860SOL    HW2 3869   6.248   2.450   7.569  0.1461 -0.1692 -0.0954
  861SOL     OW 3870   1.814   1.895   0.358 -0.3281 -0.2093  0.6981
  861SOL    HW1 3871   1.801   1.987   0.331  0.5634 -0.6769 -1.5713
  861SOL    HW2 3872   1.758   1.845   0.298  1.3799 -1.2976 -0.0767
  862SOL     OW 3873   6.043   5.445   2.102  0.5304 -0.2247 -0.5844
  862SOL    HW1 3874   6.005   5.383   2.164 -1.3936  0.1899 -1.2768
  862SOL    HW2 3875   5.971   5.467   2.043  1.2950  2.2413 -0.7065
  863SOL     OW 3876   0.738   6.225   3.750 -0.2979  0.2113 -0.5498
  863SOL    HW1 3877   0.812   6.190   3.699  0.0962  1.5641 -0.9639
  863SOL    HW2 3878   0.715   6.307   3.705 -1.1889  0.4776  0.3514
  864SOL     OW 3879   6.875   3.153   1.941 -0.1634  0.6534  0.5088
  864SOL    HW1 3880   6.789   3.169   1.981  0.0521 -0.2566  1.3506
  864SOL    HW2 3881   6.855   3.139   1.848 -1.1320 -1.2249  0.9664
  865SOL     OW 3882   2.916   3.981   0.235  0.3749  0.0328 -0.3190
  865SOL    HW1 3883   2.999   3.993   0.189  0.3957  1.3845  0.0289
  865SOL    HW2 3884   2.941   3.978   0.327  0.0426  0.5125 -0.2091
  866SOL     OW 3885   8.458   7.051   0.809  0.1095  0.1313  0.2056
  866SOL    HW1 3886   8.496   7.033   0.896 -0.4005  0.8402  0.5863
  866SOL    HW2 3887   8.392   7.118   0.826 -0.9230 -0.6724 -0.5315
  867SOL     OW 3888   0.749   8.544   4.798 -0.1929 -0.0586 -0.0290
  867SOL    HW1 3889   0.784   8.611   4.740 -1.8541  1.0439  0.1851
  867SOL    HW2 3890   0.809   8.470   4.789  2.3460  1.8181  0.5886
  868SOL     OW 3891   0.888   3.233   5.299  0.0053 -1.3266  0.2574
  868SOL    HW1 3892   0.798   3.241   5.332  0.4729  0.5869  1.1919
  868SOL    HW2 3893   0.879   3.235   5.204 -0.8825 -0.1838  0.3442
  869SOL     OW 3894   7.570   8.573   1.959 -0.3652 -0.1476 -0.7310
  869SOL    HW1 3895   7.639   8.559   1.894 -0.8229  0.3126 -1.3319
  869SOL    HW2 3896   7.617   8.588   2.041  0.3799  2.2872 -1.5025
  870SOL     OW 3897   8.464   4.536   3.339  0.3996  0.5790 -0.6984
  870SOL    HW1 3898   8.553   4.510   3.316  0.0203 -0.9204 -0.6111
  870SOL    HW2 3899   8.433   4.465   3.396  0.4348  2.8638  2.4061
  871SOL     OW 3900   8.345   2.112   2.379 -0.0283 -0.2685  0.4366
  871SOL    HW1 3901   8.350   2.070   2.465  0.3841  0.6143  0.8582
  871SOL    HW2 3902   8.411   2.181   2.382 -0.3513  0.0942 -0.4148
  872SOL     OW 3903   3.200   2.934   2.639  0.3145  0.6451  0.0113
  872SOL    HW1 3904   3.161   2.961   2.722  2.6553  0.1743  1.3739
  872SOL    HW2 3905   3.262   3.004   2.617  1.9811 -0.6289  0.3677
  873SOL     OW 3906   4.402   7.982   8.704  0.0148  0.5714  0.1023
  873SOL    HW1 3907   4.436   8.001   8.616  0.6867 -1.8184 -0.2386
  873SOL    HW2 3908   4.351   7.902   8.692 -0.8953  0.8816  1.6993
  874SOL     OW 3909   6.987   8.710   5.494 -0.0483  0.2311  0.4317
  874SOL    HW1 3910   6.892   8.699   5.488  0.1186 -0.5720 -1.1012
  874SOL    HW2 3911   7.004   8.795   5.454 -0.0210 -0.1611 -0.4110
  875SOL     OW 3912   5.722   4.249   2.732  0.1454 -0.1932  0.4445
  875SOL    HW1 3913   5.718   4.341   2.757 -1.8774 -0.1572  0.0904
  875SOL    HW2 3914   5.694   4.247   2.641  0.6506 -1.1251  0.2873
  876SOL     OW 3915   2.837   2.757   7.484  0.1522  0.2208  0.2517
  876SOL    HW1 3916   2.789   2.838   7.468  0.1275 -0.0770 -1.3378
  876SOL    HW2 3917   2.882   2.772   7.567 -0.3527  1.6081  0.3078
  877SOL     OW 3918   4.535   5.484   5.499 -0.3314 -0.0318  0.2475
  877SOL    HW1 3919   4.460   5.502   5.555  0.0484 -1.3633  1.2258
  877SOL    HW2 3920   4.522   5.393   5.470  0.7893 -0.2135  0.2692
  878SOL     OW 3921   6.234   6.547   2.208 -0.3272 -0.6059 -0.5434
  878SOL    HW1 3922   6.319   6.540   2.163  0.9364  0.4080  1.5290
  878SOL    HW2 3923   6.190   6.620   2.164  0.5931 -0.0627 -0.5876
  879SOL     OW 3924   1.043   2.818   0.427  0.0742 -0.6073 -0.3663
  879SOL    HW1 3925   1.127   2.864   0.430 -0.1177 -0.2949  0.6623
  879SOL    HW2 3926   1.054   2.751   0.359  0.8340  0.0397 -0.8874
  880SOL     OW 3927   0.023   1.954   1.449  0.3529  0.1093  0.5124
  880SOL    HW1 3928   0.043   2.016   1.379 -0.3083 -1.9840 -1.7016
  880SOL    HW2 3929   0.105   1.907   1.464  0.0269 -0.7998 -0.3856
  881SOL     OW 3930   8.474   2.420   5.666 -0.1858 -0.0916 -0.2226
  881SOL    HW1 3931   8.464   2.355   5.736  0.4167  0.1365  0.0804
  881SOL    HW2 3932   8.546   2.476   5.695 -2.6494  2.6708  1.0063
  882SOL     OW 3933   8.012   6.990   0.463 -0.3858 -0.0338  0.0526
  882SOL    HW1 3934   8.080   7.054   0.485  2.3358 -2.2964 -1.2817
  882SOL    HW2 3935   7.930   7.033   0.489  1.4764  2.8969  1.6001
  883SOL     OW 3936   3.085   5.946   3.132  0.0601  0.4366  0.1984
  883SOL    HW1 3937   3.081   5.856   3.100 -1.8422 -0.1982  1.9584
  883SOL    HW2 3938   3.159   5.946   3.193  0.5114  0.2685 -0.3420
  884SOL     OW 3939   3.807   0.045   0.865 -0.3587 -0.6850 -0.4360
  884SOL    HW1 3940   3.887   0.097   0.872 -0.9367  0.2074 -0.3247
  884SOL    HW2 3941   3.740   0.098   0.908 -1.3083 -0.7668 -1.7448
  885SOL     OW 3942   3.543   6.382   4.814 -0.3076 -0.1493 -0.0503
  885SOL    HW1 3943   3.469   6.402   4.757 -0.6923 -0.8671  0.1955
  885SOL    HW2 3944   3.589   6.310   4.771  0.4696  0.5260 -0.3881
  886SOL     OW 3945   0.696   1.641   7.398  0.6574 -0.0452 -0.8635
  886SOL    HW1 3946   0.629   1.626   7.331  1.4082 -2.2907 -1.2099
  886SOL    HW2 3947   0.779   1.635   7.350  1.1723 -0.4752  0.0533
  887SOL     OW 3948   7.817   3.844   3.073  0.1091  0.3477  0.6242
  887SOL    HW1 3949   7.870   3.885   3.005 -0.7372  0.3148 -0.0705
  887SOL    HW2 3950   7.810   3.911   3.142  0.2464  0.6929  0.3041
  888SOL     OW 3951   6.227   5.258   0.520  0.0563 -0.5565 -0.4133
  888SOL    HW1 3952   6.137   5.257   0.551 -0.2316 -1.4671 -1.1981
  888SOL    HW2 3953   6.278   5.225   0.594 -0.1503  0.6089  0.2705
  889SOL     OW 3954   0.150   0.750   0.956  0.0733 -0.0692 -0.0411
  889SOL    HW1 3955   0.099   0.778   0.880  0.6934 -0.2932 -0.5590
  889SOL    HW2 3956   0.182   0.832   0.995 -0.6936  0.0709  0.3036
  890SOL     OW 3957   6.284   5.536   1.266  0.0273  0.6583  0.2465
  890SOL    HW1 3958   6.241   5.619   1.288  1.0756  1.0096  1.0372
  890SOL    HW2 3959   6.347   5.522   1.336  1.2264  0.1622 -0.8894
  891SOL     OW 3960   4.197   8.340   3.113 -0.3582 -0.5769 -0.2413
  891SOL    HW1 3961   4.242   8.291   3.045  0.3233 -1.8733  1.0861
  891SOL    HW2 3962   4.239   8.426   3.113  1.9672 -1.6198  0.7072
  892SOL     OW 3963   5.259   4.732   0.298  0.3645  0.1180 -0.8711
  892SOL    HW1 3964   5.171   4.724   0.335  1.5991 -1.3945  2.0493
  892SOL    HW2 3965   5.268   4.655   0.242 -1.0217  1.6911 -3.4401
  893SOL     OW 3966   2.053   7.679   4.694 -0.2118 -0.3472 -0.2355
  893SOL    HW1 3967   2.057   7.678   4.598  0.8846  1.1180 -0.2540
  893SOL    HW2 3968   1.969   7.721   4.714 -0.1864 -0.1309 -0.5711
  894SOL     OW 3969   1.598   3.356   4.490 -0.0123 -0.2680 -0.1001
  894SOL    HW1 3970   1.564   3.280   4.538  1.8021 -0.7317  0.5224
  894SOL    HW2 3971   1.667   3.320   4.434 -0.4812  0.6435 -1.3128
  895SOL     OW 3972   2.478   2.903   2.557  0.2842 -0.0213 -0.9390
  895SOL    HW1 3973   2.443   2.991   2.567  0.4713 -0.1318  1.2289
  895SOL    HW2 3974   2.537   2.892   2.632 -1.8337 -2.9329  0.4814
  896SOL     OW 3975   8.266   1.208   4.513 -0.6227  0.5511  0.1468
  896SOL    HW1 3976   8.173   1.188   4.497 -0.0401 -0.2336 -2.7720
  896SOL    HW2 3977   8.306   1.124   4.535 -0.4491  0.7756  0.7203
  897SOL     OW 3978   8.403   7.044   2.433 -0.4469 -0.5638  0.1335
  897SOL    HW1 3979   8.406   6.950   2.413  1.3778 -0.9302  1.8898
  897SOL    HW2 3980   8.467   7.084   2.375  0.1249 -0.6822  0.6792
  898SOL     OW 3981   0.976   0.693   4.473 -0.1650 -0.1955 -0.0750
  898SOL    HW1 3982   0.965   0.632   4.400 -1.8679  1.0691 -0.9531
  898SOL    HW2 3983   0.981   0.637   4.550 -1.1981 -1.4873 -0.8884
  899SOL     OW 3984   8.275   2.502   7.615  0.2527 -0.2064 -0.2103
  899SOL    HW1 3985   8.263   2.409   7.597  0.7866 -0.2913 -0.1292
  899SOL    HW2 3986   8.263   2.544   7.530 -0.0832 -0.3409 -0.2291
  900SOL     OW 3987   7.479   5.579   7.772 -0.2807 -0.0547  0.4215
  900SOL    HW1 3988   7.446   5.559   7.860  0.0744  0.0338  0.5738
  900SOL    HW2 3989   7.526   5.500   7.746  0.0366  0.1047  0.5108
  901SOL     OW 3990   3.246   2.637   5.384  0.2321  0.0893  0.3951
  901SOL    HW1 3991   3.180   2.567   5.386 -1.1077  1.3188  0.8316
  901SOL    HW2 3992   3.213   2.699   5.319  1.9767 -0.1759 -0.8190
  902SOL     OW 3993   5.447   6.999   3.615 -0.2381 -0.1696 -0.3790
  902SOL    HW1 3994   5.523   7.029   3.667  0.2613 -1.5461 -0.2893
  902SOL    HW2 3995   5.439   7.065   3.546 -0.0579  0.9511  0.6296
  903SOL     OW 3996   3.870   7.794   4.752  0.0246 -0.3876  0.4363
  903SOL    HW1 3997   3.907   7.726   4.808  1.7387  0.7140  0.7261
  903SOL    HW2 3998   3.917   7.784   4.669  1.4883  1.3794  0.9797
  904SOL     OW 3999   5.720   2.359   2.688  0.3922  0.6802 -0.6499
  904SOL    HW1 4000   5.669   2.349   2.768  1.9947 -0.0956  0.3175
  904SOL    HW2 4001   5.659   2.401   2.627 -2.2402 -2.3625 -0.4219
  905SOL     OW 4002   5.530   1.554   8.054  0.3265  0.3900 -0.5057
  905SOL    HW1 4003   5.523   1.614   8.129  0.5696  0.3537 -0.4520
  905SOL    HW2 4004   5.463   1.488   8.071 -0.1040  0.7782 -0.6890
  906SOL     OW 4005   4.842   3.926   5.026  0.2141  0.3115 -0.2687
  906SOL    HW1 4006   4.810   3.873   5.099 -1.2136  2.0299  0.4310
  906SOL    HW2 4007   4.937   3.914   5.027  0.0676 -1.0552  0.7554
  907SOL     OW 4008   2.595   1.034   1.235 -0.2462 -0.1916 -0.6763
  907SOL    HW1 4009   2.617   0.954   1.282  1.2125 -0.1121 -1.1883
  907SOL    HW2 4010   2.573   1.005   1.146  1.2024  0.0171 -1.1368
  908SOL     OW 4011   3.249   1.340   7.913  0.3742  0.9256  0.0966
  908SOL    HW1 4012   3.275   1.314   8.002 -0.1396  2.8045  0.8600
  908SOL    HW2 4013   3.308   1.291   7.856 -1.3144 -2.7991  1.2427
  909SOL     OW 4014   2.168   3.063   5.693 -0.4950  0.3384 -0.5746
  909SOL    HW1 4015   2.097   2.998   5.696  2.1512 -2.7867 -0.9484
  909SOL    HW2 4016   2.170   3.092   5.602 -1.6438  0.9184 -0.4307
  910SOL     OW 4017   1.248   7.145   3.521 -0.2770 -0.5083  0.0459
  910SOL    HW1 4018   1.304   7.069   3.536  0.4414  0.0797  0.3658
  910SOL    HW2 4019   1.238   7.186   3.607 -0.2694  0.0270 -0.2015
  911SOL     OW 4020   1.916   8.105   5.098 -0.2720 -0.4153  0.1318
  911SOL    HW1 4021   1.954   8.185   5.061 -0.3363 -0.5880 -0.3137
  911SOL    HW2 4022   1.821   8.117   5.087 -0.2524 -0.9694 -0.8387
  912SOL     OW 4023   6.894   5.372   5.349 -0.7353  0.0697 -0.0912
  912SOL    HW1 4024   6.977   5.407   5.319 -0.6209  0.6079  0.8038
  912SOL    HW2 4025   6.860   5.439   5.408 -1.1376 -0.7414  0.6238
  913SOL     OW 4026   6.016   0.518   6.194 -0.3006  0.6922  0.4643
  913SOL    HW1 4027   6.088   0.564   6.237 -1.1306  1.0779  1.4820
  913SOL    HW2 4028   6.030   0.534   6.100  0.9163  0.7649  0.6449
  914SOL     OW 4029   8.273   7.649   6.670 -0.1068 -0.6991  0.2927
  914SOL    HW1 4030   8.305   7.720   6.725 -0.2314  1.1391 -1.8471
  914SOL    HW2 4031   8.183   7.634   6.701  0.2562 -0.6541  1.4216
  915SOL     OW 4032   5.712   1.266   4.761  0.2564 -0.6442 -0.2162
  915SOL    HW1 4033   5.792   1.317   4.746 -0.0491  0.1551  0.8204
  915SOL    HW2 4034   5.741   1.193   4.816  0.1620  0.0484  0.7850
  916SOL     OW 4035   4.542   2.389   0.696 -0.2932 -0.4274 -0.5281
  916SOL    HW1 4036   4.575   2.302   0.672 -3.1354 -1.6389 -0.4705
  916SOL    HW2 4037   4.545   2.390   0.791 -0.3201 -0.4951 -0.5263
  917SOL     OW 4038   4.149   1.032   5.493  0.1800 -0.1144  0.2169
  917SOL    HW1 4039   4.118   0.942   5.503  1.3072 -0.4200  1.2240
  917SOL    HW2 4040   4.150   1.067   5.582 -0.4765  1.0002 -0.1885
  918SOL     OW 4041   3.421   0.038   4.166 -0.2634  0.5676  0.1531
  918SOL    HW1 4042   3.413   0.132   4.183 -1.7122  0.5255 -0.1390
  918SOL    HW2 4043   3.337   0.002   4.194 -0.9034 -0.1785 -2.4544
  919SOL     OW 4044   0.022   3.764   2.627 -0.3835 -0.1444 -0.2541
  919SOL    HW1 4045   0.108   3.793   2.660  0.0048 -1.6297  0.1034
  919SOL    HW2 4046   0.041   3.728   2.541 -0.4258 -1.5449  0.2966
  920SOL     OW 4047   6.647   7.750   5.427 -0.4950 -0.4211  0.6337
  920SOL    HW1 4048   6.677   7.689   5.360 -0.5878  0.5140 -0.2744
  920SOL    HW2 4049   6.727   7.778   5.471 -0.0748  1.2890 -1.1150
  921SOL     OW 4050   4.468   7.075   6.862 -0.1207  0.1457  0.4751
  921SOL    HW1 4051   4.465   7.098   6.770  0.4397  0.4478  0.5273
  921SOL    HW2 4052   4.494   6.982   6.863 -1.7822 -0.3496  0.2861
  922SOL     OW 4053   1.974   8.524   4.668  0.2151 -0.2565  0.3163
  922SOL    HW1 4054   1.896   8.469   4.667  0.7238 -0.9934 -0.7924
  922SOL    HW2 4055   2.042   8.469   4.629  0.8886  0.9563 -0.2602
  923SOL     OW 4056   2.344   6.290   8.563  0.6587  0.2369  0.1741
  923SOL    HW1 4057   2.435   6.313   8.583  0.8378 -0.1637 -0.1899
  923SOL    HW2 4058   2.318   6.231   8.633  0.2878  1.2786  0.9550
  924SOL     OW 4059   6.917   3.766   2.195  0.2520 -0.4217 -0.9769
  924SOL    HW1 4060   6.938   3.856   2.218  1.4376 -1.0129  0.3687
  924SOL    HW2 4061   6.863   3.735   2.268  0.4459 -1.0117 -1.0786
  925SOL     OW 4062   3.994   7.276   5.488  0.7695  0.3045  0.1177
  925SOL    HW1 4063   4.047   7.201   5.514  0.0501 -0.7149 -1.2556
  925SOL    HW2 4064   4.002   7.280   5.393 -0.9986  0.5928 -0.0600
  926SOL     OW 4065   6.950   3.524   5.021  0.5161  0.1881  0.0362
  926SOL    HW1 4066   6.970   3.464   4.948  1.5195  0.4175  0.1007
  926SOL    HW2 4067   7.035   3.559   5.046 -0.1644  2.5493 -0.7559
  927SOL     OW 4068   8.590   4.752   7.771  0.3642 -0.1483 -0.3019
  927SOL    HW1 4069   8.599   4.735   7.865 -0.0507  0.3267 -0.1705
  927SOL    HW2 4070   8.538   4.678   7.739 -0.3027  0.1688  0.0222
  928SOL     OW 4071   1.236   1.755   4.450 -0.0269  0.5103  0.1994
  928SOL    HW1 4072   1.230   1.823   4.383  1.4089  3.0140  2.4286
  928SOL    HW2 4073   1.168   1.777   4.513  1.8079  1.2892  2.0369
  929SOL     OW 4074   4.738   0.951   0.858 -0.4300 -0.1266  0.0283
  929SOL    HW1 4075   4.734   0.871   0.807  0.1240  0.6820 -1.3467
  929SOL    HW2 4076   4.813   0.998   0.823  0.1229  0.3617  1.7822
  930SOL     OW 4077   2.023   0.050   4.799  0.0078  0.4363 -0.1679
  930SOL    HW1 4078   2.116   0.036   4.783 -0.0397  1.5768 -1.7158
  930SOL    HW2 4079   1.980  -0.028   4.764  0.2599  0.8340 -1.4077
  931SOL     OW 4080   6.719   3.732   4.006 -0.3928 -0.7155  0.5594
  931SOL    HW1 4081   6.710   3.650   3.958 -1.1276 -1.4394  1.8748
  931SOL    HW2 4082   6.811   3.757   3.994 -0.8049 -0.1839 -2.2145
  932SOL     OW 4083   6.849   2.017   5.632 -0.8008  0.1540 -0.7682
  932SOL    HW1 4084   6.835   2.081   5.702 -2.1594 -0.8608 -0.0818
  932SOL    HW2 4085   6.943   2.023   5.612 -0.9345  2.5750 -0.9611
  933SOL     OW 4086   1.433   5.556   6.820 -0.1848 -0.1539 -0.1229
  933SOL    HW1 4087   1.520   5.562   6.858 -0.2634  0.6949 -0.0529
  933SOL    HW2 4088   1.375   5.586   6.890 -0.5097 -0.4276 -0.2709
  934SOL     OW 4089   5.953   7.195   1.342 -0.4756 -0.3374 -0.1304
  934SOL    HW1 4090   5.871   7.148   1.354  0.0067 -1.2143 -0.2378
  934SOL    HW2 4091   6.020   7.137   1.378  0.1209  0.2881 -0.2119
  935SOL     OW 4092   0.637   7.247   3.483 -0.3378 -0.0001 -0.0028
  935SOL    HW1 4093   0.565   7.306   3.464 -0.2598  0.3083  0.6222
  935SOL    HW2 4094   0.680   7.286   3.559  1.0559  0.3217 -0.9318
  936SOL     OW 4095   5.851   6.371   7.712 -0.0262 -0.6136 -0.3640
  936SOL    HW1 4096   5.802   6.289   7.716 -0.1946 -0.4821  0.2794
  936SOL    HW2 4097   5.900   6.374   7.794 -0.7239  0.3625  0.0432
  937SOL     OW 4098   6.499   0.225   1.517 -0.1795 -0.1017  0.2661
  937SOL    HW1 4099   6.539   0.204   1.601 -0.1671  1.7814  0.7812
  937SOL    HW2 4100   6.416   0.266   1.539 -1.5605 -2.1833 -0.7554
  938SOL     OW 4101   6.987   2.232   7.338  0.2416  0.2360 -0.4142
  938SOL    HW1 4102   7.008   2.142   7.312 -0.0439  0.4892 -1.5566
  938SOL    HW2 4103   6.936   2.267   7.266 -2.2368  0.3745  1.2893
  939SOL     OW 4104   6.365   1.731   3.244  0.8105  0.0944 -0.4384
  939SOL    HW1 4105   6.386   1.759   3.154  1.2119  1.4385  0.0471
  939SOL    HW2 4106   6.330   1.810   3.285 -1.4481 -1.0540 -0.0165
  940SOL     OW 4107   2.268   2.023   0.687  0.0051  0.1445 -0.2472
  940SOL    HW1 4108   2.232   2.021   0.598 -0.0630  3.5093 -0.4275
  940SOL    HW2 4109   2.190   2.031   0.743  0.1591  0.7324 -0.1136
  941SOL     OW 4110   1.873   5.687   3.982  0.4466 -0.2653  0.3232
  941SOL    HW1 4111   1.959   5.696   4.023  1.3206  0.4698 -1.5426
  941SOL    HW2 4112   1.847   5.596   3.999  1.2147 -0.2702  1.5803
  942SOL     OW 4113   1.079   3.131   4.542  0.9327  0.3055  0.0241
  942SOL    HW1 4114   0.990   3.137   4.578 -0.0078  0.9947 -2.2230
  942SOL    HW2 4115   1.098   3.037   4.542 -1.2673 -0.2930 -2.5190
  943SOL     OW 4116   3.194   4.238   8.255 -0.2612  0.1282  0.5182
  943SOL    HW1 4117   3.227   4.148   8.245  0.9605  0.6494 -0.5021
  943SOL    HW2 4118   3.273   4.293   8.248 -1.1986  1.3834 -0.7998
  944SOL     OW 4119   2.861   0.877   6.260 -0.3378 -0.1223 -0.1208
  944SOL    HW1 4120   2.818   0.899   6.177  0.1845  1.5206  0.0107
  944SOL    HW2 4121   2.953   0.895   6.244  0.0307 -1.5582  0.2755
  945SOL     OW 4122   1.057   0.141   2.264 -0.2285  0.1194 -0.4954
  945SOL    HW1 4123   1.004   0.143   2.344  0.2030 -1.6573 -0.1354
  945SOL    HW2 4124   1.048   0.052   2.231  0.8501  0.3845 -1.5866
  946SOL     OW 4125   0.401   7.991   2.416  0.2741  0.1594 -0.5838
  946SOL    HW1 4126   0.337   8.040   2.364  2.5394  3.1978 -0.7988
  946SOL    HW2 4127   0.406   7.905   2.375 -2.4351  0.3627 -1.5073
  947SOL     OW 4128   3.685   6.153   4.868  0.2852  0.2101 -0.0285
  947SOL    HW1 4129   3.765   6.202   4.884  0.4123 -0.2942  0.9286
  947SOL    HW2 4130   3.715   6.064   4.848 -0.0700 -0.4543  2.1743
  948SOL     OW 4131   3.754   1.711   4.210  0.3170  0.1674 -0.1277
  948SOL    HW1 4132   3.693   1.778   4.240  2.3384  1.4693  1.3582
  948SOL    HW2 4133   3.807   1.756   4.143  1.2255 -0.1161  0.3798
  949SOL     OW 4134   4.535   2.878   3.680 -0.6608 -0.2355 -0.4760
  949SOL    HW1 4135   4.628   2.888   3.702 -0.6404 -1.0124 -0.1800
  949SOL    HW2 4136   4.490   2.937   3.741 -0.4442 -0.7890  0.2354
  950SOL     OW 4137   6.221   2.334   8.016 -0.0070  0.5540 -0.1040
  950SOL    HW1 4138   6.165   2.396   8.062 -1.4764  0.0709 -1.1716
  950SOL    HW2 4139   6.305   2.339   8.061 -1.0895  0.7884  1.9827
  951SOL     OW 4140   7.483   4.201   4.916 -0.5435  0.1500  0.3805
  951SOL    HW1 4141   7.505   4.293   4.898 -0.6776  0.6109  2.4043
  951SOL    HW2 4142   7.387   4.199   4.913 -0.5345  0.0265  0.1541
  952SOL     OW 4143   5.616   3.886   8.518 -0.7672 -0.1012  0.0164
  952SOL    HW1 4144   5.555   3.898   8.446 -0.3550 -0.4123 -0.3839
  952SOL    HW2 4145   5.670   3.965   8.518 -1.5143  0.4287  0.7157
  953SOL     OW 4146   2.054   3.428   6.758 -0.4747 -0.3988  0.2151
  953SOL    HW1 4147   2.117   3.412   6.687  0.9866  0.8331  1.1406
  953SOL    HW2 4148   1.990   3.488   6.720  0.3109  0.2692 -0.1034
  954SOL     OW 4149   7.244   5.584   4.730  0.3809 -0.1121 -0.6621
  954SOL    HW1 4150   7.150   5.594   4.713  0.5268 -1.1612 -2.4062
  954SOL    HW2 4151   7.280   5.558   4.645  1.9148 -1.8102  0.4316
  955SOL     OW 4152   5.319   7.692   1.305 -0.2340 -0.0144 -0.7333
  955SOL    HW1 4153   5.412   7.669   1.308  0.4709  2.6035  0.3746
  955SOL    HW2 4154   5.312   7.756   1.234 -0.9179  0.7368 -0.0154
  956SOL     OW 4155   5.925   3.806   4.654  0.1782  0.3423 -0.5152
  956SOL    HW1 4156   5.835   3.808   4.622  0.3486 -2.2008 -1.3293
  956SOL    HW2 4157   5.975   3.766   4.583  1.6873  0.2936  0.5321
  957SOL     OW 4158   4.934   6.458   2.069 -0.3304 -0.1127  0.1122
  957SOL    HW1 4159   4.962   6.547   2.091  2.9560 -1.1236  0.5266
  957SOL    HW2 4160   4.991   6.432   1.996 -3.0526 -1.0166 -1.8675
  958SOL     OW 4161   1.388   4.687   3.225  0.5507 -0.3166 -0.0522
  958SOL    HW1 4162   1.360   4.775   3.252 -0.1819  0.0060 -1.7550
  958SOL    HW2 4163   1.334   4.667   3.148  0.4867 -2.3961  0.4779
  959SOL     OW 4164   6.866   3.888   6.686 -0.5093 -0.4179 -0.0164
  959SOL    HW1 4165   6.847   3.969   6.638  1.4075 -0.8288 -1.5798
  959SOL    HW2 4166   6.835   3.905   6.775  0.9780  2.5366  0.0575
  960SOL     OW 4167   5.203   5.923   7.073  0.0466 -0.3499  0.1666
  960SOL    HW1 4168   5.153   5.934   6.992 -0.3651 -0.5643  0.3899
  960SOL    HW2 4169   5.158   5.976   7.137 -0.7052 -1.5934  0.7086
  961SOL     OW 4170   4.644   5.699   3.772  0.5162 -0.5651  0.1134
  961SOL    HW1 4171   4.712   5.731   3.831  2.1458 -0.5616 -1.6612
  961SOL    HW2 4172   4.592   5.776   3.751  1.0334 -0.2005  0.1494
  962SOL     OW 4173   1.468   7.383   7.589 -0.5159  0.0150 -0.3150
  962SOL    HW1 4174   1.505   7.342   7.668  0.9467 -1.0468 -1.4803
  962SOL    HW2 4175   1.404   7.446   7.622  2.6521  2.3882  1.9229
  963SOL     OW 4176   2.437   0.897   6.621  0.1808  0.2097 -0.6833
  963SOL    HW1 4177   2.383   0.858   6.553 -0.7738  2.4465 -1.2862
  963SOL    HW2 4178   2.492   0.960   6.575  0.9244  0.3771  0.3807
  964SOL     OW 4179   4.188   5.548   3.437 -0.5424  0.1811 -0.2885
  964SOL    HW1 4180   4.155   5.602   3.365 -0.0079  1.9362  0.7200
  964SOL    HW2 4181   4.188   5.606   3.513  0.2154 -1.2049  0.8306
  965SOL     OW 4182   4.738   0.631   2.758 -0.2248 -0.2747  0.0947
  965SOL    HW1 4183   4.670   0.590   2.705 -0.1557 -2.2151  1.4041
  965SOL    HW2 4184   4.811   0.568   2.756  0.3704  0.3552  1.1540
  966SOL     OW 4185   4.512   0.837   5.102 -0.2659  0.0963 -0.2172
  966SOL    HW1 4186   4.461   0.765   5.138 -0.7063  0.4966 -0.0395
  966SOL    HW2 4187   4.602   0.817   5.128 -0.6726  0.9148  2.0825
  967SOL     OW 4188   3.057   8.335   5.875  0.3776  0.0620 -0.0260
  967SOL    HW1 4189   3.114   8.304   5.805  0.6866  1.5919 -0.4704
  967SOL    HW2 4190   3.117   8.362   5.945  0.1516  0.4365  0.0263
  968SOL     OW 4191   2.486   7.574   3.444 -0.0340 -0.2861  0.4256
  968SOL    HW1 4192   2.424   7.641   3.415  2.8583  2.6045  0.3351
  968SOL    HW2 4193   2.456   7.549   3.532 -1.5029  0.7097  0.2279
  969SOL     OW 4194   8.159   0.329   6.380 -0.6816 -0.2106 -0.1286
  969SOL    HW1 4195   8.155   0.329   6.284 -1.6720  1.5901 -0.1270
  969SOL    HW2 4196   8.251   0.315   6.400 -0.0346  1.7419 -1.4314
  970SOL     OW 4197   7.234   5.995   2.173  0.6408  0.0255 -0.0811
  970SOL    HW1 4198   7.180   5.919   2.155  0.3057  0.4731 -1.0411
  970SOL    HW2 4199   7.299   5.965   2.237 -1.9182 -0.0356  2.6884
  971SOL     OW 4200   7.117   1.121   1.581  0.1463  0.4838 -0.6333
  971SOL    HW1 4201   7.200   1.092   1.543  0.8424  0.8808  0.5285
  971SOL    HW2 4202   7.124   1.216   1.585 -0.8015  0.6058 -1.4581
  972SOL     OW 4203   5.285   0.389   7.758 -0.2231  0.1211  0.4691
  972SOL    HW1 4204   5.219   0.456   7.737  0.5135  0.9480  0.7540
  972SOL    HW2 4205   5.244   0.306   7.732 -0.6452  0.7966 -1.0955
  973SOL     OW 4206   8.276   6.862   0.698  0.4754 -0.2305 -0.4122
  973SOL    HW1 4207   8.256   6.923   0.627 -0.7310 -0.3345 -0.1764
  973SOL    HW2 4208   8.325   6.915   0.761  0.2837  0.2457 -0.6588
  974SOL     OW 4209   1.501   8.351   6.785 -0.2770  0.1585 -0.4487
  974SOL    HW1 4210   1.426   8.374   6.730  1.1014  1.1115 -2.0436
  974SOL    HW2 4211   1.560   8.426   6.777  1.4983 -1.1615 -0.4586
  975SOL     OW 4212   1.941   1.833   5.752  0.2733  0.0178 -0.6963
  975SOL    HW1 4213   1.981   1.750   5.726  1.2089  0.0817  0.4692
  975SOL    HW2 4214   1.987   1.858   5.832 -2.0678  0.1422  0.6887
  976SOL     OW 4215   7.653   7.994   3.874  0.3348 -1.0008 -0.8622
  976SOL    HW1 4216   7.568   8.022   3.908  0.6924  1.3844 -1.7582
  976SOL    HW2 4217   7.631   7.947   3.793 -0.1431  1.3522 -2.2035
  977SOL     OW 4218   1.764   1.518   2.751  0.2076 -0.4439 -0.1944
  977SOL    HW1 4219   1.740   1.435   2.792 -0.8098 -0.6099 -1.0915
  977SOL    HW2 4220   1.750   1.504   2.658 -0.3833  0.8625 -0.3177
  978SOL     OW 4221   1.750   6.970   7.789 -0.3078  0.6812 -0.2747
  978SOL    HW1 4222   1.744   6.874   7.784  2.1755  0.4013  0.9407
  978SOL    HW2 4223   1.702   6.992   7.869  0.1287  0.3257  0.0904
  979SOL     OW 4224   1.070   0.824   0.609  0.2338  0.1776  0.7021
  979SOL    HW1 4225   1.000   0.773   0.568 -0.7344  0.4923  1.9051
  979SOL    HW2 4226   1.064   0.803   0.702  2.1142 -0.2046  0.7667
  980SOL     OW 4227   1.063   5.327   5.363  0.6981 -0.3339  0.1558
  980SOL    HW1 4228   1.019   5.244   5.382  0.3047 -0.0704  0.4112
  980SOL    HW2 4229   1.156   5.304   5.359  0.5521 -0.8726 -0.2704
  981SOL     OW 4230   0.609   7.350   1.473 -0.4549  0.1309 -0.1582
  981SOL    HW1 4231   0.579   7.281   1.413  0.2537 -0.7198  0.4276
  981SOL    HW2 4232   0.529   7.391   1.505 -0.9169 -0.6967 -0.2140
  982SOL     OW 4233   7.890   0.563   3.774  0.9321  0.6108 -0.0176
  982SOL    HW1 4234   7.976   0.597   3.798  0.8919  0.5690  0.1814
  982SOL    HW2 4235   7.888   0.569   3.678  1.1802  0.5512 -0.0266
  983SOL     OW 4236   7.189   1.568   8.686  0.0713  0.1809  0.3091
  983SOL    HW1 4237   7.241   1.649   8.678  0.0445  0.2707  1.0006
  983SOL    HW2 4238   7.114   1.593   8.739  0.5800 -0.5297  1.4038
  984SOL     OW 4239   0.767   4.561   0.730 -0.0303  0.2611 -0.2258
  984SOL    HW1 4240   0.816   4.488   0.767 -3.0152 -1.5458  0.4137
  984SOL    HW2 4241   0.780   4.632   0.793 -0.3171 -0.9664  1.2585
  985SOL     OW 4242   2.251   3.677   3.988 -0.0271  0.6735  0.2004
  985SOL    HW1 4243   2.337   3.702   3.955 -0.0458 -0.0018 -0.3957
  985SOL    HW2 4244   2.220   3.610   3.926 -1.0382  1.0065  0.3168
  986SOL     OW 4245   6.408   7.060   2.514 -0.3609  0.0444  0.7047
  986SOL    HW1 4246   6.469   7.128   2.543 -0.6614  0.1567  1.0951
  986SOL    HW2 4247   6.400   7.002   2.589 -0.0064 -0.5022  0.3250
  987SOL     OW 4248   7.411   3.092   4.933 -0.4844 -0.0207 -0.0800
  987SOL    HW1 4249   7.480   3.151   4.964  0.6367 -0.7998 -0.9897
  987SOL    HW2 4250   7.358   3.145   4.874 -0.0627  0.3385 -0.1453
  988SOL     OW 4251   2.258   5.944   6.888  0.3598 -0.0375  0.5436
  988SOL    HW1 4252   2.191   5.883   6.917  0.5974 -0.8639 -0.5775
  988SOL    HW2 4253   2.338   5.891   6.880  0.1682 -0.0816 -2.2340
  989SOL     OW 4254   5.842   2.010   7.152 -0.1284 -0.2637  0.2388
  989SOL    HW1 4255   5.835   2.044   7.241 -1.4566  0.2956 -0.0639
  989SOL    HW2 4256   5.903   2.070   7.109  0.5471 -0.5585  0.7648
  990SOL     OW 4257   7.329   2.662   2.435 -0.6568 -0.0186 -0.3898
  990SOL    HW1 4258   7.318   2.715   2.514  1.0941  0.8652 -0.6853
  990SOL    HW2 4259   7.364   2.579   2.467  2.0460  1.0367 -0.2780
  991SOL     OW 4260   1.330   1.865   8.090 -0.7032 -0.0532  0.4050
  991SOL    HW1 4261   1.304   1.952   8.121  0.8134  0.1082  1.3454
  991SOL    HW2 4262   1.266   1.806   8.130 -1.7362  0.6005 -0.2274
  992SOL     OW 4263   0.835   0.703   6.703 -0.3096 -0.5088  0.3488
  992SOL    HW1 4264   0.919   0.709   6.747 -0.2618  0.5953  0.1570
  992SOL    HW2 4265   0.779   0.656   6.764  0.5199 -1.5143  0.3513
  993SOL     OW 4266   1.347   7.692   7.413  0.0042  0.3892  0.0410
  993SOL    HW1 4267   1.349   7.695   7.508 -0.7252  0.4580  0.0555
  993SOL    HW2 4268   1.263   7.652   7.391 -0.3109  1.3757 -0.5935
  994SOL     OW 4269   5.819   7.026   6.395  0.4739 -0.5189  0.1349
  994SOL    HW1 4270   5.881   7.078   6.344  0.4844 -1.5367 -0.9323
  994SOL    HW2 4271   5.738   7.030   6.344  0.2649 -0.9207  0.4347
  995SOL     OW 4272   7.750   1.613   0.284 -0.1821  0.3654  0.2858
  995SOL    HW1 4273   7.737   1.545   0.350  3.5024 -0.9520 -0.0976
  995SOL    HW2 4274   7.742   1.567   0.200 -0.3929  1.0110 -0.0572
  996SOL     OW 4275   2.172   2.561   1.051  0.4102 -0.8509 -0.4333
  996SOL    HW1 4276   2.135   2.583   0.966  0.1739 -1.5736 -0.5220
  996SOL    HW2 4277   2.267   2.566   1.038  0.3744 -0.0499 -0.4851
  997SOL     OW 4278   2.653   7.549   0.857  0.3371  0.4720 -0.3655
  997SOL    HW1 4279   2.564   7.577   0.880  0.5815  0.8305  0.1666
  997SOL    HW2 4280   2.710   7.612   0.901  1.0188 -2.0146  2.6947
  998SOL     OW 4281   6.152   8.125   3.327 -0.0790  0.6814 -0.1592
  998SOL    HW1 4282   6.158   8.114   3.232 -0.6914 -0.7213 -0.0598
  998SOL    HW2 4283   6.059   8.118   3.347  0.1481 -0.3571  0.6617
  999SOL     OW 4284   6.340   1.132   7.316 -0.2964 -0.1698  0.3446
  999SOL    HW1 4285   6.318   1.219   7.350  0.6094  0.0315  0.4579
  999SOL    HW2 4286   6.369   1.148   7.226  0.1788 -0.3064  0.4707
 1000SOL     OW 4287   5.086   7.874   5.720  0.8134 -0.6272 -0.1134
 1000SOL    HW1 4288   5.054   7.922   5.643  1.6198 -1.1010 -0.7562
 1000SOL    HW2 4289   5.086   7.783   5.693 -0.9382 -1.0732  1.1830
 1001SOL     OW 4290   7.811   8.163   7.767 -0.3883  0.7997  0.3711
 1001SOL    HW1 4291   7.724   8.202   7.779  0.0887  1.5879  1.4440
 1001SOL    HW2 4292   7.856   8.179   7.850  0.7421  0.2833 -0.1197
 1002SOL     OW 4293   5.860   4.630   2.036 -0.2587 -0.0708 -0.1939
 1002SOL    HW1 4294   5.897   4.623   2.124 -0.7447  0.0754  0.0253
 1002SOL    HW2 4295   5.840   4.540   2.011 -0.7021 -0.0643  0.1067
 1003SOL     OW 4296   6.693   2.278   4.927  0.1755  0.1795 -0.2497
 1003SOL    HW1 4297   6.687   2.373   4.932  0.5057  0.2147 -0.5132
 1003SOL    HW2 4298   6.640   2.255   4.851  0.8191  0.2313 -0.7227
 1004SOL     OW 4299   8.552   3.304   0.113 -0.6562 -0.2941  0.4493
 1004SOL    HW1 4300   8.509   3.255   0.042 -1.0473 -0.4808  0.8112
 1004SOL    HW2 4301   8.521   3.394   0.102 -2.9450 -0.7947  2.0167
 1005SOL     OW 4302   1.654   4.842   7.666  0.6009 -0.1607 -0.4301
 1005SOL    HW1 4303   1.704   4.761   7.675  1.3082  0.4854  2.6116
 1005SOL    HW2 4304   1.720   4.910   7.652  0.3625  0.3054  0.5844
 1006SOL     OW 4305   6.138   4.734   8.243 -0.0119  0.0706  0.0992
 1006SOL    HW1 4306   6.091   4.667   8.293  0.3058 -0.6734 -0.5885
 1006SOL    HW2 4307   6.086   4.814   8.256  0.5214  0.1288  2.3084
 1007SOL     OW 4308   4.337   2.793   7.964  0.0182 -0.3758 -0.7396
 1007SOL    HW1 4309   4.250   2.761   7.988  0.1965 -0.8194 -0.6800
 1007SOL    HW2 4310   4.385   2.715   7.938  0.6021 -0.2263 -0.1510
 1008SOL     OW 4311   2.288   3.066   4.017  0.0210 -0.0925  0.5823
 1008SOL    HW1 4312   2.294   3.162   4.017  1.4142 -0.1396  1.7294
 1008SOL    HW2 4313   2.329   3.040   3.935  0.4393  0.2805  0.6650
 1009SOL     OW 4314   8.551   5.741   7.800  0.0200 -0.0594  0.4088
 1009SOL    HW1 4315   8.456   5.732   7.806 -0.1329 -1.2124 -2.2903
 1009SOL    HW2 4316   8.585   5.687   7.871 -1.3128  0.9577  1.8736
 1010SOL     OW 4317   4.859   6.487   5.769  0.0118  0.7573 -0.0183
 1010SOL    HW1 4318   4.816   6.402   5.762 -1.3279  1.2855  1.2802
 1010SOL    HW2 4319   4.851   6.526   5.682 -0.2132 -0.0382 -0.3600
 1011SOL     OW 4320   1.284   6.821   7.055 -0.1056  0.1584 -0.2756
 1011SOL    HW1 4321   1.251   6.794   6.969  0.8388  0.3245 -0.7090
 1011SOL    HW2 4322   1.219   6.790   7.117  0.1928 -1.7711 -0.8753
 1012SOL     OW 4323   5.475   0.234   6.116  0.3962 -0.4756 -0.9976
 1012SOL    HW1 4324   5.401   0.173   6.119  0.1919 -0.2611 -1.5512
 1012SOL    HW2 4325   5.527   0.204   6.041 -0.3747  0.7855 -2.0832
 1013SOL     OW 4326   2.811   7.758   1.880  0.1710  0.3104  0.4317
 1013SOL    HW1 4327   2.731   7.802   1.854  1.2521  1.1300 -1.7906
 1013SOL    HW2 4328   2.851   7.815   1.945  0.3699  1.4240 -0.6400
 1014SOL     OW 4329   3.924   6.489   5.433 -0.4919 -0.1318  0.0669
 1014SOL    HW1 4330   3.948   6.411   5.483 -0.7574  1.5678  3.0973
 1014SOL    HW2 4331   4.003   6.544   5.436 -1.1283  0.7918  0.2907
 1015SOL     OW 4332   8.405   3.808   6.682  0.1234 -0.2519 -0.0348
 1015SOL    HW1 4333   8.445   3.884   6.724  2.5267 -0.3921 -1.8081
 1015SOL    HW2 4334   8.468   3.737   6.696 -0.5096 -1.0706 -1.1603
 1016SOL     OW 4335   4.098   7.876   5.248 -0.1666  0.1810 -0.1222
 1016SOL    HW1 4336   4.122   7.790   5.283 -1.5355 -0.5718 -0.9711
 1016SOL    HW2 4337   4.179   7.908   5.208  1.1118  0.5235  2.5177
 1017SOL     OW 4338   8.068   5.883   4.207  0.3145  0.4950 -0.2285
 1017SOL    HW1 4339   7.978   5.851   4.204  0.8819 -1.3709  0.6540
 1017SOL    HW2 4340   8.061   5.972   4.242 -1.1185 -0.0357  0.9868
 1018SOL     OW 4341   4.493   5.937   2.238 -0.3887 -0.2055  0.5682
 1018SOL    HW1 4342   4.529   6.002   2.178 -1.4512  0.0343  0.1711
 1018SOL    HW2 4343   4.525   5.964   2.324  0.7329 -0.2638  0.1739
 1019SOL     OW 4344   3.962   6.772   5.898 -0.0644 -0.2959  0.2838
 1019SOL    HW1 4345   3.946   6.803   5.809 -1.9195 -1.8619 -0.0049
 1019SOL    HW2 4346   3.925   6.683   5.899 -0.0771 -0.3277  2.6089
 1020SOL     OW 4347   7.343   7.200   2.904  0.3485  0.7466 -0.1442
 1020SOL    HW1 4348   7.300   7.176   2.822  0.8256 -0.3055 -0.1053
 1020SOL    HW2 4349   7.417   7.254   2.877  1.4062 -0.8247 -0.5849
 1021SOL     OW 4350   2.286   5.980   5.560 -0.8725  0.1203  0.0387
 1021SOL    HW1 4351   2.266   5.886   5.559 -0.1797 -0.0313  0.0120
 1021SOL    HW2 4352   2.362   5.988   5.617  0.2323  0.4132 -1.4108
 1022SOL     OW 4353   3.882   8.321   2.981 -0.0020 -0.2839  0.7880
 1022SOL    HW1 4354   3.968   8.323   3.023 -0.9307 -0.3548  2.8051
 1022SOL    HW2 4355   3.886   8.391   2.915  0.8447  1.3983  2.5145
 1023SOL     OW 4356   5.305   7.634   5.478 -0.0323  0.6181  0.0523
 1023SOL    HW1 4357   5.235   7.568   5.485 -1.2680  1.9773  1.2513
 1023SOL    HW2 4358   5.292   7.672   5.391 -0.9790  1.0473  0.3693
 1024SOL     OW 4359   4.021   0.536   1.478 -0.0413 -0.3134  0.4494
 1024SOL    HW1 4360   3.986   0.468   1.535 -1.2267 -0.8256 -0.8357
 1024SOL    HW2 4361   3.974   0.615   1.503  1.7837  0.2697  2.3800
 1025SOL     OW 4362   6.566   4.902   0.014 -0.7951  0.5570  0.6544
 1025SOL    HW1 4363   6.510   4.946   0.078  0.3211  1.7396  0.8495
 1025SOL    HW2 4364   6.648   4.885   0.061 -0.4779  0.1170 -0.0400
 1026SOL     OW 4365   0.871   3.126   2.713  0.9815 -0.5527 -0.1698
 1026SOL    HW1 4366   0.881   3.177   2.793  0.7992 -0.5847 -0.1262
 1026SOL    HW2 4367   0.952   3.142   2.664  0.9646 -0.2975 -0.1151
 1027SOL     OW 4368   1.047   4.801   4.000 -0.4296  0.0348  0.4190
 1027SOL    HW1 4369   1.131   4.820   3.959 -0.2611 -0.2659  0.6227
 1027SOL    HW2 4370   1.054   4.837   4.089 -0.9162  0.9878  0.0920
 1028SOL     OW 4371   3.860   6.450   2.379 -0.0370  0.3726  0.3693
 1028SOL    HW1 4372   3.854   6.356   2.394 -0.0991  0.1002 -1.1929
 1028SOL    HW2 4373   3.850   6.489   2.466  0.2887 -1.0646  1.0828
 1029SOL     OW 4374   0.750   0.154   0.396 -0.1575  0.5274 -0.0727
 1029SOL    HW1 4375   0.670   0.108   0.418  0.5421 -0.7685 -0.1618
 1029SOL    HW2 4376   0.759   0.144   0.302  0.3851  0.1883  0.0082
 1030SOL     OW 4377   2.246   6.870   4.561 -0.3836  0.0587 -0.3148
 1030SOL    HW1 4378   2.285   6.833   4.481 -0.6226  0.2633 -0.5302
 1030SOL    HW2 4379   2.152   6.859   4.548 -0.5040  1.3396 -0.6963
 1031SOL     OW 4380   0.422   6.991   0.690  0.9497 -0.0958 -0.4058
 1031SOL    HW1 4381   0.392   6.902   0.674  1.8071 -0.5225  0.2705
 1031SOL    HW2 4382   0.384   7.015   0.775  3.1482 -0.9688  0.8869
 1032SOL     OW 4383   8.678   0.089   6.669  0.0042  0.5755  0.3919
 1032SOL    HW1 4384   8.699   0.144   6.594 -1.1954 -0.1867 -0.5539
 1032SOL    HW2 4385   8.690   0.146   6.745  1.4229  1.3135 -0.3381
 1033SOL     OW 4386   0.390   1.506   7.473  0.0629 -0.1467  0.4218
 1033SOL    HW1 4387   0.326   1.576   7.482  0.8866  0.8341 -1.0473
 1033SOL    HW2 4388   0.458   1.527   7.537 -0.0906 -0.0872  0.5677
 1034SOL     OW 4389   8.149   6.094   7.688 -0.0895 -0.0872 -0.0735
 1034SOL    HW1 4390   8.201   6.035   7.634  0.7927 -1.2726  1.9404
 1034SOL    HW2 4391   8.147   6.176   7.639  0.1883 -1.2359 -2.1127
 1035SOL     OW 4392   2.213   4.477   3.420 -0.3576 -0.3103 -0.3710
 1035SOL    HW1 4393   2.205   4.571   3.405  3.0189  0.0300 -0.8984
 1035SOL    HW2 4394   2.237   4.469   3.512  1.9227 -0.3281 -0.8995
 1036SOL     OW 4395   6.728   4.790   0.212 -0.4967 -0.4458  0.4281
 1036SOL    HW1 4396   6.756   4.828   0.295 -0.4578 -1.8301  1.0786
 1036SOL    HW2 4397   6.641   4.755   0.230 -0.7517 -0.2029 -0.2978
 1037SOL     OW 4398   7.805   5.618   1.112  0.0716  0.0792 -0.0290
 1037SOL    HW1 4399   7.772   5.702   1.079  1.5924  0.9200  0.5312
 1037SOL    HW2 4400   7.740   5.590   1.176 -0.5294  0.7307 -0.3416
 1038SOL     OW 4401   3.923   4.685   7.872 -0.4337 -0.0765 -0.2048
 1038SOL    HW1 4402   3.941   4.596   7.843  0.3497  0.7079 -2.3114
 1038SOL    HW2 4403   4.009   4.726   7.877 -0.6713  0.2725  1.9163
 1039SOL     OW 4404   0.555   7.468   0.398  0.6126  0.2008  0.3309
 1039SOL    HW1 4405   0.628   7.436   0.346  0.1818  0.5875 -0.5337
 1039SOL    HW2 4406   0.510   7.388   0.428 -0.2757 -0.0673 -1.5566
 1040SOL     OW 4407   1.983   8.589   8.693 -0.2635  0.4221 -0.8691
 1040SOL    HW1 4408   2.060   8.533   8.679 -0.2281  0.4945 -0.9626
 1040SOL    HW2 4409   2.011   8.676   8.666 -0.7383  0.2332 -2.0422
 1041SOL     OW 4410   4.193   5.462   1.173  0.5780  0.0180  0.0101
 1041SOL    HW1 4411   4.171   5.507   1.255 -1.1815  2.3431 -1.5729
 1041SOL    HW2 4412   4.126   5.393   1.165  0.5007  0.0527  0.3352
 1042SOL     OW 4413   5.227   4.979   1.712  0.1837  0.2929  0.3083
 1042SOL    HW1 4414   5.138   4.998   1.744  0.0652 -0.5056  0.4908
 1042SOL    HW2 4415   5.213   4.939   1.626  0.5033  2.4229 -0.7856
 1043SOL     OW 4416   7.881   1.004   1.223  0.5517 -0.3671  0.1644
 1043SOL    HW1 4417   7.822   0.963   1.159 -0.1100 -0.8915  1.0955
 1043SOL    HW2 4418   7.968   0.998   1.183  0.2423 -1.3153 -0.3812
 1044SOL     OW 4419   7.563   7.800   8.451 -0.0284 -0.1935  0.1835
 1044SOL    HW1 4420   7.554   7.825   8.543 -1.1990 -0.4831  0.1605
 1044SOL    HW2 4421   7.620   7.723   8.453  0.6758  0.3195  0.5719
 1045SOL     OW 4422   6.185   3.307   4.380 -0.2260  0.1224  0.2571
 1045SOL    HW1 4423   6.248   3.354   4.326  1.1826 -2.6307 -0.7276
 1045SOL    HW2 4424   6.104   3.308   4.330 -0.5498  2.2264  0.7301
 1046SOL     OW 4425   0.713   1.239   6.562 -0.1178  0.1163 -1.0470
 1046SOL    HW1 4426   0.728   1.281   6.647 -0.1844  1.9305 -1.8923
 1046SOL    HW2 4427   0.735   1.147   6.577 -0.2687  0.3534  0.9681
 1047SOL     OW 4428   4.140   8.040   5.002  0.7489  0.1724  0.2794
 1047SOL    HW1 4429   4.154   8.019   4.910  0.3331 -1.5958  0.5714
 1047SOL    HW2 4430   4.051   8.072   5.007  0.9849  0.8813 -0.0159
 1048SOL     OW 4431   7.683   7.715   4.545 -0.1615 -0.2099 -0.3630
 1048SOL    HW1 4432   7.749   7.727   4.614  0.7039  0.6514 -1.2952
 1048SOL    HW2 4433   7.601   7.700   4.593  0.0449  2.1683  0.9449
 1049SOL     OW 4434   2.713   3.974   6.058  0.2715 -0.7762 -0.7269
 1049SOL    HW1 4435   2.653   3.985   6.131  1.1185  2.7208 -0.3574
 1049SOL    HW2 4436   2.799   3.998   6.094  1.2745 -2.0480 -2.1372
 1050SOL     OW 4437   6.636   3.560   7.467  0.4959 -0.1833  0.0440
 1050SOL    HW1 4438   6.576   3.576   7.540 -1.1719  0.4137 -1.3876
 1050SOL    HW2 4439   6.704   3.627   7.476 -0.9747  1.4112 -0.2333
 1051SOL     OW 4440   1.288   5.304   6.745 -0.4962 -0.2526  0.0520
 1051SOL    HW1 4441   1.296   5.396   6.771 -0.9409 -0.2399  0.1538
 1051SOL    HW2 4442   1.341   5.297   6.666 -1.2718  0.3319 -0.5343
 1052SOL     OW 4443   8.054   0.276   7.806  0.5064  0.1663  0.7897
 1052SOL    HW1 4444   8.045   0.262   7.900 -1.4393 -0.5018  0.5454
 1052SOL    HW2 4445   7.972   0.245   7.769  1.4326 -0.0706 -1.2010
 1053SOL     OW 4446   5.166   8.585   5.522 -0.3132 -0.7984 -0.0486
 1053SOL    HW1 4447   5.215   8.625   5.450 -1.6410 -0.6889 -0.9089
 1053SOL    HW2 4448   5.182   8.644   5.596  0.4647 -0.5106 -0.4248
 1054SOL     OW 4449   7.799   2.765   8.609 -0.1033  0.5656  0.4142
 1054SOL    HW1 4450   7.844   2.771   8.693  1.4569 -0.5170 -0.2837
 1054SOL    HW2 4451   7.869   2.750   8.546 -1.1889  1.8664 -1.1738
 1055SOL     OW 4452   5.685   5.541   7.687 -0.5457  0.0547  0.1779
 1055SOL    HW1 4453   5.665   5.447   7.689 -0.0481 -0.0602 -0.1316
 1055SOL    HW2 4454   5.737   5.553   7.608 -2.2137  0.9362 -0.8301
 1056SOL     OW 4455   6.481   0.640   4.561 -0.4658 -0.1128  0.1713
 1056SOL    HW1 4456   6.565   0.633   4.517 -0.3519  2.7114 -0.2579
 1056SOL    HW2 4457   6.422   0.678   4.496 -1.7207 -0.7654  0.8803
 1057SOL     OW 4458   3.548   4.528   1.850  0.0452 -0.3278  0.2883
 1057SOL    HW1 4459   3.503   4.588   1.791  1.6561 -0.0325 -0.7200
 1057SOL    HW2 4460   3.528   4.441   1.816 -2.6706 -0.5152  2.0204
 1058SOL     OW 4461   0.600   4.143   1.727 -0.2238 -0.0857  0.3589
 1058SOL    HW1 4462   0.542   4.074   1.760  0.1890  0.0083  1.3013
 1058SOL    HW2 4463   0.675   4.142   1.787  0.1090  0.7170 -0.0360
 1059SOL     OW 4464   4.045   7.215   0.109  0.3394  0.1877  0.1245
 1059SOL    HW1 4465   4.132   7.205   0.149  1.1447 -0.3944 -1.6523
 1059SOL    HW2 4466   4.025   7.129   0.074 -0.0771  0.7688 -1.1340
 1060SOL     OW 4467   7.726   1.254   6.576  0.4157 -0.8724  0.1296
 1060SOL    HW1 4468   7.648   1.247   6.520  1.8854 -2.8232 -1.8587
 1060SOL    HW2 4469   7.713   1.189   6.644 -0.7482  0.5353  1.3170
 1061SOL     OW 4470   3.018   2.207   5.979  0.3440 -0.3230 -0.0711
 1061SOL    HW1 4471   3.092   2.255   6.017  0.9434 -1.8639  0.7884
 1061SOL    HW2 4472   2.943   2.229   6.034  0.5179 -0.0524  0.0584
 1062SOL     OW 4473   7.552   4.443   4.883 -0.2939  0.0956 -0.4721
 1062SOL    HW1 4474   7.561   4.454   4.788 -1.2229  1.3280 -0.4539
 1062SOL    HW2 4475   7.577   4.528   4.920 -1.2507  0.0857  0.2626
 1063SOL     OW 4476   2.617   3.191   7.183  0.1177 -0.3994 -0.6893
 1063SOL    HW1 4477   2.562   3.148   7.248  0.9673 -0.1581  0.2160
 1063SOL    HW2 4478   2.558   3.247   7.134 -1.2247 -3.1527 -2.4908
 1064SOL     OW 4479   6.902   0.425   5.534 -0.9481  0.6315  0.3857
 1064SOL    HW1 4480   6.859   0.496   5.583 -1.2320  0.8022 -0.1046
 1064SOL    HW2 4481   6.996   0.441   5.546 -0.9847  1.6404 -0.4687
 1065SOL     OW 4482   0.373   7.259   5.802 -0.1189 -0.0007 -0.0873
 1065SOL    HW1 4483   0.285   7.227   5.779  0.3501 -0.7396 -0.9038
 1065SOL    HW2 4484   0.366   7.282   5.895 -1.4613  0.9631 -0.3946
 1066SOL     OW 4485   3.775   6.068   7.224  0.0392  0.3020 -0.1865
 1066SOL    HW1 4486   3.727   6.075   7.141 -0.8344 -2.6806 -0.0612
 1066SOL    HW2 4487   3.736   6.135   7.280  0.9551  2.7121 -2.2320
 1067SOL     OW 4488   4.489   0.011   1.704  0.2359 -0.2350  0.6000
 1067SOL    HW1 4489   4.568   0.031   1.655  0.9208 -2.4583  0.6659
 1067SOL    HW2 4490   4.425   0.075   1.674  2.4883  2.8418  1.9045
 1068SOL     OW 4491   5.639   2.955   6.345 -0.0718 -0.0556 -0.0697
 1068SOL    HW1 4492   5.709   2.984   6.404 -1.3173  0.2336  1.3234
 1068SOL    HW2 4493   5.649   2.860   6.341  0.8698  0.0456 -0.5350
 1069SOL     OW 4494   2.345   7.383   4.737  0.3066  1.0387  0.3281
 1069SOL    HW1 4495   2.349   7.466   4.784  0.6933  0.6174  1.0567
 1069SOL    HW2 4496   2.290   7.327   4.792  1.1244  0.4006  0.5169
 1070SOL     OW 4497   6.314   0.323   7.079 -0.1656  0.3471 -0.3825
 1070SOL    HW1 4498   6.374   0.381   7.127 -0.2015  0.7129 -0.7763
 1070SOL    HW2 4499   6.366   0.246   7.059 -0.0317  0.3641 -0.1097
 1071SOL     OW 4500   3.272   7.357   8.410 -0.1726  0.1398 -0.0449
 1071SOL    HW1 4501   3.188   7.385   8.374  0.0012 -1.7375 -2.0905
 1071SOL    HW2 4502   3.263   7.369   8.505 -2.4803  0.6024 -0.2788
 1072SOL     OW 4503   8.568   6.477   3.357  0.5299  0.1683  0.2094
 1072SOL    HW1 4504   8.606   6.561   3.331  0.9683 -0.4421 -1.2062
 1072SOL    HW2 4505   8.520   6.447   3.280 -2.6071  0.7116  1.7966
 1073SOL     OW 4506   2.506   0.028   0.957 -0.7620  0.7794  0.1843
 1073SOL    HW1 4507   2.580   0.020   1.017 -0.6933  0.8969  0.1154
 1073SOL    HW2 4508   2.483   0.121   0.959 -0.9520  0.7306  0.2580
 1074SOL     OW 4509   7.415   8.512   1.317  0.3420 -0.1382 -0.4221
 1074SOL    HW1 4510   7.466   8.593   1.318 -2.1876  1.5450 -0.2642
 1074SOL    HW2 4511   7.378   8.507   1.229  1.1485 -1.6416 -0.7212
 1075SOL     OW 4512   4.523   6.374   2.804 -0.3498  0.0498  0.6795
 1075SOL    HW1 4513   4.583   6.379   2.730 -0.6232 -1.2604  0.3391
 1075SOL    HW2 4514   4.478   6.459   2.804 -0.5970 -0.0434 -0.8785
 1076SOL     OW 4515   2.876   1.908   0.427  0.3405  0.1651  0.0527
 1076SOL    HW1 4516   2.944   1.842   0.415 -0.0841 -0.2274 -0.2222
 1076SOL    HW2 4517   2.796   1.858   0.446  0.5599  0.6809  2.6858
 1077SOL     OW 4518   0.352   3.820   8.028  0.2512 -0.3796  0.0880
 1077SOL    HW1 4519   0.321   3.799   7.941 -0.8316 -0.3793  0.4662
 1077SOL    HW2 4520   0.448   3.822   8.019  0.1328  2.1002 -1.6811
 1078SOL     OW 4521   3.379   1.812   3.999 -0.8644 -0.1539 -0.2389
 1078SOL    HW1 4522   3.369   1.882   4.063  0.2007  0.4179 -0.6825
 1078SOL    HW2 4523   3.357   1.732   4.047 -0.2550  0.2862  0.7959
 1079SOL     OW 4524   5.751   5.074   4.154  0.3240  0.3570  0.4517
 1079SOL    HW1 4525   5.810   5.146   4.176 -0.8385  2.0459 -1.6605
 1079SOL    HW2 4526   5.666   5.100   4.188 -0.0356 -0.2101  0.0118
 1080SOL     OW 4527   0.635   7.321   3.744 -0.2416 -0.4731  0.1142
 1080SOL    HW1 4528   0.697   7.351   3.810 -1.3290  0.5344  0.7101
 1080SOL    HW2 4529   0.574   7.264   3.791 -0.2392 -0.8241 -0.2998
 1081SOL     OW 4530   7.798   0.367   7.131  0.2230  0.5010 -0.3294
 1081SOL    HW1 4531   7.830   0.312   7.060  0.3941  0.9168 -0.5822
 1081SOL    HW2 4532   7.860   0.440   7.135 -0.9795  1.6047 -1.1862
 1082SOL     OW 4533   1.631   0.820   4.263  0.5653  0.0456  0.4347
 1082SOL    HW1 4534   1.698   0.880   4.228  1.4394 -1.3543 -0.3734
 1082SOL    HW2 4535   1.655   0.808   4.354  0.7038  0.4718  0.4599
 1083SOL     OW 4536   5.166   6.895   2.274  0.2200  0.2820  0.0316
 1083SOL    HW1 4537   5.123   6.969   2.318 -1.8247 -0.4751 -0.5603
 1083SOL    HW2 4538   5.233   6.935   2.219 -0.1492  1.6073  0.4991
 1084SOL     OW 4539   1.891   8.146   6.807 -0.0477 -0.3768 -0.1075
 1084SOL    HW1 4540   1.881   8.241   6.809 -1.0917 -0.4198 -1.6523
 1084SOL    HW2 4541   1.872   8.118   6.897  1.1026  0.9195  0.5761
 1085SOL     OW 4542   0.630   7.845   6.411 -0.2481 -0.1433 -0.2338
 1085SOL    HW1 4543   0.715   7.800   6.402  0.2185  0.2507  1.6691
 1085SOL    HW2 4544   0.567   7.787   6.369  0.9732 -0.3768 -1.8231
 1086SOL     OW 4545   6.091   5.117   4.303 -1.1552 -0.1559 -0.1429
 1086SOL    HW1 4546   6.153   5.189   4.318 -1.0927 -0.7176  2.8963
 1086SOL    HW2 4547   6.008   5.149   4.339 -1.4353 -1.1180  0.0924
 1087SOL     OW 4548   7.602   5.147   7.837  0.0484  0.3644  0.1351
 1087SOL    HW1 4549   7.528   5.190   7.880 -1.1368 -0.9628 -0.4828
 1087SOL    HW2 4550   7.575   5.139   7.746  1.3568  0.6611 -0.2889
 1088SOL     OW 4551   8.479   5.146   3.261 -0.0564  0.5020 -0.0058
 1088SOL    HW1 4552   8.521   5.073   3.217 -1.3799 -0.6094  0.4911
 1088SOL    HW2 4553   8.407   5.171   3.203 -0.7999  0.1062  0.7283
 1089SOL     OW 4554   0.854   2.263   4.221  0.4824  0.5964 -0.1232
 1089SOL    HW1 4555   0.854   2.250   4.126 -0.8414  3.8567 -0.7002
 1089SOL    HW2 4556   0.807   2.187   4.256  0.6021 -0.4491 -2.0941
 1090SOL     OW 4557   4.411   0.420   8.586 -0.4991 -0.0544  0.4504
 1090SOL    HW1 4558   4.385   0.330   8.566 -0.9996  0.2001 -0.0816
 1090SOL    HW2 4559   4.468   0.445   8.513  3.0078 -1.2684  2.5101
 1091SOL     OW 4560   2.538   7.277   7.980 -0.3708 -0.5664  1.2430
 1091SOL    HW1 4561   2.480   7.302   8.051  0.7149  1.4905  1.4867
 1091SOL    HW2 4562   2.621   7.322   7.999  1.0682 -2.7024  0.4735
 1092SOL     OW 4563   1.538   0.437   4.124 -0.6486  0.2979  0.1406
 1092SOL    HW1 4564   1.508   0.528   4.128 -0.0855  0.4452  2.4309
 1092SOL    HW2 4565   1.629   0.444   4.097 -1.0210  0.2718 -1.1829
 1093SOL     OW 4566   5.576   3.274   7.696  0.1480 -0.3689 -0.1404
 1093SOL    HW1 4567   5.614   3.188   7.712  3.0975  0.8986  0.5725
 1093SOL    HW2 4568   5.573   3.282   7.601 -1.2608 -1.6510 -0.2244
 1094SOL     OW 4569   1.021   5.976   4.342 -0.4602 -0.1174  0.6365
 1094SOL    HW1 4570   0.986   5.896   4.304 -0.4279  0.6432 -1.1247
 1094SOL    HW2 4571   0.954   6.006   4.403 -1.6268 -0.1585 -0.5945
 1095SOL     OW 4572   0.826   3.348   0.663  0.3170  0.2405 -0.5965
 1095SOL    HW1 4573   0.871   3.284   0.608 -1.3976 -0.8836 -0.7550
 1095SOL    HW2 4574   0.760   3.297   0.710 -0.5580  1.7632 -0.1182
 1096SOL     OW 4575   1.843   4.193   2.653 -0.6144  0.5411 -0.7052
 1096SOL    HW1 4576   1.844   4.289   2.656  2.2046  0.6299 -1.3544
 1096SOL    HW2 4577   1.865   4.172   2.562 -0.6340 -0.7034 -0.4419
 1097SOL     OW 4578   0.330   6.014   6.180 -0.0786  0.1233  0.1816
 1097SOL    HW1 4579   0.251   6.040   6.227 -1.7096  0.1043 -2.4081
 1097SOL    HW2 4580   0.338   6.077   6.108  2.3015  0.1305  0.3473
 1098SOL     OW 4581   4.657   0.976   0.527  1.0184  0.0900 -0.2187
 1098SOL    HW1 4582   4.613   1.038   0.585  0.4628  0.2264 -0.7745
 1098SOL    HW2 4583   4.610   0.894   0.540  0.7113  0.1889 -0.6685
 1099SOL     OW 4584   3.880   5.365   1.036 -0.1330  0.3097  0.2353
 1099SOL    HW1 4585   3.961   5.414   1.022 -1.1693  1.2032 -4.3120
 1099SOL    HW2 4586   3.837   5.410   1.109  0.9898  3.4809 -0.8708
 1100SOL     OW 4587   3.933   4.367   4.857  0.0994  0.1501  0.0087
 1100SOL    HW1 4588   4.026   4.374   4.836  0.5788 -0.7500  1.6477
 1100SOL    HW2 4589   3.893   4.441   4.813  1.5654  0.4679 -0.8594
 1101SOL     OW 4590   6.951   4.919   3.819 -0.5226 -0.5212  0.0840
 1101SOL    HW1 4591   6.921   4.878   3.901  0.6526 -0.3624  0.6137
 1101SOL    HW2 4592   6.998   4.849   3.773 -0.5333 -0.4080 -0.0994
 1102SOL     OW 4593   4.492   3.138   1.988  0.5956  0.7003  0.7781
 1102SOL    HW1 4594   4.570   3.192   1.993  0.7222  0.5550  0.3994
 1102SOL    HW2 4595   4.423   3.197   1.957  0.8723  0.5066 -0.2294
 1103SOL     OW 4596   0.622   1.282   2.940 -0.1140  0.2803  0.3119
 1103SOL    HW1 4597   0.578   1.222   3.000  0.4064 -1.0951 -0.6177
 1103SOL    HW2 4598   0.710   1.245   2.928  0.6769  1.9446  0.6881
 1104SOL     OW 4599   4.229   3.315   3.629  0.3039 -0.1177 -0.4882
 1104SOL    HW1 4600   4.272   3.397   3.652  0.3175 -1.1099  4.0302
 1104SOL    HW2 4601   4.301   3.255   3.609  0.5320  0.0975 -0.3155
 1105SOL     OW 4602   3.397   2.515   2.281 -0.0489  0.2182 -0.0693
 1105SOL    HW1 4603   3.321   2.573   2.290 -0.0700  0.1782  0.0134
 1105SOL    HW2 4604   3.452   2.557   2.215  0.1376  0.5497  0.2916
 1106SOL     OW 4605   3.452   7.812   3.838  0.7448  0.1259  0.4078
 1106SOL    HW1 4606   3.413   7.725   3.848 -0.4308  0.5693 -0.1473
 1106SOL    HW2 4607   3.416   7.846   3.757 -0.5220  1.9717  1.6599
 1107SOL     OW 4608   2.283   7.426   1.508  0.5236  0.5235 -0.1080
 1107SOL    HW1 4609   2.213   7.361   1.498  1.3722 -0.4936  0.3619
 1107SOL    HW2 4610   2.362   7.374   1.516  1.5718  1.6678 -2.2043
 1108SOL     OW 4611   2.338   2.499   0.139 -0.4644 -0.0423 -0.2424
 1108SOL    HW1 4612   2.367   2.575   0.088  0.7997 -0.5628 -0.3438
 1108SOL    HW2 4613   2.327   2.429   0.074  1.7450 -0.8797  0.1982
 1109SOL     OW 4614   7.928   0.436   5.997  0.8903 -0.4678  0.1671
 1109SOL    HW1 4615   7.930   0.529   5.976  2.9940 -0.0286  1.9456
 1109SOL    HW2 4616   7.967   0.392   5.921  0.9937  0.2125 -0.1723
 1110SOL     OW 4617   6.086   6.473   3.910 -0.3895  0.1092 -0.4620
 1110SOL    HW1 4618   6.058   6.444   3.997 -1.3802  0.3339 -0.6968
 1110SOL    HW2 4619   6.180   6.456   3.909 -0.5551 -0.9894  0.2274
 1111SOL     OW 4620   0.016   0.883   7.590  0.5522 -0.0818  0.5404
 1111SOL    HW1 4621   0.099   0.930   7.600  0.4173  0.1426  0.6093
 1111SOL    HW2 4622  -0.005   0.852   7.678  1.7715 -2.2167  0.1298
 1112SOL     OW 4623   2.188   3.724   7.784 -0.1555  0.3458 -0.2408
 1112SOL    HW1 4624   2.226   3.811   7.784  4.0906 -1.2283  1.8633
 1112SOL    HW2 4625   2.209   3.688   7.698 -0.1715  0.7512 -0.4121
 1113SOL     OW 4626   5.346   3.056   4.753 -0.3016 -0.0985  0.7245
 1113SOL    HW1 4627   5.266   3.008   4.733 -2.4754  3.0021  1.4061
 1113SOL    HW2 4628   5.412   3.016   4.696 -3.1527 -0.3811 -2.7514
 1114SOL     OW 4629   2.684   2.593   8.021 -0.2623  0.5537 -0.1374
 1114SOL    HW1 4630   2.626   2.617   8.093  2.6757  0.4543  2.4675
 1114SOL    HW2 4631   2.710   2.503   8.040  0.9961  0.7131 -0.9704
 1115SOL     OW 4632   3.489   2.711   7.516 -0.1134  0.2403  0.0123
 1115SOL    HW1 4633   3.546   2.636   7.533 -0.9674 -0.4081  0.0635
 1115SOL    HW2 4634   3.427   2.680   7.451 -0.8333  0.7269  0.4480
 1116SOL     OW 4635   5.202   5.092   2.805  0.4043 -0.4041  0.1052
 1116SOL    HW1 4636   5.224   5.002   2.826 -1.2533 -1.0211 -0.5899
 1116SOL    HW2 4637   5.133   5.085   2.738  0.0078  1.3571  0.2749
 1117SOL     OW 4638   3.672   8.689   8.226 -0.1332  0.7646 -0.2347
 1117SOL    HW1 4639   3.639   8.746   8.157 -1.5538  0.8147  0.4712
 1117SOL    HW2 4640   3.733   8.630   8.180 -2.3840 -0.4050 -1.9384
 1118SOL     OW 4641   8.010   1.716   0.711 -0.0489  0.0835 -0.1660
 1118SOL    HW1 4642   8.075   1.759   0.656 -1.1810  2.2164  0.0864
 1118SOL    HW2 4643   7.941   1.688   0.651 -0.0180 -0.0468 -0.1426
 1119SOL     OW 4644   0.671   6.057   4.688  0.2005 -0.3844  0.2431
 1119SOL    HW1 4645   0.700   6.045   4.597 -0.0842  0.0484  0.0872
 1119SOL    HW2 4646   0.597   6.118   4.681  0.1161 -0.4242  0.7575
 1120SOL     OW 4647   0.477   1.165   7.831 -0.0724  0.7632  0.4035
 1120SOL    HW1 4648   0.489   1.225   7.904  0.7300 -1.3786  2.1495
 1120SOL    HW2 4649   0.502   1.079   7.866 -0.7724 -0.5477 -2.0638
 1121SOL     OW 4650   7.988   1.347   0.798  0.2371  0.1402 -0.1773
 1121SOL    HW1 4651   8.067   1.388   0.834  0.4005 -0.5402  0.2560
 1121SOL    HW2 4652   7.977   1.386   0.712  0.5900  0.8314  0.0867
 1122SOL     OW 4653   7.165   0.830   1.362  0.1650  0.1472  0.3378
 1122SOL    HW1 4654   7.253   0.809   1.394  0.8175  1.2365 -0.6937
 1122SOL    HW2 4655   7.165   0.925   1.349 -1.1565  0.1685  0.2822
 1123SOL     OW 4656   6.576   5.690   3.824 -0.0928 -0.6040  0.3035
 1123SOL    HW1 4657   6.530   5.749   3.884  0.6975  0.3422  0.0052
 1123SOL    HW2 4658   6.508   5.663   3.762 -0.0711  1.8336 -0.9390
 1124SOL     OW 4659   8.238   4.023   4.400  0.3214 -0.2516 -0.2320
 1124SOL    HW1 4660   8.222   4.115   4.376 -0.0089 -0.6424 -1.5633
 1124SOL    HW2 4661   8.151   3.988   4.418  0.3679 -0.5053 -0.4931
 1125SOL     OW 4662   3.347   5.903   6.792 -0.2884  0.2542  0.1174
 1125SOL    HW1 4663   3.369   5.996   6.800  0.1536  0.3274 -1.5026
 1125SOL    HW2 4664   3.271   5.902   6.734 -2.2525 -0.2524  2.5496
 1126SOL     OW 4665   2.827   8.409   6.066  0.5036 -0.6456  0.1233
 1126SOL    HW1 4666   2.902   8.398   6.007  0.2132 -1.3695 -0.1232
 1126SOL    HW2 4667   2.770   8.472   6.022  0.0564 -1.5435 -0.6221
 1127SOL     OW 4668   2.540   2.650   5.227 -0.4334  0.1848  0.2972
 1127SOL    HW1 4669   2.624   2.603   5.225 -0.5199  0.0152  0.5489
 1127SOL    HW2 4670   2.557   2.732   5.181 -0.2503 -0.0502 -0.0537
 1128SOL     OW 4671   4.132   4.988   5.356 -0.0343  0.0227  0.0366
 1128SOL    HW1 4672   4.053   5.040   5.374 -0.0634 -0.1772  0.5077
 1128SOL    HW2 4673   4.186   5.044   5.301  1.5320  2.0604  3.3300
 1129SOL     OW 4674   6.930   6.044   8.450 -0.1511 -0.3190  0.1395
 1129SOL    HW1 4675   6.940   5.961   8.404 -3.5752 -0.1477 -1.1872
 1129SOL    HW2 4676   6.889   6.020   8.533 -1.0786  0.0102 -0.2149
 1130SOL     OW 4677   3.059   8.234   4.444  0.0173  0.4620 -0.2622
 1130SOL    HW1 4678   3.128   8.175   4.414  0.8689  1.2597  0.0670
 1130SOL    HW2 4679   3.048   8.211   4.537 -0.6065 -0.0731 -0.4573
 1131SOL     OW 4680   5.011   5.715   1.358  0.1839 -0.1141  0.1703
 1131SOL    HW1 4681   5.048   5.728   1.271 -2.0974  2.1341 -0.6013
 1131SOL    HW2 4682   5.057   5.778   1.413  0.0581  0.0896  0.0458
 1132SOL     OW 4683   0.184   6.445   4.825 -0.2534  0.2454  0.6354
 1132SOL    HW1 4684   0.142   6.384   4.764 -0.3109  0.5237  0.3930
 1132SOL    HW2 4685   0.228   6.388   4.888  0.3985 -0.0543 -0.0644
 1133SOL     OW 4686   2.036   2.074   4.465 -0.4352 -0.7634 -0.3109
 1133SOL    HW1 4687   2.072   1.992   4.431 -0.9678 -1.0634 -0.1557
 1133SOL    HW2 4688   1.959   2.091   4.412  1.2690  1.2169 -2.3619
 1134SOL     OW 4689   8.191   1.882   7.879 -0.3215  0.1239  0.4030
 1134SOL    HW1 4690   8.169   1.865   7.971 -0.4990 -2.1237 -0.0023
 1134SOL    HW2 4691   8.286   1.896   7.881 -0.5593  1.9157  1.1225
 1135SOL     OW 4692   6.601   5.275   4.507 -0.2196 -0.4181  0.5245
 1135SOL    HW1 4693   6.514   5.312   4.489 -0.1284 -0.4464 -0.0122
 1135SOL    HW2 4694   6.596   5.186   4.473  0.5739  0.1400 -1.2155
 1136SOL     OW 4695   4.909   8.155   6.676 -0.2084  0.2020  0.1782
 1136SOL    HW1 4696   4.952   8.071   6.662  1.4096  0.5609  2.3797
 1136SOL    HW2 4697   4.980   8.217   6.688 -1.3539  2.1290 -2.2011
 1137SOL     OW 4698   3.887   4.615   2.299 -0.1007 -0.5103 -0.8659
 1137SOL    HW1 4699   3.846   4.584   2.218 -2.7257  0.7984 -0.1588
 1137SOL    HW2 4700   3.847   4.561   2.368 -1.8503  1.6759 -0.0210
 1138SOL     OW 4701   0.957   5.446   2.225  0.7773 -0.3981 -0.7755
 1138SOL    HW1 4702   0.908   5.508   2.171 -0.2555 -0.5506 -0.0394
 1138SOL    HW2 4703   0.891   5.406   2.281  1.8914  0.1949  1.0267
 1139SOL     OW 4704   0.998   4.998   5.809  0.0874 -0.0054 -0.3842
 1139SOL    HW1 4705   1.079   4.967   5.850  0.1191 -0.7733 -1.0008
 1139SOL    HW2 4706   0.958   4.919   5.771 -0.6007  0.4727 -0.6814
 1140SOL     OW 4707   6.255   7.505   3.519  0.6637  0.2921  0.0694
 1140SOL    HW1 4708   6.244   7.483   3.426  0.2393 -0.0242  0.1967
 1140SOL    HW2 4709   6.310   7.436   3.554  0.4153  0.1445  0.1677
 1141SOL     OW 4710   4.860   6.695   1.526  0.1003 -0.1978  0.0594
 1141SOL    HW1 4711   4.944   6.704   1.570  0.3309 -1.1548 -0.1567
 1141SOL    HW2 4712   4.795   6.706   1.595  0.4184 -0.1566  0.3515
 1142SOL     OW 4713   7.926   7.874   7.027 -0.1684  0.0882 -0.1282
 1142SOL    HW1 4714   7.941   7.932   7.102 -0.2238 -0.0028 -0.0473
 1142SOL    HW2 4715   7.897   7.933   6.957  0.0614  0.1970 -0.1330
 1143SOL     OW 4716   4.327   6.173   4.913  0.2163  0.3894  0.8708
 1143SOL    HW1 4717   4.351   6.178   5.006 -0.4932 -0.4687  1.1129
 1143SOL    HW2 4718   4.411   6.177   4.867  0.5703  0.9389  1.5357
 1144SOL     OW 4719   2.510   2.427   8.186 -0.4474 -0.0520  0.6593
 1144SOL    HW1 4720   2.438   2.488   8.167 -0.5167 -0.0418  0.9577
 1144SOL    HW2 4721   2.479   2.343   8.152  0.0886  0.2829 -0.7389
 1145SOL     OW 4722   0.479   8.626   1.031 -0.0352 -0.0114 -0.0913
 1145SOL    HW1 4723   0.448   8.559   0.970 -0.6227 -0.9845  1.2048
 1145SOL    HW2 4724   0.572   8.637   1.011  0.2519 -1.7676  0.1196
 1146SOL     OW 4725   6.253   0.963   7.849  0.0386  0.0572  0.1346
 1146SOL    HW1 4726   6.226   1.044   7.892 -2.7874 -1.0358  0.6412
 1146SOL    HW2 4727   6.255   0.985   7.756 -2.1198  0.4433  0.1247
 1147SOL     OW 4728   2.352   6.694   3.343  0.0350 -0.1855 -0.1129
 1147SOL    HW1 4729   2.357   6.693   3.247  0.5379  0.8371 -0.1088
 1147SOL    HW2 4730   2.443   6.701   3.372 -0.1217 -0.3904  0.4410
 1148SOL     OW 4731   8.525   6.761   8.007 -0.6292 -0.5224 -0.1299
 1148SOL    HW1 4732   8.566   6.738   7.923  0.5874  1.0158  0.0013
 1148SOL    HW2 4733   8.447   6.706   8.011 -1.0025 -0.2810 -2.5086
 1149SOL     OW 4734   4.946   1.115   6.642 -0.8782  0.3361 -0.0207
 1149SOL    HW1 4735   4.930   1.045   6.578 -0.8886  0.2209  0.1064
 1149SOL    HW2 4736   5.022   1.162   6.608 -0.7900  0.1818 -0.0407
 1150SOL     OW 4737   7.259   4.763   8.147  0.4888 -0.6354  0.1821
 1150SOL    HW1 4738   7.289   4.801   8.064 -1.4202  0.6492  0.0152
 1150SOL    HW2 4739   7.260   4.669   8.132 -0.9173 -0.4062 -1.7581
 1151SOL     OW 4740   4.267   4.581   1.713 -0.1415 -0.3676  0.5455
 1151SOL    HW1 4741   4.300   4.495   1.736 -0.9413 -0.4573  1.4373
 1151SOL    HW2 4742   4.302   4.640   1.780 -0.7755 -0.2571  0.7862
 1152SOL     OW 4743   4.537   7.624   0.232  0.2024  0.1759 -0.3072
 1152SOL    HW1 4744   4.492   7.645   0.314  1.2230  0.3351  0.2233
 1152SOL    HW2 4745   4.586   7.544   0.251  0.0884 -0.0362 -0.8966
 1153SOL     OW 4746   2.088   8.090   2.227  0.2788 -0.3788  0.4004
 1153SOL    HW1 4747   2.099   8.161   2.290 -1.4611  0.2414  0.0502
 1153SOL    HW2 4748   2.059   8.134   2.147  0.1937 -1.3801 -0.1300
 1154SOL     OW 4749   1.801   3.203   3.245 -0.5408  0.0339 -0.5774
 1154SOL    HW1 4750   1.826   3.293   3.225 -1.1940  0.0925 -1.1383
 1154SOL    HW2 4751   1.707   3.207   3.261 -0.6007 -0.5787 -0.7535
 1155SOL     OW 4752   1.283   2.978   8.196 -0.1317  0.0379 -0.1587
 1155SOL    HW1 4753   1.191   2.999   8.213  0.1733 -0.7190  2.9522
 1155SOL    HW2 4754   1.281   2.889   8.162 -0.5230  0.0293 -0.1231
 1156SOL     OW 4755   2.383   7.666   1.366  0.6218  0.0095  0.0266
 1156SOL    HW1 4756   2.359   7.574   1.358 -1.3161  0.4389  0.3374
 1156SOL    HW2 4757   2.323   7.701   1.433 -0.8103  2.1568 -2.1801
 1157SOL     OW 4758   2.863   7.815   6.166 -0.3054  0.2523  0.2876
 1157SOL    HW1 4759   2.912   7.897   6.175 -1.3976  0.8513  0.9961
 1157SOL    HW2 4760   2.832   7.815   6.076  0.6602  0.0433 -0.0593
 1158SOL     OW 4761   1.194   5.339   0.981  0.2478  0.3546 -0.6067
 1158SOL    HW1 4762   1.219   5.350   1.073  1.3319  1.4294 -1.0087
 1158SOL    HW2 4763   1.174   5.428   0.951 -2.0450 -0.1935 -0.9099
 1159SOL     OW 4764   2.893   5.252   5.349 -0.6219 -0.1514 -0.3566
 1159SOL    HW1 4765   2.983   5.283   5.343 -1.1084  1.7060  0.9713
 1159SOL    HW2 4766   2.878   5.204   5.268  0.7580  1.6739 -1.7555
 1160SOL     OW 4767   2.060   4.194   4.236 -0.3256  0.2756 -0.3011
 1160SOL    HW1 4768   2.018   4.137   4.301 -1.5921  1.9719  0.4502
 1160SOL    HW2 4769   1.990   4.218   4.176 -0.0534  1.7634 -0.0605
 1161SOL     OW 4770   0.125   6.612   5.214 -0.4380 -0.4621 -0.0091
 1161SOL    HW1 4771   0.213   6.599   5.177 -1.3136  0.6491 -2.7564
 1161SOL    HW2 4772   0.099   6.525   5.244  1.6848 -0.7546  1.1733
 1162SOL     OW 4773   1.449   6.546   3.647 -0.4643  0.4494  0.7678
 1162SOL    HW1 4774   1.378   6.482   3.655 -1.0880  0.8424 -1.1093
 1162SOL    HW2 4775   1.410   6.629   3.674 -0.3942  0.4782  0.7794
 1163SOL     OW 4776   6.407   4.516   1.115 -0.0720  0.1518  0.4168
 1163SOL    HW1 4777   6.334   4.555   1.067 -1.3380  0.0074  2.1216
 1163SOL    HW2 4778   6.466   4.590   1.133 -1.0664  0.7915  1.1766
 1164SOL     OW 4779   4.293   4.181   8.634  0.0662  0.2421 -0.3307
 1164SOL    HW1 4780   4.320   4.096   8.601  0.7610  0.1886  0.3407
 1164SOL    HW2 4781   4.213   4.164   8.683  1.0654 -0.3382  1.1907
 1165SOL     OW 4782   4.747   5.048   3.255  0.1909  0.4135 -0.7510
 1165SOL    HW1 4783   4.836   5.059   3.224  0.3454 -1.1867 -0.9221
 1165SOL    HW2 4784   4.697   5.025   3.177  0.2267 -1.7449 -0.1794
 1166SOL     OW 4785   6.639   2.620   7.737  0.4954 -0.1100  0.7661
 1166SOL    HW1 4786   6.663   2.689   7.800 -0.2884 -0.3851  1.3893
 1166SOL    HW2 4787   6.572   2.661   7.682  1.3482  0.2045 -0.0546
 1167SOL     OW 4788   7.269   3.666   0.025  0.0583  0.5487  0.6165
 1167SOL    HW1 4789   7.251   3.734   0.090 -0.6591  1.8072 -0.8482
 1167SOL    HW2 4790   7.339   3.703  -0.029 -0.7307  0.3909 -0.5417
 1168SOL     OW 4791   6.960   3.386   4.759  0.0975  0.1702  0.1304
 1168SOL    HW1 4792   6.888   3.342   4.805 -0.3778  0.9379  0.1424
 1168SOL    HW2 4793   6.917   3.432   4.687  0.7250 -0.2535 -0.5182
 1169SOL     OW 4794   1.013   3.108   0.564  0.5768 -0.2155 -0.4430
 1169SOL    HW1 4795   0.945   3.047   0.536 -0.7197  0.6549  0.6124
 1169SOL    HW2 4796   1.045   3.148   0.483 -0.2562 -0.5807 -0.9669
 1170SOL     OW 4797   5.417   2.965   7.298 -0.0268 -0.3721 -0.0127
 1170SOL    HW1 4798   5.382   3.036   7.351  1.9189  0.0252  0.7933
 1170SOL    HW2 4799   5.389   2.885   7.345  0.4122 -0.0574  0.8088
 1171SOL     OW 4800   5.687   3.848   2.740  0.0086  0.1225 -0.8795
 1171SOL    HW1 4801   5.716   3.913   2.804  0.4727  0.8491 -1.7935
 1171SOL    HW2 4802   5.739   3.770   2.758  1.3562  0.8690 -1.4180
 1172SOL     OW 4803   6.066   0.286   5.611  0.4239 -0.5666  0.1351
 1172SOL    HW1 4804   6.099   0.311   5.525  1.5881  1.8487  1.2088
 1172SOL    HW2 4805   6.077   0.364   5.665 -1.9025 -1.4475  2.0571
 1173SOL     OW 4806   5.001   8.121   4.969 -0.3293 -0.4185  0.3730
 1173SOL    HW1 4807   4.979   8.214   4.974 -0.8137 -0.4771 -0.3502
 1173SOL    HW2 4808   4.925   8.082   4.926 -0.1612 -1.1601  0.7470
 1174SOL     OW 4809   2.086   3.667   5.682  0.2354  0.2247  0.0958
 1174SOL    HW1 4810   2.044   3.597   5.733  0.3464 -1.2576 -1.7334
 1174SOL    HW2 4811   2.179   3.644   5.684  0.3989  0.9004  0.3007
 1175SOL     OW 4812   7.932   7.229   3.114 -0.4000  0.0632 -0.6059
 1175SOL    HW1 4813   7.888   7.231   3.030 -1.6802 -0.2486  0.0286
 1175SOL    HW2 4814   7.975   7.143   3.117 -1.4615 -0.4777 -0.4148
 1176SOL     OW 4815   0.463   5.063   8.216 -0.2145 -0.6781 -0.0143
 1176SOL    HW1 4816   0.508   5.147   8.211 -0.2856 -0.6038  0.5393
 1176SOL    HW2 4817   0.377   5.084   8.251  0.1617 -1.1226  1.2098
 1177SOL     OW 4818   0.649   0.435   7.243 -0.2383 -0.3731 -0.3759
 1177SOL    HW1 4819   0.629   0.412   7.153 -0.8348  1.7176 -0.8364
 1177SOL    HW2 4820   0.580   0.392   7.294  0.2580 -1.7875 -0.8572
 1178SOL     OW 4821   5.532   7.956   7.406 -0.0296 -0.0725 -0.1004
 1178SOL    HW1 4822   5.482   8.002   7.474 -0.3362 -0.2672 -0.1922
 1178SOL    HW2 4823   5.467   7.901   7.362  0.3257 -0.5760 -0.0057
 1179SOL     OW 4824   3.654   6.649   8.224 -0.2572  0.0154 -0.2334
 1179SOL    HW1 4825   3.559   6.660   8.235 -0.5082 -1.0109 -1.1787
 1179SOL    HW2 4826   3.693   6.708   8.289 -1.5455 -0.1417  0.7136
 1180SOL     OW 4827   6.926   6.197   6.309 -0.5361  0.1312  0.2127
 1180SOL    HW1 4828   6.954   6.227   6.395  0.9430  0.2895 -0.3003
 1180SOL    HW2 4829   6.959   6.107   6.303  1.7345  0.9607 -1.1547
 1181SOL     OW 4830   8.546   3.568   8.523 -0.2331 -0.3303  0.0163
 1181SOL    HW1 4831   8.519   3.502   8.459  0.1573 -0.1391 -0.3491
 1181SOL    HW2 4832   8.507   3.539   8.605 -0.3361 -0.8403 -0.2107
 1182SOL     OW 4833   2.727   3.744   3.078 -0.1743 -0.4336  0.6949
 1182SOL    HW1 4834   2.713   3.690   3.156  1.2740 -1.4293  0.3031
 1182SOL    HW2 4835   2.819   3.730   3.056 -0.4413  0.2194 -0.9169
 1183SOL     OW 4836   0.063   6.377   5.357 -0.4452  0.1685  0.2586
 1183SOL    HW1 4837   0.085   6.334   5.440 -0.7093 -1.1406 -0.3178
 1183SOL    HW2 4838  -0.033   6.374   5.353 -0.3978 -0.6038 -0.5008
 1184SOL     OW 4839   1.340   3.218   4.117  0.0447  0.1611  0.2247
 1184SOL    HW1 4840   1.327   3.240   4.209  2.1642  0.3354  0.5086
 1184SOL    HW2 4841   1.425   3.174   4.113  0.0290  0.1983 -1.6552
 1185SOL     OW 4842   3.126   1.066   2.186  0.4196  0.3105  0.0680
 1185SOL    HW1 4843   3.146   1.078   2.093 -1.3107  2.1028 -0.1374
 1185SOL    HW2 4844   3.206   1.094   2.231  0.0534  3.0315 -0.8153
 1186SOL     OW 4845   6.098   0.294   4.557  0.3016 -0.4558  0.3148
 1186SOL    HW1 4846   6.167   0.293   4.491 -1.7157  1.2368 -2.0551
 1186SOL    HW2 4847   6.108   0.379   4.601 -0.4844  0.0301 -0.3953
 1187SOL     OW 4848   4.552   4.298   8.325 -0.1170  0.0332  0.0381
 1187SOL    HW1 4849   4.499   4.243   8.268 -0.7295  0.5128  0.1391
 1187SOL    HW2 4850   4.626   4.242   8.351 -0.8154 -0.7926  0.2776
 1188SOL     OW 4851   0.509   4.358   1.311  0.0275  0.3452  0.5587
 1188SOL    HW1 4852   0.491   4.310   1.230  1.4481  1.3672 -0.4101
 1188SOL    HW2 4853   0.561   4.298   1.363  1.5716  0.6875 -0.5368
 1189SOL     OW 4854   2.943   3.743   2.768 -0.5519 -0.2680 -0.3977
 1189SOL    HW1 4855   2.989   3.758   2.851  0.0655  0.0304 -0.7869
 1189SOL    HW2 4856   2.990   3.671   2.727 -1.7572 -1.4049  0.1591
 1190SOL     OW 4857   6.888   5.786   8.351 -0.5478  0.5582  0.6224
 1190SOL    HW1 4858   6.854   5.770   8.263 -1.0906  0.9951  0.7457
 1190SOL    HW2 4859   6.813   5.770   8.409 -0.2503  0.4817  0.9896
 1191SOL     OW 4860   7.138   6.686   1.823  0.3727  0.1850  0.8384
 1191SOL    HW1 4861   7.043   6.687   1.823  0.3444  2.1933  0.6167
 1191SOL    HW2 4862   7.162   6.763   1.875  1.9115 -1.3504  2.5689
 1192SOL     OW 4863   1.638   3.328   1.596  0.4238 -0.4160 -1.0015
 1192SOL    HW1 4864   1.732   3.332   1.613  0.1679  0.5744  0.2926
 1192SOL    HW2 4865   1.624   3.389   1.524  0.4031  1.7306  0.7262
 1193SOL     OW 4866   7.106   7.098   4.558 -0.7890 -0.1704  0.0014
 1193SOL    HW1 4867   7.058   7.130   4.635 -0.9430 -1.2572  0.3675
 1193SOL    HW2 4868   7.085   7.005   4.553  2.5956 -1.1404  1.1996
 1194SOL     OW 4869   1.456   3.244   2.245 -0.0869 -0.2672 -0.0519
 1194SOL    HW1 4870   1.474   3.182   2.316  2.3075  0.7059  0.3046
 1194SOL    HW2 4871   1.443   3.328   2.290 -2.6668 -0.3006 -0.5672
 1195SOL     OW 4872   1.855   2.537   2.161  0.5404 -0.1881  0.1597
 1195SOL    HW1 4873   1.777   2.485   2.140  0.6716 -0.8157  1.1741
 1195SOL    HW2 4874   1.908   2.532   2.082  0.6204 -1.7596  0.2814
 1196SOL     OW 4875   5.006   0.797   8.117 -0.2426  0.5240 -0.0239
 1196SOL    HW1 4876   5.045   0.884   8.109 -0.3438  0.4896 -0.9741
 1196SOL    HW2 4877   5.025   0.754   8.034  1.5144 -1.0813  1.1273
 1197SOL     OW 4878   0.126   3.215   4.678  0.0245  0.1602  0.6521
 1197SOL    HW1 4879   0.143   3.257   4.594  0.3733 -1.4043 -0.1054
 1197SOL    HW2 4880   0.057   3.151   4.660  0.1590 -0.2509  1.5192
 1198SOL     OW 4881   0.147   2.966   3.827  1.0693 -0.3879  0.3349
 1198SOL    HW1 4882   0.106   2.928   3.906  0.2473  0.6829  0.4463
 1198SOL    HW2 4883   0.090   2.937   3.755  0.6037  0.3780  0.3881
 1199SOL     OW 4884   1.016   5.573   6.309  0.1603  0.3488 -0.0874
 1199SOL    HW1 4885   1.086   5.575   6.374 -1.9694  1.1713  2.3423
 1199SOL    HW2 4886   1.058   5.603   6.228  2.7010  0.2942  1.1041
 1200SOL     OW 4887   0.325   7.570   3.101 -0.2632  0.4885 -0.3483
 1200SOL    HW1 4888   0.269   7.498   3.131 -0.0515 -0.0562 -1.2180
 1200SOL    HW2 4889   0.385   7.586   3.173 -1.1199  0.6462  0.3496
 1201SOL     OW 4890   5.209   4.369   2.181  0.3346 -0.8601 -0.1621
 1201SOL    HW1 4891   5.278   4.311   2.149  0.7478  0.1543 -1.1771
 1201SOL    HW2 4892   5.224   4.452   2.135 -0.7572 -0.2090  0.6061
 1202SOL     OW 4893   3.527   5.400   8.373 -0.4756 -0.4230  0.0485
 1202SOL    HW1 4894   3.536   5.456   8.295  1.0396 -0.2985  0.2842
 1202SOL    HW2 4895   3.465   5.447   8.429 -0.0184  0.5162 -0.2132
 1203SOL     OW 4896   6.155   7.104   7.677  0.1482  0.4026 -0.6478
 1203SOL    HW1 4897   6.088   7.165   7.709  1.2967  1.0132  0.6812
 1203SOL    HW2 4898   6.174   7.134   7.588 -0.6771  0.7737 -0.7082
 1204SOL     OW 4899   6.824   1.211   5.813 -0.3946 -0.5684  0.1750
 1204SOL    HW1 4900   6.755   1.277   5.820 -0.4389 -0.5960 -0.0141
 1204SOL    HW2 4901   6.777   1.128   5.804 -0.3335 -0.5429 -0.3671
 1205SOL     OW 4902   0.717   3.522   6.561 -0.0331  0.5108  0.2466
 1205SOL    HW1 4903   0.809   3.514   6.535 -0.9854 -2.0472 -3.2333
 1205SOL    HW2 4904   0.693   3.434   6.589 -1.7135  0.8102 -0.1721
 1206SOL     OW 4905   3.425   4.376   7.768 -0.4713 -0.7144 -0.1774
 1206SOL    HW1 4906   3.453   4.286   7.783 -0.5419 -0.5080  1.4095
 1206SOL    HW2 4907   3.493   4.429   7.810 -1.8579 -0.1320  1.4268
 1207SOL     OW 4908   2.980   3.039   1.802 -0.2870 -0.1954  0.3258
 1207SOL    HW1 4909   3.046   3.063   1.737  0.1073 -3.1284 -0.4986
 1207SOL    HW2 4910   3.012   2.957   1.839 -1.5173  0.3817  2.8473
 1208SOL     OW 4911   2.120   7.670   5.818 -0.1228  0.1432  0.4397
 1208SOL    HW1 4912   2.065   7.682   5.741 -0.7420 -2.3127  0.4025
 1208SOL    HW2 4913   2.183   7.742   5.815 -1.4189  1.2698 -1.1953
 1209SOL     OW 4914   0.465   0.200   0.542  0.4501  0.2201  0.4013
 1209SOL    HW1 4915   0.453   0.115   0.499 -0.8725  0.1747  0.8239
 1209SOL    HW2 4916   0.387   0.211   0.596  2.2172  0.1014  3.1607
 1210SOL     OW 4917   7.679   4.312   2.815  0.1265 -0.0516 -0.0758
 1210SOL    HW1 4918   7.612   4.377   2.796  0.0866 -0.2040 -0.4456
 1210SOL    HW2 4919   7.704   4.276   2.730  0.4266 -0.2457  0.0903
 1211SOL     OW 4920   0.591   8.106   4.985 -0.2720  0.1822  0.5697
 1211SOL    HW1 4921   0.674   8.092   4.940  0.3334 -3.0928  2.3976
 1211SOL    HW2 4922   0.609   8.174   5.050  1.5072 -1.4754  1.9206
 1212SOL     OW 4923   2.796   8.568   6.961  0.3555 -0.0500  0.4055
 1212SOL    HW1 4924   2.733   8.511   6.917  1.5993 -2.2127  1.2262
 1212SOL    HW2 4925   2.857   8.595   6.893 -0.4111  0.5716 -0.0472
 1213SOL     OW 4926   5.011   7.088   8.502 -0.2802  0.4180 -0.2296
 1213SOL    HW1 4927   4.964   7.170   8.489  1.4302  1.4346 -0.2279
 1213SOL    HW2 4928   5.013   7.076   8.597 -1.8151 -0.4502 -0.2642
 1214SOL     OW 4929   8.588   6.167   6.246 -0.0474  0.3237 -0.1923
 1214SOL    HW1 4930   8.561   6.137   6.159 -0.1193 -1.0002  0.2599
 1214SOL    HW2 4931   8.508   6.201   6.285 -0.5795 -1.2827  0.2112
 1215SOL     OW 4932   2.596   3.554   1.002 -0.1489 -0.3574 -0.2713
 1215SOL    HW1 4933   2.525   3.592   0.951 -1.2893 -1.5475  0.3557
 1215SOL    HW2 4934   2.654   3.628   1.023 -1.2439  0.6500 -0.7092
 1216SOL     OW 4935   8.481   2.201   7.791 -0.0589 -0.2479 -0.4847
 1216SOL    HW1 4936   8.446   2.277   7.836 -0.7310 -1.6145  1.4582
 1216SOL    HW2 4937   8.513   2.234   7.707 -0.8956  2.0211  0.0376
 1217SOL     OW 4938   6.042   4.451   7.217 -0.6963 -0.0038  0.7218
 1217SOL    HW1 4939   6.006   4.515   7.278 -2.3653 -0.5290  0.3353
 1217SOL    HW2 4940   6.038   4.368   7.265 -0.2444 -0.1134  0.5704
 1218SOL     OW 4941   1.817   3.476   3.508 -0.1330 -0.4090  0.4318
 1218SOL    HW1 4942   1.768   3.535   3.450  0.2473  0.7801  1.2713
 1218SOL    HW2 4943   1.762   3.398   3.515 -1.5008  0.5374  0.6529
 1219SOL     OW 4944   5.800   4.019   4.361 -0.0398 -0.2408  0.2441
 1219SOL    HW1 4945   5.767   3.953   4.300 -0.2407 -0.0698  0.1642
 1219SOL    HW2 4946   5.821   3.970   4.440  0.7655 -0.5520 -0.1505
 1220SOL     OW 4947   5.763   6.950   2.317 -0.1684 -0.2391 -0.6329
 1220SOL    HW1 4948   5.840   6.998   2.345 -0.1493 -0.4731 -0.2922
 1220SOL    HW2 4949   5.792   6.859   2.308 -0.4559 -0.3677 -0.2878
 1221SOL     OW 4950   6.400   1.597   0.522  0.4355 -0.4258  0.0292
 1221SOL    HW1 4951   6.438   1.542   0.591 -0.2993 -1.2508 -0.2075
 1221SOL    HW2 4952   6.358   1.535   0.463 -1.0871  0.4321  0.1691
 1222SOL     OW 4953   4.991   3.238   4.191 -0.0562  0.4593 -0.2933
 1222SOL    HW1 4954   5.076   3.282   4.195  0.3148 -0.1374 -1.2333
 1222SOL    HW2 4955   4.945   3.267   4.269  0.6146  1.6100 -0.3090
 1223SOL     OW 4956   5.087   8.340   5.426  0.8221  0.4168 -0.1477
 1223SOL    HW1 4957   5.006   8.314   5.469  1.4491  1.4043  1.7384
 1223SOL    HW2 4958   5.106   8.427   5.460  2.9181  0.0199 -0.1511
 1224SOL     OW 4959   2.710   5.299   3.342  0.0329  0.3163  0.6118
 1224SOL    HW1 4960   2.633   5.249   3.316  0.5537 -0.6964  0.9384
 1224SOL    HW2 4961   2.696   5.319   3.434 -0.4095  1.2361  0.3530
 1225SOL     OW 4962   2.005   5.227   4.369  0.0866 -0.2147  0.4210
 1225SOL    HW1 4963   2.036   5.230   4.278 -0.0044 -1.6699  0.3269
 1225SOL    HW2 4964   2.033   5.311   4.406  3.3691 -1.0316  0.0936
 1226SOL     OW 4965   6.139   2.561   8.650  0.3960 -0.4081 -0.0879
 1226SOL    HW1 4966   6.143   2.580   8.744  1.8155 -0.4386 -0.1161
 1226SOL    HW2 4967   6.138   2.466   8.644  0.8620 -0.4189 -0.0947
 1227SOL     OW 4968   8.285   3.546   2.367 -0.0682 -0.2904  0.0153
 1227SOL    HW1 4969   8.347   3.473   2.360 -0.2139 -0.4415  0.2804
 1227SOL    HW2 4970   8.252   3.558   2.278  1.0043  0.3767 -0.3024
 1228SOL     OW 4971   3.808   5.127   6.601  0.0472 -0.1407 -0.0580
 1228SOL    HW1 4972   3.882   5.101   6.656 -0.5263  1.5111  1.6135
 1228SOL    HW2 4973   3.751   5.049   6.599  0.6005 -0.5884  0.8168
 1229SOL     OW 4974   5.490   8.118   1.517  0.0939 -0.3908 -0.2161
 1229SOL    HW1 4975   5.453   8.135   1.430 -0.7074 -0.7717  0.0437
 1229SOL    HW2 4976   5.451   8.185   1.573  0.6313 -0.1291 -0.1435
 1230SOL     OW 4977   6.622   1.785   5.892  0.1742 -0.6162  0.0560
 1230SOL    HW1 4978   6.543   1.740   5.921 -0.2325  0.1920  0.2468
 1230SOL    HW2 4979   6.596   1.877   5.886  1.3790 -0.1645  1.1957
 1231SOL     OW 4980   8.674   4.500   4.809 -0.3676 -0.5391  0.1225
 1231SOL    HW1 4981   8.658   4.420   4.759 -0.7872 -0.5483  0.2675
 1231SOL    HW2 4982   8.745   4.477   4.869 -0.7969 -0.9525  0.4890
 1232SOL     OW 4983   7.501   3.189   7.623 -0.3988 -0.2505 -0.4886
 1232SOL    HW1 4984   7.548   3.187   7.707 -0.8359 -1.6023 -0.2610
 1232SOL    HW2 4985   7.520   3.105   7.583  0.3610  0.6424 -2.0926
 1233SOL     OW 4986   7.755   5.926   8.339  0.7935  0.1050  0.1467
 1233SOL    HW1 4987   7.765   5.842   8.383  0.3818 -1.5746 -2.7156
 1233SOL    HW2 4988   7.660   5.942   8.340  0.8541  0.4565  0.5114
 1234SOL     OW 4989   2.570   7.630   7.437 -0.3021  0.8331 -0.4310
 1234SOL    HW1 4990   2.481   7.665   7.428 -0.9612 -0.8808 -1.0642
 1234SOL    HW2 4991   2.574   7.558   7.374  0.9910 -0.1640  0.7055
 1235SOL     OW 4992   1.923   1.962   2.762  0.2247 -0.2760 -0.3505
 1235SOL    HW1 4993   1.842   2.009   2.738 -0.9756 -1.7106  0.7348
 1235SOL    HW2 4994   1.941   1.905   2.687  2.1793  2.3487 -2.0735
 1236SOL     OW 4995   0.294   6.107   7.887  0.0449 -0.2975 -0.0692
 1236SOL    HW1 4996   0.232   6.129   7.817  0.7613 -0.4011 -0.7555
 1236SOL    HW2 4997   0.260   6.025   7.924 -1.0219  0.3992  0.5519
 1237SOL     OW 4998   7.364   4.504   5.174 -0.1250 -0.3791 -0.7761
 1237SOL    HW1 4999   7.308   4.580   5.185 -0.3353 -0.5013 -1.0031
 1237SOL    HW2 5000   7.450   4.534   5.203 -0.2803 -0.1602 -0.5283
 1238SOL     OW 5001   2.096   0.406   5.760  0.4409  0.0538  0.2184
 1238SOL    HW1 5002   2.126   0.364   5.679 -0.5862 -1.6914  0.6988
 1238SOL    HW2 5003   2.037   0.475   5.730  1.6314  0.7641 -0.5677
 1239SOL     OW 5004   1.158   1.767   4.987 -0.0313  0.7492 -0.4331
 1239SOL    HW1 5005   1.083   1.761   5.047  0.7051 -0.3978  0.4331
 1239SOL    HW2 5006   1.127   1.727   4.906  0.2610 -1.8581  0.6313
 1240SOL     OW 5007   4.641   5.092   4.609 -0.1958  0.7614  0.0681
 1240SOL    HW1 5008   4.651   5.096   4.705  2.9386 -0.8216 -0.0588
 1240SOL    HW2 5009   4.609   5.003   4.592 -0.2352  0.8597 -0.3799
 1241SOL     OW 5010   1.347   3.180   4.653 -0.5145  0.1738 -0.3280
 1241SOL    HW1 5011   1.353   3.255   4.712  0.9392 -0.4353  0.3263
 1241SOL    HW2 5012   1.253   3.168   4.639 -0.7590  2.4109 -0.8586
 1242SOL     OW 5013   5.221   4.238   0.778  0.1771 -0.1514 -0.1879
 1242SOL    HW1 5014   5.139   4.281   0.752  0.3353 -0.2860 -0.9119
 1242SOL    HW2 5015   5.290   4.296   0.746  0.3738  0.2992  0.9969
 1243SOL     OW 5016   6.086   2.540   6.791 -0.0111  0.9703 -0.1740
 1243SOL    HW1 5017   6.016   2.599   6.766 -1.2456 -0.4364 -0.1621
 1243SOL    HW2 5018   6.054   2.495   6.869  0.6614 -0.0719 -0.4669
 1244SOL     OW 5019   3.732   5.483   7.090  0.6525  0.3179  0.1648
 1244SOL    HW1 5020   3.645   5.517   7.068  0.3216 -1.0534 -0.7930
 1244SOL    HW2 5021   3.782   5.560   7.117 -1.1294  1.0203  1.7169
 1245SOL     OW 5022   2.420   7.748   6.351 -0.1365  0.5014 -0.3003
 1245SOL    HW1 5023   2.406   7.835   6.390  0.9069  1.2063 -1.4221
 1245SOL    HW2 5024   2.340   7.732   6.300 -1.6955 -0.6043  2.3007
 1246SOL     OW 5025   8.497   4.659   0.464 -0.0434 -0.4145 -0.5432
 1246SOL    HW1 5026   8.591   4.643   0.452  0.1539 -0.1416  0.4776
 1246SOL    HW2 5027   8.454   4.604   0.398  0.6938 -3.1740  1.0863
 1247SOL     OW 5028   3.980   4.873   0.449 -0.0327 -0.2457  0.6416
 1247SOL    HW1 5029   4.038   4.906   0.518  0.2011  2.9910 -0.8966
 1247SOL    HW2 5030   3.901   4.926   0.457 -0.0796  0.0870 -1.3941
 1248SOL     OW 5031   7.818   2.527   8.332  0.6872 -0.1434 -0.1395
 1248SOL    HW1 5032   7.892   2.582   8.360 -0.0664 -0.1048  1.9531
 1248SOL    HW2 5033   7.779   2.575   8.259  1.4951  0.8771  0.0612
 1249SOL     OW 5034   1.876   4.328   8.008  0.0368  0.1129 -0.1582
 1249SOL    HW1 5035   1.940   4.279   7.957 -1.6140 -0.8449 -1.3915
 1249SOL    HW2 5036   1.894   4.420   7.988 -0.4572 -0.2336 -2.3970
 1250SOL     OW 5037   6.724   7.868   6.569  0.5186  0.0344  0.1976
 1250SOL    HW1 5038   6.819   7.878   6.580  0.4188 -0.3197  1.5701
 1250SOL    HW2 5039   6.686   7.940   6.620  0.0487  1.1129 -1.5982
 1251SOL     OW 5040   7.572   8.188   8.272 -0.8137 -0.1906 -0.1562
 1251SOL    HW1 5041   7.599   8.275   8.241  0.0973 -0.7399 -0.9539
 1251SOL    HW2 5042   7.619   8.176   8.354  0.1951 -0.5042 -0.7646
 1252SOL     OW 5043   7.918   1.401   2.356  0.2141 -0.8979  0.2940
 1252SOL    HW1 5044   7.970   1.348   2.416  2.1111  1.1904  0.6338
 1252SOL    HW2 5045   7.830   1.365   2.363  0.6376 -1.6546  3.2672
 1253SOL     OW 5046   5.601   5.128   6.501  0.5086  0.1549  0.0874
 1253SOL    HW1 5047   5.528   5.071   6.481 -0.3805  0.5277  2.0436
 1253SOL    HW2 5048   5.679   5.077   6.478 -0.3172  0.0966 -2.8752
 1254SOL     OW 5049   1.756   6.986   3.597 -0.0928 -0.6917  0.0550
 1254SOL    HW1 5050   1.733   7.077   3.613 -0.7268 -0.7681 -0.3922
 1254SOL    HW2 5051   1.672   6.940   3.594  0.2766 -1.4998  1.5131
 1255SOL     OW 5052   5.999   2.635   5.272  0.4238  0.4452 -0.7275
 1255SOL    HW1 5053   5.904   2.644   5.274  0.1895 -1.6025  0.9726
 1255SOL    HW2 5054   6.021   2.628   5.179 -1.1353  0.6180 -1.1267
 1256SOL     OW 5055   1.130   1.582   0.520 -0.5327 -1.2022  0.0972
 1256SOL    HW1 5056   1.112   1.496   0.482  0.6984 -0.8640 -1.3305
 1256SOL    HW2 5057   1.108   1.644   0.450  0.8392 -0.5040  0.2587
 1257SOL     OW 5058   5.942   2.622   3.104  0.2465 -0.4863  0.3397
 1257SOL    HW1 5059   5.997   2.657   3.175 -0.8632  0.2624  0.8486
 1257SOL    HW2 5060   5.924   2.698   3.048 -2.2655 -0.1239  1.5061
 1258SOL     OW 5061   1.039   3.729   4.765  0.4980 -0.1208 -0.1829
 1258SOL    HW1 5062   1.040   3.817   4.802 -0.6483 -0.3427  0.4195
 1258SOL    HW2 5063   1.130   3.700   4.771  0.8429  0.9247 -0.1678
 1259SOL     OW 5064   3.864   1.309   0.782  0.0472 -0.5851 -0.2049
 1259SOL    HW1 5065   3.849   1.235   0.842 -0.4702 -0.3430 -0.0288
 1259SOL    HW2 5066   3.959   1.321   0.782  0.0086 -0.0175  1.2705
 1260SOL     OW 5067   4.091   6.826   7.792 -0.2714 -0.1556  0.7776
 1260SOL    HW1 5068   4.063   6.914   7.817  0.1973  0.7293 -1.5448
 1260SOL    HW2 5069   4.014   6.771   7.805 -1.0573  0.9194  0.7738
 1261SOL     OW 5070   7.853   2.916   1.092  0.3358  0.6012  0.4035
 1261SOL    HW1 5071   7.793   2.842   1.096  0.4609  0.5394  1.6053
 1261SOL    HW2 5072   7.917   2.899   1.161  2.7594 -0.1653 -1.8535
 1262SOL     OW 5073   7.202   5.679   0.628  0.1764  0.1887  0.1515
 1262SOL    HW1 5074   7.175   5.731   0.704  1.2024 -0.6703  1.1498
 1262SOL    HW2 5075   7.266   5.733   0.583  1.1110 -0.1041  1.0863
 1263SOL     OW 5076   4.515   6.464   7.973 -0.7716 -0.8247 -0.5526
 1263SOL    HW1 5077   4.469   6.521   8.033 -0.1884 -0.7198 -0.1982
 1263SOL    HW2 5078   4.479   6.377   7.989  0.3771 -1.0607  0.9974
 1264SOL     OW 5079   7.847   7.334   0.990  0.2475  0.5146  0.2472
 1264SOL    HW1 5080   7.804   7.419   0.979 -0.4670  0.0438 -0.8858
 1264SOL    HW2 5081   7.800   7.292   1.061 -3.3845 -1.1864 -2.7852
 1265SOL     OW 5082   4.304   6.922   1.700  0.0075  0.0886  0.2095
 1265SOL    HW1 5083   4.248   6.998   1.681 -1.2898 -1.3178 -2.0610
 1265SOL    HW2 5084   4.344   6.901   1.616 -1.0085 -2.7303  0.3312
 1266SOL     OW 5085   4.295   7.482   1.875  0.8451 -0.1474  0.0533
 1266SOL    HW1 5086   4.377   7.437   1.898  0.0385 -1.9182 -0.3643
 1266SOL    HW2 5087   4.230   7.445   1.935  0.2965  1.1218  0.2687
 1267SOL     OW 5088   4.100   1.121   1.040 -0.1882  0.3530  0.5604
 1267SOL    HW1 5089   4.107   1.158   0.952 -1.2048 -0.0855  0.2861
 1267SOL    HW2 5090   4.031   1.173   1.082 -2.5371 -1.9090 -0.2353
 1268SOL     OW 5091   8.467   5.602   2.530  0.2628 -0.1056  0.1805
 1268SOL    HW1 5092   8.396   5.661   2.503  0.3800  0.6696  1.5066
 1268SOL    HW2 5093   8.450   5.584   2.622  0.2076 -2.2208 -0.2092
 1269SOL     OW 5094   0.595   0.630   7.529 -0.0344  0.3298  0.1216
 1269SOL    HW1 5095   0.586   0.555   7.587  1.0192 -0.1455 -0.3020
 1269SOL    HW2 5096   0.518   0.626   7.472 -1.1501  0.8805  1.5464
 1270SOL     OW 5097   2.694   0.504   3.104  0.5859  0.1028  0.0853
 1270SOL    HW1 5098   2.695   0.477   3.012 -2.3441 -0.0596  0.0310
 1270SOL    HW2 5099   2.753   0.441   3.147  0.7069 -0.8755 -1.4039
 1271SOL     OW 5100   1.532   4.568   7.269  0.2006  0.5388 -0.5054
 1271SOL    HW1 5101   1.446   4.551   7.230 -0.1287 -3.5113  1.4604
 1271SOL    HW2 5102   1.515   4.634   7.336 -1.6831 -0.8246  0.4640
 1272SOL     OW 5103   2.354   4.500   4.331  0.5710  0.1670 -1.0301
 1272SOL    HW1 5104   2.419   4.569   4.323  0.9182 -0.1616 -1.1075
 1272SOL    HW2 5105   2.392   4.439   4.395 -0.4435  0.8413  0.2544
 1273SOL     OW 5106   7.539   6.887   3.787 -0.8036  0.7504  0.6425
 1273SOL    HW1 5107   7.510   6.930   3.707 -0.6069  2.0456  1.2359
 1273SOL    HW2 5108   7.505   6.942   3.858 -0.2600  0.1098  1.4267
 1274SOL     OW 5109   8.264   5.272   3.646 -0.4079 -0.0172  0.1334
 1274SOL    HW1 5110   8.314   5.196   3.613  1.0375  1.0053 -0.1215
 1274SOL    HW2 5111   8.208   5.235   3.714  1.1957 -1.1468  0.9257
 1275SOL     OW 5112   6.251   6.291   6.659 -0.5549 -0.0614  0.2774
 1275SOL    HW1 5113   6.325   6.328   6.707 -1.9808  0.8506  1.9022
 1275SOL    HW2 5114   6.178   6.297   6.720 -2.0899 -0.4626 -1.4367
 1276SOL     OW 5115   0.022   6.510   0.571  0.7216  0.4463  0.8340
 1276SOL    HW1 5116  -0.070   6.491   0.593  0.8787  0.3030  1.3740
 1276SOL    HW2 5117   0.053   6.429   0.530 -0.3233  1.5533 -2.4609
 1277SOL     OW 5118   6.552   2.446   0.590  0.2469  0.2191 -0.0438
 1277SOL    HW1 5119   6.587   2.384   0.653 -0.6077 -0.7515 -0.4952
 1277SOL    HW2 5120   6.464   2.415   0.571 -0.2313  1.6063 -0.2534
 1278SOL     OW 5121   4.298   5.621   0.205 -0.4898 -0.5020  0.3722
 1278SOL    HW1 5122   4.232   5.680   0.167  1.3044  0.5109 -1.3802
 1278SOL    HW2 5123   4.293   5.542   0.152 -0.6485 -0.6301  0.5778
 1279SOL     OW 5124   4.973   7.732   3.909 -0.4443 -0.6348  0.3192
 1279SOL    HW1 5125   4.981   7.661   3.845 -0.8726 -0.8717  0.5200
 1279SOL    HW2 5126   5.054   7.782   3.899 -1.3604  0.5607 -1.8453
 1280SOL     OW 5127   0.268   2.177   7.076 -0.4483  0.2484 -0.7537
 1280SOL    HW1 5128   0.300   2.109   7.017 -0.6065 -0.6720  0.2096
 1280SOL    HW2 5129   0.206   2.133   7.133 -1.1947  1.3818 -0.6459
 1281SOL     OW 5130   0.628   5.314   5.635  0.2991 -0.0873 -0.1135
 1281SOL    HW1 5131   0.680   5.239   5.665  1.0876  0.7701  0.7334
 1281SOL    HW2 5132   0.546   5.308   5.684  0.2869 -0.4932 -0.1806
 1282SOL     OW 5133   0.771   4.172   6.235 -0.1175  0.3128 -0.2055
 1282SOL    HW1 5134   0.711   4.247   6.241  0.8106  1.0074  0.6701
 1282SOL    HW2 5135   0.799   4.156   6.325 -0.9111 -1.6281 -0.2670
 1283SOL     OW 5136   7.155   8.340   2.756  1.1098 -0.6326 -0.7459
 1283SOL    HW1 5137   7.240   8.380   2.774  0.0570  2.1302 -1.4060
 1283SOL    HW2 5138   7.131   8.374   2.670  0.1120 -2.8493 -1.4202
 1284SOL     OW 5139   8.216   0.761   2.432  0.1209 -0.4368 -0.1222
 1284SOL    HW1 5140   8.153   0.692   2.452 -0.8533  0.9582  2.0307
 1284SOL    HW2 5141   8.214   0.769   2.336 -2.3790 -1.0216 -0.1875
 1285SOL     OW 5142   8.183   3.847   4.125  0.0086 -0.3128  0.2511
 1285SOL    HW1 5143   8.252   3.783   4.110 -0.9781 -1.7612  1.6092
 1285SOL    HW2 5144   8.214   3.898   4.200  0.2177 -0.0402 -0.0185
 1286SOL     OW 5145   2.128   0.342   1.450 -0.1213 -0.6415  0.0625
 1286SOL    HW1 5146   2.149   0.417   1.394 -1.2128 -1.1825 -1.1140
 1286SOL    HW2 5147   2.211   0.296   1.459  0.9347  1.4203  2.0118
 1287SOL     OW 5148   8.224   7.068   6.056  0.0795 -0.0803  0.3944
 1287SOL    HW1 5149   8.212   7.027   6.142  0.6327 -1.0217  0.0410
 1287SOL    HW2 5150   8.166   7.144   6.058 -0.5797 -0.5733  1.2787
 1288SOL     OW 5151   1.807   1.562   1.828 -0.0554 -0.3841  0.1864
 1288SOL    HW1 5152   1.867   1.602   1.764  0.8619 -0.5308  0.9271
 1288SOL    HW2 5153   1.724   1.554   1.781  0.1511  0.9777 -0.4706
 1289SOL     OW 5154   7.222   8.420   5.446 -0.0611  0.3621  0.3897
 1289SOL    HW1 5155   7.132   8.389   5.451 -0.1317  0.4010 -0.4462
 1289SOL    HW2 5156   7.257   8.406   5.534 -0.9265  0.5013  0.7671
 1290SOL     OW 5157   6.375   1.809   2.795 -0.1662 -0.2941 -0.6618
 1290SOL    HW1 5158   6.436   1.735   2.794  0.7870  0.4684 -0.0596
 1290SOL    HW2 5159   6.400   1.860   2.871 -1.8843 -0.2108 -0.0967
 1291SOL     OW 5160   1.767   1.800   8.680  0.4381  0.0399  0.0021
 1291SOL    HW1 5161   1.728   1.811   8.766  0.9285 -0.9169  0.3572
 1291SOL    HW2 5162   1.693   1.788   8.621  0.1464 -0.5099  0.4755
 1292SOL     OW 5163   6.012   7.635   6.054 -0.7027  0.4179  0.0757
 1292SOL    HW1 5164   5.984   7.585   6.131 -1.5813  0.8517  0.0478
 1292SOL    HW2 5165   6.093   7.677   6.082 -1.0225  0.5879  0.7753
 1293SOL     OW 5166   5.515   6.693   0.563  0.4719  0.1857  0.0593
 1293SOL    HW1 5167   5.523   6.694   0.658  3.4527  0.5319 -0.1045
 1293SOL    HW2 5168   5.541   6.604   0.537  4.7704  1.4132 -0.5818
 1294SOL     OW 5169   3.486   7.444   2.241  0.2249  0.5447 -0.0692
 1294SOL    HW1 5170   3.522   7.497   2.170 -1.4192 -1.0517 -2.2414
 1294SOL    HW2 5171   3.422   7.501   2.283  1.4935  1.6455  0.4625
 1295SOL     OW 5172   3.173   2.991   5.419  0.4830 -0.2813  0.3645
 1295SOL    HW1 5173   3.229   3.040   5.479  0.8532 -1.1965  0.7900
 1295SOL    HW2 5174   3.117   2.939   5.476 -2.6865  2.4549  0.0818
 1296SOL     OW 5175   5.188   6.431   5.508 -0.0939 -0.0099  0.1336
 1296SOL    HW1 5176   5.147   6.518   5.513  0.7782  0.5108 -1.2783
 1296SOL    HW2 5177   5.120   6.375   5.473  0.0171  0.6124 -1.1302
 1297SOL     OW 5178   7.304   4.756   0.993  0.5483  0.2533  0.0402
 1297SOL    HW1 5179   7.342   4.668   0.994  0.4591  0.1985  2.0680
 1297SOL    HW2 5180   7.374   4.812   0.957 -0.3499 -0.9238 -4.1434
 1298SOL     OW 5181   4.933   1.102   2.894 -0.2546 -0.5767  0.4104
 1298SOL    HW1 5182   4.881   1.043   2.838 -1.0989 -0.3280  0.9107
 1298SOL    HW2 5183   4.995   1.045   2.938 -0.2914 -0.9241  0.0217
 1299SOL     OW 5184   2.701   6.584   4.939 -0.6451  0.2788 -0.1226
 1299SOL    HW1 5185   2.652   6.600   4.859 -0.8740 -2.5794 -0.6532
 1299SOL    HW2 5186   2.673   6.653   4.999 -1.4117  1.7364 -2.0605
 1300SOL     OW 5187   7.929   0.934   6.730 -0.5218 -0.0302 -1.2017
 1300SOL    HW1 5188   7.999   0.981   6.685 -1.5566  1.6916 -1.0742
 1300SOL    HW2 5189   7.848   0.975   6.698 -1.4308 -1.1698 -0.4425
 1301SOL     OW 5190   3.702   5.016   3.979  0.0426  0.5547 -0.5293
 1301SOL    HW1 5191   3.728   5.034   3.889  0.1884 -1.4631 -0.9488
 1301SOL    HW2 5192   3.785   5.003   4.026  0.0783 -3.4099 -1.3180
 1302SOL     OW 5193   6.116   3.242   5.598  0.2567 -0.0713  0.1813
 1302SOL    HW1 5194   6.099   3.149   5.589 -0.3421  0.0408  0.1066
 1302SOL    HW2 5195   6.134   3.255   5.691 -2.9150  0.2192  0.8937
 1303SOL     OW 5196   0.927   0.080   8.281  0.2058 -0.2735 -0.2816
 1303SOL    HW1 5197   1.018   0.057   8.300  0.0952 -0.0194  0.5949
 1303SOL    HW2 5198   0.876   0.037   8.350 -0.3121 -0.1501 -0.5788
 1304SOL     OW 5199   3.441   4.346   8.269  0.0804  0.2749 -0.0821
 1304SOL    HW1 5200   3.495   4.363   8.346  0.8135 -2.3877  0.1239
 1304SOL    HW2 5201   3.501   4.304   8.207 -1.1901 -0.5106 -0.8329
 1305SOL     OW 5202   8.042   7.609   1.696  0.0291 -0.1854  0.1935
 1305SOL    HW1 5203   8.078   7.697   1.693  1.0649 -0.6119 -1.4130
 1305SOL    HW2 5204   7.987   7.602   1.618 -1.4671 -0.4262  1.2204
 1306SOL     OW 5205   2.209   5.210   3.816  0.3674 -0.1026  0.1908
 1306SOL    HW1 5206   2.255   5.290   3.844 -0.0306  0.3996 -0.5686
 1306SOL    HW2 5207   2.116   5.231   3.828  0.2832 -0.6727  0.5549
 1307SOL     OW 5208   1.319   5.153   4.886 -0.3246 -0.4447  0.1835
 1307SOL    HW1 5209   1.361   5.071   4.863 -0.0495 -0.4016  0.5187
 1307SOL    HW2 5210   1.232   5.148   4.846  0.2071 -0.2777 -1.0056
 1308SOL     OW 5211   7.069   0.568   6.082 -0.2362  0.3373  0.3183
 1308SOL    HW1 5212   7.108   0.498   6.133 -0.3380  0.3760  0.4490
 1308SOL    HW2 5213   7.022   0.523   6.011  0.3905  0.3040 -0.0888
 1309SOL     OW 5214   7.907   4.073   4.201 -0.3742  0.0169 -0.2597
 1309SOL    HW1 5215   7.817   4.060   4.172 -0.3713 -0.8836  0.0995
 1309SOL    HW2 5216   7.949   4.121   4.130 -1.1909  0.6517 -0.3312
 1310SOL     OW 5217   3.311   4.639   0.558  0.0263 -0.6054 -0.7975
 1310SOL    HW1 5218   3.221   4.658   0.529 -0.6457  1.2532  2.0991
 1310SOL    HW2 5219   3.310   4.546   0.578 -1.6845 -0.3749  0.4146
 1311SOL     OW 5220   8.445   3.845   6.225  0.0831  0.1791  0.5101
 1311SOL    HW1 5221   8.530   3.810   6.200  0.7414  1.7636  0.4550
 1311SOL    HW2 5222   8.386   3.818   6.154  0.6696 -0.3265  0.2074
 1312SOL     OW 5223   3.960   6.248   1.444 -0.1108 -0.1456  0.1764
 1312SOL    HW1 5224   4.034   6.291   1.487 -0.2151  1.3005 -1.0343
 1312SOL    HW2 5225   3.884   6.299   1.471 -0.6776 -1.4172  1.1324
 1313SOL     OW 5226   4.274   7.840   0.810  0.1398 -0.1337  0.5976
 1313SOL    HW1 5227   4.214   7.914   0.803 -0.1735 -0.3515  0.9931
 1313SOL    HW2 5228   4.271   7.815   0.902  3.3136  1.9396  1.4406
 1314SOL     OW 5229   1.152   5.610   8.587  0.0855  0.1166 -0.1558
 1314SOL    HW1 5230   1.061   5.622   8.562  0.2152  1.0099 -0.2422
 1314SOL    HW2 5231   1.199   5.679   8.540  0.9588 -0.9617 -0.9359
 1315SOL     OW 5232   3.515   0.522   6.219 -0.4563  0.4073 -0.5270
 1315SOL    HW1 5233   3.486   0.435   6.192  0.8357 -0.2953  0.2724
 1315SOL    HW2 5234   3.445   0.581   6.189 -0.3691 -0.6204 -3.0185
 1316SOL     OW 5235   0.581   2.338   1.820  0.4743 -0.5090  0.3577
 1316SOL    HW1 5236   0.590   2.256   1.772 -0.7494 -1.7490  2.0895
 1316SOL    HW2 5237   0.489   2.362   1.809  0.7022  0.3760  0.2897
 1317SOL     OW 5238   4.377   6.131   7.674 -0.0450  0.1364  0.2328
 1317SOL    HW1 5239   4.460   6.142   7.627 -0.1915  0.5744  0.0704
 1317SOL    HW2 5240   4.397   6.067   7.743  0.4568  0.3169  0.2623
 1318SOL     OW 5241   3.050   7.988   4.928 -0.0641  0.3024 -0.6953
 1318SOL    HW1 5242   2.996   7.954   5.000  1.1305 -2.0582 -0.7972
 1318SOL    HW2 5243   3.081   8.073   4.959 -1.0349  0.1548  0.8028
 1319SOL     OW 5244   8.131   3.334   0.006  0.2969  0.2973 -0.6600
 1319SOL    HW1 5245   8.112   3.392   0.079 -0.1101 -1.4369  0.6705
 1319SOL    HW2 5246   8.086   3.375  -0.069  0.7910  2.1480 -0.0084
 1320SOL     OW 5247   0.952   3.213   2.971 -0.1194  0.3884 -0.3394
 1320SOL    HW1 5248   1.020   3.273   2.943  0.7798 -0.3960  0.0893
 1320SOL    HW2 5249   0.891   3.267   3.022  0.9404  0.8564  0.4732
 1321SOL     OW 5250   0.546   4.084   3.381 -0.0869 -0.0807 -0.1926
 1321SOL    HW1 5251   0.534   4.081   3.476  0.8259 -0.6125 -0.0831
 1321SOL    HW2 5252   0.475   4.140   3.350  0.6296  1.5740  0.9772
 1322SOL     OW 5253   2.942   4.492   2.754  0.7468 -0.1643 -0.5165
 1322SOL    HW1 5254   2.968   4.412   2.708  0.9187 -0.2818 -0.2189
 1322SOL    HW2 5255   2.888   4.460   2.827  3.1576 -0.2633  1.3498
 1323SOL     OW 5256   4.181   4.117   1.435 -0.3855 -0.1505  0.0822
 1323SOL    HW1 5257   4.095   4.099   1.396  0.0780  0.2402 -1.1605
 1323SOL    HW2 5258   4.182   4.212   1.447  0.1884 -0.0531 -0.6923
 1324SOL     OW 5259   7.464   0.649   1.974 -0.4830  0.2398 -0.3790
 1324SOL    HW1 5260   7.492   0.689   2.056 -1.3065 -0.8251  0.4442
 1324SOL    HW2 5261   7.543   0.606   1.940 -0.4785 -0.5707  0.6191
 1325SOL     OW 5262   7.947   0.709   5.921 -0.1530  0.1137  0.2792
 1325SOL    HW1 5263   7.867   0.723   5.870 -1.0058  2.4895  2.1187
 1325SOL    HW2 5264   7.977   0.797   5.944  2.0445 -0.7805  1.1143
 1326SOL     OW 5265   4.889   6.742   4.654  0.0249  0.3413  0.2600
 1326SOL    HW1 5266   4.828   6.810   4.624 -0.1273 -0.0773 -0.3985
 1326SOL    HW2 5267   4.834   6.666   4.670  0.2901  0.1559  0.2915
 1327SOL     OW 5268   8.649   6.543   6.612  0.4545  0.4039 -0.0370
 1327SOL    HW1 5269   8.732   6.541   6.659  0.7707  0.9282 -0.5542
 1327SOL    HW2 5270   8.654   6.469   6.551  0.3062  0.0992  0.3215
 1328SOL     OW 5271   6.396   1.052   6.636  0.3727  0.4906 -0.8329
 1328SOL    HW1 5272   6.326   1.078   6.576 -1.0850 -0.9370  0.1805
 1328SOL    HW2 5273   6.434   1.135   6.666  0.5935  1.2467 -3.0316
 1329SOL     OW 5274   2.200   2.509   5.599  0.1469  0.0716 -0.6570
 1329SOL    HW1 5275   2.252   2.445   5.550  0.8992 -0.0371  0.2494
 1329SOL    HW2 5276   2.253   2.589   5.598  1.5589 -0.6773  2.2661
 1330SOL     OW 5277   0.841   8.108   1.677 -0.1315 -0.3838  0.3416
 1330SOL    HW1 5278   0.805   8.106   1.589 -0.9087 -1.1014  0.6626
 1330SOL    HW2 5279   0.825   8.198   1.708  0.5556  0.0054 -0.3902
 1331SOL     OW 5280   0.558   3.378   3.748  0.2871  0.0586 -0.1419
 1331SOL    HW1 5281   0.650   3.377   3.723  0.5392 -0.0040  0.7532
 1331SOL    HW2 5282   0.546   3.460   3.796 -0.3089  0.4288 -0.9140
 1332SOL     OW 5283   6.848   0.134   2.784 -0.4125 -0.7748 -0.2323
 1332SOL    HW1 5284   6.782   0.203   2.787  0.3856 -0.0090  0.0295
 1332SOL    HW2 5285   6.891   0.138   2.869  2.4493  1.2510 -1.5819
 1333SOL     OW 5286   4.091   6.864   7.518 -0.4467 -0.4756 -0.1122
 1333SOL    HW1 5287   4.070   6.879   7.611 -1.8283  1.0910 -0.6196
 1333SOL    HW2 5288   4.171   6.914   7.503  0.8244 -2.2090  0.6228
 1334SOL     OW 5289   1.194   6.144   3.956  0.1804  0.1742  0.2434
 1334SOL    HW1 5290   1.134   6.080   3.916  1.7869 -1.6944  0.6706
 1334SOL    HW2 5291   1.209   6.109   4.044  1.7495  0.6887  0.1971
 1335SOL     OW 5292   8.623   7.936   2.096 -0.5259 -0.5990 -0.4858
 1335SOL    HW1 5293   8.668   7.947   2.179 -0.2775 -0.8741 -0.5811
 1335SOL    HW2 5294   8.634   8.019   2.050  0.8426 -1.0200 -0.9728
 1336SOL     OW 5295   3.068   1.746   4.099 -0.2024 -0.1088 -0.1097
 1336SOL    HW1 5296   3.137   1.689   4.133 -1.1848 -1.4912 -0.3612
 1336SOL    HW2 5297   3.070   1.822   4.158  1.0282 -0.4584  0.3373
 1337SOL     OW 5298   3.729   1.017   4.020  0.4951  0.0716  0.3872
 1337SOL    HW1 5299   3.770   1.100   3.998  0.1530  0.1742  0.1365
 1337SOL    HW2 5300   3.641   1.041   4.050 -0.4091 -0.3591 -1.8004
 1338SOL     OW 5301   2.960   4.107   0.705 -0.0558 -0.1908 -0.4205
 1338SOL    HW1 5302   2.893   4.093   0.771  0.5527  0.4011  0.3451
 1338SOL    HW2 5303   2.950   4.198   0.678 -1.0169 -0.7079 -1.9989
 1339SOL     OW 5304   0.913   3.766   4.243  0.1438  0.3476  0.6190
 1339SOL    HW1 5305   0.979   3.721   4.190  0.5230  1.1508  0.3931
 1339SOL    HW2 5306   0.953   3.771   4.330 -0.2868 -0.5611  0.8824
 1340SOL     OW 5307   7.220   0.139   3.562 -0.2503 -0.2327  0.7002
 1340SOL    HW1 5308   7.267   0.113   3.483 -0.4128  0.1165  0.4883
 1340SOL    HW2 5309   7.163   0.211   3.534 -2.2236 -1.7596  0.5405
 1341SOL     OW 5310   3.455   3.015   3.609  0.8215 -0.0093 -0.1490
 1341SOL    HW1 5311   3.469   2.963   3.530  0.0418 -0.4244 -0.0225
 1341SOL    HW2 5312   3.366   3.048   3.600  0.3491 -0.9083  1.0367
 1342SOL     OW 5313   0.048   2.315   3.075 -0.5877  0.5786  0.1004
 1342SOL    HW1 5314  -0.022   2.308   3.140  0.8013  1.2761  1.7605
 1342SOL    HW2 5315   0.103   2.386   3.107  0.3006  0.7686 -1.7352
 1343SOL     OW 5316   7.094   1.470   6.659 -0.1152  0.0289  0.4119
 1343SOL    HW1 5317   7.050   1.542   6.613 -0.9823 -1.7000 -1.6159
 1343SOL    HW2 5318   7.025   1.429   6.711 -0.6564 -1.7317 -1.5671
 1344SOL     OW 5319   7.432   5.128   4.637 -0.3480  0.2940 -0.2437
 1344SOL    HW1 5320   7.376   5.051   4.652 -0.0553  0.4520  1.9719
 1344SOL    HW2 5321   7.490   5.101   4.566 -0.5771 -1.3572  0.1492
 1345SOL     OW 5322   3.245   8.558   7.141  0.1229  0.3015  0.3363
 1345SOL    HW1 5323   3.317   8.519   7.092 -0.6571  0.0633 -0.6527
 1345SOL    HW2 5324   3.168   8.507   7.116 -0.4916  0.9126  0.9225
 1346SOL     OW 5325   5.408   1.977   0.596  0.0992 -0.2810  0.3208
 1346SOL    HW1 5326   5.323   1.966   0.640  0.8061 -1.3819  1.4747
 1346SOL    HW2 5327   5.406   1.914   0.524  0.1139 -0.6643  0.6493
 1347SOL     OW 5328   0.406   1.115   2.774 -0.3540  0.2929 -0.2913
 1347SOL    HW1 5329   0.410   1.183   2.707  0.1214  1.4973  0.9218
 1347SOL    HW2 5330   0.483   1.060   2.758  0.9524  1.8288  0.5502
 1348SOL     OW 5331   1.846   1.151   1.561 -0.2900  0.0846 -0.0935
 1348SOL    HW1 5332   1.916   1.086   1.566  1.3159  1.6384 -1.0117
 1348SOL    HW2 5333   1.839   1.186   1.650 -2.1338 -2.2058  0.7481
 1349SOL     OW 5334   6.318   2.228   2.678  0.2646  0.0906 -0.2524
 1349SOL    HW1 5335   6.372   2.178   2.617  1.1586  0.0137  0.5733
 1349SOL    HW2 5336   6.369   2.230   2.759 -0.1724  1.5567  0.0155
 1350SOL     OW 5337   1.270   6.631   1.813 -0.8189  0.0209  0.1264
 1350SOL    HW1 5338   1.309   6.702   1.761 -0.5902 -1.3898 -1.7414
 1350SOL    HW2 5339   1.206   6.591   1.754 -0.1254 -2.0225  0.6665
 1351SOL     OW 5340   0.815   0.731   2.907 -0.5190  0.3678  0.4334
 1351SOL    HW1 5341   0.852   0.656   2.954  1.4132  0.8349 -0.2196
 1351SOL    HW2 5342   0.795   0.795   2.976  1.8850  0.8824  0.7656
 1352SOL     OW 5343   8.553   0.669   0.946 -0.8701  0.0730  0.0993
 1352SOL    HW1 5344   8.544   0.614   0.869  0.2082  1.0848 -0.7920
 1352SOL    HW2 5345   8.632   0.721   0.929  0.0719 -0.4907  2.4003
 1353SOL     OW 5346   5.687   0.521   4.618 -0.2324 -0.0697  0.4450
 1353SOL    HW1 5347   5.638   0.600   4.595  1.0125  0.4487 -0.5253
 1353SOL    HW2 5348   5.760   0.552   4.670  0.0127 -0.6378  0.4460
 1354SOL     OW 5349   7.515   4.353   4.234 -0.2757 -0.1509  0.0421
 1354SOL    HW1 5350   7.466   4.366   4.153  2.9733  0.5688 -1.9980
 1354SOL    HW2 5351   7.534   4.441   4.265  1.3668 -0.3085 -0.3889
 1355SOL     OW 5352   4.268   0.353   0.491  0.1437  0.2000  0.0114
 1355SOL    HW1 5353   4.231   0.360   0.403  1.1040 -0.2340 -0.4446
 1355SOL    HW2 5354   4.354   0.395   0.484  0.0284  0.6172  0.8807
 1356SOL     OW 5355   4.650   0.798   2.019 -0.2106  0.1470  0.1071
 1356SOL    HW1 5356   4.566   0.842   2.004  0.5506  1.0692 -1.7622
 1356SOL    HW2 5357   4.683   0.838   2.099 -1.0716  0.5345  0.2876
 1357SOL     OW 5358   4.265   2.376   3.272 -0.0007  0.2621  0.3491
 1357SOL    HW1 5359   4.299   2.330   3.195  0.0761  0.8160  0.0440
 1357SOL    HW2 5360   4.245   2.307   3.335 -3.4505 -0.6131 -1.4475
 1358SOL     OW 5361   0.307   3.740   5.611 -0.2507 -0.0576  0.1549
 1358SOL    HW1 5362   0.322   3.760   5.703 -1.9181 -0.8922  0.6523
 1358SOL    HW2 5363   0.267   3.652   5.612 -0.7820  0.1376 -1.3046
 1359SOL     OW 5364   1.505   5.428   4.751  0.1351  0.2855  0.1971
 1359SOL    HW1 5365   1.487   5.346   4.704 -0.8206  0.9129 -0.5773
 1359SOL    HW2 5366   1.562   5.477   4.692  1.7004 -0.2825  1.1752
 1360SOL     OW 5367   8.163   3.329   1.993 -0.3529 -0.0345  0.3614
 1360SOL    HW1 5368   8.212   3.255   2.031 -0.7244  0.4951  1.9279
 1360SOL    HW2 5369   8.200   3.338   1.905  2.6784  0.5575  1.5544
 1361SOL     OW 5370   8.376   3.221   7.848 -0.0441  0.3096 -0.3305
 1361SOL    HW1 5371   8.352   3.308   7.816  0.6601  0.6139 -0.0568
 1361SOL    HW2 5372   8.304   3.164   7.820  0.6070  0.4994 -2.6338
 1362SOL     OW 5373   7.356   1.075   2.422  0.1231  0.4464 -0.5347
 1362SOL    HW1 5374   7.316   1.059   2.507  1.6927 -0.8011  0.0208
 1362SOL    HW2 5375   7.295   1.134   2.377 -1.4332  0.0046  0.8993
 1363SOL     OW 5376   0.147   5.057   0.062 -0.5321  0.4891 -0.3017
 1363SOL    HW1 5377   0.142   5.091   0.151  1.8556 -1.5313  0.7457
 1363SOL    HW2 5378   0.081   4.988   0.059  0.8962 -1.0337  0.8107
 1364SOL     OW 5379   5.610   8.360   7.380 -0.4926 -0.0354 -0.1898
 1364SOL    HW1 5380   5.705   8.364   7.367 -0.6058 -1.4614 -2.0064
 1364SOL    HW2 5381   5.577   8.324   7.297 -2.6389  0.5371  0.3611
 1365SOL     OW 5382   3.823   5.698   4.094 -0.4998  0.1304  0.3424
 1365SOL    HW1 5383   3.812   5.658   4.181 -0.1049 -0.8302 -0.0409
 1365SOL    HW2 5384   3.737   5.737   4.076  0.0591  2.4444  2.1589
 1366SOL     OW 5385   7.202   5.172   1.054  0.5187 -0.0878 -0.0073
 1366SOL    HW1 5386   7.286   5.218   1.056  0.4764 -0.0162  1.8971
 1366SOL    HW2 5387   7.188   5.151   0.962  1.6843  1.6172 -0.6099
 1367SOL     OW 5388   7.647   6.964   0.059  0.0039  0.0767 -0.3662
 1367SOL    HW1 5389   7.601   7.048   0.064 -0.8197 -0.4241  0.9680
 1367SOL    HW2 5390   7.704   6.973  -0.018 -1.6158  1.0742 -1.5372
 1368SOL     OW 5391   4.392   5.284   7.279  0.5823  0.3503 -0.1834
 1368SOL    HW1 5392   4.345   5.293   7.363 -1.2652 -0.1342 -1.1020
 1368SOL    HW2 5393   4.329   5.240   7.222  2.8857 -2.2774 -0.9341
 1369SOL     OW 5394   5.342   2.637   8.567 -0.0162 -0.0438 -0.2622
 1369SOL    HW1 5395   5.311   2.625   8.657  0.1480 -0.2136 -0.2276
 1369SOL    HW2 5396   5.306   2.722   8.541 -1.4957 -0.7531 -0.6378
 1370SOL     OW 5397   0.727   2.723   0.242  0.0170  0.1309 -0.1278
 1370SOL    HW1 5398   0.699   2.698   0.330 -0.5045  0.9592 -0.0372
 1370SOL    HW2 5399   0.772   2.646   0.208 -2.0984 -1.1974 -0.1420
 1371SOL     OW 5400   3.152   5.445   7.793 -0.4860  0.1344 -0.2059
 1371SOL    HW1 5401   3.187   5.394   7.866  0.7076  0.7600 -0.3116
 1371SOL    HW2 5402   3.185   5.400   7.714  0.2699  0.8351 -0.3037
 1372SOL     OW 5403   6.121   2.160   7.446 -0.2213 -0.0535  0.3273
 1372SOL    HW1 5404   6.198   2.149   7.502 -0.3067 -0.9313  0.2839
 1372SOL    HW2 5405   6.155   2.153   7.357 -0.4123 -0.9101  0.3160
 1373SOL     OW 5406   0.397   6.999   8.642  0.1360  0.1425  0.3863
 1373SOL    HW1 5407   0.367   6.910   8.657  0.8699 -0.5195 -1.7975
 1373SOL    HW2 5408   0.467   7.012   8.707  1.3096 -1.5781 -0.4657
 1374SOL     OW 5409   0.480   4.381   8.273  1.0994 -0.1573 -0.6979
 1374SOL    HW1 5410   0.504   4.473   8.287 -0.9593  0.4408 -0.7564
 1374SOL    HW2 5411   0.466   4.374   8.179  2.6827 -0.9637 -0.9186
 1375SOL     OW 5412   6.483   3.197   0.271  0.2845 -0.0870 -0.2782
 1375SOL    HW1 5413   6.431   3.176   0.348 -0.1745  1.0842 -0.2491
 1375SOL    HW2 5414   6.435   3.158   0.198 -0.7763  1.1338 -0.2732
 1376SOL     OW 5415   5.056   4.802   0.106  0.4696  0.2944 -0.4456
 1376SOL    HW1 5416   5.082   4.727   0.053  0.7039  1.0396 -1.4214
 1376SOL    HW2 5417   5.023   4.764   0.187  1.7296 -0.7988 -0.4189
 1377SOL     OW 5418   2.458   2.819   1.065  0.4805 -0.1861 -0.4460
 1377SOL    HW1 5419   2.485   2.813   0.973 -0.4710  0.8491 -0.8049
 1377SOL    HW2 5420   2.529   2.868   1.107 -0.2861  1.6578 -1.1904
 1378SOL     OW 5421   3.107   5.801   7.415 -0.0512  0.2841  0.0596
 1378SOL    HW1 5422   3.147   5.872   7.365  1.1999  0.3284  1.0614
 1378SOL    HW2 5423   3.170   5.782   7.485 -0.6190 -1.4185  0.1692
 1379SOL     OW 5424   3.927   4.918   5.931 -0.5185 -0.5609 -0.3653
 1379SOL    HW1 5425   3.932   4.934   6.026 -0.6745  3.0809 -0.8033
 1379SOL    HW2 5426   3.855   4.857   5.920 -0.8415 -0.6515  1.8381
 1380SOL     OW 5427   4.910   4.770   6.640  0.5567  0.3619 -0.3602
 1380SOL    HW1 5428   4.935   4.709   6.710 -1.8348  0.5433  0.7268
 1380SOL    HW2 5429   4.845   4.722   6.590  0.6539  1.0574 -1.1635
 1381SOL     OW 5430   4.044   7.932   1.078  0.7418 -0.1883  0.3997
 1381SOL    HW1 5431   3.995   7.932   1.160 -2.3292  0.7277 -1.2663
 1381SOL    HW2 5432   4.073   7.841   1.067 -0.7258 -0.8165  1.4117
 1382SOL     OW 5433   3.456   5.372   4.561 -0.2724  0.0774 -0.1402
 1382SOL    HW1 5434   3.519   5.335   4.622 -1.6746  0.4094  1.6110
 1382SOL    HW2 5435   3.443   5.304   4.494  0.4274 -0.7858  0.5850
 1383SOL     OW 5436   2.732   7.386   3.011  0.1796 -0.2562  0.0412
 1383SOL    HW1 5437   2.774   7.353   2.931  0.7096 -0.5672  0.4368
 1383SOL    HW2 5438   2.788   7.355   3.082 -0.5145 -0.3402  0.5654
 1384SOL     OW 5439   2.853   8.048   7.675  0.2098  0.0169  0.6303
 1384SOL    HW1 5440   2.917   7.977   7.678 -1.4232 -1.7062 -1.6757
 1384SOL    HW2 5441   2.903   8.126   7.699  2.7134 -1.4896  0.7006
 1385SOL     OW 5442   5.147   7.014   6.402 -0.1011 -0.1023 -0.1772
 1385SOL    HW1 5443   5.116   7.095   6.363 -1.0923 -1.0098 -1.3689
 1385SOL    HW2 5444   5.189   6.967   6.329  1.7264 -0.0794  0.8000
 1386SOL     OW 5445   5.822   4.962   0.385  0.6199  0.4408 -0.5406
 1386SOL    HW1 5446   5.902   4.948   0.334  0.5248 -1.0063 -0.3497
 1386SOL    HW2 5447   5.807   4.877   0.428 -1.7106  0.2770 -1.5761
 1387SOL     OW 5448   4.798   1.368   1.163  1.3992 -0.1367  0.2366
 1387SOL    HW1 5449   4.708   1.361   1.196  1.9581  0.5010  2.0225
 1387SOL    HW2 5450   4.788   1.394   1.072 -0.2374  0.1103  0.4572
 1388SOL     OW 5451   4.531   0.184   0.402  0.1937  0.1165 -0.4425
 1388SOL    HW1 5452   4.473   0.189   0.327 -0.8860  1.9842  0.4530
 1388SOL    HW2 5453   4.619   0.187   0.365 -0.2841 -0.6582 -1.7018
 1389SOL     OW 5454   8.317   0.036   1.743 -0.2432 -0.4955 -0.2248
 1389SOL    HW1 5455   8.283  -0.050   1.767  0.3288 -0.7559 -0.3440
 1389SOL    HW2 5456   8.306   0.040   1.648 -0.0595 -0.5219 -0.2459
 1390SOL     OW 5457   2.708   6.835   0.534  0.0416 -0.1377  0.9093
 1390SOL    HW1 5458   2.704   6.755   0.481 -3.3357 -0.1517  0.9764
 1390SOL    HW2 5459   2.617   6.863   0.542  0.8786  2.3807  2.9741
 1391SOL     OW 5460   0.637   5.227   3.163 -0.4673  0.0989  0.3803
 1391SOL    HW1 5461   0.663   5.185   3.080  0.7669 -0.2547  0.9164
 1391SOL    HW2 5462   0.662   5.319   3.152 -1.2347  0.2679 -0.0068
 1392SOL     OW 5463   7.594   3.598   1.590 -0.6923 -0.2828 -0.0293
 1392SOL    HW1 5464   7.613   3.608   1.497 -0.8598 -1.2980 -0.1751
 1392SOL    HW2 5465   7.599   3.687   1.625  0.7382 -0.0632 -0.7424
 1393SOL     OW 5466   0.048   2.189   0.318  0.0816 -0.1485 -0.1618
 1393SOL    HW1 5467   0.029   2.254   0.252 -0.0267  0.6923  0.6804
 1393SOL    HW2 5468   0.143   2.177   0.314  0.2956  1.1068  0.6108
 1394SOL     OW 5469   4.410   8.336   4.406  0.2488  0.5914 -0.0073
 1394SOL    HW1 5470   4.435   8.269   4.341  0.7967  0.7481  0.0325
 1394SOL    HW2 5471   4.331   8.302   4.446 -0.7831  1.0349 -1.5703
 1395SOL     OW 5472   6.427   2.923   0.467 -0.7462  0.1901  0.1693
 1395SOL    HW1 5473   6.499   2.935   0.405  0.2220 -3.4133  0.4006
 1395SOL    HW2 5474   6.469   2.912   0.552 -1.7533  0.2351  0.6962
 1396SOL     OW 5475   5.045   5.997   2.963  0.1144  0.0346 -0.4432
 1396SOL    HW1 5476   5.078   6.087   2.955  1.5581 -0.5088 -0.8265
 1396SOL    HW2 5477   5.097   5.947   2.900 -1.2630 -0.9305 -0.8543
 1397SOL     OW 5478   2.407   7.328   6.754 -0.2058 -0.5100 -0.0755
 1397SOL    HW1 5479   2.337   7.307   6.692 -0.8793  0.8334  0.1952
 1397SOL    HW2 5480   2.381   7.285   6.835 -0.1536 -0.8981 -0.2585
 1398SOL     OW 5481   5.001   4.371   0.696  0.6373 -0.1019 -0.9308
 1398SOL    HW1 5482   5.048   4.399   0.617 -0.1837 -0.7980 -1.6799
 1398SOL    HW2 5483   4.909   4.384   0.675  0.4408  0.7003  0.3199
 1399SOL     OW 5484   1.977   5.670   5.405  0.0082  0.6357  0.3989
 1399SOL    HW1 5485   2.045   5.725   5.368  0.9797  0.1960  1.4749
 1399SOL    HW2 5486   2.016   5.582   5.408 -1.1701  0.0408 -0.4045
 1400SOL     OW 5487   6.326   3.815   0.356  0.1946  0.4542 -0.3458
 1400SOL    HW1 5488   6.265   3.852   0.420 -0.7347  0.7811 -1.3832
 1400SOL    HW2 5489   6.304   3.722   0.352 -0.1832  0.5503 -0.6357
 1401SOL     OW 5490   1.602   5.630   1.863  0.1026  0.0476  0.0192
 1401SOL    HW1 5491   1.658   5.563   1.823  0.4264  0.6888 -0.6328
 1401SOL    HW2 5492   1.520   5.585   1.882  0.2674 -0.5030 -0.5414
 1402SOL     OW 5493   4.092   8.383   4.186  0.5812 -0.0025  0.8969
 1402SOL    HW1 5494   4.017   8.328   4.162  0.7895 -0.5313  1.4311
 1402SOL    HW2 5495   4.108   8.437   4.109  1.1789 -1.5893 -0.1373
 1403SOL     OW 5496   8.608   8.349   5.441  0.0965 -0.4303  0.1960
 1403SOL    HW1 5497   8.567   8.434   5.426 -0.3910 -0.8309 -0.9000
 1403SOL    HW2 5498   8.697   8.369   5.469 -0.7255  0.4590  2.3683
 1404SOL     OW 5499   5.559   0.675   2.605  0.2495  0.0669 -0.4615
 1404SOL    HW1 5500   5.510   0.597   2.582 -0.7166  0.7631 -0.8447
 1404SOL    HW2 5501   5.577   0.718   2.521  0.3027  0.5212 -0.2225
 1405SOL     OW 5502   0.811   4.034   4.140 -0.4208 -0.5524  0.2187
 1405SOL    HW1 5503   0.845   3.959   4.189 -0.8713  0.0957  1.5872
 1405SOL    HW2 5504   0.748   4.075   4.200 -1.4644 -0.0689 -1.1498
 1406SOL     OW 5505   5.494   5.133   4.252 -0.2642 -0.5540 -0.0781
 1406SOL    HW1 5506   5.411   5.103   4.217 -0.5846  1.9360 -1.7098
 1406SOL    HW2 5507   5.471   5.175   4.335 -0.3261 -1.5202  0.4063
 1407SOL     OW 5508   5.524   1.977   5.481  0.5527  0.2473  0.1679
 1407SOL    HW1 5509   5.525   1.885   5.505 -1.7191  0.2753  0.6340
 1407SOL    HW2 5510   5.475   1.980   5.399 -0.4888  1.1156  0.7824
 1408SOL     OW 5511   4.124   1.411   8.664  0.3911  0.4117  0.7043
 1408SOL    HW1 5512   4.197   1.389   8.606  0.5388  0.4278  0.8817
 1408SOL    HW2 5513   4.105   1.503   8.646  0.7836  0.5652  1.0553
 1409SOL     OW 5514   4.807   1.778   6.217 -0.2746  0.3701 -0.1886
 1409SOL    HW1 5515   4.793   1.869   6.191  0.1492  1.2389  2.3373
 1409SOL    HW2 5516   4.895   1.758   6.185  0.1034  1.2722  0.2393
 1410SOL     OW 5517   4.570   6.313   4.100  0.1883  0.2624 -0.0906
 1410SOL    HW1 5518   4.588   6.335   4.009 -0.1900  0.4267 -0.1299
 1410SOL    HW2 5519   4.490   6.362   4.121  0.3315  0.3125  0.3594
 1411SOL     OW 5520   4.906   0.533   2.102 -0.6648  0.3689 -0.3240
 1411SOL    HW1 5521   4.889   0.490   2.018 -1.6969 -0.5303  0.3184
 1411SOL    HW2 5522   4.939   0.620   2.078  1.5044 -0.7454 -1.6468
 1412SOL     OW 5523   6.047   1.325   3.188 -0.4493 -0.1095 -0.4687
 1412SOL    HW1 5524   6.014   1.413   3.173 -0.4207  0.1779  0.9715
 1412SOL    HW2 5525   6.131   1.323   3.143 -0.1645  0.8139 -0.0015
 1413SOL     OW 5526   1.256   4.242   7.798 -0.2649  0.7895  0.2870
 1413SOL    HW1 5527   1.274   4.165   7.852  0.2985 -0.0614 -1.0535
 1413SOL    HW2 5528   1.322   4.306   7.825 -0.4241  0.6337  1.0700
 1414SOL     OW 5529   0.336   0.186   5.119 -0.1541  0.7075  0.4039
 1414SOL    HW1 5530   0.259   0.221   5.075  0.0138 -1.4042 -1.7850
 1414SOL    HW2 5531   0.410   0.223   5.071  0.1042  0.2659  0.4559
 1415SOL     OW 5532   4.414   5.349   4.539 -0.3226 -0.1885 -0.2862
 1415SOL    HW1 5533   4.417   5.263   4.581  1.2135 -0.0778 -0.0938
 1415SOL    HW2 5534   4.498   5.389   4.561 -1.1502  1.5277 -0.0545
 1416SOL     OW 5535   7.890   0.779   2.611 -0.0257  0.3083 -0.2581
 1416SOL    HW1 5536   7.949   0.767   2.686 -0.2868 -1.2880 -0.2680
 1416SOL    HW2 5537   7.802   0.775   2.650 -0.1530  0.5744 -0.5176
 1417SOL     OW 5538   8.002   4.043   3.218 -0.2330 -0.1313 -0.1811
 1417SOL    HW1 5539   8.032   4.072   3.132  1.0911 -1.5340 -0.2264
 1417SOL    HW2 5540   8.074   3.991   3.252 -0.5169  0.8291  2.0388
 1418SOL     OW 5541   6.802   0.587   4.564  0.4033 -0.2338  0.5972
 1418SOL    HW1 5542   6.838   0.532   4.634  3.7278  0.5488 -0.3169
 1418SOL    HW2 5543   6.851   0.669   4.569 -0.1449  0.3347 -1.8218
 1419SOL     OW 5544   6.693   1.991   3.297  0.3742  0.6814  0.3279
 1419SOL    HW1 5545   6.704   2.001   3.203 -2.2117 -3.0602 -0.5734
 1419SOL    HW2 5546   6.631   2.061   3.322 -3.1351 -1.3488 -1.9477
 1420SOL     OW 5547   2.986   8.625   1.543 -0.2500 -0.4828  0.2951
 1420SOL    HW1 5548   3.011   8.714   1.516 -0.0617 -0.5248  0.3346
 1420SOL    HW2 5549   3.057   8.569   1.514 -1.1392 -0.8674 -1.2291
 1421SOL     OW 5550   3.593   7.955   4.705 -0.1820  0.1823  1.1370
 1421SOL    HW1 5551   3.677   7.930   4.744  1.0751  2.9358  0.4887
 1421SOL    HW2 5552   3.606   7.946   4.611 -1.2962 -1.1362  1.0804
 1422SOL     OW 5553   6.509   0.378   6.356  0.1739  0.6243 -0.1878
 1422SOL    HW1 5554   6.589   0.328   6.370  1.6146  2.1528 -2.2060
 1422SOL    HW2 5555   6.525   0.461   6.400 -0.4068  0.8526 -0.4029
 1423SOL     OW 5556   5.706   7.950   4.051  0.1362 -0.6015 -0.5679
 1423SOL    HW1 5557   5.703   7.870   4.103  0.1319  0.3584  0.9850
 1423SOL    HW2 5558   5.797   7.956   4.020 -0.1489 -1.7943 -1.7284
 1424SOL     OW 5559   6.813   6.026   8.162 -0.1602  0.1749  0.5308
 1424SOL    HW1 5560   6.794   5.932   8.151  2.9901 -1.0083  3.3685
 1424SOL    HW2 5561   6.749   6.056   8.226  0.4400 -0.7758  1.6077
 1425SOL     OW 5562   3.909   2.147   6.485  0.0300 -0.2331  0.6203
 1425SOL    HW1 5563   3.996   2.183   6.467 -0.2304  0.4130  0.6403
 1425SOL    HW2 5564   3.886   2.183   6.571 -0.9879  1.0122 -0.1415
 1426SOL     OW 5565   0.657   5.157   7.681  0.2143 -0.6266  0.2948
 1426SOL    HW1 5566   0.686   5.096   7.613  0.9207  0.3977 -0.3485
 1426SOL    HW2 5567   0.702   5.127   7.760  0.1600 -1.2396  0.1013
 1427SOL     OW 5568   3.034   0.698   3.396  0.4779 -0.3848 -0.1302
 1427SOL    HW1 5569   3.043   0.682   3.490  1.6877  0.2136 -0.1212
 1427SOL    HW2 5570   2.948   0.664   3.373 -0.9638  1.7548  1.6934
 1428SOL     OW 5571   0.188   0.542   5.268  0.6454  0.5039  0.5323
 1428SOL    HW1 5572   0.253   0.492   5.318  1.0757  1.1427  0.6276
 1428SOL    HW2 5573   0.185   0.500   5.183  1.4882  0.7041  0.3909
 1429SOL     OW 5574   5.674   0.771   3.794 -0.1168  0.6722  0.3413
 1429SOL    HW1 5575   5.629   0.735   3.871 -0.2637 -0.2452 -0.1672
 1429SOL    HW2 5576   5.723   0.846   3.828 -1.6589  1.4243  1.0056
 1430SOL     OW 5577   0.013   5.618   3.542 -0.5114 -0.1144  0.2104
 1430SOL    HW1 5578  -0.077   5.645   3.557 -0.1267  0.6205  1.2987
 1430SOL    HW2 5579   0.061   5.700   3.530  0.0461 -0.4914 -0.1860
 1431SOL     OW 5580   7.276   2.210   6.090  0.1433 -0.1374  0.1138
 1431SOL    HW1 5581   7.352   2.239   6.040  0.9489  0.4272  1.5774
 1431SOL    HW2 5582   7.212   2.184   6.025  0.0723  3.1633 -1.3352
 1432SOL     OW 5583   5.155   0.808   7.247 -0.4223  0.1470  0.1279
 1432SOL    HW1 5584   5.160   0.724   7.293 -2.6825 -0.4299 -0.5150
 1432SOL    HW2 5585   5.089   0.857   7.296 -1.4752  0.2530 -1.3127
 1433SOL     OW 5586   0.379   8.056   7.462 -0.1780 -0.3020 -0.7744
 1433SOL    HW1 5587   0.332   8.124   7.414 -1.4986 -0.7591 -0.1912
 1433SOL    HW2 5588   0.371   8.082   7.553 -0.6769 -1.2033 -0.5491
 1434SOL     OW 5589   5.405   6.892   1.437 -0.4442  0.2316  0.5491
 1434SOL    HW1 5590   5.417   6.889   1.342 -0.2376  0.8575  0.5514
 1434SOL    HW2 5591   5.367   6.807   1.459 -1.1601  0.3531 -0.1856
 1435SOL     OW 5592   0.500   7.865   7.327 -0.3184  0.1627  0.5243
 1435SOL    HW1 5593   0.466   7.926   7.392  0.7981  0.5351  0.7861
 1435SOL    HW2 5594   0.482   7.778   7.363  0.6792  0.3648  1.5641
 1436SOL     OW 5595   8.526   1.518   1.063  0.3891 -0.0873 -0.4350
 1436SOL    HW1 5596   8.601   1.473   1.102 -0.6328 -0.0592  1.7494
 1436SOL    HW2 5597   8.536   1.609   1.091 -1.3753 -0.4216  1.5885
 1437SOL     OW 5598   1.279   3.679   2.796 -0.4770 -0.1918 -0.4513
 1437SOL    HW1 5599   1.220   3.714   2.863 -0.6547 -1.6106  0.1760
 1437SOL    HW2 5600   1.287   3.749   2.732 -0.8398  0.9659  0.7130
 1438SOL     OW 5601   0.985   6.696   6.940  0.2025  0.1143  0.7265
 1438SOL    HW1 5602   0.981   6.789   6.921 -0.0223  0.0200  0.3112
 1438SOL    HW2 5603   1.066   6.666   6.898 -1.0595 -0.3989 -1.4676
 1439SOL     OW 5604   0.914   5.436   5.881  0.7972 -0.4587 -0.0302
 1439SOL    HW1 5605   0.834   5.481   5.855  1.6995  1.5514  0.4663
 1439SOL    HW2 5606   0.938   5.383   5.805 -0.3494 -0.1358 -0.6285
 1440SOL     OW 5607   2.899   1.327   1.545 -0.0257  0.1787 -0.4054
 1440SOL    HW1 5608   2.836   1.389   1.510 -0.5469 -0.9270 -1.5210
 1440SOL    HW2 5609   2.845   1.254   1.578  0.6279 -0.3699 -0.5283
 1441SOL     OW 5610   2.699   3.366   3.188 -0.1108 -0.0676  0.2148
 1441SOL    HW1 5611   2.719   3.440   3.246  1.7053 -0.2853 -0.0826
 1441SOL    HW2 5612   2.707   3.289   3.244 -0.3311 -0.1441  0.1391
 1442SOL     OW 5613   0.714   7.178   6.196 -0.0807  0.0584  0.1536
 1442SOL    HW1 5614   0.743   7.264   6.166  1.7071 -0.4821  0.1949
 1442SOL    HW2 5615   0.765   7.162   6.276  0.2341 -1.3689 -0.3069
 1443SOL     OW 5616   2.137   0.615   7.093 -0.5996  0.2481  0.5232
 1443SOL    HW1 5617   2.218   0.598   7.141 -0.0175 -1.1679 -0.8902
 1443SOL    HW2 5618   2.098   0.529   7.079 -0.8928  0.6360 -1.2643
 1444SOL     OW 5619   7.014   5.920   2.846  0.0538 -0.2066 -0.2845
 1444SOL    HW1 5620   6.984   5.977   2.916 -0.5665 -0.5672 -0.2505
 1444SOL    HW2 5621   6.968   5.951   2.768 -0.9622 -1.1747 -0.1082
 1445SOL     OW 5622   5.798   7.379   1.188 -0.4050 -0.3326 -0.6496
 1445SOL    HW1 5623   5.832   7.367   1.099 -0.0588 -0.3006 -0.5238
 1445SOL    HW2 5624   5.857   7.328   1.243 -0.1305  0.2995 -0.3439
 1446SOL     OW 5625   8.298   3.883   5.978  0.1782  0.3996 -0.5411
 1446SOL    HW1 5626   8.360   3.908   5.910  1.7710 -1.6767  0.0376
 1446SOL    HW2 5627   8.292   3.959   6.035 -0.1592  1.6911 -2.2355
 1447SOL     OW 5628   5.044   0.169   2.325  0.0805 -0.2565  0.0023
 1447SOL    HW1 5629   5.070   0.164   2.416  1.2592  0.1815 -0.2917
 1447SOL    HW2 5630   4.960   0.123   2.321  0.1962 -0.5965  1.2264
 1448SOL     OW 5631   6.234   7.282   5.000  0.3883 -0.2459  0.3931
 1448SOL    HW1 5632   6.179   7.211   4.966  1.1773 -0.3854 -0.6378
 1448SOL    HW2 5633   6.177   7.330   5.060 -0.3145 -1.4380  0.7089
 1449SOL     OW 5634   4.737   5.807   0.904  0.1036 -0.5163 -0.6666
 1449SOL    HW1 5635   4.826   5.772   0.903 -0.5785 -2.3638 -1.4079
 1449SOL    HW2 5636   4.746   5.897   0.937  2.2445 -0.5968 -0.9290
 1450SOL     OW 5637   2.390   5.742   1.935  0.7283  0.0142  0.4764
 1450SOL    HW1 5638   2.306   5.710   1.902  1.8059  0.5307 -3.1866
 1450SOL    HW2 5639   2.373   5.762   2.027 -2.6326 -1.5921  0.3660
 1451SOL     OW 5640   0.552   5.793   7.131 -0.2184  0.8034  0.2994
 1451SOL    HW1 5641   0.527   5.882   7.105  1.2751  0.9660 -0.7279
 1451SOL    HW2 5642   0.548   5.794   7.227 -1.3573  1.6062  0.2629
 1452SOL     OW 5643   1.140   1.853   0.865 -0.2952  0.3896 -0.3483
 1452SOL    HW1 5644   1.142   1.949   0.861 -0.4616  0.4237  0.3175
 1452SOL    HW2 5645   1.135   1.833   0.958  0.9672 -0.2962 -0.4007
 1453SOL     OW 5646   0.019   1.971   5.192 -0.8135  0.1498  0.0038
 1453SOL    HW1 5647   0.072   1.952   5.115 -0.2958  1.4695  0.0021
 1453SOL    HW2 5648   0.031   2.065   5.207 -1.7770  0.1366  1.0440
 1454SOL     OW 5649   4.311   7.450   3.438  0.4681  0.2753 -0.2140
 1454SOL    HW1 5650   4.386   7.446   3.379  0.8548  2.6046  0.0336
 1454SOL    HW2 5651   4.344   7.491   3.517 -0.7410 -0.0149  0.4763
 1455SOL     OW 5652   7.832   1.051   2.041  0.2471  0.2440 -0.1717
 1455SOL    HW1 5653   7.767   1.078   2.105  0.1313  0.2728 -0.3013
 1455SOL    HW2 5654   7.888   0.988   2.088  0.4832  0.6614  0.1110
 1456SOL     OW 5655   5.382   1.968   5.245 -0.4867  0.3139 -0.6307
 1456SOL    HW1 5656   5.303   1.917   5.262 -0.8227  0.0230 -2.7677
 1456SOL    HW2 5657   5.436   1.912   5.189 -0.1274  1.6377 -1.6690
 1457SOL     OW 5658   4.540   2.975   8.585  0.7032 -0.0127 -0.7926
 1457SOL    HW1 5659   4.575   3.034   8.518  0.7004 -0.7211 -1.4424
 1457SOL    HW2 5660   4.465   2.933   8.542  2.5503 -2.8251 -1.5410
 1458SOL     OW 5661   6.721   8.396   6.875 -0.1681 -0.4158 -0.4966
 1458SOL    HW1 5662   6.794   8.456   6.859  0.2087 -0.9955 -0.9716
 1458SOL    HW2 5663   6.654   8.423   6.811 -0.2831 -0.0442 -0.2251
 1459SOL     OW 5664   1.389   8.480   2.098 -0.2959  0.0956  0.4634
 1459SOL    HW1 5665   1.352   8.567   2.113 -0.2263  0.0198  1.0990
 1459SOL    HW2 5666   1.353   8.427   2.168  0.1858 -0.2310  0.4640
 1460SOL     OW 5667   3.073   5.807   7.059 -0.6429 -0.0315  0.5843
 1460SOL    HW1 5668   3.139   5.791   7.127 -2.4192 -2.2088  1.9274
 1460SOL    HW2 5669   3.052   5.900   7.068  1.9260  0.6571  0.3146
 1461SOL     OW 5670   4.522   4.228   0.607 -0.2603 -0.0751 -0.5157
 1461SOL    HW1 5671   4.495   4.187   0.525 -0.8721 -1.1829  0.1984
 1461SOL    HW2 5672   4.469   4.183   0.674  2.0487 -1.0798  0.7763
 1462SOL     OW 5673   1.548   7.548   6.762  0.6406 -0.1347 -0.5511
 1462SOL    HW1 5674   1.624   7.494   6.738 -0.2852 -1.9400  0.3947
 1462SOL    HW2 5675   1.586   7.633   6.786  2.3711 -1.0186 -0.0043
 1463SOL     OW 5676   0.482   8.524   7.597  0.1783  0.0619 -0.3078
 1463SOL    HW1 5677   0.572   8.558   7.597 -0.3961  1.7378  0.6465
 1463SOL    HW2 5678   0.487   8.441   7.550  1.6854  1.4873 -2.8590
 1464SOL     OW 5679   0.591   8.156   1.949  0.3386 -0.4309 -0.1503
 1464SOL    HW1 5680   0.530   8.217   1.991  0.1687 -1.0912  0.6178
 1464SOL    HW2 5681   0.642   8.209   1.889 -0.1998  0.3537  0.0683
 1465SOL     OW 5682   0.886   4.306   3.447  0.0039 -0.1653 -0.2520
 1465SOL    HW1 5683   0.887   4.237   3.514 -1.2227 -1.6707 -1.6958
 1465SOL    HW2 5684   0.870   4.260   3.365  0.4971  1.7285 -1.4893
 1466SOL     OW 5685   5.245   6.628   0.069 -0.1399 -0.2918  0.4651
 1466SOL    HW1 5686   5.326   6.615   0.019 -0.0787  0.9594  0.2015
 1466SOL    HW2 5687   5.273   6.630   0.160 -0.0474 -1.0666  0.4616
 1467SOL     OW 5688   0.090   6.750   6.919  0.6330 -0.5303  0.4613
 1467SOL    HW1 5689   0.008   6.701   6.927  0.7286 -0.7645  0.0149
 1467SOL    HW2 5690   0.157   6.683   6.907  0.6880 -0.2694 -0.7857
 1468SOL     OW 5691   0.149   6.478   1.034  0.0895  0.4820  0.0417
 1468SOL    HW1 5692   0.242   6.502   1.031  0.7987 -1.9058  0.8836
 1468SOL    HW2 5693   0.125   6.486   1.126 -0.6227  1.3036 -0.2057
 1469SOL     OW 5694   7.370   7.197   0.723 -0.4271 -0.4242 -0.1315
 1469SOL    HW1 5695   7.458   7.163   0.711  0.5622  2.1917 -1.1081
 1469SOL    HW2 5696   7.344   7.229   0.637 -0.9045  1.8686  0.7737
 1470SOL     OW 5697   7.247   2.797   2.659  0.2956 -0.2752  0.3505
 1470SOL    HW1 5698   7.294   2.762   2.734 -1.4080  0.9447  2.0836
 1470SOL    HW2 5699   7.156   2.772   2.674  0.0263 -0.7876 -1.8264
 1471SOL     OW 5700   5.793   4.628   0.956 -0.1118  0.0837  0.1815
 1471SOL    HW1 5701   5.740   4.580   1.020 -0.9790  1.3187  0.4262
 1471SOL    HW2 5702   5.784   4.577   0.875 -2.7090  0.8496 -0.1172
 1472SOL     OW 5703   0.540   3.218   5.034  0.3001  0.3384 -0.0279
 1472SOL    HW1 5704   0.527   3.197   4.942  1.2929  0.1715 -0.1423
 1472SOL    HW2 5705   0.634   3.238   5.042  0.5006 -0.8755  1.1572
 1473SOL     OW 5706   0.530   1.046   1.721 -0.1910 -0.2535  1.0246
 1473SOL    HW1 5707   0.434   1.047   1.724 -0.2140  1.4169  0.4689
 1473SOL    HW2 5708   0.556   1.095   1.799  0.2369 -0.8642  1.2742
 1474SOL     OW 5709   5.390   3.199   2.110  0.2297  0.0921 -0.3870
 1474SOL    HW1 5710   5.358   3.187   2.021 -0.5710  0.5731 -0.1699
 1474SOL    HW2 5711   5.354   3.124   2.158 -0.5185  0.5854 -0.1628
 1475SOL     OW 5712   6.057   1.141   6.968 -0.4580 -0.4802  0.3398
 1475SOL    HW1 5713   6.132   1.081   6.961 -1.6975 -1.8559 -2.0173
 1475SOL    HW2 5714   6.046   1.153   7.063  1.4116 -1.9303  0.8134
 1476SOL     OW 5715   2.216   5.064   1.564  0.1174 -0.0792  0.0796
 1476SOL    HW1 5716   2.280   5.134   1.569 -0.2910  0.3122 -0.0545
 1476SOL    HW2 5717   2.151   5.086   1.630 -0.5885  0.2704 -0.7066
 1477SOL     OW 5718   5.341   6.959   8.616  0.0023  0.0306  0.2194
 1477SOL    HW1 5719   5.425   6.955   8.661 -0.4329 -0.7312  1.0161
 1477SOL    HW2 5720   5.280   6.916   8.676 -0.5844 -1.1385 -1.1321
 1478SOL     OW 5721   1.391   8.285   7.310  0.1139 -0.0835  0.0569
 1478SOL    HW1 5722   1.376   8.302   7.217  0.6871 -0.1708 -0.0567
 1478SOL    HW2 5723   1.330   8.215   7.332 -2.0785  1.8370  0.4534
 1479SOL     OW 5724   5.577   8.582   6.868  0.0018  0.1818 -0.4096
 1479SOL    HW1 5725   5.580   8.593   6.963 -0.7050  0.3615 -0.4018
 1479SOL    HW2 5726   5.640   8.646   6.835  1.7992 -1.2957  0.0202
 1480SOL     OW 5727   7.437   4.163   5.205 -0.0444  0.3950  0.2131
 1480SOL    HW1 5728   7.523   4.140   5.240  0.3903  3.5850  1.5408
 1480SOL    HW2 5729   7.456   4.215   5.127 -0.7342  1.5264  0.7837
 1481SOL     OW 5730   6.473   7.931   1.346 -0.1151 -0.2390  0.5254
 1481SOL    HW1 5731   6.505   7.908   1.259 -1.3839 -0.9395  0.2216
 1481SOL    HW2 5732   6.426   7.853   1.377 -0.0771  0.1535  1.6472
 1482SOL     OW 5733   2.632   7.509   5.195  0.3014 -0.0298 -0.0679
 1482SOL    HW1 5734   2.562   7.451   5.166  0.7625 -0.1402 -1.0120
 1482SOL    HW2 5735   2.687   7.521   5.117  0.4530  1.3269  0.2114
 1483SOL     OW 5736   2.559   2.762   2.333  0.4070 -0.0998 -0.3197
 1483SOL    HW1 5737   2.552   2.831   2.267  2.8674  0.2492 -0.3021
 1483SOL    HW2 5738   2.531   2.804   2.414 -0.4793  0.1354 -0.7375
 1484SOL     OW 5739   5.504   5.517   7.322 -0.4166  0.4324 -0.2074
 1484SOL    HW1 5740   5.413   5.488   7.315 -0.3158  0.2450 -0.7991
 1484SOL    HW2 5741   5.555   5.436   7.319 -0.2114  0.5663 -0.3255
 1485SOL     OW 5742   2.136   7.933   0.281  0.4951  0.4489  0.1794
 1485SOL    HW1 5743   2.114   7.852   0.327  1.2468  0.0470 -0.1577
 1485SOL    HW2 5744   2.220   7.915   0.239  1.3223  1.8334  1.1560
 1486SOL     OW 5745   0.123   6.122   0.730 -0.0690  0.0735  0.2533
 1486SOL    HW1 5746   0.199   6.111   0.786 -1.5249 -2.3231  1.9409
 1486SOL    HW2 5747   0.072   6.191   0.773  1.0004  1.5994 -0.8170
 1487SOL     OW 5748   4.955   1.493   8.029  0.6451  0.5272  0.4231
 1487SOL    HW1 5749   5.001   1.413   8.002 -0.7875  0.0389 -0.7147
 1487SOL    HW2 5750   4.951   1.546   7.949 -0.7445  0.5430  0.4755
 1488SOL     OW 5751   6.865   4.724   1.477  0.0914 -0.5451 -0.5869
 1488SOL    HW1 5752   6.797   4.700   1.415 -0.4524 -1.5640  0.3719
 1488SOL    HW2 5753   6.927   4.651   1.476 -0.1356 -0.7678  0.3437
 1489SOL     OW 5754   7.752   6.036   3.302  0.4675  0.1437 -0.3626
 1489SOL    HW1 5755   7.828   6.094   3.297  0.7717 -0.2008  0.2324
 1489SOL    HW2 5756   7.769   5.980   3.377 -0.1524 -0.2586 -0.5146
 1490SOL     OW 5757   0.652   5.702   2.939 -0.3983  0.2490  0.0194
 1490SOL    HW1 5758   0.744   5.678   2.948 -0.3246 -0.2883 -1.8222
 1490SOL    HW2 5759   0.623   5.719   3.029  1.3609 -0.0156  0.6778
 1491SOL     OW 5760   5.797   0.889   0.103 -0.5508  0.4085 -0.2333
 1491SOL    HW1 5761   5.722   0.926   0.149  0.5313  1.9506  0.3813
 1491SOL    HW2 5762   5.871   0.904   0.162  0.1471 -1.7966 -0.4516
 1492SOL     OW 5763   2.426   4.745   3.801 -0.3081 -0.6613  0.4757
 1492SOL    HW1 5764   2.459   4.702   3.722 -1.4258 -1.9094  0.6410
 1492SOL    HW2 5765   2.393   4.829   3.770  0.4928 -0.5654 -0.1453
 1493SOL     OW 5766   4.185   4.972   8.485 -0.0464 -1.0373 -0.1446
 1493SOL    HW1 5767   4.101   5.017   8.496 -1.4356 -3.1022 -1.6835
 1493SOL    HW2 5768   4.205   4.936   8.571 -0.6190 -0.3433  0.2889
 1494SOL     OW 5769   0.638   6.409   4.607 -0.2913 -0.2309 -0.4650
 1494SOL    HW1 5770   0.627   6.472   4.536  0.7553  0.7957  0.2637
 1494SOL    HW2 5771   0.727   6.375   4.596 -1.0842 -2.2407 -1.3311
 1495SOL     OW 5772   7.428   0.402   5.027 -0.1311  0.1812  0.5769
 1495SOL    HW1 5773   7.467   0.486   5.052 -0.4230  0.6181 -0.3723
 1495SOL    HW2 5774   7.477   0.337   5.078 -0.9987  1.0175  2.5777
 1496SOL     OW 5775   3.542   2.315   6.053  0.2681  0.0910 -0.0451
 1496SOL    HW1 5776   3.498   2.371   5.989 -0.3053 -0.4005 -0.0892
 1496SOL    HW2 5777   3.547   2.367   6.133 -0.6326  0.0594  0.0337
 1497SOL     OW 5778   1.799   7.692   4.499 -0.1214 -0.0583 -0.2802
 1497SOL    HW1 5779   1.731   7.754   4.524  0.0532 -0.4924  1.4769
 1497SOL    HW2 5780   1.865   7.745   4.454  0.9639  1.5605  2.8590
 1498SOL     OW 5781   2.543   5.203   5.291 -0.3285  0.1159 -0.1966
 1498SOL    HW1 5782   2.474   5.242   5.238  0.5655  0.9466 -0.7640
 1498SOL    HW2 5783   2.519   5.226   5.381 -2.0801 -1.6578 -0.1326
 1499SOL     OW 5784   4.783   7.092   3.433  0.3386  0.0983  0.0581
 1499SOL    HW1 5785   4.833   7.081   3.352 -0.6142  0.4793 -0.6019
 1499SOL    HW2 5786   4.795   7.184   3.457 -0.0417  0.1856 -0.0935
 1500SOL     OW 5787   5.873   8.604   3.029  0.6025  0.1919 -0.8046
 1500SOL    HW1 5788   5.876   8.597   3.124  0.6336  0.0825 -0.8127
 1500SOL    HW2 5789   5.906   8.519   2.998 -0.4492 -0.2051 -0.9066
 1501SOL     OW 5790   3.679   2.219   7.155  0.6455 -0.3731  0.3407
 1501SOL    HW1 5791   3.611   2.266   7.203 -0.1464 -0.9940 -0.1307
 1501SOL    HW2 5792   3.749   2.283   7.142 -0.4584  0.7332 -0.4325
 1502SOL     OW 5793   0.485   7.830   6.887 -0.1763 -0.0476 -0.2507
 1502SOL    HW1 5794   0.409   7.814   6.943  1.1969  0.9377  2.0227
 1502SOL    HW2 5795   0.556   7.850   6.948  1.7336 -0.1236 -2.3223
 1503SOL     OW 5796   2.247   6.286   3.430  0.0866 -0.4779  0.2842
 1503SOL    HW1 5797   2.319   6.313   3.373  1.0947  0.3335  1.8785
 1503SOL    HW2 5798   2.211   6.368   3.464 -3.1530 -0.6545 -2.1436
 1504SOL     OW 5799   7.492   0.900   0.082  0.2969  0.1593 -0.0494
 1504SOL    HW1 5800   7.567   0.937   0.036 -0.0480  1.4527  0.3840
 1504SOL    HW2 5801   7.464   0.969   0.142 -1.3008 -0.2480 -0.2653
 1505SOL     OW 5802   2.720   4.757   5.619  0.5840  0.3662  0.1634
 1505SOL    HW1 5803   2.643   4.729   5.568  0.3538  1.6476 -0.2209
 1505SOL    HW2 5804   2.717   4.703   5.698 -0.6349  0.2995  0.0909
 1506SOL     OW 5805   7.093   7.144   0.107  0.6350  0.2805  0.0997
 1506SOL    HW1 5806   7.157   7.173   0.042  0.7259 -0.7677 -0.3076
 1506SOL    HW2 5807   7.146   7.107   0.178  0.5154  0.6416  0.3761
 1507SOL     OW 5808   2.799   3.745   4.485 -0.0329 -0.5241  0.0516
 1507SOL    HW1 5809   2.809   3.836   4.455 -0.4618 -0.2602  0.6834
 1507SOL    HW2 5810   2.867   3.697   4.437  1.1577  0.3823  0.7561
 1508SOL     OW 5811   3.644   6.028   3.353 -0.3697  0.7591  0.0356
 1508SOL    HW1 5812   3.687   6.100   3.399  0.6247 -0.1244  0.5230
 1508SOL    HW2 5813   3.601   5.977   3.421  3.2634 -2.0575  0.5269
 1509SOL     OW 5814   1.412   5.306   6.494 -0.6742 -0.0141  0.3063
 1509SOL    HW1 5815   1.490   5.360   6.500 -0.7189  0.0959 -0.0826
 1509SOL    HW2 5816   1.421   5.259   6.412 -1.2125  0.3087  0.0582
 1510SOL     OW 5817   0.579   5.197   7.305 -0.2584 -0.4974  0.0666
 1510SOL    HW1 5818   0.583   5.162   7.216 -0.8626  1.5418 -0.8273
 1510SOL    HW2 5819   0.670   5.215   7.329 -0.1963  0.4349 -0.8059
 1511SOL     OW 5820   0.898   7.883   0.064  0.4693  0.3716 -0.3218
 1511SOL    HW1 5821   0.974   7.832   0.091 -1.1868 -2.1559 -0.0054
 1511SOL    HW2 5822   0.825   7.845   0.113 -0.9529  3.1184 -0.1075
 1512SOL     OW 5823   2.435   0.148   4.204 -0.0367 -0.5977 -0.2788
 1512SOL    HW1 5824   2.509   0.131   4.262  2.2797  0.9335 -2.5656
 1512SOL    HW2 5825   2.389   0.221   4.245  1.0281 -0.1235  0.1075
 1513SOL     OW 5826   5.204   0.241   0.139  0.4986 -0.8077 -0.1332
 1513SOL    HW1 5827   5.266   0.311   0.117 -1.2297  0.5234 -0.9583
 1513SOL    HW2 5828   5.230   0.168   0.082 -0.4450  0.7198 -2.6631
 1514SOL     OW 5829   8.552   6.028   5.289  0.3934  0.3597 -0.8218
 1514SOL    HW1 5830   8.530   5.940   5.318 -0.7917  1.4640  1.9987
 1514SOL    HW2 5831   8.638   6.046   5.327  0.3705  0.6126 -0.8855
 1515SOL     OW 5832   1.576   1.606   1.150 -0.3982  0.0585  0.6671
 1515SOL    HW1 5833   1.579   1.634   1.059 -0.3340 -0.0520  0.6350
 1515SOL    HW2 5834   1.658   1.557   1.163 -1.5973 -2.2491  0.0203
 1516SOL     OW 5835   6.859   7.830   7.751 -0.5100  0.3908  0.2313
 1516SOL    HW1 5836   6.898   7.759   7.801 -1.5537  0.8326  1.7288
 1516SOL    HW2 5837   6.812   7.882   7.816 -0.4127  2.0180 -0.9417
 1517SOL     OW 5838   0.210   3.143   5.846  0.4474  0.0979  0.3440
 1517SOL    HW1 5839   0.131   3.170   5.893  1.4039 -1.8575  3.3443
 1517SOL    HW2 5840   0.179   3.084   5.778 -0.7930  0.9094  0.1745
 1518SOL     OW 5841   1.871   6.760   7.987  0.5902 -0.0403  0.1711
 1518SOL    HW1 5842   1.946   6.781   7.932 -0.2494  2.5896 -0.1056
 1518SOL    HW2 5843   1.908   6.745   8.074  1.6628 -1.5342 -0.5179
 1519SOL     OW 5844   7.057   4.634   1.081  0.3746  0.3868 -0.6624
 1519SOL    HW1 5845   7.017   4.704   1.133 -0.5216 -1.2796  1.0489
 1519SOL    HW2 5846   7.151   4.651   1.084  0.3495  0.3951  1.5466
 1520SOL     OW 5847   0.302   3.535   6.623 -0.0683 -0.4886 -0.1966
 1520SOL    HW1 5848   0.255   3.458   6.591  0.6169 -1.0191  0.0383
 1520SOL    HW2 5849   0.303   3.525   6.718  1.9243 -1.3732 -0.2513
 1521SOL     OW 5850   1.988   1.634   5.237 -0.1632 -0.0053 -0.6123
 1521SOL    HW1 5851   1.893   1.645   5.228 -0.1690  2.0257  1.1677
 1521SOL    HW2 5852   1.998   1.569   5.306 -0.2999  1.1493  0.5152
 1522SOL     OW 5853   7.432   0.838   3.707  0.3330 -0.1412  0.5196
 1522SOL    HW1 5854   7.467   0.759   3.749  0.9297 -1.7278 -2.6126
 1522SOL    HW2 5855   7.494   0.907   3.732  1.9245 -1.4730  0.4683
 1523SOL     OW 5856   6.981   0.714   1.521  0.3327 -0.3262  0.1639
 1523SOL    HW1 5857   6.971   0.641   1.460  1.4169 -0.0574 -0.3710
 1523SOL    HW2 5858   7.061   0.758   1.492 -0.4877  1.2949  0.2447
 1524SOL     OW 5859   8.302   6.286   4.934  0.2866 -0.4177  0.1928
 1524SOL    HW1 5860   8.230   6.257   4.878 -1.1424  1.0868  1.1505
 1524SOL    HW2 5861   8.303   6.223   5.006  0.2920 -0.7509 -0.0964
 1525SOL     OW 5862   3.439   7.443   0.868  0.2719  0.3379  0.5009
 1525SOL    HW1 5863   3.364   7.389   0.894  0.4356  0.3788  1.0837
 1525SOL    HW2 5864   3.403   7.531   0.859 -0.1864  0.0086 -1.3415
 1526SOL     OW 5865   0.464   0.471   7.914  0.1429 -0.1462 -0.1958
 1526SOL    HW1 5866   0.519   0.540   7.949 -0.1709  0.9503 -1.7190
 1526SOL    HW2 5867   0.449   0.411   7.987  0.6433  1.2597  1.1043
 1527SOL     OW 5868   6.637   1.220   4.412  0.5065  0.1256 -0.5028
 1527SOL    HW1 5869   6.560   1.258   4.369  0.6741 -1.3981 -2.2689
 1527SOL    HW2 5870   6.605   1.137   4.448  0.8421  0.4904  0.6819
 1528SOL     OW 5871   0.056   5.164   4.125 -0.4165  0.0202 -0.0650
 1528SOL    HW1 5872   0.120   5.129   4.188 -0.5372 -0.9067 -0.4474
 1528SOL    HW2 5873  -0.028   5.127   4.153 -0.7082  0.7985  0.1074
 1529SOL     OW 5874   0.396   3.170   0.909 -0.5110  0.1599 -0.0277
 1529SOL    HW1 5875   0.434   3.250   0.946 -1.2204  1.4032 -1.8574
 1529SOL    HW2 5876   0.305   3.171   0.938 -0.0743 -1.0091  1.4915
 1530SOL     OW 5877   7.103   7.313   3.813 -0.8136  0.1702 -0.2013
 1530SOL    HW1 5878   7.189   7.346   3.838 -0.5712 -0.7218  0.1878
 1530SOL    HW2 5879   7.043   7.384   3.835 -0.3409  0.2561  0.9154
 1531SOL     OW 5880   5.329   5.449   3.445  0.2766 -0.0903  0.0732
 1531SOL    HW1 5881   5.256   5.393   3.419  0.9616 -0.7613 -0.4254
 1531SOL    HW2 5882   5.407   5.400   3.422  0.8966  0.9471 -0.1182
 1532SOL     OW 5883   7.105   1.867   5.349 -0.0972  0.4361 -0.0152
 1532SOL    HW1 5884   7.012   1.880   5.331 -0.1638 -0.3634 -0.2561
 1532SOL    HW2 5885   7.150   1.920   5.283 -0.3669  1.3003  0.4638
 1533SOL     OW 5886   2.596   6.369   8.630 -0.0824 -0.5379 -0.0940
 1533SOL    HW1 5887   2.646   6.384   8.710 -0.9440  0.6664  0.2509
 1533SOL    HW2 5888   2.662   6.362   8.561  0.5988  0.3916  0.4395
 1534SOL     OW 5889   0.830   0.502   1.767  0.2367 -0.3283 -0.2013
 1534SOL    HW1 5890   0.748   0.525   1.812 -0.0635 -0.2032 -0.8099
 1534SOL    HW2 5891   0.855   0.418   1.805  0.4799  0.2025  0.8754
 1535SOL     OW 5892   3.743   0.475   0.983 -0.2971 -0.4353  0.2491
 1535SOL    HW1 5893   3.806   0.441   0.920  0.1303  2.4821 -1.0479
 1535SOL    HW2 5894   3.795   0.527   1.044 -1.1927  0.6308  0.1546
 1536SOL     OW 5895   5.536   7.523   2.458  0.0538 -0.0186 -0.4400
 1536SOL    HW1 5896   5.525   7.615   2.479  0.5129  0.2906 -1.5007
 1536SOL    HW2 5897   5.606   7.521   2.393  2.8200 -1.4030  2.2717
 1537SOL     OW 5898   6.606   1.713   4.952 -0.0359 -0.0569  0.6426
 1537SOL    HW1 5899   6.563   1.672   4.876  1.8388  2.0802 -1.7596
 1537SOL    HW2 5900   6.677   1.653   4.973  0.7205  0.3003 -0.7378
 1538SOL     OW 5901   3.337   6.703   5.570  0.1830  0.1678  0.2938
 1538SOL    HW1 5902   3.276   6.659   5.629  0.4428  0.1490  0.5487
 1538SOL    HW2 5903   3.367   6.779   5.618  0.8096 -0.1406  0.3999
 1539SOL     OW 5904   3.830   7.556   8.503 -0.1526  0.5727 -0.1952
 1539SOL    HW1 5905   3.879   7.582   8.582  1.0758  0.6037 -0.9382
 1539SOL    HW2 5906   3.760   7.500   8.536  2.4956 -2.5519  0.7184
 1540SOL     OW 5907   5.001   8.611   0.949  0.0202 -0.4581  0.6514
 1540SOL    HW1 5908   5.076   8.564   0.913  0.2036  0.3764 -0.0919
 1540SOL    HW2 5909   4.931   8.597   0.885  1.3083  4.0304 -2.2169
 1541SOL     OW 5910   4.566   1.251   6.696  0.1729  0.4332  0.6775
 1541SOL    HW1 5911   4.612   1.315   6.642 -0.4602  0.8966  0.6773
 1541SOL    HW2 5912   4.623   1.241   6.773  0.3754  0.8564  0.5898
 1542SOL     OW 5913   4.164   1.224   4.286  0.0693  0.3288 -0.2619
 1542SOL    HW1 5914   4.138   1.152   4.343 -1.0670 -0.6234 -1.8786
 1542SOL    HW2 5915   4.151   1.189   4.197  3.9479  0.8785 -1.2263
 1543SOL     OW 5916   0.614   6.420   4.043 -0.0069 -0.0297  0.0711
 1543SOL    HW1 5917   0.638   6.506   4.008 -0.9878  0.4711  0.5899
 1543SOL    HW2 5918   0.553   6.384   3.978  0.6128 -0.4614 -0.2813
 1544SOL     OW 5919   3.824   3.558   0.982  0.1402 -0.0484  0.1194
 1544SOL    HW1 5920   3.743   3.509   0.968 -0.0277  0.5210 -1.0114
 1544SOL    HW2 5921   3.845   3.594   0.896  2.5160 -1.5613 -0.0331
 1545SOL     OW 5922   2.146   2.444   6.400  0.6820  0.2897 -0.1665
 1545SOL    HW1 5923   2.093   2.522   6.390 -2.5132 -1.8029 -1.0337
 1545SOL    HW2 5924   2.224   2.474   6.446 -0.7221  3.7902  0.2495
 1546SOL     OW 5925   5.444   0.473   5.615 -0.4199  0.5014 -0.1993
 1546SOL    HW1 5926   5.408   0.389   5.588  0.1062  0.0324  0.4957
 1546SOL    HW2 5927   5.467   0.460   5.708  0.2945  1.1887 -0.2685
 1547SOL     OW 5928   4.977   3.808   4.416  0.1892  0.7466 -0.3460
 1547SOL    HW1 5929   4.917   3.779   4.485  0.0437 -0.4147 -0.9370
 1547SOL    HW2 5930   4.986   3.902   4.430 -0.2326  0.6137  0.9455
 1548SOL     OW 5931   0.241   3.846   6.212  0.1349 -0.3044 -0.0620
 1548SOL    HW1 5932   0.179   3.829   6.283 -0.0193 -0.7855 -0.3072
 1548SOL    HW2 5933   0.321   3.874   6.257  0.2492 -1.2188  0.3509
 1549SOL     OW 5934   4.478   8.639   2.484 -0.0779  0.2808 -0.5927
 1549SOL    HW1 5935   4.447   8.716   2.436 -0.3912  1.4620  1.3963
 1549SOL    HW2 5936   4.418   8.631   2.557  1.8926  0.1795  1.1086
 1550SOL     OW 5937   0.832   8.133   7.969 -0.0588  0.7798  0.3833
 1550SOL    HW1 5938   0.863   8.058   7.919  1.1839  0.6299  1.3366
 1550SOL    HW2 5939   0.899   8.200   7.957 -1.2051  1.8140 -0.5479
 1551SOL     OW 5940   0.860   1.972   8.607 -0.4057  0.0482 -0.7061
 1551SOL    HW1 5941   0.829   1.965   8.697 -0.8795 -0.5514 -0.9112
 1551SOL    HW2 5942   0.784   2.005   8.558  0.3305  2.0481 -0.6188
 1552SOL     OW 5943   7.957   3.934   4.422 -0.0876 -0.2468  0.1152
 1552SOL    HW1 5944   7.870   3.945   4.458  1.1330  1.8367  2.7720
 1552SOL    HW2 5945   7.958   3.991   4.344 -0.8647  0.3449  0.5259
 1553SOL     OW 5946   3.820   4.854   3.583 -0.1478  0.1166  0.0467
 1553SOL    HW1 5947   3.830   4.928   3.643  0.1939  0.5868 -0.5733
 1553SOL    HW2 5948   3.908   4.818   3.576 -0.2836 -0.2455  0.2193
 1554SOL     OW 5949   2.351   4.309   0.848  0.0176  0.0453 -0.0021
 1554SOL    HW1 5950   2.385   4.398   0.849  0.4203 -0.1051  1.0873
 1554SOL    HW2 5951   2.423   4.256   0.814 -0.1918  0.1143 -0.5668
 1555SOL     OW 5952   4.673   4.783   0.136 -0.3046 -0.1971 -0.0147
 1555SOL    HW1 5953   4.720   4.794   0.219 -0.0051  2.0594 -0.4352
 1555SOL    HW2 5954   4.705   4.700   0.102  0.9670 -0.2700  1.2393
 1556SOL     OW 5955   8.012   3.483   4.001  0.0702 -0.3101 -0.0579
 1556SOL    HW1 5956   8.050   3.480   3.913  1.1937  0.1658  0.3858
 1556SOL    HW2 5957   7.947   3.553   3.998 -0.5072 -0.8673 -0.7307
 1557SOL     OW 5958   5.116   0.176   2.053  0.4456 -0.1368  0.5827
 1557SOL    HW1 5959   5.038   0.135   2.015 -0.1841  1.4459  0.1000
 1557SOL    HW2 5960   5.088   0.203   2.141  1.1661 -1.5910  1.2978
 1558SOL     OW 5961   3.614   6.682   2.919 -0.8091 -0.6210  0.0045
 1558SOL    HW1 5962   3.620   6.605   2.975  1.0983 -1.1077 -0.7984
 1558SOL    HW2 5963   3.703   6.718   2.919 -1.5647  1.3423  0.0142
 1559SOL     OW 5964   4.881   7.841   7.975  0.0634 -0.9080  0.2584
 1559SOL    HW1 5965   4.894   7.751   7.947 -0.5329 -1.1633  0.7768
 1559SOL    HW2 5966   4.867   7.890   7.894  0.3301 -1.2922 -0.0182
 1560SOL     OW 5967   8.296   2.349   5.250  0.0577  0.2650  0.1221
 1560SOL    HW1 5968   8.209   2.328   5.283  0.3499 -0.9588  0.1554
 1560SOL    HW2 5969   8.327   2.420   5.306 -0.2914 -0.3617  1.1257
 1561SOL     OW 5970   6.895   1.445   1.639 -0.3040 -0.1294  0.1309
 1561SOL    HW1 5971   6.885   1.511   1.709  0.2664 -2.3933  2.5156
 1561SOL    HW2 5972   6.812   1.397   1.641  0.3762 -1.3188  0.5094
 1562SOL     OW 5973   1.414   1.897   7.395  0.2775  0.1603 -0.2219
 1562SOL    HW1 5974   1.494   1.917   7.445 -0.2090  1.3797  0.1071
 1562SOL    HW2 5975   1.357   1.973   7.411 -0.8936 -0.6347 -0.5636
 1563SOL     OW 5976   8.428   3.020   5.137  0.0561  0.6828  0.4711
 1563SOL    HW1 5977   8.364   3.090   5.149 -0.4143  0.2470  0.5291
 1563SOL    HW2 5978   8.513   3.063   5.147 -0.2261  1.2710  0.3541
 1564SOL     OW 5979   8.608   3.853   7.854 -0.7738  0.4586 -0.3806
 1564SOL    HW1 5980   8.610   3.795   7.778  1.4791  0.4473 -0.3719
 1564SOL    HW2 5981   8.652   3.933   7.825 -0.7500  0.8316  0.6282
 1565SOL     OW 5982   3.059   0.193   0.763 -0.2003 -0.1917  0.6949
 1565SOL    HW1 5983   3.105   0.260   0.813  1.8791  0.0962 -1.4491
 1565SOL    HW2 5984   3.113   0.180   0.685 -1.0976 -3.5976  0.5042
 1566SOL     OW 5985   3.699   6.242   7.385 -0.4786  0.4872 -0.1996
 1566SOL    HW1 5986   3.765   6.299   7.345  2.1106 -1.6774  0.6027
 1566SOL    HW2 5987   3.677   6.285   7.468  0.8674  0.7384  0.0636
 1567SOL     OW 5988   2.358   7.099   2.429 -0.1815  0.0372  0.1361
 1567SOL    HW1 5989   2.406   7.027   2.470  1.4174  1.2439  0.5156
 1567SOL    HW2 5990   2.346   7.163   2.500 -0.2459  0.7699 -0.5153
 1568SOL     OW 5991   6.421   6.210   2.168 -0.3332 -0.2531 -0.1762
 1568SOL    HW1 5992   6.438   6.116   2.167 -1.0626 -0.4056  0.7005
 1568SOL    HW2 5993   6.491   6.248   2.220  0.4104 -0.2018 -1.1850
 1569SOL     OW 5994   4.434   1.131   5.817 -0.2642  0.4361  0.6688
 1569SOL    HW1 5995   4.464   1.130   5.908  2.1822  1.6230 -0.0502
 1569SOL    HW2 5996   4.454   1.043   5.785  0.0977  0.4250  0.9154
 1570SOL     OW 5997   5.353   1.693   8.531  0.3085 -0.1176 -0.0254
 1570SOL    HW1 5998   5.391   1.646   8.605  0.7849  1.2477  0.6493
 1570SOL    HW2 5999   5.335   1.781   8.566 -1.7281 -0.1480 -0.8669
 1571SOL     OW 6000   5.384   8.111   2.093 -0.0644  0.2191  0.0490
 1571SOL    HW1 6001   5.294   8.086   2.073  0.5263 -0.9167 -1.3793
 1571SOL    HW2 6002   5.430   8.104   2.010  1.7116 -0.8834  1.0683
 1572SOL     OW 6003   5.654   3.959   5.630  1.0143 -0.1618  0.2399
 1572SOL    HW1 6004   5.716   3.975   5.560 -0.7692 -0.7433 -1.5603
 1572SOL    HW2 6005   5.622   4.046   5.654  2.3699  0.1289  1.0995
 1573SOL     OW 6006   1.082   2.381   4.299 -0.3880  0.1504  0.2671
 1573SOL    HW1 6007   1.106   2.401   4.208 -1.9464  1.1009  0.0406
 1573SOL    HW2 6008   0.992   2.349   4.293 -0.1297 -0.8594  1.3787
 1574SOL     OW 6009   3.262   0.087   2.576  0.2159  0.1661  0.1769
 1574SOL    HW1 6010   3.341   0.085   2.630 -0.0928 -1.6297  0.6102
 1574SOL    HW2 6011   3.222   0.001   2.588 -1.1165  0.5710 -1.0772
 1575SOL     OW 6012   4.061   0.537   7.275  0.1426 -0.2921 -0.1446
 1575SOL    HW1 6013   3.994   0.474   7.248  0.2432  0.3322 -1.9956
 1575SOL    HW2 6014   4.017   0.591   7.341 -0.7166 -0.7727 -0.3095
 1576SOL     OW 6015   6.522   7.586   8.036  0.4710  0.6355  0.0007
 1576SOL    HW1 6016   6.561   7.527   8.100 -0.7085  0.0628  0.2317
 1576SOL    HW2 6017   6.438   7.612   8.076  0.3823  1.4381 -0.6711
 1577SOL     OW 6018   5.206   5.631   1.699  0.1462 -0.5316  0.0025
 1577SOL    HW1 6019   5.168   5.595   1.778 -0.0795  0.3245  0.2949
 1577SOL    HW2 6020   5.147   5.703   1.674 -0.1409 -1.1823 -1.2941
 1578SOL     OW 6021   2.205   8.468   5.499  0.1773 -0.1728  0.1867
 1578SOL    HW1 6022   2.191   8.472   5.594  0.7528  2.5943  0.2587
 1578SOL    HW2 6023   2.298   8.449   5.489  0.3630  0.6662  0.2362
 1579SOL     OW 6024   3.511   5.373   1.831 -0.6955 -0.4163  0.4274
 1579SOL    HW1 6025   3.527   5.407   1.919  1.0140 -0.5920  0.2332
 1579SOL    HW2 6026   3.591   5.324   1.810 -1.1908 -0.6175 -1.1160
 1580SOL     OW 6027   2.603   0.165   6.930  0.0744 -0.3831  0.3177
 1580SOL    HW1 6028   2.662   0.162   6.855 -0.7124 -0.6966 -0.3056
 1580SOL    HW2 6029   2.517   0.186   6.892 -0.2757 -0.2278  1.1664
 1581SOL     OW 6030   2.949   0.756   0.009 -0.1019  0.3889  0.1034
 1581SOL    HW1 6031   2.974   0.848   0.008  0.9989  0.1364 -2.2039
 1581SOL    HW2 6032   2.854   0.756  -0.002 -0.1809  1.2432  0.7333
 1582SOL     OW 6033   7.852   8.264   6.058  0.3058  0.3920  0.4002
 1582SOL    HW1 6034   7.942   8.285   6.081  0.4469 -0.6217  0.8117
 1582SOL    HW2 6035   7.816   8.223   6.137 -0.1031 -0.4389 -0.1983
 1583SOL     OW 6036   3.288   1.160   4.037  0.3111  0.1270 -0.3121
 1583SOL    HW1 6037   3.362   1.216   4.060  0.5530 -0.9117  1.7388
 1583SOL    HW2 6038   3.211   1.206   4.071  0.7111 -1.6197  3.4633
 1584SOL     OW 6039   6.091   7.926   1.859 -0.0995 -0.2922  0.2502
 1584SOL    HW1 6040   6.141   7.961   1.933 -2.0800  0.9850  1.0831
 1584SOL    HW2 6041   6.095   7.831   1.870 -1.3346 -0.1507  2.8099
 1585SOL     OW 6042   4.662   1.008   6.569 -0.2019 -0.3362  0.8157
 1585SOL    HW1 6043   4.639   1.046   6.654  1.7028  1.6259  0.5382
 1585SOL    HW2 6044   4.653   1.080   6.507  2.3281 -0.5751  0.0553
 1586SOL     OW 6045   6.251   1.989   8.627 -0.2889 -0.3051  0.6425
 1586SOL    HW1 6046   6.196   2.032   8.561 -0.0812  0.2121  0.8036
 1586SOL    HW2 6047   6.296   1.919   8.579 -1.1040 -0.7541  0.5132
 1587SOL     OW 6048   7.796   2.702   3.394  0.0444  0.4016 -0.9111
 1587SOL    HW1 6049   7.838   2.617   3.378 -0.3394  0.0665 -0.1749
 1587SOL    HW2 6050   7.867   2.766   3.388  0.8658 -0.2400  1.1780
 1588SOL     OW 6051   2.947   6.258   5.767 -0.3433 -0.3980 -0.0202
 1588SOL    HW1 6052   2.931   6.202   5.843  1.3262 -0.2375  0.4862
 1588SOL    HW2 6053   3.042   6.263   5.760 -0.4563  1.2761 -0.8760
 1589SOL     OW 6054   8.088   8.695   2.017 -0.3562 -0.3164  0.4020
 1589SOL    HW1 6055   8.163   8.739   1.977 -1.0857 -0.4792 -1.2170
 1589SOL    HW2 6056   8.125   8.616   2.057  0.3292 -0.4224 -0.4255
 1590SOL     OW 6057   1.710   6.119   1.556 -0.1072 -0.0535  0.5991
 1590SOL    HW1 6058   1.688   6.026   1.561  1.5061 -0.5273 -0.3795
 1590SOL    HW2 6059   1.647   6.162   1.614  0.4816 -1.9791  2.8019
 1591SOL     OW 6060   6.934   3.786   3.833 -0.2969  0.0281  0.4370
 1591SOL    HW1 6061   7.004   3.832   3.880 -1.9996  0.7970  2.3555
 1591SOL    HW2 6062   6.870   3.853   3.813  0.0607 -0.4095 -2.5723
 1592SOL     OW 6063   1.068   5.036   8.240  0.5112  0.5308 -0.1145
 1592SOL    HW1 6064   1.104   4.980   8.308 -1.4302 -0.8156 -0.1314
 1592SOL    HW2 6065   1.111   5.006   8.159  1.3948  0.8433  0.2287
 1593SOL     OW 6066   4.516   2.934   1.243  0.0750 -0.2483 -0.5202
 1593SOL    HW1 6067   4.474   2.853   1.272 -0.5187  0.8171  1.8433
 1593SOL    HW2 6068   4.610   2.915   1.243 -0.0386 -0.8439  0.4033
 1594SOL     OW 6069   5.160   7.471   8.417  0.4020  0.0397  0.2448
 1594SOL    HW1 6070   5.161   7.473   8.321  0.0617  1.9196  0.2328
 1594SOL    HW2 6071   5.216   7.397   8.440  0.5052 -0.4389 -1.3992
 1595SOL     OW 6072   0.052   1.706   6.872  0.2199 -0.0746 -0.1411
 1595SOL    HW1 6073  -0.014   1.776   6.865  0.9641  0.9664  2.1853
 1595SOL    HW2 6074   0.136   1.751   6.869  0.7608 -1.0385 -0.0013
 1596SOL     OW 6075   6.070   6.488   4.245 -0.2000  0.3553  0.0201
 1596SOL    HW1 6076   6.108   6.525   4.324  0.4085 -2.5012  1.1937
 1596SOL    HW2 6077   6.139   6.433   4.208 -1.8674 -1.9029  0.0686
 1597SOL     OW 6078   4.844   3.722   3.013  0.0743 -0.2012  0.9345
 1597SOL    HW1 6079   4.918   3.781   3.027  0.9570 -0.8241 -0.8781
 1597SOL    HW2 6080   4.824   3.730   2.920 -1.6770 -0.6089  1.2541
 1598SOL     OW 6081   1.676   7.483   0.525  0.2519 -0.1134 -0.1777
 1598SOL    HW1 6082   1.742   7.494   0.593  0.8495  0.8815 -0.8818
 1598SOL    HW2 6083   1.712   7.414   0.468 -0.4388 -1.2358  0.7020
 1599SOL     OW 6084   1.466   2.876   4.366  0.3229 -0.0987 -0.7395
 1599SOL    HW1 6085   1.373   2.862   4.380  0.4971 -0.3643  0.2509
 1599SOL    HW2 6086   1.477   2.873   4.271 -0.5013 -1.2575 -0.8253
 1600SOL     OW 6087   0.792   7.249   7.846  0.2221 -0.0456 -0.5918
 1600SOL    HW1 6088   0.716   7.196   7.822  0.5615 -1.1752  0.7311
 1600SOL    HW2 6089   0.836   7.267   7.762  0.1532 -1.9615 -1.0760
 1601SOL     OW 6090   0.971   2.237   4.546  0.2367  0.1868 -0.0479
 1601SOL    HW1 6091   1.028   2.285   4.485  1.9923 -0.7841  0.7680
 1601SOL    HW2 6092   0.941   2.303   4.608  1.0343  0.5907 -0.0876
 1602SOL     OW 6093   5.727   6.805   1.511 -0.3012 -0.3720  0.1369
 1602SOL    HW1 6094   5.678   6.887   1.512  0.8568  0.3508  1.5584
 1602SOL    HW2 6095   5.754   6.792   1.602  0.3374 -1.8332 -0.2327
 1603SOL     OW 6096   3.632   3.582   2.337  0.0514 -0.3047  0.3732
 1603SOL    HW1 6097   3.724   3.556   2.335  0.7055  1.7814  1.2239
 1603SOL    HW2 6098   3.612   3.606   2.247  1.6383  3.1848  0.7897
 1604SOL     OW 6099   1.022   4.088   4.634  0.1686  1.0743  0.4151
 1604SOL    HW1 6100   0.996   4.039   4.712  0.2941  2.1450  1.1528
 1604SOL    HW2 6101   1.017   4.180   4.661 -0.4193  1.4898 -1.0408
 1605SOL     OW 6102   8.605   5.334   0.122  0.2963  0.2668  0.1065
 1605SOL    HW1 6103   8.523   5.329   0.172  0.3224  1.7596  0.3440
 1605SOL    HW2 6104   8.577   5.349   0.032  0.2785 -1.2543 -0.1606
 1606SOL     OW 6105   5.120   1.089   5.603 -0.0183 -0.4345 -0.3762
 1606SOL    HW1 6106   5.065   1.167   5.591 -1.7380 -1.2195  1.8271
 1606SOL    HW2 6107   5.107   1.037   5.524 -2.0004 -0.3034 -0.1665
 1607SOL     OW 6108   2.855   6.729   1.885 -0.1651 -0.3588  0.2275
 1607SOL    HW1 6109   2.925   6.744   1.821 -0.0511  0.0142  0.4396
 1607SOL    HW2 6110   2.875   6.788   1.957 -1.2401  0.4856 -0.1376
 1608SOL     OW 6111   2.013   7.576   3.316 -0.2866  0.1637 -0.3015
 1608SOL    HW1 6112   1.918   7.581   3.324 -0.1923  1.0604  0.5036
 1608SOL    HW2 6113   2.039   7.660   3.276  0.1739 -0.0094 -0.3760
 1609SOL     OW 6114   3.867   1.016   0.859  0.0762  0.6538  0.4144
 1609SOL    HW1 6115   3.908   1.011   0.773 -1.5415 -0.0724 -0.3649
 1609SOL    HW2 6116   3.899   0.939   0.905 -0.0953  0.3128 -0.0308
 1610SOL     OW 6117   8.393   7.897   1.801 -0.1002  0.0385 -0.3394
 1610SOL    HW1 6118   8.429   7.972   1.755 -0.5178 -0.8608 -2.2409
 1610SOL    HW2 6119   8.437   7.821   1.762  0.6678 -0.7263  1.8479
 1611SOL     OW 6120   1.688   7.449   2.788 -0.6268 -0.0145 -0.5156
 1611SOL    HW1 6121   1.644   7.399   2.720 -0.5452  0.6866 -1.0941
 1611SOL    HW2 6122   1.774   7.469   2.751 -1.1542  1.7522 -0.8848
 1612SOL     OW 6123   7.307   2.060   4.576  0.4257  0.0831 -0.3262
 1612SOL    HW1 6124   7.229   2.110   4.598 -0.2887 -1.6678  1.4366
 1612SOL    HW2 6125   7.338   2.099   4.494 -1.3333  1.8872 -0.2105
 1613SOL     OW 6126   2.753   8.103   4.844  0.2188  0.1809 -0.2941
 1613SOL    HW1 6127   2.751   8.131   4.935  0.5320 -0.0630 -0.2085
 1613SOL    HW2 6128   2.724   8.179   4.794 -0.0219  0.2933  0.0139
 1614SOL     OW 6129   4.013   2.390   2.541 -0.2031  0.0400 -0.2392
 1614SOL    HW1 6130   4.092   2.442   2.556 -0.0834  0.1179 -1.0961
 1614SOL    HW2 6131   3.948   2.453   2.511 -0.2695 -0.1858 -0.5804
 1615SOL     OW 6132   8.305   4.632   2.894 -0.0331 -0.0503  0.0930
 1615SOL    HW1 6133   8.373   4.628   2.961 -0.8130 -0.4146  0.8867
 1615SOL    HW2 6134   8.236   4.686   2.933  0.2463  1.2583 -1.1336
 1616SOL     OW 6135   8.589   4.192   6.325  0.5154 -0.1125  0.1204
 1616SOL    HW1 6136   8.511   4.173   6.378  1.5518 -1.3990  1.2638
 1616SOL    HW2 6137   8.554   4.231   6.245 -1.2115  0.5119  1.1185
 1617SOL     OW 6138   7.564   6.003   0.577  0.0672 -0.0966  0.7158
 1617SOL    HW1 6139   7.478   6.018   0.616  0.3404 -0.3585  1.4410
 1617SOL    HW2 6140   7.623   5.995   0.652  0.5864 -0.7537  0.2477
 1618SOL     OW 6141   3.634   5.243   5.880  0.0074 -0.0786 -0.0201
 1618SOL    HW1 6142   3.572   5.171   5.868 -0.6936  0.6978 -1.2392
 1618SOL    HW2 6143   3.690   5.239   5.801  1.9749 -1.1551  1.3252
 1619SOL     OW 6144   4.448   0.765   8.104 -0.2335  0.1591 -0.0071
 1619SOL    HW1 6145   4.436   0.836   8.041  0.0973  0.5170  0.3200
 1619SOL    HW2 6146   4.490   0.695   8.054 -0.0376  0.4136 -0.2045
 1620SOL     OW 6147   4.651   3.353   0.379 -0.4648 -0.2224  0.0468
 1620SOL    HW1 6148   4.624   3.340   0.470 -0.2359  0.9744  0.2926
 1620SOL    HW2 6149   4.727   3.411   0.384  0.6943 -1.5806 -0.8003
 1621SOL     OW 6150   7.463   4.564   2.052  0.2103 -0.1946 -0.1914
 1621SOL    HW1 6151   7.451   4.638   1.992  0.0215  0.2778  0.4287
 1621SOL    HW2 6152   7.403   4.582   2.124 -1.3905 -1.9940 -0.9872
 1622SOL     OW 6153   2.820   4.629   7.869 -0.2970 -0.7195  0.3829
 1622SOL    HW1 6154   2.897   4.596   7.915 -0.7481  0.1395  1.8185
 1622SOL    HW2 6155   2.853   4.701   7.816 -0.1052 -0.3787  0.9632
 1623SOL     OW 6156   0.060   0.161   2.017  0.3869  0.0727  0.0189
 1623SOL    HW1 6157  -0.012   0.099   2.031  0.5026  0.4524  2.9718
 1623SOL    HW2 6158   0.128   0.110   1.972 -0.2648 -1.4027  0.6450
 1624SOL     OW 6159   5.959   0.152   7.542  0.4277 -0.9838  0.1219
 1624SOL    HW1 6160   5.872   0.152   7.581 -0.8985  1.8031 -2.4236
 1624SOL    HW2 6161   6.015   0.194   7.608 -0.5840 -1.0697  1.0575
 1625SOL     OW 6162   1.129   0.091   1.222  0.1118  0.2138 -0.3020
 1625SOL    HW1 6163   1.166   0.015   1.178  0.2520  0.2779 -0.2967
 1625SOL    HW2 6164   1.050   0.058   1.265 -0.9650  0.5101 -1.9747
 1626SOL     OW 6165   6.558   0.788   3.008  0.0753  0.0779 -0.0964
 1626SOL    HW1 6166   6.493   0.850   2.973  0.5208 -0.5050 -2.0937
 1626SOL    HW2 6167   6.632   0.794   2.947  0.7155 -1.3615  0.4956
 1627SOL     OW 6168   6.541   1.168   0.613  0.1559 -0.5017 -0.0130
 1627SOL    HW1 6169   6.563   1.255   0.647 -0.3952 -0.2941 -0.1626
 1627SOL    HW2 6170   6.500   1.186   0.528 -1.0118 -0.8155  0.4537
 1628SOL     OW 6171   1.428   7.099   4.135 -0.2785  0.5737 -0.1689
 1628SOL    HW1 6172   1.426   7.104   4.039 -0.0469  1.1443 -0.1470
 1628SOL    HW2 6173   1.347   7.054   4.158 -0.5387  0.8035 -0.6169
 1629SOL     OW 6174   7.068   1.519   8.456  0.1338 -0.6368  0.1892
 1629SOL    HW1 6175   7.029   1.431   8.462 -0.9517 -0.1362  0.7062
 1629SOL    HW2 6176   7.137   1.519   8.522  1.7454 -1.8585 -1.3845
 1630SOL     OW 6177   6.849   6.737   2.106  0.0886  0.5093  0.5181
 1630SOL    HW1 6178   6.931   6.714   2.150 -0.2928  0.1105  1.0383
 1630SOL    HW2 6179   6.855   6.831   2.092  1.3046  0.2600 -0.8590
 1631SOL     OW 6180   2.818   2.340   0.259  0.1048  0.3875  0.5231
 1631SOL    HW1 6181   2.879   2.408   0.287  0.8759  0.3941 -1.0159
 1631SOL    HW2 6182   2.762   2.384   0.195 -1.2074  0.2548  1.5665
 1632SOL     OW 6183   7.135   4.865   8.650 -0.3569  0.6667 -0.2873
 1632SOL    HW1 6184   7.076   4.906   8.586 -1.0219 -0.3008 -0.3153
 1632SOL    HW2 6185   7.100   4.891   8.735  0.9403  2.5403 -0.2691
 1633SOL     OW 6186   1.386   7.412   3.344 -0.0569 -0.0029  0.5172
 1633SOL    HW1 6187   1.428   7.332   3.376 -2.1978 -1.1207  0.7099
 1633SOL    HW2 6188   1.310   7.381   3.295 -0.6181  1.9218  0.0960
 1634SOL     OW 6189   1.152   7.827   6.634  0.0407  0.3202  0.2085
 1634SOL    HW1 6190   1.231   7.876   6.613  0.8308 -1.7124 -1.9894
 1634SOL    HW2 6191   1.183   7.737   6.649 -1.6787 -0.1765  1.0655
 1635SOL     OW 6192   5.255   1.619   6.023  0.2141 -0.6826  0.2218
 1635SOL    HW1 6193   5.347   1.642   6.011  0.4998 -1.4726  0.8636
 1635SOL    HW2 6194   5.246   1.534   5.980 -0.4903 -0.1110 -0.8253
 1636SOL     OW 6195   4.916   3.782   7.255 -0.3005 -0.2829 -0.0985
 1636SOL    HW1 6196   4.945   3.846   7.190 -1.4579 -0.8689 -1.2472
 1636SOL    HW2 6197   4.965   3.804   7.334  2.1718 -0.3576 -1.5010
 1637SOL     OW 6198   4.017   8.460   3.401 -0.1057 -0.0432  0.5201
 1637SOL    HW1 6199   4.009   8.427   3.311  0.3567 -0.6939  0.7072
 1637SOL    HW2 6200   4.069   8.540   3.393 -0.1541 -0.0443  0.1947
 1638SOL     OW 6201   2.111   1.978   2.959 -0.3594  0.2570  0.0436
 1638SOL    HW1 6202   2.075   2.056   3.001  0.4874  0.0932  1.1086
 1638SOL    HW2 6203   2.056   1.964   2.882  0.5984  3.0007 -1.2486
 1639SOL     OW 6204   6.210   5.412   8.534 -0.0006 -0.2022  0.6481
 1639SOL    HW1 6205   6.179   5.475   8.598 -2.4974  0.1644 -0.7563
 1639SOL    HW2 6206   6.150   5.337   8.543 -0.0625 -0.3685 -0.8143
 1640SOL     OW 6207   3.543   2.807   3.749  0.6745 -0.3284 -0.1111
 1640SOL    HW1 6208   3.528   2.886   3.697 -0.3122 -1.1580 -1.1429
 1640SOL    HW2 6209   3.464   2.754   3.737  0.5675 -0.7397  1.9452
 1641SOL     OW 6210   0.151   0.290   5.544  0.0395 -0.0349 -0.1554
 1641SOL    HW1 6211   0.218   0.342   5.501 -0.7474  0.0750 -1.2858
 1641SOL    HW2 6212   0.107   0.353   5.602 -0.0887  0.2598 -0.5693
 1642SOL     OW 6213   0.993   4.053   5.169 -0.2777  0.3993 -0.1709
 1642SOL    HW1 6214   0.939   4.082   5.243 -1.6325  2.1619 -1.7539
 1642SOL    HW2 6215   1.070   4.110   5.173  0.3130 -0.4246  0.6267
 1643SOL     OW 6216   3.646   3.258   0.045 -1.4010  0.0601 -0.6106
 1643SOL    HW1 6217   3.720   3.292   0.094 -1.6768 -0.8538  0.4897
 1643SOL    HW2 6218   3.635   3.318  -0.028  0.4512  0.1849 -0.8205
 1644SOL     OW 6219   3.004   3.738   4.326  0.2754 -0.0257 -0.3954
 1644SOL    HW1 6220   3.011   3.822   4.280  0.6991  0.0877 -0.1354
 1644SOL    HW2 6221   3.094   3.704   4.326 -0.0614 -0.9313 -1.3357
 1645SOL     OW 6222   6.989   3.767   6.093 -0.3270 -0.9721  0.0289
 1645SOL    HW1 6223   6.929   3.730   6.028  0.4738 -2.8333  0.2995
 1645SOL    HW2 6224   7.072   3.776   6.046 -0.4509  0.3995  0.0193
 1646SOL     OW 6225   0.997   7.944   8.213  0.1286  0.4346 -0.3130
 1646SOL    HW1 6226   0.931   8.004   8.247 -0.6347  0.3439 -1.5691
 1646SOL    HW2 6227   0.982   7.943   8.119 -0.0364 -1.8852 -0.3174
 1647SOL     OW 6228   7.620   1.331   2.742 -0.3296 -0.0001 -0.6056
 1647SOL    HW1 6229   7.527   1.337   2.719 -0.6664  0.3100  0.7640
 1647SOL    HW2 6230   7.621   1.288   2.828  0.6224  1.9636  0.4548
 1648SOL     OW 6231   3.857   6.361   0.877  0.0367 -0.2514 -0.2458
 1648SOL    HW1 6232   3.887   6.274   0.849  2.1002  0.3114  0.0400
 1648SOL    HW2 6233   3.890   6.369   0.967  1.9229  1.6794 -1.0345
 1649SOL     OW 6234   6.547   0.150   1.776  0.0471  0.5080  0.2837
 1649SOL    HW1 6235   6.599   0.133   1.855  0.4291 -1.3685 -0.3184
 1649SOL    HW2 6236   6.497   0.069   1.762 -1.8094  1.6556 -0.1047
 1650SOL     OW 6237   2.166   1.837   8.228 -0.0424 -0.1298  0.0166
 1650SOL    HW1 6238   2.115   1.875   8.157 -0.9594 -1.8806 -0.2989
 1650SOL    HW2 6239   2.122   1.868   8.308  0.0243  0.5315 -0.1987
 1651SOL     OW 6240   7.942   6.461   6.454  0.6734  0.3455 -0.3613
 1651SOL    HW1 6241   7.852   6.438   6.480  0.9447 -0.6432 -0.2683
 1651SOL    HW2 6242   7.966   6.532   6.513  1.1691 -1.6469  1.9981
 1652SOL     OW 6243   5.759   1.572   4.451  0.4282  0.0333 -0.5937
 1652SOL    HW1 6244   5.763   1.514   4.374  1.5289 -0.3575 -0.2576
 1652SOL    HW2 6245   5.793   1.518   4.523  0.7603  0.8617 -0.1237
 1653SOL     OW 6246   3.826   6.704   5.144  0.0198  0.5417 -0.6469
 1653SOL    HW1 6247   3.756   6.651   5.106  0.6233 -0.4036 -0.4531
 1653SOL    HW2 6248   3.859   6.652   5.216  0.8332  1.0531 -0.6432
 1654SOL     OW 6249   4.364   7.088   2.905 -0.1363  0.3255 -0.3659
 1654SOL    HW1 6250   4.280   7.085   2.860  0.0916  1.1299 -0.8628
 1654SOL    HW2 6251   4.425   7.127   2.842  0.2242  1.3187  0.5589
 1655SOL     OW 6252   5.636   6.847   4.951  0.4651  0.0338 -0.0446
 1655SOL    HW1 6253   5.638   6.942   4.936 -0.5854 -0.2134 -2.1834
 1655SOL    HW2 6254   5.628   6.838   5.045  3.5200  1.9802  0.5780
 1656SOL     OW 6255   8.566   1.834   6.719 -0.4694  0.7808  0.7392
 1656SOL    HW1 6256   8.593   1.892   6.649  0.2377 -2.3705 -1.8560
 1656SOL    HW2 6257   8.474   1.815   6.702 -0.0830 -0.6547  0.0252
 1657SOL     OW 6258   0.599   6.521   8.544 -0.1777 -0.4168  0.0057
 1657SOL    HW1 6259   0.549   6.549   8.621 -0.0033  1.6955 -0.5857
 1657SOL    HW2 6260   0.531   6.496   8.480 -0.3848 -0.2670  0.1645
 1658SOL     OW 6261   2.773   4.845   3.644  0.0499 -0.1359 -0.3142
 1658SOL    HW1 6262   2.753   4.762   3.601  0.2558 -0.5305  0.3356
 1658SOL    HW2 6263   2.692   4.895   3.638 -0.6240 -1.0450  0.7748
 1659SOL     OW 6264   5.033   7.600   6.746  0.1364  1.0077  0.3057
 1659SOL    HW1 6265   5.057   7.515   6.708 -1.9112 -0.0936  1.3521
 1659SOL    HW2 6266   4.993   7.648   6.673 -1.3259 -0.0697  0.3585
 1660SOL     OW 6267   5.718   7.743   0.102  0.1032 -0.2554  0.1265
 1660SOL    HW1 6268   5.751   7.761   0.014 -0.4352  1.1623  0.1947
 1660SOL    HW2 6269   5.639   7.796   0.110  0.9369  0.7891  1.9718
 1661SOL     OW 6270   4.112   1.262   1.427  0.2494 -0.1360 -0.5420
 1661SOL    HW1 6271   4.151   1.266   1.515 -1.1831 -1.3867  0.2021
 1661SOL    HW2 6272   4.112   1.169   1.405 -0.6060  0.0336 -1.3045
 1662SOL     OW 6273   2.943   6.803   7.721 -0.7401  0.3690 -0.0630
 1662SOL    HW1 6274   2.934   6.899   7.722  1.1015  0.5711  0.6840
 1662SOL    HW2 6275   2.990   6.784   7.640 -1.1169  0.0799 -0.2179
 1663SOL     OW 6276   7.837   5.257   8.520 -0.1238  0.2936 -0.4640
 1663SOL    HW1 6277   7.816   5.198   8.447 -2.9070  0.3638  0.1705
 1663SOL    HW2 6278   7.889   5.203   8.580 -2.3468 -1.5157 -0.0332
 1664SOL     OW 6279   1.793   7.041   4.527  0.1972 -0.4470  0.5966
 1664SOL    HW1 6280   1.730   7.109   4.549  1.2409  1.2135 -1.2217
 1664SOL    HW2 6281   1.771   7.016   4.437  2.6567  0.8995 -0.4647
 1665SOL     OW 6282   3.373   3.681   7.623  0.9937 -0.4407 -0.3920
 1665SOL    HW1 6283   3.350   3.666   7.715  1.3179  1.2570 -0.0089
 1665SOL    HW2 6284   3.380   3.593   7.586 -0.2185 -1.1362  0.9276
 1666SOL     OW 6285   7.424   2.038   4.838 -0.2175  0.7818 -0.5582
 1666SOL    HW1 6286   7.389   2.041   4.750 -1.1429  1.5121 -0.1732
 1666SOL    HW2 6287   7.415   1.946   4.864  1.2623  0.2723 -1.6657
 1667SOL     OW 6288   6.826   0.054   3.906  0.3176  0.0496  0.1041
 1667SOL    HW1 6289   6.810   0.122   3.971 -0.4486  0.4557 -0.4998
 1667SOL    HW2 6290   6.918   0.066   3.881  0.9398 -0.7716  1.8471
 1668SOL     OW 6291   6.393   1.978   1.573 -0.2943 -0.0811  0.0315
 1668SOL    HW1 6292   6.304   2.012   1.585  0.1888  1.0220  0.6610
 1668SOL    HW2 6293   6.410   1.987   1.479  0.8008  4.1642  0.4421
 1669SOL     OW 6294   6.959   1.892   2.963  0.2706  0.1140  0.3554
 1669SOL    HW1 6295   6.918   1.903   2.877 -0.2923  0.3106  0.6415
 1669SOL    HW2 6296   6.997   1.804   2.960  2.9751  1.2081 -1.1997
 1670SOL     OW 6297   7.511   6.348   5.419 -0.6091 -0.4527 -0.0214
 1670SOL    HW1 6298   7.555   6.431   5.438 -1.7800 -0.2338  2.0477
 1670SOL    HW2 6299   7.433   6.349   5.475 -0.7463 -2.8895 -0.0675
 1671SOL     OW 6300   0.873   2.003   4.697 -0.5036  0.2588  0.0058
 1671SOL    HW1 6301   0.883   2.074   4.634  0.4829 -0.1479 -0.3160
 1671SOL    HW2 6302   0.778   1.994   4.709 -0.6481  1.4631 -0.1223
 1672SOL     OW 6303   6.086   2.627   1.336  0.0508  0.0584  0.0752
 1672SOL    HW1 6304   6.003   2.635   1.289 -0.0318 -0.1074  0.1933
 1672SOL    HW2 6305   6.061   2.603   1.425  0.2634 -0.8175 -0.0935
 1673SOL     OW 6306   5.720   2.679   6.329  0.4739 -0.0469 -0.4387
 1673SOL    HW1 6307   5.804   2.634   6.320  0.0953 -0.8434 -0.1364
 1673SOL    HW2 6308   5.656   2.618   6.291 -0.3788 -0.8679  2.1335
 1674SOL     OW 6309   6.200   0.064   6.786  0.2882  0.3113  0.0637
 1674SOL    HW1 6310   6.207  -0.006   6.721 -0.4822 -0.4591  0.7967
 1674SOL    HW2 6311   6.288   0.072   6.822  0.8350  1.0475 -1.3593
 1675SOL     OW 6312   7.500   3.353   3.662 -0.0073  0.5263 -0.1617
 1675SOL    HW1 6313   7.526   3.260   3.661  1.5562  0.9300 -0.3988
 1675SOL    HW2 6314   7.577   3.399   3.628 -1.3371  1.7976 -1.5757
 1676SOL     OW 6315   8.214   1.503   7.310 -0.0213 -0.3623  0.6846
 1676SOL    HW1 6316   8.295   1.554   7.305  1.0517 -2.0605 -0.3548
 1676SOL    HW2 6317   8.233   1.435   7.375 -0.3579 -1.1416 -0.0074
 1677SOL     OW 6318   8.039   3.927   7.899 -0.2815  0.1930  0.5564
 1677SOL    HW1 6319   7.983   3.955   7.971 -1.9231 -0.0057 -0.5724
 1677SOL    HW2 6320   8.018   3.988   7.828  0.8327 -0.0026  0.0408
 1678SOL     OW 6321   5.253   0.252   3.144  0.1334 -0.3528  0.1101
 1678SOL    HW1 6322   5.179   0.197   3.122  0.3772 -0.6143 -0.0660
 1678SOL    HW2 6323   5.260   0.315   3.072 -0.2623  0.0397  0.4040
 1679SOL     OW 6324   8.328   0.804   7.055 -0.1531 -0.2246 -0.1002
 1679SOL    HW1 6325   8.337   0.735   6.989  1.5623  0.5640 -0.7721
 1679SOL    HW2 6326   8.250   0.853   7.028  1.2236  0.8959 -2.4353
 1680SOL     OW 6327   7.876   0.043   6.018  0.8469 -0.0279  0.0457
 1680SOL    HW1 6328   7.817  -0.028   6.043 -0.4390  0.8864 -0.3155
 1680SOL    HW2 6329   7.894   0.028   5.925 -0.7703  1.0050 -0.4788
 1681SOL     OW 6330   4.603   5.753   0.670  0.0937  0.2647  0.1108
 1681SOL    HW1 6331   4.654   5.778   0.747 -1.2120  2.4260  0.3618
 1681SOL    HW2 6332   4.661   5.696   0.621  2.1837  1.3797  1.1257
 1682SOL     OW 6333   1.850   2.632   2.709 -0.3227 -0.2345 -0.4053
 1682SOL    HW1 6334   1.927   2.619   2.765  0.1806  0.3888 -0.9437
 1682SOL    HW2 6335   1.871   2.585   2.629 -0.7601 -0.5574 -0.3353
 1683SOL     OW 6336   7.846   2.314   2.016  0.2492  0.0955 -0.9223
 1683SOL    HW1 6337   7.853   2.219   2.027  1.7470  0.3121  0.3130
 1683SOL    HW2 6338   7.852   2.327   1.921  0.7015 -0.9998 -1.0611
 1684SOL     OW 6339   0.364   1.735   4.731  0.3454 -0.0713  0.2140
 1684SOL    HW1 6340   0.332   1.741   4.820 -0.3958  0.5761 -0.0854
 1684SOL    HW2 6341   0.316   1.662   4.692  0.2762 -0.0139  0.1908
 1685SOL     OW 6342   5.685   2.497   3.207  0.5636 -0.0152 -0.7363
 1685SOL    HW1 6343   5.769   2.528   3.173  1.2450  2.3469  2.6256
 1685SOL    HW2 6344   5.632   2.576   3.216 -0.9661 -1.0638 -0.0838
 1686SOL     OW 6345   5.336   7.733   5.977 -0.6418  0.0458 -0.0214
 1686SOL    HW1 6346   5.309   7.704   6.065  0.0608 -0.9878 -0.1262
 1686SOL    HW2 6347   5.283   7.811   5.960  0.2842  1.1731  1.9481
 1687SOL     OW 6348   4.217   5.995   7.079  0.6331 -0.2037  0.1656
 1687SOL    HW1 6349   4.272   6.070   7.102  0.9461 -0.0034 -1.1641
 1687SOL    HW2 6350   4.216   5.995   6.984 -0.2257 -1.2775  0.1629
 1688SOL     OW 6351   2.641   6.380   7.339  0.3222 -0.3276  0.1014
 1688SOL    HW1 6352   2.603   6.316   7.400  1.2739 -0.0911  0.9746
 1688SOL    HW2 6353   2.724   6.406   7.380 -0.0293  1.4628 -0.2350
 1689SOL     OW 6354   1.492   6.510   4.369  0.1434  0.1457 -0.4678
 1689SOL    HW1 6355   1.575   6.462   4.367  0.1713  0.1870 -0.3247
 1689SOL    HW2 6356   1.456   6.498   4.282  0.2184 -0.0171 -0.4777
 1690SOL     OW 6357   4.353   7.615   0.493 -0.6721 -0.1778 -0.0289
 1690SOL    HW1 6358   4.341   7.545   0.429  4.7785 -2.1817  0.5971
 1690SOL    HW2 6359   4.307   7.585   0.571 -1.6529 -1.1093 -0.9421
 1691SOL     OW 6360   7.511   7.077   5.644  0.4475 -0.4767 -0.4454
 1691SOL    HW1 6361   7.513   6.989   5.605  3.0450 -1.5153  1.6768
 1691SOL    HW2 6362   7.425   7.083   5.685  0.5762 -2.5325  0.2764
 1692SOL     OW 6363   3.164   4.305   1.277 -0.0364 -0.1113  0.7699
 1692SOL    HW1 6364   3.120   4.350   1.205  1.4428 -0.0660 -0.1516
 1692SOL    HW2 6365   3.127   4.217   1.276 -1.1749  0.3377  1.0127
 1693SOL     OW 6366   3.934   6.237   5.863 -0.2711  0.2460  0.1557
 1693SOL    HW1 6367   3.988   6.193   5.929  0.0438  0.1178 -0.1879
 1693SOL    HW2 6368   3.855   6.182   5.856 -0.5215  0.5161  0.7675
 1694SOL     OW 6369   7.889   1.097   0.554 -0.0194  0.1164  0.1923
 1694SOL    HW1 6370   7.904   1.047   0.635  3.0044 -0.7401 -0.7901
 1694SOL    HW2 6371   7.921   1.041   0.484  1.8920  2.6575 -1.1471
 1695SOL     OW 6372   8.591   7.092   2.223  0.0403  0.3748  0.0352
 1695SOL    HW1 6373   8.609   7.032   2.151 -0.0717 -1.1907  1.2566
 1695SOL    HW2 6374   8.665   7.153   2.223  0.6919 -0.3941 -0.5920
 1696SOL     OW 6375   2.320   5.828   4.246 -0.1411 -0.0779  0.2280
 1696SOL    HW1 6376   2.264   5.905   4.255 -0.4133 -0.1520 -0.6870
 1696SOL    HW2 6377   2.330   5.795   4.336  0.2971  1.2258  0.6785
 1697SOL     OW 6378   6.324   8.190   1.364 -0.2795  0.8192 -1.2225
 1697SOL    HW1 6379   6.366   8.105   1.354 -0.2222  0.7670 -0.5332
 1697SOL    HW2 6380   6.313   8.201   1.458 -3.3155  0.1067 -1.4033
 1698SOL     OW 6381   6.829   1.247   0.676 -0.0966 -0.1704 -0.3994
 1698SOL    HW1 6382   6.859   1.301   0.603 -0.0623 -0.2485 -0.4438
 1698SOL    HW2 6383   6.763   1.189   0.637 -0.3299  0.0219 -0.2957
 1699SOL     OW 6384   0.149   0.969   2.961 -0.2553  0.1650  0.4422
 1699SOL    HW1 6385   0.177   0.938   3.047  1.7270 -1.8258 -0.8223
 1699SOL    HW2 6386   0.194   0.912   2.899 -0.1727  2.6742 -1.9968
 1700SOL     OW 6387   4.375   7.731   6.490  0.1424  0.1630 -0.5739
 1700SOL    HW1 6388   4.453   7.787   6.493  0.7346 -0.6261 -0.8018
 1700SOL    HW2 6389   4.332   7.756   6.408 -0.8472  1.8728  0.4029
 1701SOL     OW 6390   0.419   4.572   1.433 -0.1844 -0.0690  0.2482
 1701SOL    HW1 6391   0.453   4.499   1.382  0.6133 -0.0688  0.7650
 1701SOL    HW2 6392   0.410   4.537   1.521  2.9633  1.1792  1.2027
 1702SOL     OW 6393   0.677   5.675   0.933  0.2275 -0.3774  0.1457
 1702SOL    HW1 6394   0.726   5.598   0.907 -0.5876 -0.7754 -0.2736
 1702SOL    HW2 6395   0.743   5.738   0.962  1.2104 -0.1218 -2.3284
 1703SOL     OW 6396   0.862   8.472   6.734 -0.5386 -0.1202  0.0846
 1703SOL    HW1 6397   0.859   8.383   6.698  0.3266 -0.1269  0.0282
 1703SOL    HW2 6398   0.820   8.526   6.667 -0.5603 -0.4019 -0.1308
 1704SOL     OW 6399   0.235   5.045   5.253 -0.1863  0.0641  0.0944
 1704SOL    HW1 6400   0.259   4.963   5.297  2.1531  0.5020 -0.2438
 1704SOL    HW2 6401   0.150   5.068   5.291 -0.5427 -2.1021  0.7610
 1705SOL     OW 6402   2.628   2.949   7.491  0.2056 -0.3442  0.4085
 1705SOL    HW1 6403   2.562   2.880   7.495  0.3442 -0.4825  0.3357
 1705SOL    HW2 6404   2.612   2.994   7.409  0.7604 -0.9438 -0.0379
 1706SOL     OW 6405   2.797   6.889   1.045  0.2197  0.4892 -0.5937
 1706SOL    HW1 6406   2.774   6.954   0.978  0.5185  0.0381 -1.1423
 1706SOL    HW2 6407   2.887   6.865   1.026  0.6260  1.0346  0.5523
 1707SOL     OW 6408   5.054   7.501   8.090 -0.4347 -0.5394  0.3409
 1707SOL    HW1 6409   5.015   7.416   8.108 -0.2730 -0.6493  0.1829
 1707SOL    HW2 6410   5.004   7.536   8.016 -0.3176 -0.6255  0.2194
 1708SOL     OW 6411   0.422   6.536   2.475 -0.0857  0.1770 -0.3006
 1708SOL    HW1 6412   0.504   6.572   2.510 -0.1856  0.1727 -0.0588
 1708SOL    HW2 6413   0.389   6.605   2.418  0.6185 -0.2395 -1.2449
 1709SOL     OW 6414   5.363   8.155   5.114 -0.2939 -0.5517  0.6122
 1709SOL    HW1 6415   5.397   8.109   5.037 -2.7111 -0.9534 -0.2888
 1709SOL    HW2 6416   5.353   8.086   5.180  1.5600 -0.2442  1.2909
 1710SOL     OW 6417   2.116   6.114   0.878 -0.1501 -0.2424 -0.0730
 1710SOL    HW1 6418   2.153   6.032   0.845 -0.7148  0.4509 -2.7118
 1710SOL    HW2 6419   2.065   6.148   0.804 -1.7896  1.3859  1.6992
 1711SOL     OW 6420   2.263   0.193   0.622 -0.6816  0.0890  0.4686
 1711SOL    HW1 6421   2.171   0.214   0.636 -0.5521  0.9198  0.1158
 1711SOL    HW2 6422   2.273   0.190   0.527 -0.0255  1.5706  0.4566
 1712SOL     OW 6423   7.804   5.010   2.434 -0.4184  0.0814 -0.4197
 1712SOL    HW1 6424   7.722   5.057   2.451 -1.1960 -1.5938  0.6832
 1712SOL    HW2 6425   7.777   4.920   2.417  1.1416 -0.2909 -1.1114
 1713SOL     OW 6426   4.604   1.925   6.095  0.4533  0.1043 -0.3875
 1713SOL    HW1 6427   4.631   1.846   6.050 -0.0281 -1.0824  1.3301
 1713SOL    HW2 6428   4.553   1.895   6.171  0.7795  2.0144  0.6804
 1714SOL     OW 6429   6.914   8.686   1.478 -0.4555 -0.5006  0.2563
 1714SOL    HW1 6430   6.993   8.651   1.437 -0.4311 -1.0993  0.8108
 1714SOL    HW2 6431   6.844   8.663   1.417 -0.2792 -0.4263  0.0208
 1715SOL     OW 6432   8.077   3.491   5.083 -0.3736 -0.0603  0.1264
 1715SOL    HW1 6433   8.098   3.461   4.995 -0.4849 -2.7987  0.9189
 1715SOL    HW2 6434   8.120   3.576   5.091  1.5381 -0.7601 -1.8137
 1716SOL     OW 6435   3.303   4.509   5.433  0.0572  0.5193 -0.1350
 1716SOL    HW1 6436   3.360   4.476   5.363  2.4567  0.3415  1.7691
 1716SOL    HW2 6437   3.290   4.601   5.412  1.4649  0.6867 -0.4224
 1717SOL     OW 6438   6.589   8.637   8.606 -0.0992 -0.4236 -0.1293
 1717SOL    HW1 6439   6.661   8.688   8.642  0.6188 -0.4726 -1.4610
 1717SOL    HW2 6440   6.521   8.702   8.586  0.3626 -0.1273 -0.7478
 1718SOL     OW 6441   1.835   8.515   8.098  0.1030 -0.7423 -0.4727
 1718SOL    HW1 6442   1.743   8.520   8.122  0.3544  0.5334  0.3004
 1718SOL    HW2 6443   1.875   8.459   8.165  0.2303  0.2640  0.3012
 1719SOL     OW 6444   8.453   3.283   5.295 -0.5043 -0.4193 -0.9496
 1719SOL    HW1 6445   8.500   3.331   5.227 -0.3431  0.7090 -0.0609
 1719SOL    HW2 6446   8.370   3.329   5.304  0.1216  0.4803  0.7310
 1720SOL     OW 6447   0.071   4.325   4.473  0.1843 -0.0455 -0.3239
 1720SOL    HW1 6448   0.160   4.309   4.503 -0.1292  0.5072  0.9489
 1720SOL    HW2 6449   0.077   4.402   4.417  0.4661  0.1583 -0.0129
 1721SOL     OW 6450   4.167   1.989   8.358  0.4975  0.4987  0.1841
 1721SOL    HW1 6451   4.162   1.901   8.397 -0.3313  1.4530  2.3883
 1721SOL    HW2 6452   4.155   2.049   8.431 -1.0147  2.4635 -1.5218
 1722SOL     OW 6453   0.182   0.780   1.484 -0.3061  0.0262  0.1916
 1722SOL    HW1 6454   0.098   0.738   1.468 -0.1436 -0.0504 -0.4985
 1722SOL    HW2 6455   0.192   0.780   1.579 -0.6039 -0.9161  0.2242
 1723SOL     OW 6456   7.296   4.103   5.494  0.3663  0.2306 -0.1979
 1723SOL    HW1 6457   7.345   4.152   5.428  1.3230  0.5522  0.7135
 1723SOL    HW2 6458   7.285   4.016   5.455  3.3484 -0.4794  0.2250
 1724SOL     OW 6459   4.062   7.486   4.794 -0.6910  0.0099  0.2308
 1724SOL    HW1 6460   4.108   7.564   4.762 -1.4125  0.4909  0.3251
 1724SOL    HW2 6461   4.066   7.493   4.890 -2.3487  0.9402  0.2708
 1725SOL     OW 6462   3.768   3.692   8.635 -0.6191  0.2993  0.0069
 1725SOL    HW1 6463   3.819   3.757   8.587 -1.2947  0.6982 -0.1879
 1725SOL    HW2 6464   3.809   3.688   8.721 -0.6821  1.1322  0.0849
 1726SOL     OW 6465   2.223   2.438   7.226  0.6848  0.1559  0.5841
 1726SOL    HW1 6466   2.192   2.528   7.240  0.3199  0.3170 -1.0370
 1726SOL    HW2 6467   2.315   2.449   7.199  0.5801  0.0616  0.1879
 1727SOL     OW 6468   5.800   0.537   8.149  0.1021  0.0465 -0.6052
 1727SOL    HW1 6469   5.805   0.495   8.236 -0.5918  0.4500 -0.3641
 1727SOL    HW2 6470   5.847   0.477   8.091  0.1096 -0.4978 -0.0478
 1728SOL     OW 6471   0.224   2.689   6.536 -0.3430  0.1586  0.2726
 1728SOL    HW1 6472   0.186   2.766   6.494 -1.2621 -1.3596 -1.9036
 1728SOL    HW2 6473   0.289   2.658   6.473  1.3600  0.1610  1.9427
 1729SOL     OW 6474   1.425   4.565   4.289 -0.2383  0.0577  0.2660
 1729SOL    HW1 6475   1.482   4.628   4.245 -0.9701  0.2622 -0.4295
 1729SOL    HW2 6476   1.349   4.556   4.230 -2.0451  1.5681  2.1977
 1730SOL     OW 6477   6.043   3.838   8.401  0.2645  0.2503  0.2703
 1730SOL    HW1 6478   5.983   3.764   8.416 -0.9476  0.9324 -0.9780
 1730SOL    HW2 6479   6.099   3.809   8.329 -0.1445  0.5026 -0.1516
 1731SOL     OW 6480   0.144   5.059   7.993 -0.1022 -0.1765  0.3790
 1731SOL    HW1 6481   0.168   5.086   8.082 -0.4281  0.1306  0.3749
 1731SOL    HW2 6482   0.177   5.130   7.938 -1.0654  0.2871  0.3779
 1732SOL     OW 6483   6.879   2.336   0.309  0.2324 -0.5545 -0.3562
 1732SOL    HW1 6484   6.844   2.423   0.330  0.7652 -0.1072 -1.2488
 1732SOL    HW2 6485   6.808   2.276   0.332 -0.6486  0.2218 -0.9612
 1733SOL     OW 6486   5.561   4.203   3.463  0.1619  0.0275 -0.3471
 1733SOL    HW1 6487   5.559   4.178   3.556 -1.1206 -1.1556 -0.6471
 1733SOL    HW2 6488   5.579   4.297   3.464 -1.3211  0.3625  1.1967
 1734SOL     OW 6489   7.326   4.179   0.363 -0.3494 -0.0339 -0.5509
 1734SOL    HW1 6490   7.255   4.180   0.300 -2.5507 -0.7201  1.7574
 1734SOL    HW2 6491   7.299   4.241   0.431  1.6288  0.2453  0.0512
 1735SOL     OW 6492   7.652   6.299   3.680 -0.0413 -0.0563 -0.4786
 1735SOL    HW1 6493   7.651   6.395   3.684 -1.1325 -0.0100 -1.4461
 1735SOL    HW2 6494   7.721   6.279   3.616  0.5156  0.0509  0.0751
 1736SOL     OW 6495   7.738   4.083   0.086 -0.0212  0.7725 -0.5754
 1736SOL    HW1 6496   7.756   3.989   0.086  1.9302  1.0310  2.0961
 1736SOL    HW2 6497   7.644   4.090   0.107  0.0925 -0.5704  0.4503
 1737SOL     OW 6498   0.180   0.409   1.906  0.2702  0.9584 -0.0196
 1737SOL    HW1 6499   0.158   0.334   1.961  1.7733 -0.1604 -0.8513
 1737SOL    HW2 6500   0.100   0.427   1.857 -0.3210  0.3515  0.6955
 1738SOL     OW 6501   3.391   2.941   4.926 -0.0194 -0.4021 -0.6209
 1738SOL    HW1 6502   3.370   3.008   4.861 -1.3202  0.2384  0.4100
 1738SOL    HW2 6503   3.431   2.989   4.998 -2.2893 -0.4242  0.7585
 1739SOL     OW 6504   3.543   0.916   1.198 -0.1744  0.0493  0.0075
 1739SOL    HW1 6505   3.462   0.951   1.235 -0.0345  0.0232  0.3409
 1739SOL    HW2 6506   3.585   0.870   1.271 -0.1995 -0.5417 -0.3455
 1740SOL     OW 6507   7.140   2.322   1.168  0.0091 -0.3930 -0.2381
 1740SOL    HW1 6508   7.191   2.255   1.122  0.2826 -0.8062  0.6385
 1740SOL    HW2 6509   7.108   2.380   1.099  2.4260  0.4331 -0.7846
 1741SOL     OW 6510   4.166   5.726   6.169  0.2089  0.4724 -0.6834
 1741SOL    HW1 6511   4.075   5.704   6.149 -0.2715  1.8231 -0.0875
 1741SOL    HW2 6512   4.197   5.770   6.090  0.6250 -0.7236 -1.2066
 1742SOL     OW 6513   2.956   7.793   7.744 -0.2183 -0.0154  0.5936
 1742SOL    HW1 6514   3.029   7.733   7.760  0.2205  0.4144  0.2288
 1742SOL    HW2 6515   2.903   7.789   7.824 -0.6131 -1.4642  0.2855
 1743SOL     OW 6516   4.940   2.412   2.485  0.1187 -0.0355  0.1413
 1743SOL    HW1 6517   4.906   2.323   2.472  1.6238 -0.2803 -3.1904
 1743SOL    HW2 6518   4.892   2.465   2.421  1.1492  0.9829  0.1868
 1744SOL     OW 6519   4.850   0.423   3.291 -0.1214 -0.2368  0.0444
 1744SOL    HW1 6520   4.932   0.460   3.322 -1.7198  2.2312  1.6476
 1744SOL    HW2 6521   4.835   0.464   3.206  0.9060 -1.7513 -0.9139
 1745SOL     OW 6522   3.903   8.531   2.758 -0.4251  0.9127 -0.1816
 1745SOL    HW1 6523   3.825   8.519   2.705 -0.5414  2.3721 -0.4037
 1745SOL    HW2 6524   3.944   8.610   2.722 -1.5244  3.1479  3.0277
 1746SOL     OW 6525   0.135   5.543   2.804 -0.4068  0.1109 -0.0763
 1746SOL    HW1 6526   0.218   5.495   2.801  0.8824  2.1530  0.9423
 1746SOL    HW2 6527   0.068   5.475   2.799  1.2932 -1.5903 -1.2507
 1747SOL     OW 6528   4.625   3.927   5.910  0.1856 -0.1269  0.2225
 1747SOL    HW1 6529   4.617   3.926   5.815 -0.9021  0.1807  0.2993
 1747SOL    HW2 6530   4.637   3.835   5.934 -0.1148 -0.2709 -0.1707
 1748SOL     OW 6531   2.438   3.216   4.795  0.3581  0.2519 -0.7063
 1748SOL    HW1 6532   2.353   3.223   4.839  1.0996 -0.2307  0.8705
 1748SOL    HW2 6533   2.448   3.299   4.749  0.2937  1.5315  1.4740
 1749SOL     OW 6534   6.694   7.235   7.653 -0.1815  0.3446  0.8773
 1749SOL    HW1 6535   6.602   7.210   7.660 -0.3726  0.7963  0.1028
 1749SOL    HW2 6536   6.721   7.252   7.744 -0.6160 -0.6041  1.2011
 1750SOL     OW 6537   7.287   0.637   1.731 -0.0548  0.7063  0.0496
 1750SOL    HW1 6538   7.279   0.731   1.716  1.0343  0.7455 -0.4139
 1750SOL    HW2 6539   7.353   0.629   1.800 -1.0919  0.3216  1.0157
 1751SOL     OW 6540   6.669   4.262   8.390 -0.1271 -0.4402 -0.2599
 1751SOL    HW1 6541   6.615   4.195   8.348  1.9883 -1.4940 -1.4714
 1751SOL    HW2 6542   6.759   4.230   8.379  0.7577  1.1853  1.7425
 1752SOL     OW 6543   8.324   5.376   5.024 -0.4975  0.1881  0.6775
 1752SOL    HW1 6544   8.332   5.320   5.101 -1.2185  0.2278  0.7873
 1752SOL    HW2 6545   8.365   5.459   5.051 -1.5464  0.5148  1.3500
 1753SOL     OW 6546   7.812   3.321   5.955  0.3248  0.9959 -0.0706
 1753SOL    HW1 6547   7.767   3.238   5.972 -0.0838  1.4538  1.1391
 1753SOL    HW2 6548   7.793   3.340   5.863 -1.4718  0.8870  0.2435
 1754SOL     OW 6549   5.477   1.680   6.403 -0.4262 -0.2591  0.5987
 1754SOL    HW1 6550   5.446   1.615   6.466  2.5560 -1.6544  0.8351
 1754SOL    HW2 6551   5.484   1.631   6.320 -2.4553  1.0432 -0.4231
 1755SOL     OW 6552   4.923   7.439   2.128  0.5370  0.2211  0.5538
 1755SOL    HW1 6553   4.968   7.519   2.155 -2.3392  3.0234 -2.1000
 1755SOL    HW2 6554   4.942   7.431   2.035 -1.6535 -0.3412  0.1027
 1756SOL     OW 6555   8.645   3.691   0.458  0.0490  0.7143  0.2023
 1756SOL    HW1 6556   8.675   3.600   0.453 -1.8167  0.0906 -0.2255
 1756SOL    HW2 6557   8.682   3.724   0.540  0.1538 -0.6575  0.7349
 1757SOL     OW 6558   8.705   2.618   1.837  0.1712 -0.1146  0.2367
 1757SOL    HW1 6559   8.697   2.523   1.842 -1.9331  0.0262  0.6407
 1757SOL    HW2 6560   8.694   2.649   1.927  0.5782  0.5180  0.0769
 1758SOL     OW 6561   8.038   2.069   5.013  0.1379  0.0233  0.1902
 1758SOL    HW1 6562   7.999   2.156   5.014  1.3926  0.6322 -0.5618
 1758SOL    HW2 6563   8.042   2.045   4.920 -0.4331 -0.9555  0.4056
 1759SOL     OW 6564   0.911   0.894   4.196 -0.0426 -0.4719 -0.9425
 1759SOL    HW1 6565   0.958   0.922   4.118  0.6910  1.9073  0.2528
 1759SOL    HW2 6566   0.972   0.836   4.242  1.3833  1.6112 -0.0228
 1760SOL     OW 6567   5.463   2.492   0.148  0.0736 -0.4824  0.5224
 1760SOL    HW1 6568   5.518   2.535   0.214  1.7072  0.9397 -1.6514
 1760SOL    HW2 6569   5.391   2.553   0.134 -0.4190 -0.9090  1.1471
 1761SOL     OW 6570   3.164   7.779   6.233 -0.6353 -1.0184  0.5040
 1761SOL    HW1 6571   3.252   7.814   6.239 -0.3659 -1.8188  1.4353
 1761SOL    HW2 6572   3.132   7.807   6.147  0.0803  0.2724  0.6466
 1762SOL     OW 6573   3.208   3.224   3.113  0.1743 -0.1603  0.4294
 1762SOL    HW1 6574   3.279   3.285   3.092 -0.1812  0.3986  0.8087
 1762SOL    HW2 6575   3.147   3.276   3.165  0.7239 -1.3098  2.3422
 1763SOL     OW 6576   0.579   2.983   4.404  0.1654 -0.5537 -0.4737
 1763SOL    HW1 6577   0.579   3.009   4.312  2.1814  3.4403  0.4260
 1763SOL    HW2 6578   0.670   2.995   4.433 -0.8676  0.9778  2.6018
 1764SOL     OW 6579   3.620   2.542   4.864  0.5042  0.0769 -0.1552
 1764SOL    HW1 6580   3.675   2.609   4.904  1.3970 -0.5330 -0.3051
 1764SOL    HW2 6581   3.538   2.546   4.911  0.6339  1.0977  0.0023
 1765SOL     OW 6582   5.489   4.931   5.026 -0.1443  0.0523  0.4926
 1765SOL    HW1 6583   5.396   4.943   5.046 -0.2353  0.8795 -0.3626
 1765SOL    HW2 6584   5.493   4.926   4.930  0.6736 -0.1390  0.5267
 1766SOL     OW 6585   0.743   3.032   6.683 -0.1152 -0.1956  0.5982
 1766SOL    HW1 6586   0.756   3.126   6.695 -0.7253 -0.1228  0.7023
 1766SOL    HW2 6587   0.722   3.023   6.590 -2.0591  0.0144  0.9812
 1767SOL     OW 6588   2.910   8.421   3.833  0.3002  0.1976 -0.2156
 1767SOL    HW1 6589   2.931   8.509   3.864  0.9780  0.5553 -1.6281
 1767SOL    HW2 6590   2.939   8.420   3.742  1.1744 -1.7724  0.0277
 1768SOL     OW 6591   4.599   4.043   4.684  0.4232  0.4667  0.0096
 1768SOL    HW1 6592   4.523   3.986   4.695  0.9561  0.0286  1.7813
 1768SOL    HW2 6593   4.573   4.126   4.724  1.2125 -0.0385  1.6690
 1769SOL     OW 6594   7.860   5.283   1.758  0.3247  0.2735  0.9224
 1769SOL    HW1 6595   7.801   5.355   1.740 -0.1570 -0.4516 -0.5485
 1769SOL    HW2 6596   7.849   5.223   1.685  0.0518 -1.7398  2.5074
 1770SOL     OW 6597   6.620   1.639   5.642 -0.0871  0.0320 -0.3595
 1770SOL    HW1 6598   6.660   1.555   5.661 -0.7968 -0.9209 -2.7558
 1770SOL    HW2 6599   6.598   1.675   5.728  0.1795 -2.2293  0.7241
 1771SOL     OW 6600   7.551   0.582   8.225  0.1165 -0.1774  0.3348
 1771SOL    HW1 6601   7.584   0.611   8.310  0.1820 -0.7108  0.4912
 1771SOL    HW2 6602   7.523   0.491   8.239 -2.5295  0.5653  0.5464
 1772SOL     OW 6603   5.748   2.032   4.441  0.2785  0.5405  0.2875
 1772SOL    HW1 6604   5.821   1.982   4.403  0.2507  0.6359  0.1084
 1772SOL    HW2 6605   5.675   2.017   4.381  1.1508  3.5270 -1.7088
 1773SOL     OW 6606   2.026   7.223   0.727  0.0510  0.2122  0.8485
 1773SOL    HW1 6607   1.981   7.271   0.797 -0.9206  1.5718 -0.6437
 1773SOL    HW2 6608   1.958   7.206   0.662  1.1372 -0.0879 -0.2436
 1774SOL     OW 6609   4.042   5.361   2.286  0.5257 -0.2517  0.2268
 1774SOL    HW1 6610   4.038   5.454   2.261 -2.4486  0.2635  2.1073
 1774SOL    HW2 6611   4.099   5.321   2.220  0.2626  2.5399 -1.8956
 1775SOL     OW 6612   0.686   3.687   0.187 -0.1472 -0.1738  0.7385
 1775SOL    HW1 6613   0.703   3.608   0.136 -1.6947  0.9784 -1.7171
 1775SOL    HW2 6614   0.773   3.716   0.215  0.5931 -1.8001  0.2648
 1776SOL     OW 6615   3.060   7.323   1.431  0.1562  0.3144 -0.5936
 1776SOL    HW1 6616   3.066   7.317   1.335 -0.1857  0.9436 -0.6600
 1776SOL    HW2 6617   3.133   7.381   1.455  0.9907 -0.8053 -0.3469
 1777SOL     OW 6618   8.314   3.123   0.529 -0.1022  0.0768  0.0191
 1777SOL    HW1 6619   8.258   3.164   0.595 -1.7704 -0.9443 -0.6954
 1777SOL    HW2 6620   8.355   3.050   0.575 -0.5765 -0.1050  0.1572
 1778SOL     OW 6621   5.269   0.786   8.527 -0.3096 -0.2703 -0.4125
 1778SOL    HW1 6622   5.308   0.825   8.605 -1.8958  0.5329  0.0254
 1778SOL    HW2 6623   5.201   0.728   8.560 -1.5371  0.6744 -1.1567
 1779SOL     OW 6624   8.513   3.562   5.589  0.2946  0.0025  0.4106
 1779SOL    HW1 6625   8.521   3.468   5.602  2.8891  0.0855 -0.1079
 1779SOL    HW2 6626   8.475   3.595   5.670 -1.5139 -1.5392  0.2583
 1780SOL     OW 6627   5.022   2.286   6.493  0.1204 -0.4521 -0.0370
 1780SOL    HW1 6628   4.977   2.369   6.511 -1.1358 -1.3066  0.9462
 1780SOL    HW2 6629   5.109   2.312   6.463  0.4151  1.1884  2.0322
 1781SOL     OW 6630   4.613   5.443   7.260 -0.2044 -0.3686  0.1363
 1781SOL    HW1 6631   4.549   5.514   7.273 -0.5778 -0.6125 -0.3259
 1781SOL    HW2 6632   4.561   5.363   7.266  0.0795 -0.5750 -0.1184
 1782SOL     OW 6633   0.723   1.915   8.341 -0.2313 -0.0451  0.2938
 1782SOL    HW1 6634   0.780   1.928   8.264 -0.6344  0.6102  0.0949
 1782SOL    HW2 6635   0.739   1.825   8.368 -0.4209 -0.4324 -0.8374
 1783SOL     OW 6636   0.820   5.266   2.363 -0.2790 -0.9257  0.2137
 1783SOL    HW1 6637   0.734   5.224   2.364  0.4613 -2.6337 -1.5876
 1783SOL    HW2 6638   0.865   5.229   2.439 -0.1831 -2.2333 -0.4549
 1784SOL     OW 6639   0.767   3.600   3.238  0.0133  0.4667 -0.3560
 1784SOL    HW1 6640   0.861   3.619   3.230  0.9991 -0.3860  5.3242
 1784SOL    HW2 6641   0.726   3.685   3.252  0.4389  0.6077  0.0453
 1785SOL     OW 6642   1.594   4.848   5.410  0.2227  0.2284  0.1327
 1785SOL    HW1 6643   1.617   4.769   5.361 -0.6859  1.1711 -1.9726
 1785SOL    HW2 6644   1.675   4.899   5.412 -0.0748  0.9063 -1.9841
 1786SOL     OW 6645   8.251   2.079   1.498  0.2068 -0.3390 -0.5463
 1786SOL    HW1 6646   8.307   2.004   1.520 -1.0197 -0.5327  2.3862
 1786SOL    HW2 6647   8.309   2.155   1.506  0.6657 -0.7186 -0.1635
 1787SOL     OW 6648   3.797   8.056   0.287  0.2757  0.4610  0.4391
 1787SOL    HW1 6649   3.705   8.070   0.311 -0.1670 -1.4864  0.0728
 1787SOL    HW2 6650   3.830   7.998   0.356  0.0885 -2.0139 -1.4249
 1788SOL     OW 6651   8.435   3.020   5.442  0.1624 -0.0602 -0.7810
 1788SOL    HW1 6652   8.472   3.007   5.355 -0.8585  1.2063 -1.4535
 1788SOL    HW2 6653   8.395   3.107   5.438 -1.8840 -0.8730  0.2222
 1789SOL     OW 6654   5.713   1.065   7.546  0.0391  0.4396 -0.3383
 1789SOL    HW1 6655   5.753   0.978   7.540 -1.7814 -0.5031  0.3863
 1789SOL    HW2 6656   5.753   1.105   7.623  1.8527  0.8269 -1.4086
 1790SOL     OW 6657   1.023   3.120   3.401  0.0831  0.3759  0.0186
 1790SOL    HW1 6658   1.013   3.059   3.474 -0.1671  1.3470  0.8294
 1790SOL    HW2 6659   0.954   3.096   3.339 -0.4036  0.2218  0.6097
 1791SOL     OW 6660   1.584   5.484   3.606  0.0371 -0.4529  0.2791
 1791SOL    HW1 6661   1.521   5.553   3.586 -1.0013 -1.4149  0.1247
 1791SOL    HW2 6662   1.583   5.478   3.702 -1.5055 -1.6679  0.2335
 1792SOL     OW 6663   6.790   1.348   4.054 -0.5798  0.3850  0.2976
 1792SOL    HW1 6664   6.831   1.400   3.984 -0.3992  0.1936  0.2582
 1792SOL    HW2 6665   6.745   1.278   4.007 -0.6621  0.3960  0.3612
 1793SOL     OW 6666   0.621   8.332   0.280  0.5985 -0.2095 -0.2596
 1793SOL    HW1 6667   0.547   8.388   0.254  0.3650 -0.5748 -0.3948
 1793SOL    HW2 6668   0.698   8.376   0.243  0.4682  0.2637  0.0252
 1794SOL     OW 6669   0.364   6.771   4.123 -0.2912  0.3452  0.0926
 1794SOL    HW1 6670   0.314   6.757   4.042  1.5039 -1.5293 -0.7867
 1794SOL    HW2 6671   0.342   6.695   4.178 -0.8215  1.1620  1.0375
 1795SOL     OW 6672   4.169   8.400   2.395  0.6067 -0.1273 -0.3535
 1795SOL    HW1 6673   4.153   8.494   2.380  0.2526 -0.1562 -0.1607
 1795SOL    HW2 6674   4.112   8.356   2.333 -1.0237 -0.2496  1.1388
 1796SOL     OW 6675   6.079   2.195   8.445 -0.3257 -0.0747  0.8037
 1796SOL    HW1 6676   6.162   2.179   8.400 -0.4598 -0.3374  0.6448
 1796SOL    HW2 6677   6.037   2.264   8.394 -1.0191 -1.1929 -0.2194
 1797SOL     OW 6678   6.959   7.390   0.385  0.4177 -0.5827 -0.7831
 1797SOL    HW1 6679   6.874   7.378   0.428 -0.6666 -1.1334 -2.9399
 1797SOL    HW2 6680   7.009   7.312   0.411  0.6022  0.1244  1.1347
 1798SOL     OW 6681   7.605   7.991   2.897 -0.0232 -0.4346  0.5566
 1798SOL    HW1 6682   7.624   7.897   2.898  1.4055 -0.1892  2.3126
 1798SOL    HW2 6683   7.690   8.033   2.905 -0.7531  0.9724  1.3808
 1799SOL     OW 6684   1.004   4.340   4.290  1.0949  0.5568 -0.3062
 1799SOL    HW1 6685   0.935   4.328   4.224 -0.1468  1.9943  0.6546
 1799SOL    HW2 6686   1.051   4.257   4.291 -1.6300 -1.1214  0.0898
 1800SOL     OW 6687   1.865   8.028   7.091  0.0869  0.0358 -0.0124
 1800SOL    HW1 6688   1.885   7.943   7.053 -1.4769 -0.7485  0.8367
 1800SOL    HW2 6689   1.932   8.041   7.158 -0.2761 -1.0234  0.5694
 1801SOL     OW 6690   3.064   4.566   4.973  0.3588 -0.5520 -0.4691
 1801SOL    HW1 6691   3.128   4.509   4.931 -0.9512 -1.3875 -1.4319
 1801SOL    HW2 6692   3.073   4.548   5.067  0.9088 -1.3101 -0.6589
 1802SOL     OW 6693   0.861   8.058   3.646  0.2197 -0.6612  0.3300
 1802SOL    HW1 6694   0.867   8.107   3.565 -1.1912 -0.1913  0.4829
 1802SOL    HW2 6695   0.945   8.072   3.690  0.4425  0.2523 -0.3865
 1803SOL     OW 6696   4.036   4.908   3.140 -0.5597 -0.1371 -0.4280
 1803SOL    HW1 6697   4.011   4.925   3.231 -1.9156  0.4601 -0.8922
 1803SOL    HW2 6698   4.033   4.993   3.098  1.3651 -0.1930 -0.7681
 1804SOL     OW 6699   8.222   7.774   4.862  0.1574 -0.3198  0.0554
 1804SOL    HW1 6700   8.167   7.763   4.939  0.4643  1.7298  0.6286
 1804SOL    HW2 6701   8.294   7.712   4.874 -1.6898 -2.7000 -0.4819
 1805SOL     OW 6702   4.329   1.095   1.245 -0.8771 -0.2006  0.0923
 1805SOL    HW1 6703   4.266   1.120   1.178 -0.3154 -0.4733 -0.5461
 1805SOL    HW2 6704   4.352   1.004   1.225  0.7362  0.3022 -0.5299
 1806SOL     OW 6705   0.267   0.741   2.804 -0.0766  0.4084  0.2660
 1806SOL    HW1 6706   0.362   0.753   2.815 -0.3452  2.2380  0.9844
 1806SOL    HW2 6707   0.250   0.766   2.714  0.1420 -0.0851  0.0853
 1807SOL     OW 6708   6.608   2.508   0.322  0.2211  0.0225  0.3469
 1807SOL    HW1 6709   6.578   2.483   0.409 -1.1918  0.2954 -0.0401
 1807SOL    HW2 6710   6.624   2.425   0.277 -0.2833 -0.1457  0.4685
 1808SOL     OW 6711   0.950   0.081   4.965  0.0337  0.0080 -0.2449
 1808SOL    HW1 6712   0.930   0.160   4.914  1.3767  2.1066  2.2334
 1808SOL    HW2 6713   0.864   0.049   4.993 -0.5258  0.8330 -0.9371
 1809SOL     OW 6714   4.696   2.690   6.969  0.0390  0.3060  0.7184
 1809SOL    HW1 6715   4.770   2.633   6.947  0.6107  1.1652  0.3359
 1809SOL    HW2 6716   4.633   2.632   7.012 -0.1897 -0.9894 -1.2573
 1810SOL     OW 6717   8.638   7.671   6.751 -0.1857  0.0834  0.1018
 1810SOL    HW1 6718   8.645   7.579   6.725 -0.0058  0.0734  0.1854
 1810SOL    HW2 6719   8.553   7.676   6.796 -0.1239 -0.0752  0.2377
 1811SOL     OW 6720   5.067   1.769   6.104  0.6392  0.4018 -0.0651
 1811SOL    HW1 6721   5.082   1.830   6.031 -1.3267 -1.1649 -1.9157
 1811SOL    HW2 6722   5.116   1.691   6.080  0.5408  0.1113  0.6572
 1812SOL     OW 6723   4.287   1.264   5.095  0.3529  0.0139 -0.6527
 1812SOL    HW1 6724   4.243   1.284   5.178 -0.2692  0.7178 -1.1415
 1812SOL    HW2 6725   4.360   1.208   5.120 -0.1361 -0.2162  0.3153
 1813SOL     OW 6726   5.279   3.552   6.846 -0.0565  0.0242 -0.0015
 1813SOL    HW1 6727   5.270   3.522   6.755  0.2225  1.8227 -0.6660
 1813SOL    HW2 6728   5.347   3.619   6.843 -0.2086  0.2864  1.5051
 1814SOL     OW 6729   0.274   2.449   8.162 -0.1994  0.4242 -0.0725
 1814SOL    HW1 6730   0.199   2.410   8.116  0.4633  1.6253 -2.3550
 1814SOL    HW2 6731   0.241   2.470   8.249 -2.2383  0.0856 -0.7093
 1815SOL     OW 6732   8.525   6.919   3.371 -0.0176  0.0587  0.2478
 1815SOL    HW1 6733   8.553   7.009   3.354 -0.9543  0.2898 -0.1448
 1815SOL    HW2 6734   8.436   6.928   3.405  0.6612 -0.6004  2.2895
 1816SOL     OW 6735   3.910   4.187   1.395  0.0247 -0.4483  0.0840
 1816SOL    HW1 6736   3.863   4.264   1.364 -1.4762 -1.0271  0.8047
 1816SOL    HW2 6737   3.907   4.193   1.491 -0.3945 -1.5337  0.1607
 1817SOL     OW 6738   4.651   1.101   4.912  0.4204  0.1159 -0.0675
 1817SOL    HW1 6739   4.738   1.066   4.894  0.6601  0.5440  0.2560
 1817SOL    HW2 6740   4.621   1.054   4.989 -0.1792 -0.9673 -0.9245
 1818SOL     OW 6741   2.526   1.809   6.562  0.1912 -0.0797  0.0611
 1818SOL    HW1 6742   2.463   1.796   6.490 -1.5726  1.4617  1.2254
 1818SOL    HW2 6743   2.584   1.878   6.531  1.2576 -1.3817 -0.9520
 1819SOL     OW 6744   8.293   6.223   2.898  0.0450  0.4687  0.3174
 1819SOL    HW1 6745   8.281   6.129   2.909 -0.8307  0.6200  0.7690
 1819SOL    HW2 6746   8.204   6.259   2.902  0.0038  1.0296 -2.8798
 1820SOL     OW 6747   7.883   7.753   7.383  0.3850  0.3648 -0.8975
 1820SOL    HW1 6748   7.855   7.681   7.325 -0.6169  0.3643 -0.4301
 1820SOL    HW2 6749   7.835   7.738   7.464 -0.2682  1.8787 -0.9810
 1821SOL     OW 6750   7.437   6.831   1.375  0.3518  0.4398  0.7667
 1821SOL    HW1 6751   7.489   6.752   1.361  0.0069  0.1545  1.0787
 1821SOL    HW2 6752   7.444   6.878   1.292 -1.3940 -1.0690 -0.3127
 1822SOL     OW 6753   4.526   7.235   1.345 -0.1424  0.4133 -0.6453
 1822SOL    HW1 6754   4.561   7.176   1.278  0.5314 -1.1026  0.9682
 1822SOL    HW2 6755   4.578   7.315   1.336  0.3400  0.0138 -1.5469
 1823SOL     OW 6756   3.825   0.215   7.120  0.4337 -0.3171 -0.0386
 1823SOL    HW1 6757   3.908   0.187   7.157 -0.2210 -2.4571 -0.0778
 1823SOL    HW2 6758   3.843   0.227   7.027  0.4767 -1.8933 -0.2591
 1824SOL     OW 6759   7.460   5.113   3.107 -0.1636 -0.0274 -0.2411
 1824SOL    HW1 6760   7.514   5.185   3.140  0.5770 -0.5426 -0.2972
 1824SOL    HW2 6761   7.523   5.044   3.087 -0.9163 -0.8933  0.3208
 1825SOL     OW 6762   8.298   2.395   4.778 -0.6772 -0.9191  0.0395
 1825SOL    HW1 6763   8.310   2.446   4.858  3.7903 -0.4854 -0.6186
 1825SOL    HW2 6764   8.287   2.305   4.808 -2.1458 -0.4220  1.1053
 1826SOL     OW 6765   7.414   2.943   3.461 -0.1001 -0.0276 -0.0044
 1826SOL    HW1 6766   7.325   2.940   3.427  0.2635 -1.1329 -0.9456
 1826SOL    HW2 6767   7.431   2.854   3.492  1.1011 -0.2044 -1.0571
 1827SOL     OW 6768   0.226   1.424   3.245 -0.0961  0.3683  0.0241
 1827SOL    HW1 6769   0.263   1.383   3.324  0.6725 -0.8383 -0.9177
 1827SOL    HW2 6770   0.138   1.387   3.238  0.4016 -0.7828 -0.5213
 1828SOL     OW 6771   3.512   2.838   3.410 -0.2789 -0.2757 -0.4307
 1828SOL    HW1 6772   3.569   2.761   3.408  0.5087  0.2982 -1.7536
 1828SOL    HW2 6773   3.489   2.852   3.318 -1.0371  0.6264 -0.1189
 1829SOL     OW 6774   2.677   6.014   4.903  0.0634  0.3158 -0.0305
 1829SOL    HW1 6775   2.769   6.038   4.892 -0.0214  0.8516  0.4074
 1829SOL    HW2 6776   2.628   6.089   4.870 -0.2283 -0.1514 -0.6858
 1830SOL     OW 6777   1.899   0.039   0.783  0.0740  0.0585  0.5481
 1830SOL    HW1 6778   1.919  -0.040   0.833  0.4292  1.3929  2.6227
 1830SOL    HW2 6779   1.956   0.033   0.706 -0.8215 -2.2764 -0.0182
 1831SOL     OW 6780   1.783   2.665   0.033 -0.4116 -0.2982 -0.1159
 1831SOL    HW1 6781   1.776   2.571   0.015  1.2485 -0.7395  1.3069
 1831SOL    HW2 6782   1.843   2.697  -0.035 -2.9333  0.3154 -2.2113
 1832SOL     OW 6783   1.496   7.586   2.533 -0.3715  0.2779 -0.5454
 1832SOL    HW1 6784   1.470   7.611   2.622  0.2867 -1.0497  0.0470
 1832SOL    HW2 6785   1.546   7.661   2.501  0.5799  0.2227  0.7414
 1833SOL     OW 6786   5.313   3.376   2.654 -0.0898  0.4284  0.5714
 1833SOL    HW1 6787   5.233   3.363   2.604 -0.5087  0.1170  1.3092
 1833SOL    HW2 6788   5.297   3.455   2.705  0.6811  1.2731 -0.4254
 1834SOL     OW 6789   4.090   3.572   8.086  0.3182 -0.1906  0.2002
 1834SOL    HW1 6790   4.017   3.609   8.137  1.2563 -0.7407  2.0016
 1834SOL    HW2 6791   4.166   3.583   8.142  1.0798 -2.4789 -0.3241
 1835SOL     OW 6792   6.678   2.546   5.007  0.3190  0.6431  0.1314
 1835SOL    HW1 6793   6.736   2.544   5.083 -1.3167 -0.1014  1.4184
 1835SOL    HW2 6794   6.724   2.601   4.944  1.4783  1.7907  1.8793
 1836SOL     OW 6795   0.435   1.220   2.483  0.2467 -0.1714  0.1547
 1836SOL    HW1 6796   0.530   1.232   2.489  0.8241 -3.0692 -1.1313
 1836SOL    HW2 6797   0.398   1.305   2.506  3.1540  1.1750  0.2955
 1837SOL     OW 6798   7.164   3.837   6.654  0.6265  0.4288  0.3686
 1837SOL    HW1 6799   7.213   3.873   6.728  1.4051  0.3459 -0.0990
 1837SOL    HW2 6800   7.080   3.882   6.657  1.5757  2.3251 -0.2119
 1838SOL     OW 6801   0.388   4.775   8.070  0.4396 -0.6975 -0.1680
 1838SOL    HW1 6802   0.471   4.819   8.086 -1.2276  1.7665  2.6678
 1838SOL    HW2 6803   0.340   4.835   8.012 -0.2773 -0.8681  0.2405
 1839SOL     OW 6804   8.659   1.092   7.100 -0.3589 -0.4005  0.3675
 1839SOL    HW1 6805   8.605   1.149   7.155 -0.0730 -0.1615  0.4033
 1839SOL    HW2 6806   8.601   1.064   7.030  0.1751  2.0620 -1.1778
 1840SOL     OW 6807   4.896   3.025   6.950  0.5132 -0.2648  0.2091
 1840SOL    HW1 6808   4.944   3.015   6.867 -1.0739  2.0973 -1.1362
 1840SOL    HW2 6809   4.808   2.994   6.930  0.0163  0.6882  0.8666
 1841SOL     OW 6810   7.704   1.787   6.633 -0.2960 -0.1140 -0.2016
 1841SOL    HW1 6811   7.635   1.815   6.694 -1.5480 -1.6540 -0.8302
 1841SOL    HW2 6812   7.670   1.810   6.547  0.5226  0.1843 -0.4437
 1842SOL     OW 6813   8.272   5.101   1.208  0.0343  0.0401  0.1521
 1842SOL    HW1 6814   8.355   5.084   1.254 -0.0109  1.4818  0.8041
 1842SOL    HW2 6815   8.291   5.175   1.151 -0.5559 -0.2653 -0.4535
 1843SOL     OW 6816   7.501   7.548   1.019  0.4824  0.2012  0.0147
 1843SOL    HW1 6817   7.442   7.606   0.972  0.2681 -0.7930 -0.9905
 1843SOL    HW2 6818   7.447   7.506   1.086  0.1622 -0.3429 -0.5834
 1844SOL     OW 6819   7.384   6.246   3.741  0.3155  0.4983 -0.4927
 1844SOL    HW1 6820   7.475   6.277   3.732  0.4197  0.2706 -0.2397
 1844SOL    HW2 6821   7.333   6.326   3.755  0.7823  0.4903  1.6957
 1845SOL     OW 6822   2.248   1.039   4.823  0.7817 -0.0321 -0.2146
 1845SOL    HW1 6823   2.295   0.983   4.761 -3.9444 -4.9499  0.0026
 1845SOL    HW2 6824   2.275   1.009   4.909 -0.1474 -0.4951 -0.0707
 1846SOL     OW 6825   6.477   4.174   0.423 -0.1146  0.4102  0.0656
 1846SOL    HW1 6826   6.515   4.169   0.335 -0.3697  1.4201 -0.1206
 1846SOL    HW2 6827   6.513   4.256   0.459 -0.6048  0.3851  0.6132
 1847SOL     OW 6828   4.388   1.689   7.238  0.1817  0.0616 -0.4281
 1847SOL    HW1 6829   4.412   1.614   7.183  1.3088  0.9499 -1.2045
 1847SOL    HW2 6830   4.361   1.757   7.176 -2.1127 -0.0913  0.3307
 1848SOL     OW 6831   2.718   0.977   4.458 -0.2083 -0.4044 -0.1450
 1848SOL    HW1 6832   2.741   1.069   4.443 -0.2358 -0.5436 -1.1424
 1848SOL    HW2 6833   2.750   0.957   4.546 -0.1735  0.5469  0.0640
 1849SOL     OW 6834   5.821   2.609   7.146 -0.9906 -0.4676  0.2501
 1849SOL    HW1 6835   5.860   2.538   7.094 -1.5027 -0.2871 -0.3989
 1849SOL    HW2 6836   5.865   2.604   7.230  1.4013  0.5441 -0.8460
 1850SOL     OW 6837   3.320   8.005   7.944 -0.4137  0.3717 -0.0012
 1850SOL    HW1 6838   3.327   8.038   7.854 -1.9820  0.7331 -0.0267
 1850SOL    HW2 6839   3.275   7.920   7.935  1.6543 -0.8135  0.2548
 1851SOL     OW 6840   2.440   0.459   3.238  0.2524 -0.3534 -0.1112
 1851SOL    HW1 6841   2.478   0.416   3.315  0.3989 -0.3108 -0.1581
 1851SOL    HW2 6842   2.514   0.506   3.198 -0.0779  0.6009  0.3883
 1852SOL     OW 6843   8.455   4.327   2.569 -0.4541  0.0651 -0.1894
 1852SOL    HW1 6844   8.372   4.360   2.536 -0.8865 -2.5481 -2.0489
 1852SOL    HW2 6845   8.448   4.332   2.664 -1.8386  1.8144 -0.3354
 1853SOL     OW 6846   8.500   6.487   0.304 -0.1342 -0.5896 -0.4111
 1853SOL    HW1 6847   8.523   6.575   0.335 -2.0927  0.0144 -0.5376
 1853SOL    HW2 6848   8.503   6.432   0.383  1.3967 -0.5086 -0.3836
 1854SOL     OW 6849   2.931   5.328   1.855 -0.1054  0.5397  0.1153
 1854SOL    HW1 6850   2.918   5.423   1.863 -0.3329  0.4965  0.2733
 1854SOL    HW2 6851   2.869   5.301   1.787 -1.4057  0.2241  1.3614
 1855SOL     OW 6852   4.848   4.657   0.807 -0.3772 -0.1570 -0.2442
 1855SOL    HW1 6853   4.932   4.651   0.852 -0.2195  1.0281 -0.3499
 1855SOL    HW2 6854   4.825   4.750   0.811 -0.3379  0.0244 -2.6197
 1856SOL     OW 6855   2.474   2.127   1.886 -0.1870 -0.2078 -0.7219
 1856SOL    HW1 6856   2.387   2.092   1.907  0.2358 -0.5552  0.5742
 1856SOL    HW2 6857   2.462   2.173   1.803 -1.1781 -1.8997 -1.5806
 1857SOL     OW 6858   3.693   4.636   0.389  0.2637 -0.0523  0.1534
 1857SOL    HW1 6859   3.703   4.650   0.483 -1.3113  1.5048  0.1470
 1857SOL    HW2 6860   3.600   4.614   0.378  1.0174 -3.1742 -0.7695
 1858SOL     OW 6861   7.399   1.750   1.141  0.0783 -0.3755  0.1258
 1858SOL    HW1 6862   7.442   1.727   1.059  0.3231  0.4672  0.0063
 1858SOL    HW2 6863   7.469   1.783   1.197 -0.2630  0.1604  0.2478
 1859SOL     OW 6864   2.185   6.626   6.905 -0.1363 -0.0597 -0.4054
 1859SOL    HW1 6865   2.155   6.580   6.826  0.7137  1.1379 -1.4852
 1859SOL    HW2 6866   2.235   6.701   6.871  2.4996 -0.9176  1.2601
 1860SOL     OW 6867   4.544   4.185   1.212 -0.0107 -0.3447 -0.2430
 1860SOL    HW1 6868   4.606   4.144   1.150  0.7494  0.0918  0.2189
 1860SOL    HW2 6869   4.535   4.121   1.282 -0.6049 -0.6907 -0.6247
 1861SOL     OW 6870   8.452   4.309   1.616 -0.2053 -0.6241 -0.2544
 1861SOL    HW1 6871   8.380   4.324   1.554  1.1781  1.7299 -1.4428
 1861SOL    HW2 6872   8.501   4.236   1.579 -0.2077 -0.1610 -1.1959
 1862SOL     OW 6873   7.606   4.525   6.255 -0.6283 -0.6368  0.5333
 1862SOL    HW1 6874   7.643   4.613   6.251 -1.7295 -0.1325  1.0513
 1862SOL    HW2 6875   7.682   4.468   6.265  0.0128  0.4090  2.1134
 1863SOL     OW 6876   2.129   1.493   8.495  0.5601  0.0028 -0.7855
 1863SOL    HW1 6877   2.203   1.515   8.552  0.9657  1.5083 -1.8436
 1863SOL    HW2 6878   2.085   1.420   8.540  0.3252  1.6725  1.9318
 1864SOL     OW 6879   0.247   3.189   3.052  0.3563 -0.2805  0.5393
 1864SOL    HW1 6880   0.227   3.097   3.034 -0.6639 -0.3687  1.9983
 1864SOL    HW2 6881   0.273   3.191   3.144  2.1566  0.6409  0.0663
 1865SOL     OW 6882   5.108   2.150   0.062 -0.5599  0.7796 -0.0999
 1865SOL    HW1 6883   5.194   2.142   0.021 -1.3191  0.9033 -1.7890
 1865SOL    HW2 6884   5.046   2.128  -0.007 -1.9195  1.1267  0.9593
 1866SOL     OW 6885   4.690   1.379   5.569 -0.5826  0.1764  0.4055
 1866SOL    HW1 6886   4.660   1.288   5.569 -0.0868  0.0072  0.6466
 1866SOL    HW2 6887   4.784   1.373   5.585 -0.3002  0.6537 -0.9065
 1867SOL     OW 6888   5.330   3.985   5.499  0.0014  0.4816  0.0477
 1867SOL    HW1 6889   5.406   3.931   5.480  1.1449  2.8066 -2.9360
 1867SOL    HW2 6890   5.360   4.048   5.564  0.5929  1.2017 -0.8979
 1868SOL     OW 6891   7.444   1.981   0.212  0.4900 -0.1719 -0.3606
 1868SOL    HW1 6892   7.468   2.074   0.208  1.3430 -0.3104  0.8754
 1868SOL    HW2 6893   7.523   1.935   0.184  0.0851 -0.5391 -0.9229
 1869SOL     OW 6894   0.623   1.531   2.177  0.4442  0.2347  0.1548
 1869SOL    HW1 6895   0.629   1.441   2.147  1.3540  0.3125  0.0795
 1869SOL    HW2 6896   0.593   1.524   2.267 -0.3368 -0.0962 -0.1234
 1870SOL     OW 6897   1.716   0.823   1.898  0.0615 -0.1631 -0.2747
 1870SOL    HW1 6898   1.802   0.855   1.927 -0.2957  0.4226  0.1481
 1870SOL    HW2 6899   1.710   0.851   1.807  0.6570 -0.9233 -0.5680
 1871SOL     OW 6900   7.221   5.275   3.124  0.0151 -0.0526 -0.1825
 1871SOL    HW1 6901   7.284   5.327   3.174  0.1212  0.1272 -0.5030
 1871SOL    HW2 6902   7.266   5.192   3.106 -0.0426 -0.1385  0.0639
 1872SOL     OW 6903   7.858   4.285   3.024 -0.1184  0.3019 -0.2286
 1872SOL    HW1 6904   7.793   4.310   2.959  1.0139  1.3495 -0.9948
 1872SOL    HW2 6905   7.924   4.237   2.976  1.2455  1.9524 -0.1064
 1873SOL     OW 6906   1.481   4.260   8.506 -0.3103  0.2895 -0.1326
 1873SOL    HW1 6907   1.404   4.215   8.471  0.3780 -0.4677 -0.7034
 1873SOL    HW2 6908   1.555   4.214   8.467  0.4289  1.6387 -0.3744
 1874SOL     OW 6909   8.413   5.839   8.109  0.4547  0.6437  0.0279
 1874SOL    HW1 6910   8.370   5.917   8.073  0.5011 -0.0102 -1.5285
 1874SOL    HW2 6911   8.455   5.870   8.189 -1.2930  1.7305  0.5861
 1875SOL     OW 6912   3.258   2.265   6.753  0.2461 -0.3388 -0.2155
 1875SOL    HW1 6913   3.299   2.338   6.706  0.0172 -0.4199 -0.5460
 1875SOL    HW2 6914   3.325   2.196   6.753  0.2987 -0.2880 -0.3023
 1876SOL     OW 6915   0.604   6.563   2.141 -0.3448  0.7559 -0.3821
 1876SOL    HW1 6916   0.517   6.579   2.176 -0.5955  0.4838 -0.8622
 1876SOL    HW2 6917   0.625   6.642   2.091 -0.3478  0.7916 -0.3273
 1877SOL     OW 6918   5.398   5.939   0.003 -0.7190 -0.2842  0.1508
 1877SOL    HW1 6919   5.316   5.935   0.051 -0.8365 -0.4555 -0.0622
 1877SOL    HW2 6920   5.375   5.913  -0.087 -0.0771 -2.5538  0.5678
 1878SOL     OW 6921   1.599   4.883   3.513 -0.1888 -0.5944 -0.3726
 1878SOL    HW1 6922   1.633   4.971   3.531  0.7827 -1.5705  3.4602
 1878SOL    HW2 6923   1.677   4.827   3.513 -0.9786 -1.7151 -0.4868
 1879SOL     OW 6924   3.364   3.803   0.564 -0.7210 -0.2457  0.0131
 1879SOL    HW1 6925   3.307   3.742   0.516 -0.9408 -1.7367  2.0497
 1879SOL    HW2 6926   3.418   3.746   0.619 -0.2242  1.3797  1.2572
 1880SOL     OW 6927   4.501   8.031   2.224 -0.1355 -0.4759  0.7813
 1880SOL    HW1 6928   4.423   7.975   2.232 -0.9603  0.4982 -0.1093
 1880SOL    HW2 6929   4.555   7.987   2.158 -0.2852 -0.7790  0.8609
 1881SOL     OW 6930   6.564   5.674   2.641  0.2578 -0.5046  0.3276
 1881SOL    HW1 6931   6.522   5.735   2.580 -0.1241 -0.5177  0.5794
 1881SOL    HW2 6932   6.607   5.610   2.585 -1.0654 -1.1944  0.0639
 1882SOL     OW 6933   7.656   3.698   3.244  0.0573 -0.0821  0.0019
 1882SOL    HW1 6934   7.675   3.719   3.335  1.6079  3.1814 -0.9408
 1882SOL    HW2 6935   7.728   3.737   3.195 -2.1732  0.7916 -2.8334
 1883SOL     OW 6936   4.383   4.112   8.155  0.2319  0.0283  0.1899
 1883SOL    HW1 6937   4.352   4.035   8.202 -2.2032  0.8219  0.0024
 1883SOL    HW2 6938   4.399   4.081   8.066 -1.2800 -0.1748 -0.0300
 1884SOL     OW 6939   1.766   1.520   6.205 -0.5954  1.1288 -0.2137
 1884SOL    HW1 6940   1.710   1.557   6.137  0.3197  0.1948 -1.5282
 1884SOL    HW2 6941   1.854   1.552   6.184 -0.2232  0.4349  0.2475
 1885SOL     OW 6942   4.256   5.631   4.356 -0.3768  0.1487 -0.5747
 1885SOL    HW1 6943   4.225   5.713   4.318  0.7212  1.3034  0.8995
 1885SOL    HW2 6944   4.178   5.592   4.396 -0.6555  1.1579 -0.1102
 1886SOL     OW 6945   0.838   2.489   0.185 -0.7010  0.1097 -0.2126
 1886SOL    HW1 6946   0.837   2.439   0.104 -0.3673  0.4961 -0.4616
 1886SOL    HW2 6947   0.918   2.460   0.230 -0.5847  0.3081 -0.2889
 1887SOL     OW 6948   5.843   5.006   3.424  0.1186 -0.2701  0.4773
 1887SOL    HW1 6949   5.829   5.076   3.488  1.3630 -0.4756  1.0020
 1887SOL    HW2 6950   5.755   4.977   3.400 -0.4580  1.9301 -0.2779
 1888SOL     OW 6951   2.822   5.992   0.825 -0.2364 -0.5398 -0.5861
 1888SOL    HW1 6952   2.915   5.977   0.842 -0.2397  0.1759  0.1335
 1888SOL    HW2 6953   2.811   5.972   0.732  0.6141 -0.7359 -0.6530
 1889SOL     OW 6954   3.400   6.329   3.613 -0.2144 -0.0444  0.1329
 1889SOL    HW1 6955   3.346   6.253   3.594 -0.2635 -0.3154  1.2727
 1889SOL    HW2 6956   3.465   6.297   3.675  2.4996 -0.2045 -2.5761
 1890SOL     OW 6957   7.554   6.747   4.228 -0.1279  0.1272  0.5082
 1890SOL    HW1 6958   7.625   6.770   4.288 -0.2529  2.0485 -0.0192
 1890SOL    HW2 6959   7.555   6.815   4.161 -1.7866 -0.3912 -0.1116
 1891SOL     OW 6960   1.558   6.625   3.094  0.3200 -0.9524  0.7906
 1891SOL    HW1 6961   1.507   6.685   3.040 -0.5214 -3.3446 -1.2548
 1891SOL    HW2 6962   1.520   6.632   3.181  0.7845  1.9786  0.8641
 1892SOL     OW 6963   0.189   0.682   2.103  0.2826  0.7946  0.1299
 1892SOL    HW1 6964   0.118   0.628   2.070 -0.5654  2.4722 -0.9236
 1892SOL    HW2 6965   0.256   0.620   2.131 -1.2100 -0.8007  0.2841
 1893SOL     OW 6966   0.513   5.739   5.572  0.2104 -0.1401  0.1485
 1893SOL    HW1 6967   0.548   5.712   5.487  0.0190 -1.2998  0.4227
 1893SOL    HW2 6968   0.421   5.756   5.556 -0.2901 -2.2341  0.4683
 1894SOL     OW 6969   6.275   2.646   5.059  0.1959  0.0816  0.3874
 1894SOL    HW1 6970   6.258   2.554   5.078  0.4574  0.2271  1.3485
 1894SOL    HW2 6971   6.323   2.678   5.135  0.6866  0.8506 -0.2294
 1895SOL     OW 6972   1.005   8.526   2.255  0.0334  0.1016 -0.3751
 1895SOL    HW1 6973   0.970   8.443   2.287  1.4042 -0.2423  0.2871
 1895SOL    HW2 6974   1.059   8.558   2.327  0.1564  1.1814 -0.9385
 1896SOL     OW 6975   2.083   7.992   7.263 -0.6229 -0.7188  0.2402
 1896SOL    HW1 6976   2.114   7.993   7.353 -0.3108  0.5527  0.1407
 1896SOL    HW2 6977   2.116   8.074   7.226 -0.4460 -1.3758 -1.1270
 1897SOL     OW 6978   3.522   8.165   5.063 -0.3110 -0.3269 -0.2584
 1897SOL    HW1 6979   3.454   8.168   4.995 -2.0328  0.7313  1.4194
 1897SOL    HW2 6980   3.484   8.214   5.136  2.2594  0.2391  0.7798
 1898SOL     OW 6981   1.907   6.887   4.098 -0.4691  0.5512  0.2635
 1898SOL    HW1 6982   1.858   6.960   4.137 -0.3613  0.6852  0.1467
 1898SOL    HW2 6983   1.966   6.928   4.035 -0.8376  0.3088 -0.2464
 1899SOL     OW 6984   4.345   5.327   1.402  0.1808  0.5265 -0.1452
 1899SOL    HW1 6985   4.339   5.236   1.371  2.8805  0.2034  0.0784
 1899SOL    HW2 6986   4.361   5.379   1.323 -0.5169  0.7166 -0.1680
 1900SOL     OW 6987   5.938   4.663   7.349  0.4522 -0.1782  0.2472
 1900SOL    HW1 6988   5.851   4.700   7.366  0.7595  0.0470  1.4310
 1900SOL    HW2 6989   5.961   4.697   7.262 -0.7851 -0.5463 -0.2522
 1901SOL     OW 6990   4.523   0.464   5.643  0.1320  0.1026  0.0980
 1901SOL    HW1 6991   4.490   0.387   5.688  0.4810 -0.3104 -0.3368
 1901SOL    HW2 6992   4.477   0.537   5.684 -0.4548 -0.3592  0.2821
 1902SOL     OW 6993   7.653   1.214   2.226  0.2273  0.0142 -0.1156
 1902SOL    HW1 6994   7.668   1.234   2.318  0.9512  2.3550 -0.6822
 1902SOL    HW2 6995   7.560   1.193   2.221 -0.2991  1.9153  0.8616
 1903SOL     OW 6996   0.362   0.337   5.376 -0.0568  0.0380  0.1727
 1903SOL    HW1 6997   0.447   0.349   5.417  1.3568  1.6066 -2.9531
 1903SOL    HW2 6998   0.375   0.268   5.311 -0.7848  1.1564 -1.2177
 1904SOL     OW 6999   6.855   3.644   6.292 -0.4529  0.2531 -0.2550
 1904SOL    HW1 7000   6.918   3.692   6.239 -0.2562  1.1969  0.8138
 1904SOL    HW2 7001   6.769   3.674   6.260 -0.3813 -0.6389 -1.3440
 1905SOL     OW 7002   5.208   7.346   6.749 -0.0444  0.9077 -0.3574
 1905SOL    HW1 7003   5.244   7.318   6.665  1.1915 -0.6959  0.6656
 1905SOL    HW2 7004   5.145   7.278   6.772 -2.0470  2.4548 -0.9697
 1906SOL     OW 7005   3.983   0.484   6.773  0.3349  0.0307 -0.1320
 1906SOL    HW1 7006   4.037   0.470   6.695 -0.5580  0.9087 -0.9233
 1906SOL    HW2 7007   4.036   0.539   6.830  0.3553  0.7402 -0.8284
 1907SOL     OW 7008   1.980   2.696   5.561  0.1678 -0.4414 -0.0822
 1907SOL    HW1 7009   1.968   2.753   5.636  0.5228 -0.4493 -0.0176
 1907SOL    HW2 7010   2.048   2.635   5.588  2.2601  1.1845 -1.2996
 1908SOL     OW 7011   2.963   5.320   6.966 -0.0038  0.2585  0.7925
 1908SOL    HW1 7012   3.000   5.257   7.027  1.9213  1.1266  0.5957
 1908SOL    HW2 7013   2.978   5.405   7.007  1.6097  0.8801 -0.9428
 1909SOL     OW 7014   4.286   4.199   2.205  0.2118 -0.0242 -0.5597
 1909SOL    HW1 7015   4.221   4.268   2.216 -0.9201 -0.9400 -1.2252
 1909SOL    HW2 7016   4.339   4.227   2.131 -0.4942 -0.0465 -1.0845
 1910SOL     OW 7017   6.538   1.756   0.072 -0.2003 -0.2811 -0.7380
 1910SOL    HW1 7018   6.577   1.737  -0.013  1.7676  1.1416 -0.2384
 1910SOL    HW2 7019   6.541   1.674   0.120  0.7128 -0.5862 -1.3049
 1911SOL     OW 7020   0.832   0.598   2.255  0.3047  0.6594 -0.0635
 1911SOL    HW1 7021   0.877   0.589   2.171 -2.4645 -1.8534 -1.4897
 1911SOL    HW2 7022   0.789   0.683   2.250 -0.1006  0.4095 -1.4088
 1912SOL     OW 7023   4.310   6.203   7.424 -0.0465  0.3193  0.0453
 1912SOL    HW1 7024   4.249   6.272   7.451  0.1579  0.9436 -1.0136
 1912SOL    HW2 7025   4.294   6.131   7.485  1.4542  2.1390  2.7797
 1913SOL     OW 7026   0.353   7.968   4.254  0.0270  0.0516  0.0577
 1913SOL    HW1 7027   0.400   7.918   4.187  0.6432 -0.4623  0.8572
 1913SOL    HW2 7028   0.265   7.979   4.218 -0.6271 -2.9256  0.4545
 1914SOL     OW 7029   2.627   4.011   4.464 -0.2223 -0.4015 -0.6231
 1914SOL    HW1 7030   2.689   4.066   4.512 -1.7772  1.4470 -0.5956
 1914SOL    HW2 7031   2.578   3.965   4.532  0.6747 -1.3921 -0.6271
 1915SOL     OW 7032   2.510   1.101   7.821  0.6922 -0.1155 -0.4847
 1915SOL    HW1 7033   2.581   1.081   7.761  1.6079  0.5942  0.3277
 1915SOL    HW2 7034   2.508   1.026   7.881  2.2184  0.8113  0.8036
 1916SOL     OW 7035   7.398   0.354   3.147  0.1478  0.3278  0.5348
 1916SOL    HW1 7036   7.473   0.338   3.089  0.6246  1.1642  0.8871
 1916SOL    HW2 7037   7.322   0.353   3.090  0.4765 -0.1337  0.1022
 1917SOL     OW 7038   7.650   5.061   1.333  0.0142 -0.1365  0.0998
 1917SOL    HW1 7039   7.682   5.004   1.263 -0.1219 -0.0961  0.0038
 1917SOL    HW2 7040   7.670   5.150   1.302 -0.2581 -0.1077  0.0047
 1918SOL     OW 7041   1.773   3.782   6.612 -0.8693 -0.6310 -0.6234
 1918SOL    HW1 7042   1.776   3.723   6.687 -0.3182  0.1444 -0.0121
 1918SOL    HW2 7043   1.689   3.765   6.571 -0.0075 -3.1153 -1.5366
 1919SOL     OW 7044   4.482   8.638   4.263 -0.3121 -0.6947 -0.0414
 1919SOL    HW1 7045   4.427   8.691   4.206  0.8870 -1.3195 -1.8621
 1919SOL    HW2 7046   4.484   8.552   4.220  0.5636 -1.2142  1.0018
 1920SOL     OW 7047   5.144   2.184   0.842  0.1333  0.0702  0.2422
 1920SOL    HW1 7048   5.124   2.109   0.898  0.1648 -0.1950 -0.0984
 1920SOL    HW2 7049   5.117   2.156   0.755 -1.5443  1.1139  0.3815
 1921SOL     OW 7050   7.778   0.952   7.888 -0.6178  0.4547  0.6029
 1921SOL    HW1 7051   7.686   0.945   7.861 -0.2101 -0.7416 -0.6486
 1921SOL    HW2 7052   7.818   0.872   7.854  1.3461  1.9492 -0.8437
 1922SOL     OW 7053   7.557   0.108   0.843  0.1994 -0.3702  0.5259
 1922SOL    HW1 7054   7.563   0.170   0.770  0.4934  1.4368  2.0168
 1922SOL    HW2 7055   7.578   0.023   0.804 -0.9180  0.3062 -1.7471
 1923SOL     OW 7056   7.446   8.676   7.477  0.5979  0.3470 -0.0045
 1923SOL    HW1 7057   7.391   8.724   7.416 -0.7626 -2.6517 -1.3080
 1923SOL    HW2 7058   7.527   8.659   7.428  1.4413  1.8521  0.7535
 1924SOL     OW 7059   5.937   7.344   8.104 -0.1107  0.3603  0.1222
 1924SOL    HW1 7060   5.936   7.438   8.119 -1.0463  0.1716  1.4261
 1924SOL    HW2 7061   6.013   7.313   8.153 -0.2925  0.3397  0.3928
 1925SOL     OW 7062   8.292   6.726   8.203 -0.3144  0.4835 -0.3502
 1925SOL    HW1 7063   8.234   6.740   8.278 -0.5681 -1.8818 -0.0491
 1925SOL    HW2 7064   8.234   6.711   8.129 -0.1246 -1.0858 -0.2090
 1926SOL     OW 7065   7.802   5.730   4.502  0.3478 -0.3023  0.4019
 1926SOL    HW1 7066   7.824   5.725   4.409  3.5973  0.3790  1.0232
 1926SOL    HW2 7067   7.740   5.803   4.507  0.9879  0.4022 -1.0989
 1927SOL     OW 7068   3.040   2.403   5.249 -0.5911 -1.0311  0.0704
 1927SOL    HW1 7069   3.042   2.448   5.164  1.9104 -0.3587  0.3879
 1927SOL    HW2 7070   2.983   2.456   5.304  0.0744  0.1977 -0.3917
 1928SOL     OW 7071   7.437   2.426   1.408 -0.0723 -0.7766 -0.1354
 1928SOL    HW1 7072   7.466   2.497   1.350  1.4589 -0.6396  0.7206
 1928SOL    HW2 7073   7.347   2.448   1.429 -0.3092 -0.2426 -1.5715
 1929SOL     OW 7074   5.414   2.616   5.980  0.3817 -0.5097 -0.3009
 1929SOL    HW1 7075   5.464   2.695   6.000  0.7083 -0.4474 -1.3195
 1929SOL    HW2 7076   5.464   2.572   5.911 -0.5377 -0.8730 -0.7511
 1930SOL     OW 7077   6.706   4.926   5.267 -0.3142 -0.3737 -0.3687
 1930SOL    HW1 7078   6.748   4.920   5.181  0.3373 -1.4232  0.0093
 1930SOL    HW2 7079   6.659   4.844   5.277  1.0325 -1.0211  0.9893
 1931SOL     OW 7080   6.027   6.410   8.656  0.1967 -0.1301  0.7804
 1931SOL    HW1 7081   5.986   6.495   8.639 -0.6365 -0.8906 -1.3839
 1931SOL    HW2 7082   5.963   6.363   8.709 -0.7123 -0.4388 -0.5382
 1932SOL     OW 7083   1.193   2.148   3.270 -0.0624 -0.0380 -0.2376
 1932SOL    HW1 7084   1.171   2.239   3.289 -1.5012 -0.8046  2.2795
 1932SOL    HW2 7085   1.274   2.132   3.319 -1.4528 -0.8347  2.0033
 1933SOL     OW 7086   3.174   2.731   1.442 -0.1992  0.4637 -0.7145
 1933SOL    HW1 7087   3.228   2.726   1.363  0.2220 -1.9177 -0.3614
 1933SOL    HW2 7088   3.085   2.711   1.411 -0.1802  0.3919 -0.7235
 1934SOL     OW 7089   3.420   6.218   2.868 -0.4407  0.0786  0.8341
 1934SOL    HW1 7090   3.489   6.174   2.917 -0.1561 -1.2586 -0.7086
 1934SOL    HW2 7091   3.465   6.286   2.818 -0.2205 -0.7790 -0.1551
 1935SOL     OW 7092   5.170   3.380   3.257  0.1497  0.2501  0.2904
 1935SOL    HW1 7093   5.237   3.447   3.269 -0.4496  0.8913  0.1441
 1935SOL    HW2 7094   5.091   3.430   3.237 -0.4250 -0.4881  0.7174
 1936SOL     OW 7095   2.326   4.809   7.413 -0.5775  0.0548 -0.2790
 1936SOL    HW1 7096   2.419   4.817   7.433 -0.4705  0.3129 -0.8463
 1936SOL    HW2 7097   2.318   4.844   7.324 -0.9973 -1.1410 -0.7334
 1937SOL     OW 7098   2.822   4.554   1.760 -0.6498  0.3085 -0.6296
 1937SOL    HW1 7099   2.812   4.577   1.852  0.4814  0.8713 -0.6189
 1937SOL    HW2 7100   2.821   4.459   1.758  2.8594  0.0950  0.5193
 1938SOL     OW 7101   8.695   0.440   4.650  0.0690 -0.6023  0.0909
 1938SOL    HW1 7102   8.782   0.472   4.676 -0.0275  0.0142 -0.3232
 1938SOL    HW2 7103   8.673   0.374   4.716  1.7824 -2.3529 -0.9481
 1939SOL     OW 7104   2.967   8.517   4.747  0.5762 -0.2317  0.5715
 1939SOL    HW1 7105   2.925   8.507   4.833  0.0843  2.5844  0.7477
 1939SOL    HW2 7106   3.060   8.520   4.766  0.7605 -3.1775  0.5411
 1940SOL     OW 7107   4.812   3.177   3.518  0.2241  0.0978 -0.0614
 1940SOL    HW1 7108   4.786   3.149   3.606 -0.6115  1.8862  0.3127
 1940SOL    HW2 7109   4.781   3.267   3.512 -0.6911 -0.3133 -2.5847
 1941SOL     OW 7110   1.748   6.743   8.368 -0.0869  0.4363 -0.2033
 1941SOL    HW1 7111   1.716   6.670   8.421  1.2549  0.2323  0.3617
 1941SOL    HW2 7112   1.816   6.784   8.421  0.5900  0.8487 -1.3379
 1942SOL     OW 7113   6.787   1.325   6.162 -0.0100  0.4428  0.4368
 1942SOL    HW1 7114   6.758   1.364   6.244 -1.9158  0.1635 -0.0431
 1942SOL    HW2 7115   6.811   1.400   6.107  0.1773  0.6964  0.8570
 1943SOL     OW 7116   6.775   5.081   3.275  0.4842 -0.0156  0.0093
 1943SOL    HW1 7117   6.697   5.026   3.265  0.0789  0.5973 -0.2558
 1943SOL    HW2 7118   6.765   5.121   3.361 -1.3610  2.8610 -1.3877
 1944SOL     OW 7119   3.848   8.089   2.215 -0.4260  0.0729  0.1307
 1944SOL    HW1 7120   3.829   8.141   2.293 -0.6253  1.5691 -0.8789
 1944SOL    HW2 7121   3.768   8.039   2.199 -0.4552 -0.0878  0.7535
 1945SOL     OW 7122   2.080   5.997   4.543 -0.2435  0.0198  0.1937
 1945SOL    HW1 7123   1.988   5.999   4.569 -0.5333  1.7832 -0.8009
 1945SOL    HW2 7124   2.123   6.062   4.598 -0.3535  1.8264 -1.7106
 1946SOL     OW 7125   2.903   5.839   1.478 -0.2614  0.2239  0.3761
 1946SOL    HW1 7126   2.873   5.911   1.533  0.9944 -0.3271  1.8412
 1946SOL    HW2 7127   2.823   5.803   1.440 -1.0675  1.2663  1.0270
 1947SOL     OW 7128   1.259   7.664   3.738  0.8072  0.5307  0.3787
 1947SOL    HW1 7129   1.177   7.706   3.762  0.4120  0.5233 -0.9020
 1947SOL    HW2 7130   1.266   7.590   3.799 -0.8174 -0.2616 -0.3147
 1948SOL     OW 7131   7.440   3.928   1.590  0.5777 -0.1136 -0.1796
 1948SOL    HW1 7132   7.352   3.897   1.571 -0.0668  1.5536 -0.1665
 1948SOL    HW2 7133   7.480   3.943   1.505 -0.4083  2.3183 -0.2963
 1949SOL     OW 7134   0.887   7.978   1.411 -0.1183  0.1275  0.2516
 1949SOL    HW1 7135   0.822   7.909   1.393 -0.5739  0.7059 -0.3704
 1949SOL    HW2 7136   0.948   7.973   1.337  0.1920  0.0082  0.5113
 1950SOL     OW 7137   5.324   0.995   6.048 -0.0151 -0.5754  0.4440
 1950SOL    HW1 7138   5.271   0.958   5.977  0.0007  1.7640 -0.8661
 1950SOL    HW2 7139   5.270   0.984   6.126 -1.1639 -0.8729 -0.3687
 1951SOL     OW 7140   3.776   2.885   3.074  0.0485  0.2743 -0.2125
 1951SOL    HW1 7141   3.783   2.953   3.008 -0.1684  0.3767 -0.1316
 1951SOL    HW2 7142   3.853   2.829   3.060  2.0156  2.2721  1.7121
 1952SOL     OW 7143   7.965   4.845   6.781 -0.5647 -0.6788  0.4507
 1952SOL    HW1 7144   7.923   4.880   6.860 -0.6597  1.6759 -0.5867
 1952SOL    HW2 7145   8.057   4.834   6.806 -0.3328  1.2253  0.5936
 1953SOL     OW 7146   7.607   2.915   2.082  0.0065 -0.4078  0.6193
 1953SOL    HW1 7147   7.540   2.970   2.123 -0.3140 -0.2835 -0.0717
 1953SOL    HW2 7148   7.663   2.887   2.155  0.0657  0.6721  1.0002
 1954SOL     OW 7149   6.387   8.218   3.204  0.4961  0.2510  0.2608
 1954SOL    HW1 7150   6.447   8.153   3.168 -0.8047 -0.2279 -1.1782
 1954SOL    HW2 7151   6.336   8.170   3.270 -3.0478 -1.4735 -3.3281
 1955SOL     OW 7152   2.086   3.929   1.139  0.2765 -0.4823 -0.0771
 1955SOL    HW1 7153   1.997   3.961   1.155 -0.3173 -1.8325 -0.5773
 1955SOL    HW2 7154   2.138   4.009   1.130 -0.8930  0.3367  0.1351
 1956SOL     OW 7155   6.398   4.584   0.746  0.8599  0.1767 -0.4444
 1956SOL    HW1 7156   6.488   4.594   0.714  0.6909  0.9759 -0.6952
 1956SOL    HW2 7157   6.376   4.670   0.782  0.1638  0.0139 -0.4698
 1957SOL     OW 7158   4.164   4.719   2.986 -0.0148 -0.8693 -0.1271
 1957SOL    HW1 7159   4.232   4.720   3.054  0.2043  1.2135 -0.3017
 1957SOL    HW2 7160   4.107   4.792   3.008 -0.0327 -0.2495 -2.0774
 1958SOL     OW 7161   2.390   2.352   5.794 -0.0322 -0.1160 -0.4331
 1958SOL    HW1 7162   2.436   2.436   5.792  1.5784 -0.9515 -2.7321
 1958SOL    HW2 7163   2.370   2.333   5.703 -0.3699 -2.2382  0.0191
 1959SOL     OW 7164   1.433   0.876   4.806  0.2992  0.1300  0.1673
 1959SOL    HW1 7165   1.519   0.847   4.776 -0.0225  0.5803 -1.2873
 1959SOL    HW2 7166   1.448   0.966   4.837 -0.0053  1.1091 -2.2781
 1960SOL     OW 7167   5.893   1.391   6.500  0.0464  0.3623  0.2804
 1960SOL    HW1 7168   5.837   1.468   6.484 -0.9083 -0.1279  1.1467
 1960SOL    HW2 7169   5.861   1.355   6.582  0.8809 -0.6300  0.1866
 1961SOL     OW 7170   1.462   0.165   6.158 -0.0497 -0.7397 -0.3098
 1961SOL    HW1 7171   1.425   0.117   6.232 -0.6654  0.3689  0.1322
 1961SOL    HW2 7172   1.414   0.132   6.082  1.2052 -2.5319 -0.3871
 1962SOL     OW 7173   6.174   6.199   6.149 -0.1298  0.1596  0.4234
 1962SOL    HW1 7174   6.104   6.264   6.147  0.3359  0.6640 -1.3965
 1962SOL    HW2 7175   6.184   6.173   6.057  2.1309  0.1666  0.6332
 1963SOL     OW 7176   3.995   2.988   1.089 -0.1626 -0.0785 -0.0794
 1963SOL    HW1 7177   4.085   2.979   1.120  0.3027 -0.5996 -1.5281
 1963SOL    HW2 7178   3.942   2.951   1.160  0.9391 -2.1555 -0.2652
 1964SOL     OW 7179   0.945   1.552   6.357  0.5312 -0.5592  0.2346
 1964SOL    HW1 7180   0.954   1.467   6.315 -0.0137 -0.9746  0.9416
 1964SOL    HW2 7181   0.891   1.535   6.434  3.4384 -0.2615  2.4865
 1965SOL     OW 7182   8.568   3.735   4.196  0.7374  0.5791 -0.6837
 1965SOL    HW1 7183   8.656   3.717   4.229  0.2928 -0.0417  0.2064
 1965SOL    HW2 7184   8.514   3.668   4.235 -0.1080  0.8241 -1.4022
 1966SOL     OW 7185   6.510   0.657   5.898 -0.0455 -0.9470 -0.0239
 1966SOL    HW1 7186   6.531   0.679   5.989 -0.3202  1.3625 -0.4474
 1966SOL    HW2 7187   6.520   0.562   5.893  1.9022 -0.9239  1.9161
 1967SOL     OW 7188   7.162   6.609   3.601  0.7103  0.2177  0.1664
 1967SOL    HW1 7189   7.193   6.559   3.676  2.7238  1.6030  0.3458
 1967SOL    HW2 7190   7.241   6.640   3.558 -0.3668  3.0745 -0.0283
 1968SOL     OW 7191   3.420   7.580   7.907 -0.3181 -0.4122 -0.4010
 1968SOL    HW1 7192   3.365   7.601   7.982  1.0345  1.2202  0.1917
 1968SOL    HW2 7193   3.462   7.497   7.931  2.5444  1.5545  2.2453
 1969SOL     OW 7194   6.184   7.928   6.343  0.1858  0.1329 -0.0455
 1969SOL    HW1 7195   6.182   7.835   6.368 -1.6820  0.6929  2.3203
 1969SOL    HW2 7196   6.146   7.930   6.255 -0.9379 -1.2630  0.3624
 1970SOL     OW 7197   4.551   0.806   6.901  0.0404  0.3736  0.1102
 1970SOL    HW1 7198   4.476   0.757   6.933  0.7500 -0.5805  0.3472
 1970SOL    HW2 7199   4.621   0.742   6.895  1.5486  1.6905  2.2327
 1971SOL     OW 7200   2.086   0.574   4.832 -0.1532  0.5842  0.4221
 1971SOL    HW1 7201   2.073   0.619   4.916 -0.8641  1.1503  0.0197
 1971SOL    HW2 7202   1.998   0.561   4.798 -0.0790 -2.2178  1.0653
 1972SOL     OW 7203   5.600   1.232   8.359  0.3072  0.2244  0.5155
 1972SOL    HW1 7204   5.530   1.297   8.359 -0.4043 -0.5191  1.1019
 1972SOL    HW2 7205   5.629   1.227   8.450 -0.1139 -0.7606  0.6052
 1973SOL     OW 7206   5.652   2.516   4.577  0.2997  0.3229  0.0575
 1973SOL    HW1 7207   5.699   2.435   4.558 -0.2940  0.0945 -0.4768
 1973SOL    HW2 7208   5.651   2.563   4.494 -2.7238 -0.8867 -0.7196
 1974SOL     OW 7209   5.745   5.235   5.003 -0.1080 -0.6393 -0.5615
 1974SOL    HW1 7210   5.697   5.309   4.963 -1.4443 -1.4666 -0.5295
 1974SOL    HW2 7211   5.752   5.171   4.932  0.5741 -0.7224 -0.4275
 1975SOL     OW 7212   6.209   8.691   8.055  0.4802 -0.5764 -0.1508
 1975SOL    HW1 7213   6.292   8.650   8.028  1.7123  1.2491  0.6765
 1975SOL    HW2 7214   6.223   8.715   8.147 -1.1752 -0.6801  0.1634
 1976SOL     OW 7215   3.481   1.105   5.936 -0.3867  0.1491 -0.0156
 1976SOL    HW1 7216   3.551   1.143   5.883  0.0516  1.2899  1.3429
 1976SOL    HW2 7217   3.513   1.019   5.960 -0.7184 -0.5295 -1.7980
 1977SOL     OW 7218   7.193   4.817   3.724  0.1376 -0.2364  0.0728
 1977SOL    HW1 7219   7.214   4.858   3.640  2.3553 -0.8759  0.2577
 1977SOL    HW2 7220   7.275   4.775   3.751 -0.6550 -0.4226  2.3470
 1978SOL     OW 7221   4.574   8.367   5.672 -0.3049 -0.1611 -0.0394
 1978SOL    HW1 7222   4.643   8.333   5.729  1.1644  0.5213 -1.3762
 1978SOL    HW2 7223   4.552   8.452   5.710 -0.5855 -0.4667  0.5058
 1979SOL     OW 7224   7.813   2.433   5.263 -0.1940  0.0000  0.4520
 1979SOL    HW1 7225   7.852   2.392   5.340 -1.2435  1.2208  1.6834
 1979SOL    HW2 7226   7.767   2.509   5.297 -1.4321  0.0818 -1.2779
 1980SOL     OW 7227   3.928   5.061   6.301  0.8248 -0.4095 -0.0779
 1980SOL    HW1 7228   3.971   4.979   6.276  0.0250 -1.0354  0.5808
 1980SOL    HW2 7229   3.945   5.071   6.394  1.2997  0.4201 -0.2378
 1981SOL     OW 7230   3.625   6.312   1.178 -0.5761  0.1338 -0.0648
 1981SOL    HW1 7231   3.565   6.250   1.137  1.6237 -2.9090  0.8903
 1981SOL    HW2 7232   3.576   6.349   1.251 -2.5065  0.8620 -1.6586
 1982SOL     OW 7233   5.317   3.533   7.297 -0.0945  0.4152  0.7173
 1982SOL    HW1 7234   5.287   3.511   7.385 -1.0902 -0.7699  0.1231
 1982SOL    HW2 7235   5.256   3.488   7.239  1.9258 -0.8558 -0.5775
 1983SOL     OW 7236   3.645   4.663   6.749 -0.3882 -0.3502 -0.4453
 1983SOL    HW1 7237   3.601   4.667   6.663 -4.9857  1.1686  1.6326
 1983SOL    HW2 7238   3.669   4.571   6.759 -0.5330 -0.7385 -2.9998
 1984SOL     OW 7239   4.338   7.650   3.902 -0.8245 -0.0957  0.0380
 1984SOL    HW1 7240   4.273   7.642   3.832 -0.3724 -1.1997 -0.2756
 1984SOL    HW2 7241   4.315   7.732   3.947 -0.9512  0.7891 -1.5709
 1985SOL     OW 7242   7.242   6.783   2.446 -0.3392  0.3479  0.6398
 1985SOL    HW1 7243   7.337   6.789   2.457 -0.3212  1.2775  0.0425
 1985SOL    HW2 7244   7.206   6.825   2.523 -0.3478 -2.6878  2.4681
 1986SOL     OW 7245   0.220   7.979   3.048 -0.3469 -0.2443 -0.3535
 1986SOL    HW1 7246   0.263   7.929   2.978 -0.6866  2.0684 -2.3534
 1986SOL    HW2 7247   0.281   7.975   3.121  2.0577  0.6380 -2.1704
 1987SOL     OW 7248   6.711   1.861   1.292 -0.3399  0.2739  0.2854
 1987SOL    HW1 7249   6.730   1.808   1.369  1.1170 -0.2003 -0.3748
 1987SOL    HW2 7250   6.694   1.797   1.222  3.2493  0.5008 -0.9847
 1988SOL     OW 7251   6.085   0.118   2.939 -0.1924  0.0892  0.2781
 1988SOL    HW1 7252   6.032   0.069   3.002 -0.1890 -2.8957 -1.8254
 1988SOL    HW2 7253   6.021   0.154   2.877 -0.0041 -0.1394 -0.0517
 1989SOL     OW 7254   5.522   6.539   4.334 -0.2533 -0.2596 -0.3524
 1989SOL    HW1 7255   5.606   6.539   4.380 -0.3678 -0.2863 -0.1432
 1989SOL    HW2 7256   5.479   6.621   4.360 -0.0868 -0.0147 -0.8388
 1990SOL     OW 7257   4.878   4.439   6.519 -0.2829  0.2044  0.4095
 1990SOL    HW1 7258   4.825   4.377   6.468  0.2637  0.5499 -0.6127
 1990SOL    HW2 7259   4.872   4.407   6.609 -1.6992 -0.1397  0.2300
 1991SOL     OW 7260   2.240   2.760   5.048 -0.0400  0.0491  0.6317
 1991SOL    HW1 7261   2.235   2.840   4.995 -0.9545 -1.1294 -1.1399
 1991SOL    HW2 7262   2.149   2.744   5.075 -0.3132 -1.6972 -1.1248
 1992SOL     OW 7263   2.401   4.315   0.476  0.1652  0.4714 -0.4035
 1992SOL    HW1 7264   2.329   4.252   0.469  0.3285  0.3135 -0.6945
 1992SOL    HW2 7265   2.371   4.379   0.540  0.2473 -0.2237  0.3334
 1993SOL     OW 7266   3.463   5.738   6.238  0.0685 -0.1648 -0.0705
 1993SOL    HW1 7267   3.469   5.720   6.144  0.3361 -1.4019  0.1750
 1993SOL    HW2 7268   3.385   5.794   6.246  0.8963  1.2350 -1.1817
 1994SOL     OW 7269   6.916   1.235   8.449 -0.1890 -0.4570  1.0997
 1994SOL    HW1 7270   6.936   1.147   8.482  0.7388 -0.3190  0.9226
 1994SOL    HW2 7271   6.830   1.255   8.486 -0.6657 -1.6603  0.6946
 1995SOL     OW 7272   4.728   7.224   6.899 -0.3391 -0.0718 -0.4113
 1995SOL    HW1 7273   4.696   7.314   6.907  1.8339  0.6998  0.3994
 1995SOL    HW2 7274   4.653   7.175   6.866 -2.1987  1.6469  0.9773
 1996SOL     OW 7275   6.407   3.307   8.174 -0.7585  0.7318  0.2081
 1996SOL    HW1 7276   6.476   3.372   8.160  0.5043 -0.5685  0.1702
 1996SOL    HW2 7277   6.359   3.306   8.092  0.4633  0.1998 -0.5269
 1997SOL     OW 7278   2.744   4.019   6.880  0.0404  0.7366  0.1439
 1997SOL    HW1 7279   2.809   3.968   6.832 -0.0399  1.1712 -0.4414
 1997SOL    HW2 7280   2.765   4.004   6.973 -0.4368 -0.9266  0.0123
 1998SOL     OW 7281   3.175   7.263   7.347 -0.0561  0.2223 -0.0886
 1998SOL    HW1 7282   3.260   7.244   7.308 -0.1992 -0.1523 -0.2184
 1998SOL    HW2 7283   3.125   7.182   7.337 -0.3954  0.4095  0.0749
 1999SOL     OW 7284   8.485   3.634   5.857  0.8958 -0.1158  0.4448
 1999SOL    HW1 7285   8.467   3.725   5.830 -0.2764 -0.4441  0.0418
 1999SOL    HW2 7286   8.467   3.633   5.951 -1.1160 -0.3611  0.1092
 2000SOL     OW 7287   1.423   5.163   6.260 -0.8561 -0.1756 -0.1505
 2000SOL    HW1 7288   1.430   5.221   6.185  0.7619 -0.3835 -0.1854
 2000SOL    HW2 7289   1.382   5.084   6.225 -1.5991  0.3268 -0.4425
 2001SOL     OW 7290   3.159   1.366   4.272 -0.1065 -0.1918 -0.4204
 2001SOL    HW1 7291   3.191   1.307   4.341  1.2282  0.9089 -0.0530
 2001SOL    HW2 7292   3.133   1.446   4.318 -1.2378 -0.2184 -0.9864
 2002SOL     OW 7293   6.481   7.320   8.420 -0.2379 -0.2493  0.0909
 2002SOL    HW1 7294   6.533   7.380   8.366  0.0636 -0.0880  0.5626
 2002SOL    HW2 7295   6.536   7.302   8.496 -0.7305 -0.3455  0.4282
 2003SOL     OW 7296   8.156   1.360   5.130 -0.0666  0.1878  0.0348
 2003SOL    HW1 7297   8.243   1.400   5.126 -0.2213  0.5083 -0.1137
 2003SOL    HW2 7298   8.096   1.433   5.143 -0.3172 -0.0322  0.1418
 2004SOL     OW 7299   3.171   8.470   7.569 -0.0561  0.4433 -0.4844
 2004SOL    HW1 7300   3.215   8.404   7.623 -0.6823  1.8054  1.8191
 2004SOL    HW2 7301   3.105   8.421   7.520 -0.4203 -0.6954  1.0767
 2005SOL     OW 7302   0.266   1.374   6.239  0.8685  0.1267 -0.0137
 2005SOL    HW1 7303   0.249   1.440   6.306 -2.0245  1.4721 -1.8587
 2005SOL    HW2 7304   0.272   1.424   6.157 -0.7426 -1.7621 -1.3941
 2006SOL     OW 7305   5.007   3.596   1.742  0.2429 -0.3796  0.1399
 2006SOL    HW1 7306   4.937   3.627   1.800  1.1214 -1.6639  1.9726
 2006SOL    HW2 7307   4.973   3.611   1.654 -0.7188  2.6611  0.9004
 2007SOL     OW 7308   0.079   3.088   1.693  0.1415 -0.0261 -0.2199
 2007SOL    HW1 7309   0.128   3.129   1.622  0.9673 -0.7217 -0.0682
 2007SOL    HW2 7310   0.146   3.066   1.759 -0.5309  0.0804  0.5117
 2008SOL     OW 7311   3.720   2.247   3.866  0.1844  0.0313  0.2810
 2008SOL    HW1 7312   3.710   2.341   3.855  0.8740  0.2607  1.4567
 2008SOL    HW2 7313   3.797   2.224   3.814 -1.5421 -0.4046 -2.2926
 2009SOL     OW 7314   3.802   7.487   5.249 -0.1758  0.5643 -0.0795
 2009SOL    HW1 7315   3.790   7.394   5.229 -1.7678  0.7288 -0.0037
 2009SOL    HW2 7316   3.772   7.533   5.171 -0.1372  1.0277  0.1748
 2010SOL     OW 7317   8.455   6.127   4.362  0.1343 -0.6493  0.0801
 2010SOL    HW1 7318   8.506   6.204   4.337  0.7286 -1.5753 -1.7838
 2010SOL    HW2 7319   8.465   6.067   4.288 -2.5061 -1.4636  0.2880
 2011SOL     OW 7320   8.226   1.657   5.226  0.0718 -0.2545 -0.3782
 2011SOL    HW1 7321   8.249   1.658   5.318 -0.1254  0.4700 -0.3340
 2011SOL    HW2 7322   8.134   1.628   5.224 -0.2112  0.6093 -0.2749
 2012SOL     OW 7323   6.440   6.250   3.304  0.3360 -0.2068 -0.1201
 2012SOL    HW1 7324   6.516   6.265   3.360 -0.1618  0.5863  0.3494
 2012SOL    HW2 7325   6.366   6.287   3.352 -0.0018  1.0999 -1.5826
 2013SOL     OW 7326   3.280   0.189   0.188 -0.1083 -0.4634 -0.0849
 2013SOL    HW1 7327   3.303   0.108   0.234  0.4615  0.9789  2.3421
 2013SOL    HW2 7328   3.356   0.207   0.132  0.6715 -0.5496  0.9205
 2014SOL     OW 7329   1.100   7.162   0.297  0.5159 -0.2091  0.3316
 2014SOL    HW1 7330   1.120   7.192   0.386 -0.9947  1.6596  0.1151
 2014SOL    HW2 7331   1.038   7.090   0.309 -0.3550  0.5957  0.8175
 2015SOL     OW 7332   7.618   7.031   4.656  0.4802 -0.0616 -0.2551
 2015SOL    HW1 7333   7.686   7.076   4.705  0.6616 -0.8340  0.2195
 2015SOL    HW2 7334   7.548   7.095   4.646  0.7997  0.3683  0.2706
 2016SOL     OW 7335   8.474   4.941   1.368  0.8870  0.3349 -0.5812
 2016SOL    HW1 7336   8.542   4.960   1.433  0.8339  0.3169 -0.5197
 2016SOL    HW2 7337   8.522   4.912   1.291  1.1006  2.5708 -1.3655
 2017SOL     OW 7338   2.001   1.717   4.872 -0.5110  0.2868  0.5571
 2017SOL    HW1 7339   1.995   1.624   4.852  0.6924  0.3288 -0.0660
 2017SOL    HW2 7340   2.055   1.721   4.950 -1.3803  0.4177  1.1672
 2018SOL     OW 7341   3.624   3.025   5.459  0.7358  0.6820  0.1821
 2018SOL    HW1 7342   3.635   2.931   5.445 -0.1497  0.8175 -1.7773
 2018SOL    HW2 7343   3.554   3.032   5.523 -0.1584 -0.0111 -0.6859
 2019SOL     OW 7344   7.711   3.140   4.438 -0.0374  0.4178  0.5564
 2019SOL    HW1 7345   7.802   3.169   4.429 -0.2587  0.6422 -1.3390
 2019SOL    HW2 7346   7.686   3.112   4.350 -3.2352  4.6769 -0.2549
 2020SOL     OW 7347   4.468   3.938   3.588 -0.3401  0.8370 -0.3207
 2020SOL    HW1 7348   4.498   3.854   3.554 -0.9108  0.4780  0.0425
 2020SOL    HW2 7349   4.506   4.003   3.529 -0.7777  0.2701 -1.2513
 2021SOL     OW 7350   7.560   0.879   4.544  0.0786  0.0106  0.2074
 2021SOL    HW1 7351   7.489   0.814   4.545  0.3658 -0.3035  0.9697
 2021SOL    HW2 7352   7.636   0.831   4.578  0.9154  0.0629 -1.4672
 2022SOL     OW 7353   4.612   0.902   1.371 -0.5254  0.5133 -0.1293
 2022SOL    HW1 7354   4.634   0.993   1.390  1.1966 -0.1750  1.5679
 2022SOL    HW2 7355   4.618   0.894   1.276  0.7068  1.8506 -0.1934
 2023SOL     OW 7356   3.554   8.573   3.700 -0.3370 -0.0184 -0.0222
 2023SOL    HW1 7357   3.523   8.568   3.790 -0.1193 -1.6203  0.0018
 2023SOL    HW2 7358   3.626   8.636   3.703 -1.9535  1.9119  0.3814
 2024SOL     OW 7359   8.485   7.654   0.062 -0.2653  0.0546 -0.4270
 2024SOL    HW1 7360   8.425   7.586   0.031 -0.5120 -0.1360  0.4445
 2024SOL    HW2 7361   8.564   7.643   0.008 -0.4438 -0.6767 -0.5515
 2025SOL     OW 7362   1.053   0.021   6.834  0.1271 -0.0289 -0.2297
 2025SOL    HW1 7363   1.038  -0.052   6.893  2.5370  0.9233  1.7348
 2025SOL    HW2 7364   1.123  -0.009   6.776  0.7257  0.4751  0.2151
 2026SOL     OW 7365   0.040   8.302   4.919  1.0162 -0.1422  0.4677
 2026SOL    HW1 7366   0.108   8.317   4.853 -0.3056 -0.3692 -0.9759
 2026SOL    HW2 7367   0.021   8.208   4.913  0.1155  0.0362  0.3949
 2027SOL     OW 7368   7.793   2.082   2.928  0.2418  0.6396 -0.1630
 2027SOL    HW1 7369   7.782   2.109   2.837  1.0460 -0.7611 -0.7025
 2027SOL    HW2 7370   7.733   2.007   2.938  1.0404  0.0203  0.0897
 2028SOL     OW 7371   1.086   7.087   4.899  0.0239  0.2859  0.1887
 2028SOL    HW1 7372   1.152   7.023   4.871 -0.7033 -0.5138  0.2447
 2028SOL    HW2 7373   1.116   7.170   4.862  2.1252  0.3546  1.8871
 2029SOL     OW 7374   5.631   8.502   1.819  0.1012 -0.1019 -0.0285
 2029SOL    HW1 7375   5.681   8.494   1.738 -1.4828  0.3505 -1.1147
 2029SOL    HW2 7376   5.563   8.434   1.812 -0.6399  0.5639  0.4612
 2030SOL     OW 7377   4.298   4.391   5.547 -0.5781  0.0004 -0.3926
 2030SOL    HW1 7378   4.369   4.329   5.527  0.5563  0.4772  1.8415
 2030SOL    HW2 7379   4.270   4.367   5.635 -1.5577  1.3583 -0.3121
 2031SOL     OW 7380   5.229   3.817   6.525  0.3861  0.3917  0.1197
 2031SOL    HW1 7381   5.230   3.912   6.519 -1.4283  0.6286  2.1261
 2031SOL    HW2 7382   5.291   3.797   6.596 -1.1019  0.3725  1.4891
 2032SOL     OW 7383   3.432   7.765   8.404 -0.5235  0.0896 -0.0040
 2032SOL    HW1 7384   3.524   7.784   8.421 -0.4628 -0.4140  0.2278
 2032SOL    HW2 7385   3.386   7.844   8.432 -0.3115 -0.2649  1.3806
 2033SOL     OW 7386   5.223   4.435   7.530  0.4405 -0.0983 -0.3001
 2033SOL    HW1 7387   5.191   4.345   7.525  0.6241 -0.3082  1.5586
 2033SOL    HW2 7388   5.199   4.474   7.446 -1.0728 -1.4288 -0.5318
 2034SOL     OW 7389   5.944   7.303   7.711 -0.0983  0.1371  0.2285
 2034SOL    HW1 7390   5.869   7.345   7.753  0.6714 -0.0765  1.8990
 2034SOL    HW2 7391   5.976   7.369   7.649 -1.0979  0.5858  0.1640
 2035SOL     OW 7392   1.997   8.304   0.854 -0.7020  0.1854  0.3951
 2035SOL    HW1 7393   2.076   8.264   0.818 -0.7548  0.3397  0.1082
 2035SOL    HW2 7394   2.019   8.322   0.946 -0.4970 -0.0175  0.3847
 2036SOL     OW 7395   0.349   6.475   3.543  0.2895  0.0666 -0.4899
 2036SOL    HW1 7396   0.323   6.451   3.454  1.1013 -0.9422 -0.4792
 2036SOL    HW2 7397   0.303   6.413   3.600 -1.2669  1.5311 -0.0703
 2037SOL     OW 7398   6.265   6.246   7.746  0.6192  0.4731 -0.3166
 2037SOL    HW1 7399   6.258   6.152   7.760  1.5210  0.4998  0.3973
 2037SOL    HW2 7400   6.358   6.260   7.726  0.0358  0.8640 -3.2585
 2038SOL     OW 7401   4.769   0.164   3.315  0.4235  0.6915 -0.1515
 2038SOL    HW1 7402   4.805   0.250   3.298 -0.5817  0.8021 -1.8865
 2038SOL    HW2 7403   4.732   0.170   3.403 -1.7416  2.8082 -1.1168
 2039SOL     OW 7404   6.762   3.267   6.658  0.1008  0.4008 -0.9285
 2039SOL    HW1 7405   6.761   3.313   6.574  0.6295  0.1362 -1.0830
 2039SOL    HW2 7406   6.849   3.228   6.663  1.4266  3.2614  1.2954
 2040SOL     OW 7407   6.660   1.541   3.010  0.0988 -0.2407 -0.1028
 2040SOL    HW1 7408   6.618   1.545   3.096  1.0759  3.0327  0.3783
 2040SOL    HW2 7409   6.748   1.507   3.028  0.0556 -0.2692  0.0631
 2041SOL     OW 7410   0.342   1.280   4.330 -0.1264 -0.8921  0.1396
 2041SOL    HW1 7411   0.353   1.204   4.272 -0.4518 -0.4444 -0.5236
 2041SOL    HW2 7412   0.402   1.264   4.403 -1.2647 -2.5292  0.7876
 2042SOL     OW 7413   2.466   3.447   8.660  0.0311  0.9533  0.6116
 2042SOL    HW1 7414   2.401   3.410   8.719 -0.5398  1.2578  0.1789
 2042SOL    HW2 7415   2.416   3.480   8.585  0.8158 -0.1723 -0.4478
 2043SOL     OW 7416   0.500   2.117   7.933 -0.1515 -0.3998  0.1409
 2043SOL    HW1 7417   0.573   2.172   7.905  0.6012 -0.9246  1.0229
 2043SOL    HW2 7418   0.484   2.142   8.024  0.3714 -1.8045  0.6398
 2044SOL     OW 7419   2.035   6.517   6.676 -0.6847 -0.0339 -0.0092
 2044SOL    HW1 7420   1.956   6.541   6.723 -1.2152 -2.3036  0.3580
 2044SOL    HW2 7421   2.048   6.424   6.695  1.3450 -0.0476 -1.1161
 2045SOL     OW 7422   4.886   1.454   3.246  0.2410 -0.0188 -0.0697
 2045SOL    HW1 7423   4.811   1.395   3.246  1.0458 -1.1445 -1.6535
 2045SOL    HW2 7424   4.952   1.407   3.195  1.9433  1.0339  1.0539
 2046SOL     OW 7425   4.862   7.828   7.485  0.0955 -0.0157 -0.0299
 2046SOL    HW1 7426   4.837   7.920   7.476  0.0252 -0.0923 -0.7122
 2046SOL    HW2 7427   4.880   7.800   7.395  0.4600 -0.5734  0.2138
 2047SOL     OW 7428   5.567   3.795   0.324  0.0909 -0.2689 -0.8431
 2047SOL    HW1 7429   5.658   3.766   0.316  0.9041  2.0177 -0.5767
 2047SOL    HW2 7430   5.560   3.870   0.265 -1.8484 -0.8127 -1.3848
 2048SOL     OW 7431   8.598   6.961   7.296  0.2947 -0.0591 -0.0208
 2048SOL    HW1 7432   8.602   6.964   7.201 -0.2959 -0.7729 -0.0746
 2048SOL    HW2 7433   8.506   6.971   7.317  0.5135  0.9770  0.5261
 2049SOL     OW 7434   3.578   7.753   7.751  0.0129 -0.0640  0.2524
 2049SOL    HW1 7435   3.578   7.696   7.827  1.4092 -1.4820 -0.7525
 2049SOL    HW2 7436   3.501   7.726   7.700  0.9546 -1.4949 -0.4834
 2050SOL     OW 7437   3.967   0.617   2.703 -0.9935  0.5797 -0.4695
 2050SOL    HW1 7438   3.922   0.533   2.691  1.2512 -0.8314  0.3827
 2050SOL    HW2 7439   3.933   0.672   2.633 -2.4707 -1.0649 -1.1297
 2051SOL     OW 7440   8.056   4.828   2.100  0.3601  0.6455 -0.0407
 2051SOL    HW1 7441   7.999   4.888   2.052  0.0793 -0.1088 -0.6666
 2051SOL    HW2 7442   8.138   4.876   2.111 -0.0159  1.3178 -0.1119
 2052SOL     OW 7443   0.080   8.267   8.623  0.6150  0.0378  0.1275
 2052SOL    HW1 7444   0.127   8.199   8.671  0.5372 -0.5991 -0.6887
 2052SOL    HW2 7445   0.148   8.320   8.582  0.6955  0.7939  1.1947
 2053SOL     OW 7446   4.324   3.392   0.536 -0.1646 -0.0012  0.8720
 2053SOL    HW1 7447   4.235   3.426   0.528 -0.0466  0.2088  0.4142
 2053SOL    HW2 7448   4.377   3.468   0.557  0.0351  0.0310  0.2798
 2054SOL     OW 7449   2.883   2.934   0.037  0.5763  0.2858  0.1831
 2054SOL    HW1 7450   2.801   2.982   0.043  0.0880 -0.4155 -0.7136
 2054SOL    HW2 7451   2.862   2.846   0.069  1.1108  0.2512  0.4543
 2055SOL     OW 7452   5.974   6.233   2.068  0.2129  0.6978 -0.3222
 2055SOL    HW1 7453   5.994   6.324   2.050 -1.3800  1.3160  0.7732
 2055SOL    HW2 7454   6.018   6.215   2.152 -1.1966  1.1345  0.5387
 2056SOL     OW 7455   1.710   0.183   1.435 -0.2175  0.8248 -0.5745
 2056SOL    HW1 7456   1.636   0.130   1.463  1.9786 -2.9662 -1.2147
 2056SOL    HW2 7457   1.724   0.158   1.344  0.9892  2.5911 -0.9321
 2057SOL     OW 7458   7.671   1.932   0.697  0.2108 -0.3413 -0.2073
 2057SOL    HW1 7459   7.684   1.990   0.622 -1.9562 -0.7616 -0.9817
 2057SOL    HW2 7460   7.701   1.846   0.666  0.2065 -0.3225 -0.2637
 2058SOL     OW 7461   6.768   5.938   8.673  0.5275  0.2416 -0.0794
 2058SOL    HW1 7462   6.807   5.853   8.692 -0.9928 -0.6996 -0.9161
 2058SOL    HW2 7463   6.714   5.958   8.749 -0.6514 -0.5286 -0.6719
 2059SOL     OW 7464   1.500   0.299   8.630 -0.1825 -0.2710  0.2638
 2059SOL    HW1 7465   1.409   0.290   8.601  0.2082 -1.7290 -0.6076
 2059SOL    HW2 7466   1.507   0.390   8.659 -1.5419  0.2732 -0.9949
 2060SOL     OW 7467   2.838   4.891   5.210 -0.3937  0.1735  0.3282
 2060SOL    HW1 7468   2.893   4.954   5.162 -0.7941 -0.4396 -0.9702
 2060SOL    HW2 7469   2.749   4.920   5.193 -0.5315  0.8865  2.0488
 2061SOL     OW 7470   8.523   5.010   4.287  0.0950 -0.3588  0.6848
 2061SOL    HW1 7471   8.498   5.083   4.343  1.1292 -1.3019  2.4510
 2061SOL    HW2 7472   8.443   4.989   4.238  0.2705  3.1691 -1.4299
 2062SOL     OW 7473   3.578   8.007   2.229 -0.0419 -0.9089 -0.2285
 2062SOL    HW1 7474   3.558   8.101   2.223  0.8175 -0.7756 -1.7370
 2062SOL    HW2 7475   3.502   7.964   2.190 -0.5257 -0.8729  0.6447
 2063SOL     OW 7476   8.393   7.725   8.312  0.0170 -0.2778  0.0054
 2063SOL    HW1 7477   8.430   7.768   8.390  0.4782 -0.5742 -0.0463
 2063SOL    HW2 7478   8.327   7.665   8.347  0.8521 -1.0768  0.2540
 2064SOL     OW 7479   2.499   4.830   0.535  0.1037  0.4429  0.1218
 2064SOL    HW1 7480   2.476   4.737   0.525  3.0945 -0.3967 -0.0759
 2064SOL    HW2 7481   2.521   4.840   0.627 -0.0755  0.9197  0.1146
 2065SOL     OW 7482   5.436   3.120   6.041 -0.7751 -0.3870  0.3030
 2065SOL    HW1 7483   5.508   3.171   6.004 -2.4965  1.1518 -1.1656
 2065SOL    HW2 7484   5.413   3.166   6.122  0.8236 -1.7736  1.5837
 2066SOL     OW 7485   1.589   4.092   5.786 -0.2475  0.0992  0.2485
 2066SOL    HW1 7486   1.543   4.046   5.716  0.2560  0.0328 -0.0454
 2066SOL    HW2 7487   1.530   4.163   5.811 -0.1409  0.5451 -0.7256
 2067SOL     OW 7488   0.545   4.320   7.332 -0.3230 -0.7229 -0.2045
 2067SOL    HW1 7489   0.518   4.316   7.424  0.2783  0.1690  0.0270
 2067SOL    HW2 7490   0.638   4.341   7.335 -0.1337 -1.3687 -1.0197
 2068SOL     OW 7491   0.279   7.662   1.348 -0.1906 -0.6324  0.0243
 2068SOL    HW1 7492   0.349   7.611   1.306  0.0358  0.1594 -0.5905
 2068SOL    HW2 7493   0.238   7.601   1.408 -1.6569 -2.4058 -2.5735
 2069SOL     OW 7494   6.288   2.640   8.439 -0.1156  0.1589 -0.0475
 2069SOL    HW1 7495   6.209   2.643   8.385 -0.3117 -2.1132  0.0383
 2069SOL    HW2 7496   6.255   2.623   8.528  0.4146  0.5737  0.2355
 2070SOL     OW 7497   8.564   2.508   8.379 -0.0908  0.1933  0.0729
 2070SOL    HW1 7498   8.610   2.583   8.340 -1.8228  1.3275  0.1020
 2070SOL    HW2 7499   8.603   2.499   8.465  0.2529  0.9779  0.0095
 2071SOL     OW 7500   2.911   6.959   3.103 -0.6623  0.2717 -0.2677
 2071SOL    HW1 7501   2.986   6.998   3.058  0.3096 -1.0425  0.1113
 2071SOL    HW2 7502   2.949   6.884   3.150 -2.2571 -0.5505 -0.2303
 2072SOL     OW 7503   7.196   3.186   2.485  0.3046 -0.4134 -0.2945
 2072SOL    HW1 7504   7.264   3.151   2.542  0.1832 -0.0765  0.0655
 2072SOL    HW2 7505   7.130   3.116   2.480  2.0001 -2.0029 -3.0891
 2073SOL     OW 7506   3.646   7.248   0.816 -0.0885 -0.0200  0.3242
 2073SOL    HW1 7507   3.730   7.273   0.775 -0.6589 -0.0361 -0.9169
 2073SOL    HW2 7508   3.588   7.322   0.796 -1.0343 -1.0736 -0.9805
 2074SOL     OW 7509   0.796   0.467   3.045  0.3599 -0.3588 -0.2696
 2074SOL    HW1 7510   0.702   0.463   3.061  0.3584 -0.0909 -0.2063
 2074SOL    HW2 7511   0.817   0.384   3.003 -0.0059 -0.1766 -0.8216
 2075SOL     OW 7512   3.679   0.398   3.306  0.6232 -0.0121  0.0467
 2075SOL    HW1 7513   3.625   0.397   3.226 -0.9560  2.6711  0.9273
 2075SOL    HW2 7514   3.669   0.310   3.342 -1.9828 -0.1142 -0.6539
 2076SOL     OW 7515   2.033   1.606   6.164 -0.1423  0.3485 -0.3301
 2076SOL    HW1 7516   2.075   1.609   6.250 -2.6969 -1.3033  1.1099
 2076SOL    HW2 7517   2.093   1.556   6.109  0.3693 -0.8978  1.2919
 2077SOL     OW 7518   8.048   1.236   8.347  0.0180 -0.5481  0.3897
 2077SOL    HW1 7519   8.006   1.322   8.340 -2.7361 -1.7746  0.6649
 2077SOL    HW2 7520   8.037   1.211   8.438 -1.9820 -2.4079 -0.2714
 2078SOL     OW 7521   1.099   5.088   6.888  0.4654 -0.4450 -0.1075
 2078SOL    HW1 7522   1.076   5.174   6.924  1.3081 -0.7955  1.3356
 2078SOL    HW2 7523   1.079   5.096   6.795 -0.4006  0.9916  0.1602
 2079SOL     OW 7524   5.182   2.182   2.223  0.0681  0.0358  0.3516
 2079SOL    HW1 7525   5.147   2.264   2.258 -1.2482 -0.3545  0.0164
 2079SOL    HW2 7526   5.247   2.209   2.158 -0.0585  0.8084  0.5350
 2080SOL     OW 7527   1.184   2.449   4.025  0.5296  0.0733  0.1504
 2080SOL    HW1 7528   1.190   2.354   4.014  1.5075 -0.0794  1.7031
 2080SOL    HW2 7529   1.227   2.485   3.947  1.1770 -0.7853  0.0946
 2081SOL     OW 7530   6.305   3.017   0.094 -1.2447  0.5482 -0.1288
 2081SOL    HW1 7531   6.234   3.058   0.044 -0.6025  0.0460 -1.5010
 2081SOL    HW2 7532   6.335   2.945   0.039  0.4695  0.8627  0.3380
 2082SOL     OW 7533   3.210   0.605   6.894  0.7551  0.0164 -0.5216
 2082SOL    HW1 7534   3.164   0.535   6.848 -1.7019  1.4306 -0.4303
 2082SOL    HW2 7535   3.154   0.625   6.969  1.2224  2.1840 -0.6728
 2083SOL     OW 7536   0.230   8.311   4.390 -0.4526  0.6027  0.1817
 2083SOL    HW1 7537   0.232   8.233   4.335  1.0781  0.3645  0.5445
 2083SOL    HW2 7538   0.148   8.303   4.440  0.2642 -1.4334  1.1375
 2084SOL     OW 7539   3.240   6.482   4.376 -0.1024  0.0640 -0.3070
 2084SOL    HW1 7540   3.225   6.411   4.314  0.7821  0.7991 -1.4177
 2084SOL    HW2 7541   3.164   6.480   4.435 -2.8726  1.4368 -3.4836
 2085SOL     OW 7542   0.430   8.155   6.813 -0.2645 -0.4993  0.6082
 2085SOL    HW1 7543   0.427   8.094   6.740  0.8665 -0.8439  0.8301
 2085SOL    HW2 7544   0.458   8.102   6.888  2.4721  0.5679  0.4518
 2086SOL     OW 7545   4.511   7.187   2.650 -0.8236 -0.3545  0.0266
 2086SOL    HW1 7546   4.457   7.265   2.667  0.5134  0.3385  1.2662
 2086SOL    HW2 7547   4.597   7.222   2.628 -0.2091 -1.4811  0.5777
 2087SOL     OW 7548   0.736   2.682   8.472 -0.1492  0.1424 -0.1977
 2087SOL    HW1 7549   0.740   2.713   8.562  0.8413  1.0257 -0.5193
 2087SOL    HW2 7550   0.816   2.630   8.462 -0.1864  0.1627 -0.6018
 2088SOL     OW 7551   8.666   4.300   6.771  0.4289 -0.3120  1.0084
 2088SOL    HW1 7552   8.625   4.245   6.838 -1.4915 -0.0553  0.1096
 2088SOL    HW2 7553   8.593   4.328   6.716  1.8920 -0.0642 -0.8710
 2089SOL     OW 7554   6.037   5.999   4.828 -0.2802  0.0008 -0.4583
 2089SOL    HW1 7555   6.045   5.972   4.736 -1.0741  1.4229 -0.9707
 2089SOL    HW2 7556   5.955   6.048   4.832  0.9975  2.1959  0.4357
 2090SOL     OW 7557   1.042   6.552   6.223 -0.6839  0.3011  0.4370
 2090SOL    HW1 7558   0.971   6.608   6.190 -0.7572  0.1843  0.3961
 2090SOL    HW2 7559   1.048   6.574   6.316 -1.1870 -0.1275  0.5767
 2091SOL     OW 7560   2.584   8.228   2.622  0.2100  0.1980  0.1560
 2091SOL    HW1 7561   2.587   8.216   2.717  0.5944 -0.8465  0.0239
 2091SOL    HW2 7562   2.579   8.139   2.587 -0.6479  0.6006 -0.7837
 2092SOL     OW 7563   5.609   5.472   0.400 -0.0408 -0.5015 -0.1276
 2092SOL    HW1 7564   5.561   5.453   0.319  1.7439 -0.7411 -1.1891
 2092SOL    HW2 7565   5.663   5.394   0.414 -0.2308 -0.4087  1.2552
 2093SOL     OW 7566   3.851   7.033   8.541  0.2495 -0.2011  0.2796
 2093SOL    HW1 7567   3.796   7.084   8.600 -0.0743  0.9328 -0.9351
 2093SOL    HW2 7568   3.933   7.021   8.588  0.5361  1.9507  0.4180
 2094SOL     OW 7569   1.244   2.283   5.518  0.3670  0.1011  0.0694
 2094SOL    HW1 7570   1.247   2.245   5.430  1.6979 -1.6345  0.8224
 2094SOL    HW2 7571   1.336   2.295   5.542  0.1343 -1.8901  2.2057
 2095SOL     OW 7572   2.382   6.118   8.347 -0.1409 -0.0372  0.0234
 2095SOL    HW1 7573   2.477   6.108   8.347 -0.2020 -0.6969 -0.4873
 2095SOL    HW2 7574   2.366   6.198   8.399  0.6827  0.0903  0.0952
 2096SOL     OW 7575   2.865   6.067   7.367  0.1606  0.3614 -0.3823
 2096SOL    HW1 7576   2.956   6.080   7.342  0.3606  1.1735  0.7204
 2096SOL    HW2 7577   2.823   6.151   7.351 -0.2173  0.2254 -0.1239
 2097SOL     OW 7578   8.246   5.354   2.249  0.6940 -0.1114  0.8323
 2097SOL    HW1 7579   8.223   5.382   2.338  1.7574  1.7856  0.5851
 2097SOL    HW2 7580   8.317   5.291   2.261  2.5065  1.8970  1.3563
 2098SOL     OW 7581   2.799   4.682   1.057 -0.0948  0.2570  0.2637
 2098SOL    HW1 7582   2.716   4.645   1.088  0.0081  1.5935  2.2846
 2098SOL    HW2 7583   2.790   4.682   0.961 -2.6321  0.7720  0.4179
 2099SOL     OW 7584   1.611   1.310   6.359  0.2707 -0.1856 -0.2935
 2099SOL    HW1 7585   1.661   1.228   6.354  1.0584  0.3171 -1.2955
 2099SOL    HW2 7586   1.675   1.377   6.334 -1.4165  0.2654 -4.1192
 2100SOL     OW 7587   4.441   3.551   0.300  0.2725  0.5168  0.2931
 2100SOL    HW1 7588   4.467   3.585   0.386  2.1044  2.0064 -0.7449
 2100SOL    HW2 7589   4.444   3.456   0.309  1.6635  0.6457  1.5611
 2101SOL     OW 7590   2.160   2.336   6.987 -0.1648 -0.2852 -0.3836
 2101SOL    HW1 7591   2.077   2.290   7.002 -0.3460  0.5289  1.3673
 2101SOL    HW2 7592   2.173   2.388   7.066  0.9418  1.2769 -1.5398
 2102SOL     OW 7593   1.002   3.014   1.705  0.4140 -0.2212 -0.0214
 2102SOL    HW1 7594   0.988   3.060   1.788 -2.5005 -0.5164 -0.2538
 2102SOL    HW2 7595   1.041   2.930   1.731 -1.9129 -0.9854  1.3175
 2103SOL     OW 7596   6.199   6.151   3.654 -0.1464  0.2615 -0.4645
 2103SOL    HW1 7597   6.270   6.132   3.715 -0.0108  0.2212 -0.6347
 2103SOL    HW2 7598   6.127   6.095   3.682  0.8065 -1.9054 -2.0530
 2104SOL     OW 7599   6.133   7.534   5.804  0.2064  0.0491  0.1550
 2104SOL    HW1 7600   6.067   7.565   5.866 -0.1214 -0.6559  0.1728
 2104SOL    HW2 7601   6.188   7.610   5.787 -0.7970  0.7375 -0.1065
 2105SOL     OW 7602   8.357   2.492   6.301 -0.6504 -0.0673 -0.3347
 2105SOL    HW1 7603   8.382   2.400   6.289 -0.6368  0.0751 -1.5094
 2105SOL    HW2 7604   8.270   2.487   6.342  0.3031 -0.5624  1.7971
 2106SOL     OW 7605   7.538   0.501   0.022  0.0469  0.4954  0.3971
 2106SOL    HW1 7606   7.625   0.504   0.061 -0.3860  0.6754  1.3740
 2106SOL    HW2 7607   7.512   0.409   0.027 -1.2216  0.9118  3.3585
 2107SOL     OW 7608   8.072   0.519   3.478 -0.1161  0.3687 -0.6324
 2107SOL    HW1 7609   8.013   0.537   3.406 -0.7677  0.3635 -0.1100
 2107SOL    HW2 7610   8.044   0.433   3.512  1.7216 -0.7988 -1.8769
 2108SOL     OW 7611   4.488   2.649   0.076 -0.0502  0.6704 -0.5184
 2108SOL    HW1 7612   4.549   2.720   0.058 -0.6733  1.2809 -0.2915
 2108SOL    HW2 7613   4.494   2.592  -0.001  1.4830  0.2018 -0.0894
 2109SOL     OW 7614   4.830   0.428   5.327  0.3480  0.0673  0.2611
 2109SOL    HW1 7615   4.878   0.431   5.410  0.5323  1.2909  0.1218
 2109SOL    HW2 7616   4.751   0.378   5.348  0.0170  1.0111  1.3821
 2110SOL     OW 7617   6.360   3.819   3.014 -0.0308  0.2244 -0.2445
 2110SOL    HW1 7618   6.352   3.873   3.093  1.4022  0.1310  0.0067
 2110SOL    HW2 7619   6.406   3.876   2.951 -0.4859  0.0448 -0.7455
 2111SOL     OW 7620   6.983   4.952   1.078  0.1480 -0.5597  0.2573
 2111SOL    HW1 7621   6.897   4.935   1.115 -0.9666  0.8090 -1.5636
 2111SOL    HW2 7622   6.974   4.933   0.985  1.3615  1.0586 -0.2505
 2112SOL     OW 7623   2.863   5.853   6.400 -0.1458 -0.1691 -0.2814
 2112SOL    HW1 7624   2.798   5.836   6.333 -0.4256  1.9946 -0.6554
 2112SOL    HW2 7625   2.878   5.769   6.442 -0.3830 -1.4693 -2.6496
 2113SOL     OW 7626   6.656   6.908   3.590  0.2272 -0.1187  0.8753
 2113SOL    HW1 7627   6.641   6.903   3.685  0.3712  0.7683  0.9541
 2113SOL    HW2 7628   6.722   6.977   3.581 -0.8836  0.8476  0.0092
 2114SOL     OW 7629   7.774   2.905   1.569  1.0142 -0.5353 -0.4099
 2114SOL    HW1 7630   7.721   2.967   1.519  1.3427 -1.4311 -1.9134
 2114SOL    HW2 7631   7.709   2.853   1.617  0.7216  0.6634  0.5361
 2115SOL     OW 7632   3.869   5.061   7.624 -0.0670 -0.2802 -0.2128
 2115SOL    HW1 7633   3.805   5.013   7.678 -0.1167 -0.2372 -0.2331
 2115SOL    HW2 7634   3.816   5.126   7.577 -0.0086 -0.2465 -0.2322
 2116SOL     OW 7635   4.981   3.637   6.846  0.2840  0.1895  0.6418
 2116SOL    HW1 7636   4.989   3.698   6.773 -0.0523  1.2741  1.4922
 2116SOL    HW2 7637   5.066   3.640   6.889  0.1738  0.2743  0.8534
 2117SOL     OW 7638   3.536   1.738   6.346 -0.3368  0.1328  0.0699
 2117SOL    HW1 7639   3.469   1.760   6.410  0.0913  0.7249  0.3244
 2117SOL    HW2 7640   3.596   1.812   6.348  1.5423 -1.3285  1.4482
 2118SOL     OW 7641   2.910   0.653   6.385 -0.1999  0.4552  0.0224
 2118SOL    HW1 7642   2.892   0.729   6.330 -3.1516 -0.3991 -0.3731
 2118SOL    HW2 7643   2.853   0.665   6.461 -0.0907 -0.9357  0.3500
 2119SOL     OW 7644   7.867   3.490   0.079 -0.3992  0.1670 -0.6277
 2119SOL    HW1 7645   7.789   3.545   0.071  0.4923  1.3217 -1.8210
 2119SOL    HW2 7646   7.832   3.402   0.094 -1.8560  1.0852  2.1551
 2120SOL     OW 7647   2.004   8.352   5.391 -0.7443  0.0963  0.5774
 2120SOL    HW1 7648   2.041   8.274   5.350 -2.0429 -0.8290  1.1160
 2120SOL    HW2 7649   2.080   8.399   5.425  0.1054 -0.6332 -0.2560
 2121SOL     OW 7650   5.318   5.322   8.608  0.5079  0.1791 -0.0702
 2121SOL    HW1 7651   5.271   5.331   8.691  0.5648  1.1647 -0.1407
 2121SOL    HW2 7652   5.261   5.268   8.554  0.7415 -0.9971  0.8042
 2122SOL     OW 7653   6.256   7.928   2.093  0.9071 -0.0821  0.0471
 2122SOL    HW1 7654   6.257   7.833   2.109  0.9168  0.1649  1.6340
 2122SOL    HW2 7655   6.321   7.963   2.154 -0.0369  1.0825  0.4162
 2123SOL     OW 7656   5.884   7.280   5.685  0.2954 -0.2617  0.3453
 2123SOL    HW1 7657   5.964   7.330   5.701  0.3512 -0.4944  0.7957
 2123SOL    HW2 7658   5.902   7.232   5.604 -0.0105  0.9613 -0.4826
 2124SOL     OW 7659   8.196   5.694   5.177  0.0473 -0.4383 -0.2272
 2124SOL    HW1 7660   8.137   5.623   5.200 -1.2162  0.8840  0.8253
 2124SOL    HW2 7661   8.156   5.736   5.101  1.1636 -1.2521 -1.2985
 2125SOL     OW 7662   4.946   8.156   6.138  0.9358  0.0160 -0.4175
 2125SOL    HW1 7663   4.875   8.219   6.127  0.9967 -0.1508 -2.0301
 2125SOL    HW2 7664   5.024   8.202   6.105  0.8966 -1.0171 -2.0788
 2126SOL     OW 7665   7.722   7.861   4.886 -0.1024  0.1634  0.0838
 2126SOL    HW1 7666   7.781   7.792   4.854  0.1048  0.5382 -0.3403
 2126SOL    HW2 7667   7.700   7.912   4.809 -1.4401 -0.3011  0.1420
 2127SOL     OW 7668   4.152   2.681   6.975 -0.1158 -0.1625 -0.4660
 2127SOL    HW1 7669   4.136   2.707   7.066  2.5816 -1.3822  0.4633
 2127SOL    HW2 7670   4.143   2.586   6.976  0.5216 -0.2394 -1.3448
 2128SOL     OW 7671   0.400   2.869   2.792  0.0457 -0.3516  0.1013
 2128SOL    HW1 7672   0.465   2.878   2.723 -0.2288 -0.9084 -0.2402
 2128SOL    HW2 7673   0.421   2.785   2.834 -0.0535 -0.2249  0.4072
 2129SOL     OW 7674   2.933   2.843   1.255 -0.3242 -0.0516 -0.1433
 2129SOL    HW1 7675   2.937   2.901   1.332  0.5968  0.1673 -0.3493
 2129SOL    HW2 7676   2.932   2.755   1.292  1.8130 -0.0138  0.1229
 2130SOL     OW 7677   7.767   2.937   2.891 -0.3513  0.3282  0.1942
 2130SOL    HW1 7678   7.830   2.965   2.958 -0.3257  2.0746 -0.5132
 2130SOL    HW2 7679   7.683   2.970   2.922 -0.2748  1.5156 -0.8089
 2131SOL     OW 7680   5.506   1.689   7.212 -0.7097  0.9555  0.2531
 2131SOL    HW1 7681   5.574   1.658   7.272 -0.9631  1.1184  0.6324
 2131SOL    HW2 7682   5.529   1.779   7.193  0.3712  0.3851 -1.3428
 2132SOL     OW 7683   5.973   2.589   7.371  0.3923  0.1874 -0.2624
 2132SOL    HW1 7684   6.048   2.538   7.342  0.4793  0.8405 -1.2111
 2132SOL    HW2 7685   6.010   2.665   7.416  0.2856  0.1594 -0.1238
 2133SOL     OW 7686   5.471   7.363   8.213 -0.6120 -0.3045  0.6250
 2133SOL    HW1 7687   5.555   7.320   8.199 -0.6557 -0.2686  0.2372
 2133SOL    HW2 7688   5.439   7.327   8.296  0.5806  0.9738  1.6808
 2134SOL     OW 7689   5.656   4.543   0.418 -0.3877 -0.3277 -0.3910
 2134SOL    HW1 7690   5.719   4.615   0.419 -0.6108 -0.1387 -0.0150
 2134SOL    HW2 7691   5.691   4.480   0.481 -1.5972  0.6564  1.3312
 2135SOL     OW 7692   1.925   0.702   6.615  0.1863 -0.1888  1.2786
 2135SOL    HW1 7693   1.897   0.629   6.669 -0.3680 -0.2896  0.8640
 2135SOL    HW2 7694   2.011   0.726   6.649  0.1932 -0.7705  1.6763
 2136SOL     OW 7695   4.985   6.734   2.153 -0.0653 -0.7916  0.1323
 2136SOL    HW1 7696   4.949   6.806   2.101 -3.1237 -1.6775  0.8076
 2136SOL    HW2 7697   5.048   6.775   2.211  0.7680  0.7684 -1.7767
 2137SOL     OW 7698   6.089   5.641   3.372  0.2774  0.6467 -0.3221
 2137SOL    HW1 7699   6.167   5.645   3.318  0.6659  2.2790  0.3101
 2137SOL    HW2 7700   6.114   5.682   3.455 -0.9183  0.1550  0.3207
 2138SOL     OW 7701   1.896   6.031   7.798  0.4406 -0.2922 -0.1296
 2138SOL    HW1 7702   1.820   5.981   7.825 -0.3995  1.3158  0.5987
 2138SOL    HW2 7703   1.969   5.990   7.844 -0.2368 -0.7736  0.5374
 2139SOL     OW 7704   3.198   2.216   0.769  0.0788 -0.4016 -0.0929
 2139SOL    HW1 7705   3.263   2.192   0.835  1.4534  0.2950 -1.1337
 2139SOL    HW2 7706   3.130   2.149   0.776  0.9518 -1.2143  0.9676
 2140SOL     OW 7707   7.960   4.185   7.723  0.1703 -0.1967 -0.0986
 2140SOL    HW1 7708   7.906   4.223   7.792  1.8939 -0.4590  1.4874
 2140SOL    HW2 7709   7.911   4.200   7.642 -1.6667  0.6084  1.1114
 2141SOL     OW 7710   2.063   2.428   1.283 -0.3183 -0.7865  0.3288
 2141SOL    HW1 7711   2.019   2.506   1.317 -0.6529 -1.2088  0.8870
 2141SOL    HW2 7712   2.099   2.455   1.198  1.1661  0.5140  1.3128
 2142SOL     OW 7713   6.280   1.424   6.875 -0.0022 -0.5548  0.1391
 2142SOL    HW1 7714   6.218   1.493   6.852 -0.3581 -0.1111  2.2127
 2142SOL    HW2 7715   6.366   1.465   6.865 -0.0106 -0.8831 -1.8109
 2143SOL     OW 7716   5.472   6.306   0.884 -0.2890 -0.4537  0.4249
 2143SOL    HW1 7717   5.513   6.352   0.957 -1.0013  0.5459  0.2292
 2143SOL    HW2 7718   5.542   6.295   0.819  0.1649 -0.6884  0.9519
 2144SOL     OW 7719   0.557   7.288   0.772 -0.1548  0.2062 -0.6814
 2144SOL    HW1 7720   0.602   7.373   0.765 -2.3006  1.4186 -0.6158
 2144SOL    HW2 7721   0.621   7.231   0.814  1.1635  1.9482 -0.1910
 2145SOL     OW 7722   1.917   6.626   4.718 -0.1630  0.1256  0.5388
 2145SOL    HW1 7723   1.893   6.649   4.629 -1.3237 -1.2844  0.4462
 2145SOL    HW2 7724   1.834   6.601   4.759  0.6039 -1.0403  1.4407
 2146SOL     OW 7725   3.104   4.895   7.975  0.0296  0.1155 -0.0177
 2146SOL    HW1 7726   3.052   4.847   8.040  0.5752 -2.1694 -1.1590
 2146SOL    HW2 7727   3.047   4.900   7.899  0.3641  0.3837 -0.2531
 2147SOL     OW 7728   2.472   1.261   4.245  0.1167  1.1029 -0.3043
 2147SOL    HW1 7729   2.446   1.196   4.310  0.7380 -0.1646 -1.2765
 2147SOL    HW2 7730   2.391   1.303   4.218 -0.2229  1.1678  0.7711
 2148SOL     OW 7731   0.827   1.041   6.239 -0.0638 -0.0004 -0.3436
 2148SOL    HW1 7732   0.874   0.979   6.294  2.2783  0.1339 -2.0863
 2148SOL    HW2 7733   0.798   0.989   6.164 -0.6026  0.4368 -0.4423
 2149SOL     OW 7734   6.157   8.675   4.878  0.2788  0.2782 -0.2211
 2149SOL    HW1 7735   6.107   8.741   4.832 -0.6643  0.0499  0.4519
 2149SOL    HW2 7736   6.238   8.720   4.903 -0.1098  1.0118 -0.2535
 2150SOL     OW 7737   4.808   4.896   8.119  0.4713 -0.2582 -0.1344
 2150SOL    HW1 7738   4.749   4.964   8.152  0.9304  0.4720 -0.7697
 2150SOL    HW2 7739   4.785   4.818   8.168  1.2281  0.8058  2.0436
 2151SOL     OW 7740   7.627   8.375   2.467  0.0772 -0.6204  0.4191
 2151SOL    HW1 7741   7.614   8.422   2.384 -0.2563  1.4270  1.5599
 2151SOL    HW2 7742   7.709   8.327   2.455  0.5089  0.3666 -0.7838
 2152SOL     OW 7743   6.253   8.591   6.508  0.1117 -0.1910  0.1810
 2152SOL    HW1 7744   6.178   8.533   6.498  1.5505 -2.3603  1.0724
 2152SOL    HW2 7745   6.322   8.550   6.455  1.2918  0.5105  1.1134
 2153SOL     OW 7746   5.197   4.581   0.012 -0.0834 -0.2002  0.1112
 2153SOL    HW1 7747   5.252   4.541   0.079 -1.1958 -2.4926 -0.2550
 2153SOL    HW2 7748   5.216   4.533  -0.068 -0.5704  0.8694 -0.6832
 2154SOL     OW 7749   6.070   3.552   1.700  0.1181 -0.3965 -0.2346
 2154SOL    HW1 7750   6.083   3.620   1.634 -0.0695  0.8131  0.9445
 2154SOL    HW2 7751   6.101   3.591   1.782 -1.2541 -1.2386  0.7218
 2155SOL     OW 7752   1.852   2.743   3.401  0.1710  0.1862 -0.1946
 2155SOL    HW1 7753   1.939   2.738   3.441  0.6867  0.8998 -1.1887
 2155SOL    HW2 7754   1.862   2.804   3.328 -0.7901 -0.9306 -1.3091
 2156SOL     OW 7755   1.214   5.348   5.843 -0.3582  0.4995 -0.6082
 2156SOL    HW1 7756   1.170   5.366   5.926 -0.3421 -1.3494 -0.1517
 2156SOL    HW2 7757   1.145   5.353   5.778 -0.2892  2.4184 -0.5882
 2157SOL     OW 7758   3.142   2.891   1.987 -0.2245 -0.2004  0.0268
 2157SOL    HW1 7759   3.194   2.811   1.980  0.4243 -0.2284  3.6216
 2157SOL    HW2 7760   3.207   2.962   1.982 -0.2494 -0.0978  0.9972
 2158SOL     OW 7761   8.001   0.175   5.047  0.7750  0.1075  0.5274
 2158SOL    HW1 7762   8.017   0.235   4.974  0.2681 -1.0417 -0.5757
 2158SOL    HW2 7763   8.080   0.123   5.053 -0.3238 -1.9685 -1.3992
 2159SOL     OW 7764   5.642   6.659   7.655 -0.3228 -0.0562 -0.0078
 2159SOL    HW1 7765   5.639   6.693   7.566  0.8657  1.7789  0.5978
 2159SOL    HW2 7766   5.724   6.609   7.659  0.5015  1.2931  0.4967
 2160SOL     OW 7767   1.237   7.269   2.240 -0.4709  0.0403  0.2830
 2160SOL    HW1 7768   1.263   7.253   2.149  1.0676  0.9786  0.5189
 2160SOL    HW2 7769   1.249   7.363   2.252 -2.2074  0.1980  1.0154
 2161SOL     OW 7770   2.336   3.639   1.984  0.2378  0.0492  0.8002
 2161SOL    HW1 7771   2.286   3.558   1.971  0.1764  0.3530 -1.1622
 2161SOL    HW2 7772   2.280   3.693   2.039 -0.7303 -0.3855  0.2652
 2162SOL     OW 7773   3.638   3.104   4.873 -0.2860 -1.1169 -0.1995
 2162SOL    HW1 7774   3.725   3.133   4.846 -0.4488 -0.5336 -0.1321
 2162SOL    HW2 7775   3.586   3.185   4.872 -0.9927 -1.5665 -0.8915
 2163SOL     OW 7776   8.470   1.908   7.296  0.8203  0.2715 -0.4569
 2163SOL    HW1 7777   8.493   1.998   7.272 -1.0005  0.7384 -0.5976
 2163SOL    HW2 7778   8.381   1.897   7.263  0.5431 -1.1652  0.6890
 2164SOL     OW 7779   3.583   3.003   7.586  0.8089 -0.1355  0.1074
 2164SOL    HW1 7780   3.586   3.069   7.655 -0.2682  2.8960 -2.4785
 2164SOL    HW2 7781   3.657   3.025   7.529 -0.2885 -0.3262 -1.4621
 2165SOL     OW 7782   1.099   0.509   1.016  0.4768 -0.1726 -0.5407
 2165SOL    HW1 7783   1.034   0.438   1.015 -1.1650  1.2302  0.9966
 2165SOL    HW2 7784   1.169   0.476   1.071 -0.3510 -0.5539  0.3142
 2166SOL     OW 7785   4.209   0.767   5.940  0.4101  0.3402  0.2854
 2166SOL    HW1 7786   4.206   0.834   6.009 -1.4201  0.6448 -0.0222
 2166SOL    HW2 7787   4.133   0.712   5.958  1.0324 -0.7473 -0.3563
 2167SOL     OW 7788   3.771   6.194   3.531  0.0549  0.5102  0.1701
 2167SOL    HW1 7789   3.722   6.230   3.605  0.7717  1.2779  0.2872
 2167SOL    HW2 7790   3.788   6.103   3.556 -2.1648 -0.1059 -0.3191
 2168SOL     OW 7791   6.418   7.404   0.058 -0.3604 -0.0615 -0.0224
 2168SOL    HW1 7792   6.456   7.391   0.145 -0.5703 -0.5092  0.0048
 2168SOL    HW2 7793   6.399   7.316   0.027 -2.2656  0.1692  0.3579
 2169SOL     OW 7794   7.031   2.768   1.243  0.0974 -0.1686  0.1323
 2169SOL    HW1 7795   6.936   2.771   1.247  0.0450  2.2815 -0.7969
 2169SOL    HW2 7796   7.060   2.815   1.322  0.4362  1.1022 -0.7205
 2170SOL     OW 7797   3.068   0.454   2.794 -0.1107  1.1784  0.3478
 2170SOL    HW1 7798   3.009   0.391   2.753  1.2182  1.5559 -2.3864
 2170SOL    HW2 7799   3.010   0.517   2.836 -1.5884  0.4557 -0.5224
 2171SOL     OW 7800   3.699   6.274   0.187  0.4054  0.4414 -0.2502
 2171SOL    HW1 7801   3.709   6.179   0.185 -1.2944  0.2339 -1.9519
 2171SOL    HW2 7802   3.621   6.289   0.240  0.4411  0.8562 -0.3117
 2172SOL     OW 7803   3.085   8.653   0.844  0.5970  0.3201 -0.3484
 2172SOL    HW1 7804   3.061   8.745   0.832  0.4536  0.3432  0.1106
 2172SOL    HW2 7805   3.130   8.650   0.928  1.3384  0.1059 -0.7390
 2173SOL     OW 7806   3.462   3.296   5.787  0.5588  0.4650  0.5197
 2173SOL    HW1 7807   3.448   3.202   5.797 -1.5044  0.7680  0.8000
 2173SOL    HW2 7808   3.408   3.321   5.712  0.7094  1.5103  0.7452
 2174SOL     OW 7809   5.625   4.564   2.307  0.6220  0.2015  0.7289
 2174SOL    HW1 7810   5.714   4.530   2.308  1.1736  1.5018 -0.4932
 2174SOL    HW2 7811   5.633   4.654   2.339 -0.2943  0.2356  0.8950
 2175SOL     OW 7812   2.708   2.105   4.205  0.0024 -0.2601  0.9084
 2175SOL    HW1 7813   2.638   2.063   4.155 -0.6406  1.0309  0.6737
 2175SOL    HW2 7814   2.706   2.062   4.290  0.8709 -2.2355 -0.0081
 2176SOL     OW 7815   3.708   8.120   6.856  0.9144 -0.0855  0.5289
 2176SOL    HW1 7816   3.668   8.058   6.918 -0.0768 -0.5371 -0.5253
 2176SOL    HW2 7817   3.801   8.099   6.859  0.7648 -0.7059  1.2021
 2177SOL     OW 7818   6.704   5.969   7.000  0.0986 -0.1078 -0.1424
 2177SOL    HW1 7819   6.715   5.874   6.991 -1.1648 -0.3704  0.8195
 2177SOL    HW2 7820   6.645   5.993   6.928  0.7391  0.0426 -0.6356
 2178SOL     OW 7821   8.552   1.532   5.353 -0.1808  0.3287  0.2989
 2178SOL    HW1 7822   8.509   1.464   5.300  2.3375 -1.1050 -0.0834
 2178SOL    HW2 7823   8.547   1.499   5.443  0.5427 -0.1407  0.1819
 2179SOL     OW 7824   4.480   8.040   7.626  0.4467  0.7471 -0.1454
 2179SOL    HW1 7825   4.504   8.102   7.557  1.7634 -0.0835 -0.4880
 2179SOL    HW2 7826   4.507   8.082   7.707 -0.0537  1.2475 -0.2350
 2180SOL     OW 7827   2.354   7.371   4.275  0.1571  0.6343 -0.0549
 2180SOL    HW1 7828   2.344   7.276   4.272 -0.8903  0.7073  0.8398
 2180SOL    HW2 7829   2.283   7.404   4.220 -0.6068  0.9415  1.0797
 2181SOL     OW 7830   6.563   4.905   4.765  0.3474  0.3281  0.6361
 2181SOL    HW1 7831   6.537   4.858   4.686 -1.0758  1.3955  0.4266
 2181SOL    HW2 7832   6.627   4.847   4.807 -0.5470 -1.3056 -0.1356
 2182SOL     OW 7833   2.322   5.728   7.151 -0.0182 -0.4272  0.0979
 2182SOL    HW1 7834   2.377   5.738   7.073 -1.3093 -1.4782 -0.9902
 2182SOL    HW2 7835   2.277   5.812   7.159 -0.5656 -0.6183 -0.8558
 2183SOL     OW 7836   0.151   0.699   4.493  0.6874  0.3642  0.2769
 2183SOL    HW1 7837   0.162   0.627   4.431  2.8132  0.8931 -0.0662
 2183SOL    HW2 7838   0.181   0.663   4.577 -1.5731 -0.1559  0.9170
 2184SOL     OW 7839   5.645   6.324   8.475  0.0267 -0.3816 -0.8633
 2184SOL    HW1 7840   5.680   6.354   8.391  1.0356  0.3793 -0.1866
 2184SOL    HW2 7841   5.565   6.375   8.488 -0.0169 -0.3490 -1.2451
 2185SOL     OW 7842   4.200   6.239   2.204 -0.2841 -0.0198 -0.0343
 2185SOL    HW1 7843   4.132   6.294   2.163 -3.4461 -2.1938  1.8626
 2185SOL    HW2 7844   4.196   6.156   2.157  1.4732 -0.0626 -0.1731
 2186SOL     OW 7845   0.470   0.172   5.747 -0.0333  0.0033 -0.3499
 2186SOL    HW1 7846   0.457   0.150   5.655  2.5750 -2.9569 -0.1718
 2186SOL    HW2 7847   0.454   0.090   5.794 -0.2870  1.1842  1.7494
 2187SOL     OW 7848   7.964   3.126   5.713  0.0510 -0.7018 -0.5314
 2187SOL    HW1 7849   8.020   3.103   5.638 -0.4888  1.8973 -1.8714
 2187SOL    HW2 7850   8.026   3.158   5.779  0.3167  1.7382 -1.8384
 2188SOL     OW 7851   3.728   0.974   0.215 -0.2547  0.0945  0.2060
 2188SOL    HW1 7852   3.659   1.025   0.258 -1.6543 -0.5035 -1.2263
 2188SOL    HW2 7853   3.750   1.025   0.137 -2.4949 -1.8782 -1.8835
 2189SOL     OW 7854   6.964   3.578   7.252  0.0210  0.5635 -0.5219
 2189SOL    HW1 7855   7.016   3.498   7.250 -0.6476  0.1367 -1.3351
 2189SOL    HW2 7856   7.029   3.649   7.250  0.6949  0.0919  2.0269
 2190SOL     OW 7857   4.216   2.770   6.555  0.1382 -0.1857 -0.5934
 2190SOL    HW1 7858   4.263   2.756   6.637  0.2376 -0.4034 -0.6859
 2190SOL    HW2 7859   4.167   2.850   6.568  0.0371 -0.3012 -0.2680
 2191SOL     OW 7860   2.150   7.481   2.593 -0.1927  0.4377 -0.8125
 2191SOL    HW1 7861   2.119   7.453   2.679 -0.5620 -0.9155 -1.3716
 2191SOL    HW2 7862   2.236   7.519   2.610  0.9253 -2.1975 -0.1480
 2192SOL     OW 7863   2.483   2.215   7.351  0.2236 -0.6701 -0.0848
 2192SOL    HW1 7864   2.498   2.121   7.364 -0.7009 -1.0657 -1.5632
 2192SOL    HW2 7865   2.546   2.258   7.408  2.3613 -2.1965 -1.1442
 2193SOL     OW 7866   8.233   4.334   4.354  0.0591  0.5761 -0.6092
 2193SOL    HW1 7867   8.276   4.405   4.401  0.7235 -0.3785  0.2834
 2193SOL    HW2 7868   8.140   4.357   4.356  0.1850  1.0671  0.2973
 2194SOL     OW 7869   5.211   0.479   2.236 -0.3094  0.3706  0.3743
 2194SOL    HW1 7870   5.209   0.469   2.140  0.8010 -2.4032  0.5517
 2194SOL    HW2 7871   5.184   0.393   2.269  1.9220  0.4170  2.5357
 2195SOL     OW 7872   7.694   0.769   5.757  0.6390  0.0076  0.1275
 2195SOL    HW1 7873   7.603   0.792   5.773  0.9688  0.8051  0.9289
 2195SOL    HW2 7874   7.697   0.745   5.664 -0.3040  0.3335  0.0065
 2196SOL     OW 7875   4.525   6.149   2.059 -0.4092 -0.2082 -0.0481
 2196SOL    HW1 7876   4.561   6.236   2.075  0.9403 -0.8692  0.6771
 2196SOL    HW2 7877   4.430   6.160   2.069 -0.2723  1.1850 -0.0725
 2197SOL     OW 7878   2.979   0.899   8.218 -0.2097 -0.4915 -0.4903
 2197SOL    HW1 7879   2.936   0.929   8.138 -0.5910 -1.6745 -0.7441
 2197SOL    HW2 7880   2.910   0.853   8.266 -0.1795  0.8230  0.8812
 2198SOL     OW 7881   6.071   2.823   7.474 -0.0709  0.0012 -0.4303
 2198SOL    HW1 7882   6.010   2.897   7.474  0.8852  0.8295  0.4925
 2198SOL    HW2 7883   6.155   2.862   7.452  0.4048 -0.8555 -0.1823
 2199SOL     OW 7884   0.533   0.823   5.147 -0.2052 -0.7208 -0.4184
 2199SOL    HW1 7885   0.600   0.773   5.101 -1.6249 -3.5694  0.3673
 2199SOL    HW2 7886   0.522   0.777   5.230 -1.5077  1.0506  0.4601
 2200SOL     OW 7887   7.634   3.634   0.052  0.0872 -0.3080 -0.3823
 2200SOL    HW1 7888   7.566   3.567   0.065 -1.8762  1.5140 -0.6709
 2200SOL    HW2 7889   7.589   3.705   0.006  1.4337  2.1633  1.8230
 2201SOL     OW 7890   5.964   8.445   7.638 -0.1396 -0.3977 -0.0408
 2201SOL    HW1 7891   5.956   8.487   7.552 -2.6574  1.0075  0.7870
 2201SOL    HW2 7892   5.960   8.351   7.620 -1.8609 -0.1160 -1.4168
 2202SOL     OW 7893   2.386   5.513   8.131  0.2948 -0.1187  0.7614
 2202SOL    HW1 7894   2.363   5.600   8.166  0.9636 -0.0846  1.1291
 2202SOL    HW2 7895   2.446   5.477   8.196 -0.9338 -1.3815  1.2495
 2203SOL     OW 7896   6.682   4.236   7.850  0.0700 -0.6072 -0.0716
 2203SOL    HW1 7897   6.616   4.270   7.910  0.9258 -0.9093  1.0867
 2203SOL    HW2 7898   6.723   4.164   7.898  1.0344 -0.6222 -0.8763
 2204SOL     OW 7899   7.638   5.729   6.214 -0.1899 -0.3903 -0.6724
 2204SOL    HW1 7900   7.695   5.744   6.289 -1.7398 -1.1786  0.7213
 2204SOL    HW2 7901   7.582   5.807   6.210 -2.0908 -1.5707  0.9058
 2205SOL     OW 7902   4.133   4.706   0.170  0.3328  0.2236  0.2623
 2205SOL    HW1 7903   4.039   4.698   0.184  0.4714 -0.1941  0.9714
 2205SOL    HW2 7904   4.145   4.690   0.076 -0.2935  0.2698  0.1703
 2206SOL     OW 7905   0.950   8.586   7.708  0.2734  0.4826  0.3961
 2206SOL    HW1 7906   0.885   8.572   7.777 -0.0495  2.3491  0.5350
 2206SOL    HW2 7907   0.965   8.681   7.709  0.0538  0.6163 -2.2697
 2207SOL     OW 7908   7.239   7.433   3.215  0.0485  0.1728 -0.3542
 2207SOL    HW1 7909   7.226   7.525   3.192 -0.7550 -0.0941 -1.0085
 2207SOL    HW2 7910   7.333   7.425   3.229  0.0427  1.2590  0.4468
 2208SOL     OW 7911   8.650   0.544   7.670  0.3815 -0.6673  0.8378
 2208SOL    HW1 7912   8.589   0.480   7.706 -3.0580  0.2889 -2.6659
 2208SOL    HW2 7913   8.690   0.498   7.595 -0.4231  0.4702 -0.3288
 2209SOL     OW 7914   1.980   3.715   7.013 -0.0804 -0.1087 -0.0033
 2209SOL    HW1 7915   1.968   3.629   6.972 -1.4478  0.0952 -0.0690
 2209SOL    HW2 7916   1.952   3.777   6.946 -0.1569  0.3366  0.4374
 2210SOL     OW 7917   4.612   5.051   1.653  0.5080 -0.2030  0.0400
 2210SOL    HW1 7918   4.587   5.134   1.612  2.3300  0.1436 -0.4373
 2210SOL    HW2 7919   4.532   4.998   1.650 -0.0594  0.6678 -1.8243
 2211SOL     OW 7920   5.770   8.311   6.463 -0.4366 -0.1827  0.1078
 2211SOL    HW1 7921   5.770   8.261   6.544 -0.4275 -1.2326 -0.5259
 2211SOL    HW2 7922   5.683   8.350   6.458 -0.6212 -0.5718  0.3332
 2212SOL     OW 7923   4.821   2.076   8.196  0.0016  0.0586 -0.1612
 2212SOL    HW1 7924   4.776   2.120   8.124  2.0755  1.3355 -0.7868
 2212SOL    HW2 7925   4.863   2.000   8.156  0.6180  0.4083 -0.2070
 2213SOL     OW 7926   3.791   3.085   0.703 -0.1395 -0.0372  0.0425
 2213SOL    HW1 7927   3.816   3.172   0.733  1.0687 -0.4458  0.2792
 2213SOL    HW2 7928   3.821   3.080   0.613  1.1120 -0.6838  0.4625
 2214SOL     OW 7929   0.924   3.808   1.780 -0.0501 -0.7682 -0.1540
 2214SOL    HW1 7930   1.017   3.795   1.764 -0.0866  0.4760 -1.6125
 2214SOL    HW2 7931   0.886   3.720   1.774  0.7974 -1.0749 -1.2585
 2215SOL     OW 7932   1.230   7.317   5.401 -0.7020  0.1935 -0.0404
 2215SOL    HW1 7933   1.234   7.325   5.306  1.0337  2.0861  0.1098
 2215SOL    HW2 7934   1.243   7.224   5.418  2.4608  0.1930 -1.6368
 2216SOL     OW 7935   1.072   8.500   3.035  0.1038  0.0276 -0.0764
 2216SOL    HW1 7936   1.037   8.589   3.023 -1.7277 -0.4692  1.1241
 2216SOL    HW2 7937   1.075   8.488   3.129  4.1234  0.1482 -0.0365
 2217SOL     OW 7938   8.153   8.091   5.706  0.9859 -0.1357  0.2893
 2217SOL    HW1 7939   8.082   8.036   5.741  0.3113  0.8342  0.4926
 2217SOL    HW2 7940   8.196   8.036   5.641 -1.3103 -0.0702 -1.3989
 2218SOL     OW 7941   3.887   3.977   6.946  0.3843  1.0144 -0.6338
 2218SOL    HW1 7942   3.894   3.977   7.041  0.6313  1.3471 -0.6478
 2218SOL    HW2 7943   3.962   3.924   6.916 -0.7367 -0.6618 -0.5928
 2219SOL     OW 7944   7.714   4.109   2.148  0.4986 -0.1574  0.4244
 2219SOL    HW1 7945   7.644   4.052   2.117  2.0939 -0.9752 -2.0375
 2219SOL    HW2 7946   7.691   4.196   2.117 -0.7284  0.1568  2.0668
 2220SOL     OW 7947   7.713   1.047   8.149 -0.0667  0.2677 -0.1728
 2220SOL    HW1 7948   7.728   1.019   8.058 -1.4927 -1.3939  0.0551
 2220SOL    HW2 7949   7.643   1.111   8.142 -1.1111 -0.8303 -0.1737
 2221SOL     OW 7950   5.916   8.601   3.776  0.6429 -0.2183  0.5613
 2221SOL    HW1 7951   5.880   8.513   3.775 -1.8200  0.6581  2.2291
 2221SOL    HW2 7952   6.006   8.590   3.808  0.3777 -2.0864  0.7801
 2222SOL     OW 7953   8.670   6.498   0.001 -0.0966  0.0778 -0.2582
 2222SOL    HW1 7954   8.709   6.430   0.056 -1.2394 -0.2883  0.1349
 2222SOL    HW2 7955   8.695   6.580   0.044 -0.9370 -0.2011  0.8062
 2223SOL     OW 7956   4.172   2.334   4.595  0.0388  0.8316  0.2736
 2223SOL    HW1 7957   4.215   2.363   4.514  0.0710 -1.8846 -0.8066
 2223SOL    HW2 7958   4.162   2.414   4.647  0.6162  2.5835 -2.1123
 2224SOL     OW 7959   6.254   7.373   1.351 -0.2816 -0.2292  0.5584
 2224SOL    HW1 7960   6.236   7.334   1.266 -1.6285 -1.5679  1.3935
 2224SOL    HW2 7961   6.284   7.300   1.405 -2.8891 -0.2493  2.1761
 2225SOL     OW 7962   4.303   2.854   5.369  0.3542 -0.5044  0.8730
 2225SOL    HW1 7963   4.388   2.827   5.334 -0.3824 -1.2935 -0.3921
 2225SOL    HW2 7964   4.253   2.772   5.375 -1.5059  0.3203 -1.8443
 2226SOL     OW 7965   1.042   2.620   6.397  0.1822  0.2761 -0.4119
 2226SOL    HW1 7966   1.079   2.702   6.430 -0.2587  0.4754 -0.3953
 2226SOL    HW2 7967   0.997   2.582   6.472  0.0672  0.2062 -0.5161
 2227SOL     OW 7968   4.546   4.694   1.545  0.6153 -0.6923 -0.0330
 2227SOL    HW1 7969   4.613   4.747   1.500  1.0108 -1.1895 -0.0454
 2227SOL    HW2 7970   4.463   4.729   1.514  0.8776 -0.4560 -0.4885
 2228SOL     OW 7971   4.595   1.128   5.560 -0.5702  0.0815 -0.0710
 2228SOL    HW1 7972   4.594   1.075   5.640 -0.4476 -0.7265 -0.5895
 2228SOL    HW2 7973   4.502   1.139   5.538 -0.6038  0.2903  0.1664
 2229SOL     OW 7974   5.493   6.583   8.641 -0.3745  0.5621  0.0036
 2229SOL    HW1 7975   5.514   6.522   8.712 -0.9286  0.5072  0.1224
 2229SOL    HW2 7976   5.579   6.612   8.609 -0.1188  0.7312  0.8156
 2230SOL     OW 7977   1.311   8.099   1.316 -0.1103  0.2002  0.5040
 2230SOL    HW1 7978   1.276   8.111   1.228  1.7840 -1.1774 -0.5093
 2230SOL    HW2 7979   1.386   8.159   1.320 -0.6428  0.8303  1.4983
 2231SOL     OW 7980   3.849   5.102   2.777  0.3373 -0.0525  0.2531
 2231SOL    HW1 7981   3.801   5.178   2.744 -2.0248 -1.4255  0.2332
 2231SOL    HW2 7982   3.905   5.137   2.846 -0.1953  1.7788 -0.1838
 2232SOL     OW 7983   3.334   5.675   4.746 -0.7042  0.8440 -0.4684
 2232SOL    HW1 7984   3.375   5.597   4.784 -1.8767  1.4464  2.2630
 2232SOL    HW2 7985   3.405   5.718   4.697  0.3360 -1.1066 -0.7887
 2233SOL     OW 7986   0.599   7.763   7.671 -0.2583 -0.4310  0.2374
 2233SOL    HW1 7987   0.666   7.795   7.610 -1.4830 -0.6233 -1.2747
 2233SOL    HW2 7988   0.577   7.675   7.639 -0.6168 -0.7174  1.2298
 2234SOL     OW 7989   4.598   6.054   5.434 -0.0609  0.0636 -0.8479
 2234SOL    HW1 7990   4.657   6.017   5.499  0.2029 -0.6347 -1.4666
 2234SOL    HW2 7991   4.655   6.106   5.377 -0.1215 -0.1684 -1.1237
 2235SOL     OW 7992   8.410   7.153   0.042  0.1896  0.1305  0.1010
 2235SOL    HW1 7993   8.487   7.174   0.095  2.1967 -0.7334 -2.3027
 2235SOL    HW2 7994   8.421   7.061   0.019 -0.7612  0.3818 -1.5315
 2236SOL     OW 7995   0.059   7.915   2.337  0.1225  0.1169 -0.6338
 2236SOL    HW1 7996   0.071   7.886   2.428 -1.7345  0.4048 -0.2586
 2236SOL    HW2 7997   0.127   7.869   2.288  2.0590  0.9775  1.0767
 2237SOL     OW 7998   5.409   3.746   8.638 -0.0224 -0.3265 -0.2008
 2237SOL    HW1 7999   5.487   3.784   8.597  0.5967 -1.7908 -0.4259
 2237SOL    HW2 8000   5.339   3.759   8.574 -0.2946  2.0549  0.4785
 2238SOL     OW 8001   8.602   4.873   8.060  0.0027 -0.0491  0.7137
 2238SOL    HW1 8002   8.673   4.924   8.020  0.4246 -1.8805 -1.0126
 2238SOL    HW2 8003   8.633   4.854   8.148  0.7283  0.9250  0.6895
 2239SOL     OW 8004   6.058   5.820   8.536 -0.1819 -0.2767  0.5335
 2239SOL    HW1 8005   5.976   5.848   8.577 -1.0249 -1.1665 -0.4944
 2239SOL    HW2 8006   6.044   5.728   8.514  1.5724 -0.8317  1.4933
 2240SOL     OW 8007   3.115   8.123   8.614 -0.0025 -0.1476 -0.2632
 2240SOL    HW1 8008   3.147   8.177   8.542  1.4122 -0.0066  0.4398
 2240SOL    HW2 8009   3.078   8.185   8.677  2.9704  0.2854  1.2478
 2241SOL     OW 8010   4.719   3.701   6.017  0.4506 -0.2575  0.6794
 2241SOL    HW1 8011   4.812   3.724   6.025  0.9572 -1.3115 -1.4507
 2241SOL    HW2 8012   4.719   3.619   5.967 -1.6474 -0.0343  0.2381
 2242SOL     OW 8013   3.781   2.036   2.602  0.1395 -0.6092  0.4949
 2242SOL    HW1 8014   3.872   2.032   2.573  0.0830 -0.5703  0.3115
 2242SOL    HW2 8015   3.731   2.004   2.527 -0.0678  0.2448  0.2587
 2243SOL     OW 8016   0.058   3.270   2.233 -0.3076 -0.5204 -0.9791
 2243SOL    HW1 8017   0.127   3.318   2.187  0.4869 -0.3163  0.3699
 2243SOL    HW2 8018   0.097   3.247   2.317 -1.3110 -1.9384 -0.8691
 2244SOL     OW 8019   3.722   0.821   7.638 -0.1629  0.2223  0.2701
 2244SOL    HW1 8020   3.648   0.864   7.597 -1.0943 -2.5324 -1.1467
 2244SOL    HW2 8021   3.683   0.760   7.700  0.8966 -1.0283 -0.2513
 2245SOL     OW 8022   5.301   1.701   1.984 -0.9151  0.0787  0.0901
 2245SOL    HW1 8023   5.333   1.646   1.912 -0.0506  0.9130 -0.1875
 2245SOL    HW2 8024   5.331   1.656   2.063  1.3582  0.9966 -0.1616
 2246SOL     OW 8025   7.339   1.824   5.746 -0.0992 -0.3710 -0.1189
 2246SOL    HW1 8026   7.377   1.869   5.821 -0.5459 -0.9525  0.4692
 2246SOL    HW2 8027   7.396   1.749   5.731 -0.8178 -1.0848  0.5867
 2247SOL     OW 8028   5.248   5.907   7.990  0.0729  0.4633 -0.0015
 2247SOL    HW1 8029   5.226   5.990   8.033 -0.1725  0.5339 -0.2620
 2247SOL    HW2 8030   5.196   5.907   7.911 -1.9428 -1.1231  1.2337
 2248SOL     OW 8031   1.048   7.706   8.355  0.4349  0.0275 -0.4570
 2248SOL    HW1 8032   1.046   7.798   8.329  1.6714 -0.1633 -1.3006
 2248SOL    HW2 8033   1.084   7.660   8.279 -3.2121 -1.6562 -1.3842
 2249SOL     OW 8034   0.963   5.098   5.071 -0.1528  0.0835 -0.1597
 2249SOL    HW1 8035   0.947   5.030   5.137 -1.0480  0.0140 -0.4263
 2249SOL    HW2 8036   0.961   5.051   4.988 -2.2686  0.5947 -0.4703
 2250SOL     OW 8037   5.052   4.881   8.376 -0.1874  0.2314 -0.3594
 2250SOL    HW1 8038   4.961   4.856   8.390 -0.8402  1.2321 -2.4522
 2250SOL    HW2 8039   5.098   4.798   8.364 -1.0621 -0.2417 -0.5278
 2251SOL     OW 8040   5.945   7.917   7.892  0.4022  0.2251 -0.1197
 2251SOL    HW1 8041   6.025   7.948   7.934  2.1276 -0.3694 -2.7411
 2251SOL    HW2 8042   5.923   7.987   7.830  1.1014 -1.2019 -2.0599
 2252SOL     OW 8043   4.101   7.399   8.530 -0.0441  0.7376 -0.0144
 2252SOL    HW1 8044   4.012   7.423   8.505 -1.0644  0.2967  2.8155
 2252SOL    HW2 8045   4.094   7.376   8.623  2.8165 -0.4281  0.0076
 2253SOL     OW 8046   5.553   1.027   2.077 -0.3196  0.0010  0.7292
 2253SOL    HW1 8047   5.522   0.937   2.063  0.6916 -0.8596  3.3330
 2253SOL    HW2 8048   5.481   1.070   2.123 -0.1859  0.0221  0.9188
 2254SOL     OW 8049   4.037   7.345   7.855 -0.0656 -0.0272 -0.3038
 2254SOL    HW1 8050   4.107   7.301   7.808  1.1576  1.6074 -0.0827
 2254SOL    HW2 8051   4.061   7.337   7.947 -0.5277 -0.0167 -0.1774
 2255SOL     OW 8052   3.242   4.992   0.619 -0.1811  0.2147  0.0599
 2255SOL    HW1 8053   3.178   4.925   0.597  1.0001 -0.9927  0.1926
 2255SOL    HW2 8054   3.318   4.971   0.565  0.6116  0.7658  0.9393
 2256SOL     OW 8055   7.026   3.578   3.658  0.3892 -0.3812  0.0677
 2256SOL    HW1 8056   7.003   3.610   3.745  0.6584  1.4368 -0.4707
 2256SOL    HW2 8057   7.091   3.511   3.673  1.6723  1.0573  1.2434
 2257SOL     OW 8058   3.878   4.209   6.286  0.3246 -0.3116 -0.0563
 2257SOL    HW1 8059   3.953   4.239   6.337  0.4496  0.1122 -0.4743
 2257SOL    HW2 8060   3.902   4.121   6.257  0.3973 -0.4184  0.3281
 2258SOL     OW 8061   2.245   3.799   7.112 -0.0678 -0.2691 -0.2901
 2258SOL    HW1 8062   2.282   3.734   7.173 -3.0753  0.5992  2.7673
 2258SOL    HW2 8063   2.168   3.756   7.075 -1.8854  1.2582  1.4871
 2259SOL     OW 8064   1.867   0.713   6.356  0.4489 -0.1160 -0.8573
 2259SOL    HW1 8065   1.953   0.676   6.336  1.0975  1.0264 -0.2977
 2259SOL    HW2 8066   1.864   0.717   6.452  1.1761  2.8709 -0.8556
 2260SOL     OW 8067   0.681   8.580   3.407 -0.0759  0.2145 -0.1802
 2260SOL    HW1 8068   0.731   8.568   3.487 -2.0190 -0.3573  1.0281
 2260SOL    HW2 8069   0.629   8.659   3.422 -0.4172  0.1402 -0.8982
 2261SOL     OW 8070   1.982   3.404   0.059 -0.1258  0.1410  0.5328
 2261SOL    HW1 8071   2.050   3.452   0.105 -0.0527  0.6147 -0.0578
 2261SOL    HW2 8072   1.966   3.327   0.113 -0.5712  1.0474  1.7317
 2262SOL     OW 8073   2.666   1.415   1.797 -0.1871  0.6704 -0.0086
 2262SOL    HW1 8074   2.576   1.421   1.764 -0.6164  2.3567  1.3716
 2262SOL    HW2 8075   2.699   1.333   1.759 -0.7569  2.1241 -4.2226
 2263SOL     OW 8076   0.426   3.793   2.986  0.4749 -0.4862  0.3705
 2263SOL    HW1 8077   0.334   3.811   3.006  0.3440 -0.0683 -0.5428
 2263SOL    HW2 8078   0.434   3.698   2.997  0.1428 -0.4180  1.2536
 2264SOL     OW 8079   6.015   3.905   8.053 -0.3168 -0.6967  0.7482
 2264SOL    HW1 8080   6.099   3.951   8.050  0.0187 -1.3105  0.6840
 2264SOL    HW2 8081   6.038   3.814   8.069 -0.9999 -0.7933  1.2296
 2265SOL     OW 8082   2.656   7.882   7.000 -0.2837 -0.4353  0.0171
 2265SOL    HW1 8083   2.681   7.971   7.022  0.4383 -0.5313 -0.3601
 2265SOL    HW2 8084   2.563   7.887   6.976 -0.3230  0.1558  0.2910
 2266SOL     OW 8085   1.903   1.845   6.171  0.2135 -0.3248  0.3367
 2266SOL    HW1 8086   1.970   1.890   6.120 -0.2985 -0.0919 -0.1369
 2266SOL    HW2 8087   1.925   1.752   6.161 -0.3698 -0.3468 -1.0372
 2267SOL     OW 8088   2.479   0.723   2.740  0.4417 -0.2088  0.1752
 2267SOL    HW1 8089   2.423   0.645   2.738  1.1258 -0.7050  0.0736
 2267SOL    HW2 8090   2.438   0.780   2.805 -1.0145  0.0852 -0.9376
 2268SOL     OW 8091   2.330   2.316   5.476  0.1164 -0.1017  0.7741
 2268SOL    HW1 8092   2.325   2.221   5.463 -0.2333  0.1479 -1.2647
 2268SOL    HW2 8093   2.364   2.349   5.393  2.7082  1.3687  2.2907
 2269SOL     OW 8094   5.355   7.469   1.751  0.1359 -0.3947 -0.2107
 2269SOL    HW1 8095   5.321   7.550   1.713  1.5891 -0.4775 -1.8279
 2269SOL    HW2 8096   5.367   7.490   1.844 -0.4555  0.9161 -0.3988
 2270SOL     OW 8097   4.809   2.242   5.503 -0.0343  0.5052 -0.0180
 2270SOL    HW1 8098   4.882   2.190   5.469 -1.0373  0.4157 -2.1701
 2270SOL    HW2 8099   4.793   2.206   5.590  1.2326 -0.7813 -0.2773
 2271SOL     OW 8100   1.867   3.079   8.558 -0.1412 -0.3544  0.1358
 2271SOL    HW1 8101   1.810   3.156   8.555  0.5283  0.1274 -0.7095
 2271SOL    HW2 8102   1.882   3.064   8.652 -2.0900 -0.8530  0.4330
 2272SOL     OW 8103   0.044   1.036   0.191  0.4805 -0.1491 -0.3410
 2272SOL    HW1 8104  -0.023   0.968   0.198 -0.3897  0.8808  2.9313
 2272SOL    HW2 8105   0.001   1.105   0.140 -0.1634 -0.3643 -0.1020
 2273SOL     OW 8106   8.680   0.456   1.674  0.2110 -0.3756 -0.2977
 2273SOL    HW1 8107   8.590   0.469   1.645  0.8322  0.7551 -1.8995
 2273SOL    HW2 8108   8.716   0.393   1.612  0.1165 -2.0901  1.3076
 2274SOL     OW 8109   4.880   6.447   1.466 -0.3346  0.0932 -0.1658
 2274SOL    HW1 8110   4.881   6.542   1.461  0.4393  0.1206  0.3754
 2274SOL    HW2 8111   4.834   6.428   1.548  1.4273  0.0752  0.8639
 2275SOL     OW 8112   7.440   5.169   0.319  0.1709  0.4760 -0.1133
 2275SOL    HW1 8113   7.398   5.171   0.405  1.4971 -0.0521  0.5730
 2275SOL    HW2 8114   7.502   5.096   0.324  0.8195  0.9218 -1.2462
 2276SOL     OW 8115   5.862   3.633   3.059  0.4532  0.4720 -0.1964
 2276SOL    HW1 8116   5.849   3.559   3.118 -1.0255 -0.0826 -1.1549
 2276SOL    HW2 8117   5.865   3.710   3.116 -0.2883 -0.1146  0.6468
 2277SOL     OW 8118   6.427   5.117   3.943 -0.1417 -0.5752 -0.0069
 2277SOL    HW1 8119   6.355   5.076   3.896 -0.4558 -0.3930  0.3062
 2277SOL    HW2 8120   6.472   5.045   3.987  0.1208 -0.7388 -0.5398
 2278SOL     OW 8121   6.559   1.403   4.207  0.2043  0.4110 -0.0512
 2278SOL    HW1 8122   6.640   1.387   4.159  1.5253 -1.5819  2.5959
 2278SOL    HW2 8123   6.559   1.497   4.224  1.6445  0.5313 -0.5822
 2279SOL     OW 8124   6.241   3.528   6.524 -0.3562 -0.4227  0.2025
 2279SOL    HW1 8125   6.271   3.580   6.449  0.6948  1.2766  1.7139
 2279SOL    HW2 8126   6.162   3.572   6.554  1.4757  1.5307  2.5523
 2280SOL     OW 8127   1.628   1.918   4.106 -0.5402 -0.0224 -0.6587
 2280SOL    HW1 8128   1.542   1.953   4.083 -0.8230  0.4459  0.9801
 2280SOL    HW2 8129   1.675   1.913   4.023 -1.6282  1.1407 -1.3733
 2281SOL     OW 8130   5.546   5.286   3.346  0.3162  0.5100 -0.1441
 2281SOL    HW1 8131   5.596   5.361   3.380 -0.2143 -0.1326  2.2976
 2281SOL    HW2 8132   5.591   5.260   3.266  2.1154  1.7573  0.4139
 2282SOL     OW 8133   3.265   8.531   2.672 -0.8450  0.8965 -0.3196
 2282SOL    HW1 8134   3.325   8.551   2.745  0.6974  1.5388 -1.6922
 2282SOL    HW2 8135   3.237   8.441   2.688  1.7204  0.0069 -0.3973
 2283SOL     OW 8136   6.288   8.700   7.678  0.1365 -0.1107 -0.2394
 2283SOL    HW1 8137   6.219   8.731   7.737  0.0191  1.1866 -1.0236
 2283SOL    HW2 8138   6.363   8.755   7.698  0.7673 -1.0897  0.1581
 2284SOL     OW 8139   7.504   2.894   8.262  0.0174 -0.0685 -0.4284
 2284SOL    HW1 8140   7.524   2.879   8.354 -0.1303 -1.2905 -0.5769
 2284SOL    HW2 8141   7.577   2.855   8.214  0.6376  1.5109 -0.8311
 2285SOL     OW 8142   4.935   6.397   7.090 -0.2781  0.3101 -0.1998
 2285SOL    HW1 8143   4.870   6.449   7.044 -0.7536 -0.1269 -0.0381
 2285SOL    HW2 8144   4.891   6.368   7.170 -0.2157 -0.7865 -0.5473
 2286SOL     OW 8145   3.134   0.577   1.657 -0.0659 -0.4945  0.5070
 2286SOL    HW1 8146   3.130   0.485   1.683  1.5003 -1.4658 -2.2588
 2286SOL    HW2 8147   3.104   0.578   1.566 -0.5189  1.8294  0.6210
 2287SOL     OW 8148   0.638   3.784   1.331 -0.0819 -0.4879  0.1257
 2287SOL    HW1 8149   0.697   3.835   1.387  1.1316 -1.8173  0.1249
 2287SOL    HW2 8150   0.632   3.699   1.374  0.2275 -1.2719 -1.3295
 2288SOL     OW 8151   8.589   1.200   1.729 -0.4523 -0.4992 -0.1067
 2288SOL    HW1 8152   8.501   1.210   1.695 -1.1197 -0.8225  1.4573
 2288SOL    HW2 8153   8.591   1.253   1.809  1.2480  0.7420 -0.8919
 2289SOL     OW 8154   2.705   5.492   2.514  0.4517 -0.1631 -0.1667
 2289SOL    HW1 8155   2.632   5.447   2.556  0.8956  0.0466  0.8656
 2289SOL    HW2 8156   2.664   5.559   2.459 -0.1257  0.0308  0.4913
 2290SOL     OW 8157   6.269   5.103   1.306  0.1143  0.1484 -0.4668
 2290SOL    HW1 8158   6.216   5.168   1.352  1.4063  1.3979 -0.6628
 2290SOL    HW2 8159   6.219   5.084   1.226 -0.5474  0.4672 -0.1391
 2291SOL     OW 8160   2.771   8.111   7.045 -0.0198  0.3047  0.0258
 2291SOL    HW1 8161   2.782   8.146   6.956 -0.2155  1.0581  0.2854
 2291SOL    HW2 8162   2.856   8.124   7.087  0.0965 -0.1252 -0.0747
 2292SOL     OW 8163   2.660   4.817   1.776 -0.1939 -0.2453  0.1355
 2292SOL    HW1 8164   2.609   4.761   1.835 -2.0696 -0.5699 -1.6971
 2292SOL    HW2 8165   2.610   4.898   1.770  0.7343  0.3453  0.0702
 2293SOL     OW 8166   7.983   2.171   8.044 -0.1716  0.1937  0.4740
 2293SOL    HW1 8167   7.900   2.211   8.016 -0.1666  0.2255  0.5059
 2293SOL    HW2 8168   8.036   2.244   8.074 -0.0990  0.1835  0.3704
 2294SOL     OW 8169   4.814   3.849   0.374 -0.3146  0.0844 -0.1160
 2294SOL    HW1 8170   4.890   3.906   0.382 -0.4664  0.3570 -0.5523
 2294SOL    HW2 8171   4.832   3.796   0.296 -0.0708 -0.6314  0.4122
 2295SOL     OW 8172   5.238   0.508   1.317  0.1211 -0.1510 -0.0536
 2295SOL    HW1 8173   5.220   0.426   1.362  0.3861  0.5728  1.4360
 2295SOL    HW2 8174   5.151   0.542   1.294 -0.0609 -0.1497  0.6238
 2296SOL     OW 8175   4.627   1.403   8.559  0.3654  0.1685  0.6309
 2296SOL    HW1 8176   4.722   1.409   8.566  0.2334  2.7657  1.2929
 2296SOL    HW2 8177   4.595   1.425   8.647 -0.8630 -0.6809  0.4233
 2297SOL     OW 8178   7.300   1.894   8.154 -0.1985 -0.0799 -0.4982
 2297SOL    HW1 8179   7.265   1.897   8.243  0.9895  2.3841 -0.0340
 2297SOL    HW2 8180   7.225   1.916   8.099 -0.7363 -0.7559 -0.0566
 2298SOL     OW 8181   7.163   2.368   0.391 -0.1459  0.1265 -0.4401
 2298SOL    HW1 8182   7.073   2.343   0.373 -0.0459  0.2401 -1.1493
 2298SOL    HW2 8183   7.175   2.451   0.343  0.4178 -0.0472 -0.6096
 2299SOL     OW 8184   8.051   5.041   3.532  0.1560 -0.0333 -0.1014
 2299SOL    HW1 8185   7.966   4.998   3.532  0.2058 -0.2300  1.9061
 2299SOL    HW2 8186   8.054   5.089   3.615  1.4033  1.2099 -0.8240
 2300SOL     OW 8187   4.506   6.570   7.217 -0.4148  0.1162 -0.5436
 2300SOL    HW1 8188   4.472   6.629   7.283 -0.9846  0.2544 -0.9530
 2300SOL    HW2 8189   4.553   6.503   7.267  1.4165  1.6157 -0.1324
 2301SOL     OW 8190   1.885   1.614   3.774  0.1432  0.5679 -0.0980
 2301SOL    HW1 8191   1.929   1.576   3.698 -0.3095 -1.5324  0.6164
 2301SOL    HW2 8192   1.946   1.598   3.847 -0.6346  0.0137  0.4464
 2302SOL     OW 8193   8.017   5.726   8.317 -0.0337  0.1817 -0.0172
 2302SOL    HW1 8194   8.064   5.796   8.364 -1.8522  0.6217  1.2639
 2302SOL    HW2 8195   7.994   5.765   8.233  1.0295  0.2817 -0.2770
 2303SOL     OW 8196   4.659   5.463   6.946  0.4011 -0.4968  0.1096
 2303SOL    HW1 8197   4.634   5.416   6.866  1.9821 -0.4962 -0.4080
 2303SOL    HW2 8198   4.682   5.394   7.008 -2.1977 -0.5702  1.1131
 2304SOL     OW 8199   7.091   1.664   3.024 -0.3032  0.5533 -0.0292
 2304SOL    HW1 8200   7.015   1.643   3.078 -0.5146  0.9074 -0.1866
 2304SOL    HW2 8201   7.161   1.680   3.088 -0.3167  0.0650  0.1099
 2305SOL     OW 8202   2.869   7.419   5.752 -0.0240  0.2268 -0.2978
 2305SOL    HW1 8203   2.789   7.454   5.790 -1.0145 -1.2945 -0.9020
 2305SOL    HW2 8204   2.845   7.397   5.662  0.5773 -1.7150 -0.0412
 2306SOL     OW 8205   7.231   8.433   3.457  0.2613  0.3176  0.6335
 2306SOL    HW1 8206   7.150   8.386   3.434  1.2817 -1.2543  0.0788
 2306SOL    HW2 8207   7.298   8.392   3.402  1.6740  0.7061  2.0153
 2307SOL     OW 8208   6.603   3.841   0.123  0.2705 -0.6410  0.1810
 2307SOL    HW1 8209   6.538   3.847   0.193 -2.1708  0.2717 -2.0268
 2307SOL    HW2 8210   6.592   3.753   0.087  0.1489 -0.4215 -0.3173
 2308SOL     OW 8211   2.570   3.196   0.385  0.0863  0.2078  0.0656
 2308SOL    HW1 8212   2.487   3.233   0.413 -0.5679 -1.0012 -0.2073
 2308SOL    HW2 8213   2.631   3.270   0.387 -0.6418  0.8038  1.6552
 2309SOL     OW 8214   8.504   6.205   7.635 -0.5501  0.5945 -0.0754
 2309SOL    HW1 8215   8.477   6.281   7.687  0.1660  0.6620  0.2149
 2309SOL    HW2 8216   8.489   6.130   7.693  0.4269  0.6868  0.3196
 2310SOL     OW 8217   5.570   4.554   1.788 -0.0599  0.1066  0.3744
 2310SOL    HW1 8218   5.641   4.517   1.735 -0.3534 -0.5014  0.4026
 2310SOL    HW2 8219   5.607   4.635   1.823  0.8443 -0.5078  0.8902
 2311SOL     OW 8220   5.613   8.421   2.250  0.2029 -0.1190  0.2975
 2311SOL    HW1 8221   5.665   8.361   2.196 -2.1237 -1.4452 -0.6531
 2311SOL    HW2 8222   5.528   8.425   2.205 -1.5677 -0.5311  3.3416
 2312SOL     OW 8223   1.429   8.667   3.853  0.2603  0.8387  0.2265
 2312SOL    HW1 8224   1.418   8.700   3.764  1.3075 -0.0745 -0.2648
 2312SOL    HW2 8225   1.457   8.743   3.904 -0.0890  1.3122 -0.2760
 2313SOL     OW 8226   7.415   7.790   4.635  0.0449 -0.1282  0.3463
 2313SOL    HW1 8227   7.364   7.733   4.578 -1.1766 -0.8009  2.0135
 2313SOL    HW2 8228   7.350   7.835   4.689  1.0823  1.4519  0.3453
 2314SOL     OW 8229   1.500   6.333   5.485 -0.1623  0.1814  0.6138
 2314SOL    HW1 8230   1.478   6.334   5.578 -0.4947  1.2051  0.5457
 2314SOL    HW2 8231   1.416   6.348   5.441  0.0518  0.0718  0.1703
 2315SOL     OW 8232   5.411   8.596   7.856 -0.2153  0.0499 -0.5511
 2315SOL    HW1 8233   5.491   8.548   7.877 -1.2633 -1.2178  0.7214
 2315SOL    HW2 8234   5.355   8.531   7.813 -1.3684  0.3086  0.5086
 2316SOL     OW 8235   3.731   1.751   1.857  0.0326 -0.1980 -0.5985
 2316SOL    HW1 8236   3.815   1.780   1.822  0.7916  1.4985  2.2455
 2316SOL    HW2 8237   3.749   1.665   1.894 -0.2800 -1.1057 -2.4317
 2317SOL     OW 8238   4.219   2.846   2.913  0.3359  0.2027 -0.1545
 2317SOL    HW1 8239   4.149   2.782   2.926  2.5053 -2.1276  0.9605
 2317SOL    HW2 8240   4.189   2.924   2.959 -1.3319 -0.8435  0.6421
 2318SOL     OW 8241   3.636   3.156   3.041 -0.0327  0.3615  0.4147
 2318SOL    HW1 8242   3.587   3.107   3.106 -0.8635  1.7768  0.9050
 2318SOL    HW2 8243   3.614   3.248   3.058  1.2113  0.8993 -0.6548
 2319SOL     OW 8244   2.115   7.428   7.615 -0.2027 -0.5250 -0.0914
 2319SOL    HW1 8245   2.158   7.511   7.637 -0.7274 -0.4003  0.5049
 2319SOL    HW2 8246   2.021   7.448   7.624 -0.4557 -0.4927 -2.3751
 2320SOL     OW 8247   4.483   1.098   5.181 -0.4812 -0.7240  0.2539
 2320SOL    HW1 8248   4.489   1.101   5.277  0.7699 -0.3645  0.1754
 2320SOL    HW2 8249   4.474   1.005   5.161  2.2371 -1.1548  0.6152
 2321SOL     OW 8250   7.874   4.485   1.016  0.7102  0.1806 -0.7357
 2321SOL    HW1 8251   7.787   4.512   0.987 -0.0333 -0.8078  0.4591
 2321SOL    HW2 8252   7.929   4.562   1.001 -0.8493  1.6358  0.5335
 2322SOL     OW 8253   5.256   5.370   4.233  0.1956  0.0274 -0.1506
 2322SOL    HW1 8254   5.227   5.311   4.303  0.2394  0.8518  0.5955
 2322SOL    HW2 8255   5.241   5.322   4.152 -1.5307 -0.2821  0.3222
 2323SOL     OW 8256   6.359   8.474   4.694  0.1421  0.1902 -0.1699
 2323SOL    HW1 8257   6.421   8.491   4.624 -0.0889 -1.1889 -0.7485
 2323SOL    HW2 8258   6.378   8.540   4.760  0.7750  1.1280 -1.2585
 2324SOL     OW 8259   2.092   1.261   8.658 -0.5214  0.4365  0.1365
 2324SOL    HW1 8260   2.115   1.311   8.736 -1.8514  1.9913 -0.4220
 2324SOL    HW2 8261   2.056   1.179   8.692  2.3429 -0.5751  1.0601
 2325SOL     OW 8262   3.342   0.009   3.926  0.1589 -0.4517 -0.2805
 2325SOL    HW1 8263   3.391  -0.003   4.008  1.7050  0.1504 -1.0671
 2325SOL    HW2 8264   3.318  -0.079   3.900 -0.6778 -0.6296  0.9899
 2326SOL     OW 8265   6.634   2.730   0.576  0.5485  0.4342  0.1412
 2326SOL    HW1 8266   6.684   2.664   0.625 -0.7912  0.8826  2.2383
 2326SOL    HW2 8267   6.555   2.685   0.548  0.7894  0.4922 -0.6545
 2327SOL     OW 8268   7.822   5.446   3.278 -0.2562 -0.7801  0.0919
 2327SOL    HW1 8269   7.863   5.439   3.365 -0.1991 -1.0221  0.0449
 2327SOL    HW2 8270   7.731   5.422   3.293 -0.1177 -1.3878 -0.0216
 2328SOL     OW 8271   1.720   7.882   3.556  1.2936 -0.4119 -0.7722
 2328SOL    HW1 8272   1.673   7.913   3.479  0.3739  0.1108 -0.0269
 2328SOL    HW2 8273   1.652   7.861   3.619  2.0409  0.0146  0.2126
 2329SOL     OW 8274   8.086   4.732   5.155  1.0818 -0.2899 -0.2648
 2329SOL    HW1 8275   8.059   4.670   5.088  1.5718  0.9405 -1.6578
 2329SOL    HW2 8276   8.007   4.782   5.175  1.2457  0.3118 -1.0384
 2330SOL     OW 8277   5.433   0.883   6.868 -0.2118  0.2675 -0.0888
 2330SOL    HW1 8278   5.347   0.915   6.841 -0.0864  0.4911 -0.2295
 2330SOL    HW2 8279   5.431   0.887   6.964  0.0135  1.2973 -0.1111
 2331SOL     OW 8280   8.381   4.253   5.568  0.0427  0.2159 -0.0098
 2331SOL    HW1 8281   8.316   4.285   5.505  2.2744  0.5170 -2.3309
 2331SOL    HW2 8282   8.440   4.328   5.581 -0.4112  0.1895  2.6029
 2332SOL     OW 8283   0.684   2.738   5.717  0.8362 -0.1893  0.5439
 2332SOL    HW1 8284   0.676   2.683   5.638  2.3571  0.3268 -0.0098
 2332SOL    HW2 8285   0.674   2.677   5.790 -0.7967 -0.6496 -0.0095
 2333SOL     OW 8286   4.964   1.993   5.043 -0.5854  0.0709  0.7839
 2333SOL    HW1 8287   5.031   1.946   5.092 -0.5182 -0.3529  0.2864
 2333SOL    HW2 8288   4.999   2.082   5.035  1.1182 -0.7407 -1.6412
 2334SOL     OW 8289   3.413   5.477   2.814  0.5625  0.4568 -0.0371
 2334SOL    HW1 8290   3.335   5.427   2.787  0.8343  1.2164 -2.5219
 2334SOL    HW2 8291   3.487   5.421   2.789  0.9763 -1.0084  3.8073
 2335SOL     OW 8292   5.148   2.449   1.882  0.1802 -0.7045  0.1281
 2335SOL    HW1 8293   5.169   2.516   1.946  1.1722 -1.3650  0.5141
 2335SOL    HW2 8294   5.089   2.493   1.820 -0.5301  0.0352  1.2767
 2336SOL     OW 8295   6.507   3.504   5.311 -0.5778  0.1420  0.1707
 2336SOL    HW1 8296   6.451   3.474   5.383  0.4920  0.9612  1.3852
 2336SOL    HW2 8297   6.590   3.526   5.353  0.4085 -0.2760 -1.4699
 2337SOL     OW 8298   6.096   6.990   1.062  0.7563  0.2955  0.3169
 2337SOL    HW1 8299   6.172   6.962   1.012  2.3458  2.8768  1.1039
 2337SOL    HW2 8300   6.123   7.071   1.104 -2.7708  1.9151 -0.1681
 2338SOL     OW 8301   7.534   4.744   8.503 -0.2356 -0.2042  0.3661
 2338SOL    HW1 8302   7.611   4.758   8.559  0.2861 -0.7334 -0.2036
 2338SOL    HW2 8303   7.553   4.663   8.457 -1.1213 -0.3095  0.1750
 2339SOL     OW 8304   6.170   2.677   0.761  0.4670 -0.6649 -0.0107
 2339SOL    HW1 8305   6.232   2.630   0.817 -0.0458 -0.5229  0.6890
 2339SOL    HW2 8306   6.176   2.632   0.676  0.8077 -1.2729  0.3242
 2340SOL     OW 8307   5.777   0.615   6.277  0.8794  0.1273  0.3826
 2340SOL    HW1 8308   5.709   0.550   6.289  0.4277  0.6393  0.6462
 2340SOL    HW2 8309   5.852   0.566   6.244  0.0584 -0.2905 -0.9319
 2341SOL     OW 8310   4.475   7.212   2.130 -0.0898 -0.1799 -0.3292
 2341SOL    HW1 8311   4.480   7.254   2.044  0.5765 -1.7165 -1.0801
 2341SOL    HW2 8312   4.562   7.224   2.168 -0.3194  0.3109  0.0578
 2342SOL     OW 8313   0.863   5.148   8.605 -0.0261 -0.3695  0.2205
 2342SOL    HW1 8314   0.783   5.196   8.582  0.8489  0.0191 -2.4006
 2342SOL    HW2 8315   0.882   5.175   8.695 -1.8177  0.9563  0.2727
 2343SOL     OW 8316   6.509   6.042   7.203  0.0139  1.0054 -0.4544
 2343SOL    HW1 8317   6.515   5.953   7.238  0.6467  1.5032  0.7583
 2343SOL    HW2 8318   6.575   6.045   7.134 -0.5829  0.3018 -1.0813
 2344SOL     OW 8319   1.630   0.365   0.236  0.3707 -0.1695 -0.1551
 2344SOL    HW1 8320   1.696   0.310   0.193 -0.9700 -0.8330 -1.4434
 2344SOL    HW2 8321   1.673   0.450   0.247  2.1686 -1.1696  1.0360
 2345SOL     OW 8322   4.501   1.130   7.889 -0.0398  0.5481 -0.0572
 2345SOL    HW1 8323   4.460   1.138   7.976 -0.1439  0.4507 -0.0966
 2345SOL    HW2 8324   4.595   1.135   7.906 -0.0578  0.4760  0.0687
 2346SOL     OW 8325   1.661   0.120   1.778 -0.6252 -0.5371 -0.3966
 2346SOL    HW1 8326   1.588   0.113   1.716  0.1153  0.3216 -1.4040
 2346SOL    HW2 8327   1.633   0.184   1.842 -1.0256 -0.7263 -0.3804
 2347SOL     OW 8328   2.584   5.748   4.179  0.3031 -0.2286  0.1194
 2347SOL    HW1 8329   2.495   5.777   4.202 -0.1366 -0.3178 -1.3588
 2347SOL    HW2 8330   2.638   5.826   4.190 -0.2162  0.2011 -0.3262
 2348SOL     OW 8331   3.767   5.049   0.501 -0.1934 -0.3378  0.5976
 2348SOL    HW1 8332   3.780   5.143   0.487 -0.7850 -0.3472 -0.0673
 2348SOL    HW2 8333   3.734   5.043   0.591  0.7959 -0.0015  0.9936
 2349SOL     OW 8334   5.462   0.934   7.406  0.3121 -0.2295  0.7030
 2349SOL    HW1 8335   5.486   0.843   7.393 -0.8949 -0.5071  0.2583
 2349SOL    HW2 8336   5.526   0.968   7.469  0.6557 -1.4191  1.0085
 2350SOL     OW 8337   5.915   8.469   8.497 -0.3603 -0.0081  0.4505
 2350SOL    HW1 8338   5.835   8.417   8.500 -1.1746  1.2510  2.0974
 2350SOL    HW2 8339   5.935   8.488   8.589  0.4631  1.7450 -0.0569
 2351SOL     OW 8340   1.992   0.858   1.261 -0.1760 -0.2630 -0.0270
 2351SOL    HW1 8341   1.943   0.846   1.180 -1.1495 -0.6194  0.5940
 2351SOL    HW2 8342   2.026   0.771   1.282 -2.4155 -0.8809  1.4590
 2352SOL     OW 8343   1.480   1.076   3.295 -0.3225 -0.2890  0.5078
 2352SOL    HW1 8344   1.487   1.139   3.367  0.5277 -1.2541  1.3014
 2352SOL    HW2 8345   1.455   0.994   3.337 -1.0077 -0.5935 -0.4630
 2353SOL     OW 8346   7.562   3.359   2.503 -0.3062  0.1353  0.2024
 2353SOL    HW1 8347   7.617   3.292   2.543  0.0015  0.1475 -0.1971
 2353SOL    HW2 8348   7.569   3.435   2.561 -1.3294 -0.4424  1.1236
 2354SOL     OW 8349   0.090   6.064   6.343 -0.3478 -0.0592  0.1340
 2354SOL    HW1 8350   0.042   6.035   6.421  0.3896 -2.1105 -0.1149
 2354SOL    HW2 8351   0.024   6.103   6.287 -1.0361  0.6858  1.4129
 2355SOL     OW 8352   1.272   3.645   1.436  0.4674 -0.8179 -0.0786
 2355SOL    HW1 8353   1.235   3.567   1.395 -0.8984  0.2713 -1.0322
 2355SOL    HW2 8354   1.248   3.717   1.377 -1.0753  0.7684  2.2818
 2356SOL     OW 8355   8.531   4.273   6.084 -0.0410  0.0249 -0.2678
 2356SOL    HW1 8356   8.446   4.247   6.048  0.2386  1.1958 -1.8391
 2356SOL    HW2 8357   8.594   4.248   6.018  0.6983  0.4996  0.2445
 2357SOL     OW 8358   0.430   1.762   5.321  0.3376 -0.6989  0.1334
 2357SOL    HW1 8359   0.459   1.682   5.366 -0.0721 -1.0020 -0.1361
 2357SOL    HW2 8360   0.464   1.833   5.375  1.8333 -1.0340 -0.3274
 2358SOL     OW 8361   0.068   2.878   6.087  0.4482  0.6071 -0.2460
 2358SOL    HW1 8362   0.135   2.946   6.088  2.0698 -0.8881  1.4937
 2358SOL    HW2 8363   0.029   2.884   6.000  3.0664  1.3565 -1.4795
 2359SOL     OW 8364   3.801   2.420   4.223 -0.0950 -0.4212 -0.3775
 2359SOL    HW1 8365   3.805   2.506   4.183  1.5003 -0.9266 -1.4076
 2359SOL    HW2 8366   3.732   2.427   4.289 -1.6560  0.9305 -2.0650
 2360SOL     OW 8367   6.763   4.830   2.917 -0.0766 -0.4213 -0.0988
 2360SOL    HW1 8368   6.855   4.808   2.908 -0.1005  0.1826 -2.4255
 2360SOL    HW2 8369   6.723   4.798   2.836 -1.7760 -0.0361  0.5479
 2361SOL     OW 8370   2.397   0.960   1.414  0.0913 -0.1220 -0.1916
 2361SOL    HW1 8371   2.474   0.996   1.370  0.1378  0.6355  0.4808
 2361SOL    HW2 8372   2.394   1.005   1.498 -0.7966 -0.5153  0.0045
 2362SOL     OW 8373   1.640   4.416   7.490 -0.4876 -0.1022 -0.3307
 2362SOL    HW1 8374   1.692   4.339   7.469  0.9110  0.8061 -0.3360
 2362SOL    HW2 8375   1.607   4.446   7.405 -0.3480 -0.2211 -0.4270
 2363SOL     OW 8376   2.695   5.514   5.291  0.1806  0.2222  0.2138
 2363SOL    HW1 8377   2.783   5.540   5.263  0.7365 -1.5480  0.2229
 2363SOL    HW2 8378   2.691   5.420   5.277 -3.0324  0.6388 -3.3244
 2364SOL     OW 8379   2.285   6.947   2.238 -0.2720 -0.2981  0.8230
 2364SOL    HW1 8380   2.302   7.005   2.312  1.1883 -0.2925  0.4972
 2364SOL    HW2 8381   2.371   6.929   2.200 -1.0266  0.2990 -1.3286
 2365SOL     OW 8382   8.289   1.083   6.049 -0.4715  0.1207 -0.0597
 2365SOL    HW1 8383   8.234   1.159   6.069 -2.4171 -0.9572 -1.1185
 2365SOL    HW2 8384   8.306   1.089   5.955  1.5097  0.5553  0.2667
 2366SOL     OW 8385   4.602   6.960   1.802  0.2683 -0.5952 -0.0395
 2366SOL    HW1 8386   4.506   6.958   1.790  0.3797 -2.5596 -1.3005
 2366SOL    HW2 8387   4.633   7.019   1.734 -0.0103 -0.6436 -0.2127
 2367SOL     OW 8388   0.771   4.776   2.839  0.0859  0.5176  0.2365
 2367SOL    HW1 8389   0.816   4.800   2.758 -0.2418  3.1088  0.7285
 2367SOL    HW2 8390   0.779   4.854   2.895 -0.8585 -0.7004  2.1786
 2368SOL     OW 8391   4.320   4.353   3.820 -0.2249 -0.4950  0.1081
 2368SOL    HW1 8392   4.397   4.410   3.820  0.1920 -1.0532 -0.6045
 2368SOL    HW2 8393   4.354   4.266   3.839 -1.0664 -0.2945  2.9424
 2369SOL     OW 8394   1.075   1.468   0.175  0.0867 -0.0319 -0.1785
 2369SOL    HW1 8395   1.163   1.495   0.203 -0.2114 -0.3075  1.0934
 2369SOL    HW2 8396   1.062   1.511   0.090  1.3393  0.2311 -0.2579
 2370SOL     OW 8397   6.273   2.274   4.144  0.0019 -0.2336  0.2307
 2370SOL    HW1 8398   6.369   2.270   4.146 -0.0382 -1.9861  0.1442
 2370SOL    HW2 8399   6.247   2.198   4.091 -1.3952  1.3689 -1.5420
 2371SOL     OW 8400   7.748   5.182   3.027  0.2755 -0.1566  0.2928
 2371SOL    HW1 8401   7.771   5.119   3.096  1.1635 -0.0591  0.0858
 2371SOL    HW2 8402   7.774   5.139   2.946  0.5102  0.3113  0.1205
 2372SOL     OW 8403   1.772   0.496   7.998  0.5823 -0.6332  0.3006
 2372SOL    HW1 8404   1.736   0.420   8.044  1.2084 -1.1807 -0.0910
 2372SOL    HW2 8405   1.774   0.469   7.906  0.0950  0.1528  0.0562
 2373SOL     OW 8406   6.901   8.564   2.802 -0.3169  0.2272  0.7281
 2373SOL    HW1 8407   6.962   8.616   2.750 -0.5960 -0.0213  0.1418
 2373SOL    HW2 8408   6.881   8.488   2.747  1.4001 -1.4032  2.2388
 2374SOL     OW 8409   7.270   4.939   7.677  0.1648 -0.0111  0.2577
 2374SOL    HW1 8410   7.243   5.027   7.706  0.6227  1.5445 -3.4901
 2374SOL    HW2 8411   7.188   4.889   7.675 -0.8968  1.6636 -1.5077
 2375SOL     OW 8412   6.766   2.243   5.758 -0.3019  0.6879  0.1393
 2375SOL    HW1 8413   6.727   2.281   5.837  0.1036  2.4445 -0.4588
 2375SOL    HW2 8414   6.846   2.293   5.744  0.3383 -0.4976 -0.6504
 2376SOL     OW 8415   7.864   6.201   7.918 -0.2912  0.4788  0.5768
 2376SOL    HW1 8416   7.770   6.200   7.934 -0.4029 -1.7372  0.0393
 2376SOL    HW2 8417   7.898   6.126   7.967  0.9996  0.4766 -0.2710
 2377SOL     OW 8418   5.769   8.373   6.144  0.3446  0.1531 -0.2991
 2377SOL    HW1 8419   5.695   8.378   6.205  0.3331  0.6428 -0.3500
 2377SOL    HW2 8420   5.773   8.460   6.105  0.2455 -0.2001 -1.1195
 2378SOL     OW 8421   0.103   6.217   5.075  0.0287  0.3354 -0.0510
 2378SOL    HW1 8422   0.011   6.222   5.049 -0.3941  0.9163  1.4321
 2378SOL    HW2 8423   0.100   6.186   5.165  1.4053 -1.5269 -0.5898
 2379SOL     OW 8424   6.389   4.966   6.311 -0.6179 -0.3529 -0.5974
 2379SOL    HW1 8425   6.472   5.001   6.343 -0.9994 -1.5886  1.9954
 2379SOL    HW2 8426   6.322   5.010   6.364 -1.3717 -1.7801 -0.3085
 2380SOL     OW 8427   2.001   1.875   1.879  0.1655 -0.4124  0.4578
 2380SOL    HW1 8428   2.001   1.795   1.826  0.5808 -1.7927  2.4144
 2380SOL    HW2 8429   1.930   1.927   1.843  0.0721 -1.5103 -1.0841
 2381SOL     OW 8430   6.642   2.515   5.948 -0.2521 -0.1543  0.4891
 2381SOL    HW1 8431   6.601   2.480   5.869 -0.4791 -0.1913  0.6225
 2381SOL    HW2 8432   6.692   2.590   5.917 -1.9540  1.0791  0.5800
 2382SOL     OW 8433   8.477   3.343   1.943  0.1043 -0.4131 -0.3071
 2382SOL    HW1 8434   8.411   3.290   1.987  0.5919 -1.6308 -1.0174
 2382SOL    HW2 8435   8.498   3.412   2.007 -1.7096 -0.0898 -0.0018
 2383SOL     OW 8436   4.291   7.523   1.209 -0.0597 -0.3036  0.2182
 2383SOL    HW1 8437   4.265   7.447   1.261  1.4553 -1.2070 -0.2770
 2383SOL    HW2 8438   4.371   7.555   1.250  0.6382 -0.4493 -0.9739
 2384SOL     OW 8439   1.416   0.240   6.749 -0.3196 -0.3066 -0.1553
 2384SOL    HW1 8440   1.485   0.277   6.694  1.2333  1.5597  2.7436
 2384SOL    HW2 8441   1.373   0.317   6.788 -2.4139 -1.5007  0.0274
 2385SOL     OW 8442   1.875   1.747   8.061 -0.7613 -0.6704  0.7043
 2385SOL    HW1 8443   1.923   1.767   7.980 -0.9498 -1.3108  0.4236
 2385SOL    HW2 8444   1.827   1.667   8.040 -0.9714 -0.7253  1.3901
 2386SOL     OW 8445   7.552   3.485   5.540  0.0339  0.4395  0.4266
 2386SOL    HW1 8446   7.572   3.530   5.622  0.9186 -0.9711  1.0230
 2386SOL    HW2 8447   7.635   3.447   5.513 -0.4051  0.2867 -0.7666
 2387SOL     OW 8448   5.173   6.012   6.495  0.0339  0.4029  0.8672
 2387SOL    HW1 8449   5.091   6.060   6.510  0.1139  1.1204 -0.7642
 2387SOL    HW2 8450   5.242   6.073   6.523  0.0551  0.2416  1.1706
 2388SOL     OW 8451   2.779   8.484   6.449  0.0266  0.1636  0.2092
 2388SOL    HW1 8452   2.821   8.398   6.447 -0.0945  0.1218 -0.8258
 2388SOL    HW2 8453   2.687   8.465   6.469  0.1275  0.1146  0.6439
 2389SOL     OW 8454   8.711   2.307   4.496 -0.1425 -0.5284 -0.4498
 2389SOL    HW1 8455   8.650   2.269   4.558  1.2811 -0.2467  1.2050
 2389SOL    HW2 8456   8.735   2.392   4.534  1.1136 -0.5495 -1.1264
 2390SOL     OW 8457   7.468   1.606   2.281 -0.1520 -0.0780 -0.2331
 2390SOL    HW1 8458   7.395   1.633   2.335 -0.6062  1.8404 -1.6846
 2390SOL    HW2 8459   7.536   1.671   2.297 -0.5407  0.9611 -2.3623
 2391SOL     OW 8460   6.429   5.133   0.975  0.1105 -0.4045 -0.2442
 2391SOL    HW1 8461   6.432   5.076   1.052 -0.5879 -1.1331 -0.7519
 2391SOL    HW2 8462   6.437   5.221   1.011  2.1730 -0.8326  0.4891
 2392SOL     OW 8463   5.854   1.771   6.822  0.0297 -0.1920 -0.0360
 2392SOL    HW1 8464   5.760   1.757   6.806 -0.3467  0.3505  1.5403
 2392SOL    HW2 8465   5.865   1.866   6.818  0.5447 -0.2592 -0.3150
 2393SOL     OW 8466   2.432   7.333   5.177 -0.4733 -0.3399  0.0044
 2393SOL    HW1 8467   2.442   7.260   5.237  0.6657 -0.9561 -0.8789
 2393SOL    HW2 8468   2.385   7.296   5.102 -1.0584  0.1768  0.1115
 2394SOL     OW 8469   8.658   3.938   4.562  0.6483  0.1279 -0.0322
 2394SOL    HW1 8470   8.584   3.952   4.502  0.8949  0.0332 -0.3618
 2394SOL    HW2 8471   8.727   3.995   4.528  1.1984 -0.8464 -0.5664
 2395SOL     OW 8472   3.053   0.817   1.305 -0.1111 -0.1683  0.3221
 2395SOL    HW1 8473   3.038   0.806   1.399  0.6648  0.3107  0.5081
 2395SOL    HW2 8474   3.112   0.892   1.299 -0.5026  0.0810 -0.5779
 2396SOL     OW 8475   6.280   4.807   5.175  0.2615 -0.3242 -0.3751
 2396SOL    HW1 8476   6.291   4.813   5.080 -0.6738  0.9804 -0.4402
 2396SOL    HW2 8477   6.279   4.899   5.204 -0.5604 -0.6607  0.7434
 2397SOL     OW 8478   1.891   1.860   3.695 -0.0797  0.2319  0.1973
 2397SOL    HW1 8479   1.983   1.860   3.669  0.2368 -0.7202  1.2340
 2397SOL    HW2 8480   1.875   1.771   3.725 -1.3935  0.3421 -0.1181
 2398SOL     OW 8481   2.136   0.395   1.762  0.9389 -0.0394  0.2160
 2398SOL    HW1 8482   2.190   0.348   1.699 -0.7569 -0.3621 -1.0811
 2398SOL    HW2 8483   2.086   0.457   1.709  0.2738  0.4678  1.3952
 2399SOL     OW 8484   1.438   0.177   7.139  0.3443  0.2524 -0.0312
 2399SOL    HW1 8485   1.448   0.128   7.221 -1.8696  1.4176  1.0228
 2399SOL    HW2 8486   1.351   0.153   7.107  1.1202 -0.0864 -2.0180
 2400SOL     OW 8487   4.063   6.545   7.393  0.0079  0.0207 -0.3194
 2400SOL    HW1 8488   4.101   6.604   7.458 -0.4735  0.7971 -0.7256
 2400SOL    HW2 8489   3.990   6.504   7.438 -1.8732  2.3796 -1.0438
 2401SOL     OW 8490   5.695   5.696   8.712 -0.0340  0.1233  0.1360
 2401SOL    HW1 8491   5.744   5.767   8.670  1.3154 -1.0484 -0.3351
 2401SOL    HW2 8492   5.687   5.629   8.645 -0.2909 -0.6323  0.9052
 2402SOL     OW 8493   5.793   4.095   7.893 -0.7304 -0.5474 -0.4437
 2402SOL    HW1 8494   5.778   4.189   7.882 -3.1345 -0.5451  1.9323
 2402SOL    HW2 8495   5.850   4.089   7.969 -3.9543 -0.9733  2.1203
 2403SOL     OW 8496   4.435   2.385   3.755  0.1409  0.1678  0.5582
 2403SOL    HW1 8497   4.410   2.383   3.847  0.3163 -0.3438  0.6008
 2403SOL    HW2 8498   4.387   2.459   3.718  1.0008  1.1343  1.3271
 2404SOL     OW 8499   4.499   8.576   5.801  0.8576  0.3190  0.2174
 2404SOL    HW1 8500   4.464   8.505   5.856  1.6359  0.3234  0.7397
 2404SOL    HW2 8501   4.567   8.617   5.855  2.8825 -0.7593 -1.3465
 2405SOL     OW 8502   7.963   3.198   7.663  0.4765  0.1432  0.2769
 2405SOL    HW1 8503   7.883   3.164   7.704  0.0817  0.4624 -0.2158
 2405SOL    HW2 8504   7.957   3.293   7.678  0.8372  0.1505  0.3655
 2406SOL     OW 8505   7.201   8.600   7.071 -0.7781  0.4018  0.0545
 2406SOL    HW1 8506   7.120   8.647   7.050 -1.4753 -0.7615  0.0151
 2406SOL    HW2 8507   7.182   8.558   7.155 -0.0314  0.5073  0.2811
 2407SOL     OW 8508   7.059   8.135   4.661 -0.1167  0.2490  0.3833
 2407SOL    HW1 8509   7.082   8.051   4.620 -2.6702 -0.0498 -0.5682
 2407SOL    HW2 8510   7.093   8.201   4.601 -0.7009 -0.1604 -0.4191
 2408SOL     OW 8511   3.604   5.188   7.834 -0.0457 -0.1432 -0.5064
 2408SOL    HW1 8512   3.664   5.132   7.882  1.3316  1.9701  0.3689
 2408SOL    HW2 8513   3.547   5.226   7.901  1.5247  2.3964 -0.5010
 2409SOL     OW 8514   1.499   6.341   0.799  0.3695 -0.1666 -0.8573
 2409SOL    HW1 8515   1.434   6.282   0.762  1.0833 -1.1763 -0.5208
 2409SOL    HW2 8516   1.454   6.383   0.872  0.3572 -1.5373 -0.0497
 2410SOL     OW 8517   6.664   8.470   1.562  0.5607 -0.4366 -0.0955
 2410SOL    HW1 8518   6.570   8.475   1.542  0.1345 -0.4056  1.7341
 2410SOL    HW2 8519   6.690   8.383   1.531 -0.4572 -1.0723  0.7533
 2411SOL     OW 8520   1.966   7.918   1.679 -0.2148 -0.1309 -0.0189
 2411SOL    HW1 8521   1.883   7.910   1.727 -0.1594 -0.3019  0.0482
 2411SOL    HW2 8522   1.948   7.985   1.613 -0.7364 -0.9041 -0.6867
 2412SOL     OW 8523   7.571   4.898   2.993 -0.5747 -0.0213 -0.1977
 2412SOL    HW1 8524   7.556   4.808   3.022 -1.6902 -0.2188 -1.3022
 2412SOL    HW2 8525   7.551   4.897   2.900  0.3906  1.1667 -0.4434
 2413SOL     OW 8526   7.417   7.850   5.370 -0.1527  0.5627  0.4614
 2413SOL    HW1 8527   7.481   7.781   5.356 -1.1960 -0.2567 -0.4389
 2413SOL    HW2 8528   7.410   7.894   5.285 -0.7178  0.6887  0.5693
 2414SOL     OW 8529   5.984   6.523   6.427 -0.5230 -0.1306  0.2559
 2414SOL    HW1 8530   5.986   6.521   6.523 -0.1179  1.1668  0.2913
 2414SOL    HW2 8531   6.002   6.433   6.401 -1.4443 -0.6779  1.4006
 2415SOL     OW 8532   3.036   5.788   0.654 -0.2605  0.2363  0.1095
 2415SOL    HW1 8533   3.024   5.766   0.562  0.2967 -0.0136  0.0925
 2415SOL    HW2 8534   2.979   5.728   0.702 -2.1590  1.7263 -0.1627
 2416SOL     OW 8535   0.366   3.896   3.881  0.2450 -0.1224  0.4455
 2416SOL    HW1 8536   0.361   3.822   3.941  0.3345  0.2884  0.9724
 2416SOL    HW2 8537   0.410   3.965   3.932  1.1148 -0.0466 -0.3748
 2417SOL     OW 8538   6.616   5.855   1.726 -0.3369 -0.3528  0.3201
 2417SOL    HW1 8539   6.527   5.889   1.720  0.2185  1.2704  0.9609
 2417SOL    HW2 8540   6.607   5.774   1.777 -1.2306  0.6934  1.8964
 2418SOL     OW 8541   2.931   2.602   2.800  0.1546 -0.2086 -0.0934
 2418SOL    HW1 8542   2.866   2.641   2.860 -1.0337 -1.9513 -0.1713
 2418SOL    HW2 8543   2.998   2.566   2.858  1.9492  2.8700 -0.0417
 2419SOL     OW 8544   8.556   6.270   8.408  0.2137 -0.1168  0.2857
 2419SOL    HW1 8545   8.525   6.182   8.389 -0.0495 -0.3254  1.5902
 2419SOL    HW2 8546   8.569   6.310   8.322 -0.5803 -1.0982 -0.3136
 2420SOL     OW 8547   3.197   1.196   6.659 -0.0630 -0.5504  0.2729
 2420SOL    HW1 8548   3.268   1.141   6.693 -0.1603 -1.8756 -1.5429
 2420SOL    HW2 8549   3.241   1.261   6.604 -0.1714 -0.6743  0.0388
 2421SOL     OW 8550   5.518   2.365   8.245 -0.0207 -0.0260 -0.2929
 2421SOL    HW1 8551   5.436   2.401   8.278  0.2368  0.0931  0.2179
 2421SOL    HW2 8552   5.568   2.440   8.216  0.4345  0.0259  0.5910
 2422SOL     OW 8553   5.783   4.822   3.738 -0.2445 -0.1171  0.5737
 2422SOL    HW1 8554   5.707   4.860   3.695  0.0978  0.7224  0.6987
 2422SOL    HW2 8555   5.801   4.880   3.812 -0.0494 -0.8258  1.0990
 2423SOL     OW 8556   6.193   3.580   0.063  0.2578 -0.3566 -0.9397
 2423SOL    HW1 8557   6.230   3.652   0.012  0.6656  0.3935  0.3606
 2423SOL    HW2 8558   6.144   3.623   0.133  1.9860 -1.2945  0.9266
 2424SOL     OW 8559   2.623   4.024   2.427  0.3936 -0.5381  0.5743
 2424SOL    HW1 8560   2.679   4.056   2.356  1.3778  0.9487  1.9453
 2424SOL    HW2 8561   2.604   3.933   2.404  0.3311  0.0059 -1.7771
 2425SOL     OW 8562   1.429   5.050   2.785  0.9793 -0.2676  1.0215
 2425SOL    HW1 8563   1.453   5.141   2.765 -0.7040 -0.3738 -2.1939
 2425SOL    HW2 8564   1.335   5.045   2.765  0.5663 -2.2887  3.0480
 2426SOL     OW 8565   8.454   6.532   7.479 -0.4084 -0.2190  0.7192
 2426SOL    HW1 8566   8.425   6.449   7.441 -1.6290  0.3666  0.3150
 2426SOL    HW2 8567   8.452   6.517   7.574 -0.8966 -0.5616  0.6554
 2427SOL     OW 8568   3.766   0.502   3.887 -0.4571  0.5530 -0.1535
 2427SOL    HW1 8569   3.764   0.535   3.977 -0.1153  0.7504 -0.2163
 2427SOL    HW2 8570   3.723   0.417   3.892 -0.4554  0.5708  0.1956
 2428SOL     OW 8571   7.214   6.769   4.638 -0.2340  0.0109  0.2025
 2428SOL    HW1 8572   7.153   6.813   4.579  0.2279  1.5760  0.8404
 2428SOL    HW2 8573   7.223   6.829   4.712  1.1848 -0.7100  0.6480
 2429SOL     OW 8574   7.226   5.964   2.664  0.3960 -0.0836  0.4230
 2429SOL    HW1 8575   7.163   5.939   2.731 -0.5483  0.0800 -0.3934
 2429SOL    HW2 8576   7.268   6.043   2.699  0.4541 -0.4215  1.1462
 2430SOL     OW 8577   5.859   1.809   2.418 -0.0608 -0.6041  0.1870
 2430SOL    HW1 8578   5.792   1.772   2.476 -1.2601 -0.4672 -1.0650
 2430SOL    HW2 8579   5.940   1.804   2.469 -0.9869 -0.8854  1.7012
 2431SOL     OW 8580   5.540   8.639   2.389 -0.1378  0.1409 -0.1374
 2431SOL    HW1 8581   5.456   8.651   2.347 -0.0648  0.4992 -0.1812
 2431SOL    HW2 8582   5.565   8.548   2.369 -0.4544  0.0728 -0.2210
 2432SOL     OW 8583   1.752   2.946   7.413 -0.1687 -0.2165 -0.9375
 2432SOL    HW1 8584   1.799   2.936   7.496 -1.2311  0.5523 -0.2073
 2432SOL    HW2 8585   1.789   3.026   7.375 -0.0262 -0.2891 -0.9493
 2433SOL     OW 8586   0.150   4.802   4.526 -0.4604 -0.0209  0.0140
 2433SOL    HW1 8587   0.111   4.832   4.444 -1.4492  1.7882  1.0675
 2433SOL    HW2 8588   0.075   4.781   4.582  0.0654  1.5971  1.4107
 2434SOL     OW 8589   5.564   7.826   5.722  0.0449 -0.0932  0.0348
 2434SOL    HW1 8590   5.629   7.804   5.788  1.6266  1.8115 -0.7603
 2434SOL    HW2 8591   5.508   7.749   5.716  1.7398 -1.5197  1.3426
 2435SOL     OW 8592   0.632   6.286   8.141  0.1677  0.0727 -0.4797
 2435SOL    HW1 8593   0.715   6.303   8.097 -0.0618  0.4225 -0.7776
 2435SOL    HW2 8594   0.616   6.365   8.193  0.1262 -0.0841 -0.2497
 2436SOL     OW 8595   3.343   3.512   3.767  0.0877  0.3474  0.1530
 2436SOL    HW1 8596   3.406   3.579   3.794 -0.7169  1.3145 -0.3055
 2436SOL    HW2 8597   3.295   3.490   3.847  0.5621  0.0766  0.3680
 2437SOL     OW 8598   5.134   4.669   5.649 -0.4630 -0.7074 -0.3490
 2437SOL    HW1 8599   5.118   4.758   5.616  0.0654 -0.7822 -0.8381
 2437SOL    HW2 8600   5.195   4.681   5.722 -1.5024 -0.5549  0.5047
 2438SOL     OW 8601   2.344   3.377   7.018  0.4284  0.4616  0.0777
 2438SOL    HW1 8602   2.250   3.361   7.010  0.0942  1.8932  0.7591
 2438SOL    HW2 8603   2.381   3.350   6.934 -0.5179 -0.5319 -0.0295
 2439SOL     OW 8604   0.550   4.238   3.066  0.7985  0.3440  0.4955
 2439SOL    HW1 8605   0.558   4.305   3.134  0.9422 -0.6044  1.4545
 2439SOL    HW2 8606   0.512   4.283   2.991 -0.7127  1.1129  1.6774
 2440SOL     OW 8607   0.897   4.946   4.827 -0.4350 -0.2389  0.8060
 2440SOL    HW1 8608   0.806   4.962   4.802 -0.5767  0.3134  1.6350
 2440SOL    HW2 8609   0.919   4.862   4.787 -1.1200 -0.0880  0.1078
 2441SOL     OW 8610   5.992   6.016   0.723 -0.6051  0.1748  0.3273
 2441SOL    HW1 8611   5.906   6.019   0.683 -0.6557  2.0066  0.4552
 2441SOL    HW2 8612   5.979   6.054   0.811  0.3537  0.7705  0.2368
 2442SOL     OW 8613   6.603   2.164   1.539 -0.0217 -0.3770 -0.3940
 2442SOL    HW1 8614   6.598   2.136   1.448  1.3091 -1.6728 -0.1081
 2442SOL    HW2 8615   6.530   2.120   1.582  0.0001 -0.6382 -0.6233
 2443SOL     OW 8616   4.778   5.899   7.987  0.4064  0.3313  0.3949
 2443SOL    HW1 8617   4.814   5.929   8.070  1.7961  0.1767 -0.1205
 2443SOL    HW2 8618   4.800   5.806   7.983 -0.4440  0.1233  0.2372
 2444SOL     OW 8619   1.336   7.838   5.853  0.3503  0.2980  0.0431
 2444SOL    HW1 8620   1.319   7.857   5.761 -2.2429 -1.9121 -0.0581
 2444SOL    HW2 8621   1.338   7.742   5.857  0.9423  0.3564  2.2131
 2445SOL     OW 8622   8.261   2.634   5.847 -0.0561  0.0552 -0.1900
 2445SOL    HW1 8623   8.265   2.729   5.841 -2.6630  0.4723  2.2973
 2445SOL    HW2 8624   8.228   2.606   5.761  5.0708  0.7021 -2.7488
 2446SOL     OW 8625   2.888   6.831   7.148  0.2993  0.1761  0.3900
 2446SOL    HW1 8626   2.852   6.860   7.064  1.8041 -0.3164 -0.4602
 2446SOL    HW2 8627   2.964   6.777   7.125  1.1724  0.5953  2.0637
 2447SOL     OW 8628   5.673   1.622   6.992  0.2325 -0.1208 -0.2806
 2447SOL    HW1 8629   5.609   1.648   7.058 -0.2072 -0.0581 -0.7278
 2447SOL    HW2 8630   5.725   1.701   6.976  2.1687 -0.8061  1.9800
 2448SOL     OW 8631   6.350   1.191   1.347  0.6489 -0.3000  0.3718
 2448SOL    HW1 8632   6.442   1.211   1.332  0.6257 -0.0525  0.5466
 2448SOL    HW2 8633   6.342   1.182   1.442  0.8963 -2.3485  0.2310
 2449SOL     OW 8634   5.877   4.123   8.168 -0.0723  0.0026 -0.2025
 2449SOL    HW1 8635   5.936   4.198   8.163  1.5463 -1.3337 -2.6475
 2449SOL    HW2 8636   5.927   4.049   8.134 -3.0697 -1.2356 -2.4249
 2450SOL     OW 8637   1.815   2.162   0.261 -0.1280 -0.6674  0.4274
 2450SOL    HW1 8638   1.831   2.242   0.312 -0.8708 -0.1076 -0.1816
 2450SOL    HW2 8639   1.748   2.188   0.197  1.1438 -1.2118 -1.1780
 2451SOL     OW 8640   2.198   0.018   1.745 -0.1480  0.3002  0.4293
 2451SOL    HW1 8641   2.222   0.045   1.657 -0.6122 -0.6691 -0.0115
 2451SOL    HW2 8642   2.109  -0.018   1.737 -0.5962  1.0892  1.4760
 2452SOL     OW 8643   5.333   1.388   0.597  0.5879  0.3763 -0.4787
 2452SOL    HW1 8644   5.339   1.409   0.504 -0.7381  3.4231 -0.0133
 2452SOL    HW2 8645   5.239   1.373   0.612  0.7777 -0.0463  0.3535
 2453SOL     OW 8646   3.453   6.849   4.476  0.2797  0.3035  0.1369
 2453SOL    HW1 8647   3.368   6.807   4.461  0.0695  0.2304  1.4185
 2453SOL    HW2 8648   3.451   6.876   4.568  2.2561 -1.1794  0.6925
 2454SOL     OW 8649   6.245   0.709   7.248  0.2746  0.1434 -0.0325
 2454SOL    HW1 8650   6.272   0.627   7.291  0.7100  0.0297 -0.5146
 2454SOL    HW2 8651   6.290   0.777   7.298 -1.4265  0.2328  1.4410
 2455SOL     OW 8652   3.300   8.675   0.375  0.2275 -0.3072 -0.4363
 2455SOL    HW1 8653   3.351   8.743   0.419 -0.7787  0.2889 -0.1730
 2455SOL    HW2 8654   3.282   8.610   0.444 -0.2131 -0.0251 -0.2812
 2456SOL     OW 8655   8.466   5.739   1.927  0.3058  0.4809  0.5826
 2456SOL    HW1 8656   8.440   5.678   1.997  0.6119 -3.2984 -2.2965
 2456SOL    HW2 8657   8.383   5.777   1.897 -0.2582 -0.6840  0.6181
 2457SOL     OW 8658   1.519   2.180   5.724 -0.0065 -0.0910 -0.0196
 2457SOL    HW1 8659   1.475   2.262   5.745  1.0241  0.5876 -0.4171
 2457SOL    HW2 8660   1.594   2.206   5.671  0.5386 -1.2684  0.1372
 2458SOL     OW 8661   8.052   1.434   2.833  0.2714 -0.3791 -0.3608
 2458SOL    HW1 8662   8.078   1.526   2.839  0.2354 -0.4408  0.9892
 2458SOL    HW2 8663   8.046   1.405   2.924  2.2254 -2.2735 -0.7705
 2459SOL     OW 8664   3.120   0.863   6.059  0.1985 -0.0539 -0.7070
 2459SOL    HW1 8665   3.201   0.829   6.097 -0.9189 -0.3224  1.6199
 2459SOL    HW2 8666   3.139   0.954   6.039  1.7111 -0.6745 -2.3017
 2460SOL     OW 8667   4.474   0.617   2.597  0.1267  0.2324  0.0112
 2460SOL    HW1 8668   4.458   0.674   2.672 -0.7715 -0.5384  0.4128
 2460SOL    HW2 8669   4.412   0.646   2.530  1.0057  0.9973 -0.5050
 2461SOL     OW 8670   6.978   7.549   1.005  0.2828 -0.3383 -0.3787
 2461SOL    HW1 8671   7.010   7.639   1.009 -1.7431  0.6220 -2.6957
 2461SOL    HW2 8672   7.044   7.502   0.954  0.7014  0.1714 -0.3146
 2462SOL     OW 8673   0.594   4.144   5.883 -0.1703  0.5657 -0.2044
 2462SOL    HW1 8674   0.650   4.074   5.849 -0.4211  0.2909 -0.0493
 2462SOL    HW2 8675   0.546   4.104   5.955 -0.2982  0.9041 -0.0986
 2463SOL     OW 8676   6.097   4.716   1.880  0.1007  0.4007 -0.2099
 2463SOL    HW1 8677   6.065   4.636   1.924  0.6653  0.2491 -0.0665
 2463SOL    HW2 8678   6.043   4.786   1.917  0.1289  0.1874  0.2419
 2464SOL     OW 8679   5.627   5.478   2.807 -0.1439  0.0751  0.8436
 2464SOL    HW1 8680   5.551   5.536   2.808 -0.3448 -0.0681 -1.2158
 2464SOL    HW2 8681   5.699   5.534   2.777  0.5269  0.1110  2.3988
 2465SOL     OW 8682   0.580   7.491   4.313 -0.1336 -0.5436  0.0068
 2465SOL    HW1 8683   0.655   7.473   4.370  1.0021  0.0328 -1.2482
 2465SOL    HW2 8684   0.574   7.587   4.311  1.2593 -0.4165 -2.5048
 2466SOL     OW 8685   3.344   8.497   1.869 -0.2182 -0.3481 -0.0356
 2466SOL    HW1 8686   3.279   8.555   1.831 -1.7560 -0.9349  1.5870
 2466SOL    HW2 8687   3.420   8.553   1.887 -0.5414  0.5001 -1.2348
 2467SOL     OW 8688   2.317   8.308   5.196 -0.1676 -0.1948 -0.0965
 2467SOL    HW1 8689   2.312   8.226   5.244 -2.4766  0.3636  0.7678
 2467SOL    HW2 8690   2.394   8.352   5.231 -0.3153 -0.9354  1.2140
 2468SOL     OW 8691   3.025   7.381   5.356 -0.0456 -0.3075  0.3621
 2468SOL    HW1 8692   3.033   7.345   5.267  0.8628  0.2393  0.2090
 2468SOL    HW2 8693   3.003   7.305   5.410 -1.4932 -0.5006 -0.4498
 2469SOL     OW 8694   3.651   3.482   4.187  0.5183 -0.3672  0.0028
 2469SOL    HW1 8695   3.668   3.576   4.177 -0.8032 -0.2070 -0.9553
 2469SOL    HW2 8696   3.725   3.440   4.144 -1.1809  0.3045 -3.9327
 2470SOL     OW 8697   1.598   2.881   1.034  0.0455  0.3792  0.2464
 2470SOL    HW1 8698   1.583   2.926   1.118  0.4840  1.3620 -0.1782
 2470SOL    HW2 8699   1.530   2.914   0.976 -1.9429 -2.3037  0.8882
 2471SOL     OW 8700   8.350   5.021   4.580 -0.4165 -0.1925 -0.3178
 2471SOL    HW1 8701   8.339   5.089   4.515 -1.3529  3.0211  2.8786
 2471SOL    HW2 8702   8.261   4.999   4.608 -0.0222  0.1244  1.3233
 2472SOL     OW 8703   4.115   1.518   1.982 -0.1682  0.9079 -0.2989
 2472SOL    HW1 8704   4.138   1.451   2.047  0.2455 -0.4992 -1.8159
 2472SOL    HW2 8705   4.022   1.505   1.967 -0.0548  0.5451 -0.7112
 2473SOL     OW 8706   2.541   4.193   6.839  1.0103 -0.3029 -0.2242
 2473SOL    HW1 8707   2.482   4.158   6.772  1.3489  0.3245 -0.8615
 2473SOL    HW2 8708   2.593   4.117   6.867 -0.9190 -1.1596  1.2699
 2474SOL     OW 8709   2.527   1.651   7.099 -0.6847  0.8301  0.0533
 2474SOL    HW1 8710   2.477   1.601   7.162  1.9965 -0.4874  1.3082
 2474SOL    HW2 8711   2.618   1.621   7.111  0.2698  2.1532 -2.8763
 2475SOL     OW 8712   4.929   8.081   4.373 -0.2007  0.6364 -0.6745
 2475SOL    HW1 8713   4.971   8.051   4.292  0.4128  0.5246 -0.3234
 2475SOL    HW2 8714   5.002   8.102   4.431 -0.6293  1.3647 -0.3785
 2476SOL     OW 8715   0.613   4.136   0.755 -0.3534  0.0654 -0.1458
 2476SOL    HW1 8716   0.606   4.216   0.806  0.7074  0.4714 -0.6196
 2476SOL    HW2 8717   0.612   4.065   0.820  0.5235  0.5498  0.4088
 2477SOL     OW 8718   3.743   3.653   6.032 -0.1943 -0.0078 -0.0925
 2477SOL    HW1 8719   3.811   3.618   6.090 -0.3675  0.4156  0.3727
 2477SOL    HW2 8720   3.787   3.662   5.947  0.1867 -0.2168  0.0783
 2478SOL     OW 8721   5.077   5.588   2.649  0.5622 -0.4176  0.4250
 2478SOL    HW1 8722   5.123   5.636   2.717 -1.0152  1.7325  0.0728
 2478SOL    HW2 8723   4.984   5.597   2.671  0.1257 -1.9874 -0.5504
 2479SOL     OW 8724   4.520   7.364   7.683  0.3274 -0.0332  0.4143
 2479SOL    HW1 8725   4.580   7.290   7.687 -0.1413 -0.3973  0.7369
 2479SOL    HW2 8726   4.554   7.418   7.611 -0.3576 -1.4448 -1.0305
 2480SOL     OW 8727   8.327   1.374   0.233 -0.3805  0.4411  0.2161
 2480SOL    HW1 8728   8.352   1.323   0.310  0.3733 -0.8722 -0.8428
 2480SOL    HW2 8729   8.371   1.458   0.244 -0.2872  0.2683  1.2105
 2481SOL     OW 8730   4.425   6.813   0.837  0.0759 -0.1687 -0.2833
 2481SOL    HW1 8731   4.372   6.831   0.914 -1.7833  0.3264 -1.6103
 2481SOL    HW2 8732   4.399   6.726   0.808 -0.9592  0.5296 -1.6057
 2482SOL     OW 8733   6.340   4.710   5.536  0.0401 -0.1887  0.1823
 2482SOL    HW1 8734   6.288   4.703   5.456  1.2836 -0.5024 -0.6123
 2482SOL    HW2 8735   6.385   4.794   5.529  1.4214 -0.9472 -0.2410
 2483SOL     OW 8736   0.086   8.202   2.361 -0.2178 -0.3538  0.2342
 2483SOL    HW1 8737   0.041   8.118   2.367 -2.6737  0.8008 -0.5422
 2483SOL    HW2 8738   0.162   8.185   2.305 -2.1105 -1.6022 -2.1742
 2484SOL     OW 8739   0.454   6.847   2.785  0.2856 -0.2598  0.1917
 2484SOL    HW1 8740   0.523   6.910   2.766 -0.8286  0.5665 -1.2629
 2484SOL    HW2 8741   0.397   6.891   2.848  1.9569 -1.6199  2.8909
 2485SOL     OW 8742   5.512   4.759   5.328 -0.6568  0.5346 -0.0754
 2485SOL    HW1 8743   5.443   4.694   5.315  0.3803 -0.7274  0.4912
 2485SOL    HW2 8744   5.554   4.769   5.243 -0.3620 -0.0910 -0.0063
 2486SOL     OW 8745   4.404   4.786   4.965 -0.0147  0.0277  0.2503
 2486SOL    HW1 8746   4.474   4.720   4.963 -0.1868 -0.2653 -4.0099
 2486SOL    HW2 8747   4.324   4.735   4.977  0.1977  0.1446  2.7007
 2487SOL     OW 8748   8.560   4.738   6.108 -0.4736 -0.0075  0.5883
 2487SOL    HW1 8749   8.621   4.764   6.177 -1.3887  1.1968  0.9813
 2487SOL    HW2 8750   8.579   4.798   6.036 -1.0789  0.2729  0.6572
 2488SOL     OW 8751   0.320   8.697   4.400 -0.4561  0.1853 -0.3535
 2488SOL    HW1 8752   0.373   8.671   4.475 -0.0753  0.8369 -0.3935
 2488SOL    HW2 8753   0.248   8.747   4.437  0.4887  1.7227 -0.5133
 2489SOL     OW 8754   4.371   3.056   6.589  0.2064 -0.1117  0.6746
 2489SOL    HW1 8755   4.421   2.975   6.586  0.8052  0.2019  1.7245
 2489SOL    HW2 8756   4.327   3.061   6.504 -0.7790 -2.1219  1.0215
 2490SOL     OW 8757   2.828   3.365   7.226  0.3118  0.1464  0.5156
 2490SOL    HW1 8758   2.880   3.339   7.302  2.5688 -0.7947 -1.2156
 2490SOL    HW2 8759   2.758   3.300   7.221  1.9075 -1.6327  0.1237
 2491SOL     OW 8760   8.406   1.823   2.326  0.4545  0.1687  0.1394
 2491SOL    HW1 8761   8.468   1.792   2.260 -1.7569 -1.0667 -1.4615
 2491SOL    HW2 8762   8.405   1.918   2.314  1.2174  0.1020 -0.5684
 2492SOL     OW 8763   4.588   0.721   7.210 -0.3617  0.2126  0.4504
 2492SOL    HW1 8764   4.499   0.693   7.229 -0.2052  0.0629  0.9814
 2492SOL    HW2 8765   4.579   0.811   7.177 -0.7047  0.1859  0.4743
 2493SOL     OW 8766   0.380   8.656   5.272  0.1288 -0.3909 -0.4446
 2493SOL    HW1 8767   0.348   8.572   5.241 -0.3326 -0.5502  0.4322
 2493SOL    HW2 8768   0.382   8.711   5.194  0.3295 -1.1772 -1.0029
 2494SOL     OW 8769   5.712   6.061   8.431 -0.5633 -0.3635 -0.6559
 2494SOL    HW1 8770   5.679   6.140   8.473  1.4795  0.1670  0.0832
 2494SOL    HW2 8771   5.764   6.093   8.357  0.2864 -0.9996 -0.3494
 2495SOL     OW 8772   5.956   1.863   0.842  0.1023  0.2785  0.4277
 2495SOL    HW1 8773   6.000   1.948   0.842 -0.3885  0.6199  3.1921
 2495SOL    HW2 8774   6.006   1.810   0.903 -0.2830 -1.0779 -0.3852
 2496SOL     OW 8775   4.106   0.515   4.903 -0.0172 -0.4202 -0.0513
 2496SOL    HW1 8776   4.114   0.605   4.936 -3.6393 -0.2797  0.8995
 2496SOL    HW2 8777   4.127   0.461   4.979  0.7504 -0.3765 -0.2212
 2497SOL     OW 8778   5.924   2.338   0.008 -0.2576  0.2900  0.1244
 2497SOL    HW1 8779   5.891   2.250   0.022 -0.0170  0.2238  0.2874
 2497SOL    HW2 8780   5.987   2.352   0.079 -0.7735  0.8360  0.4824
 2498SOL     OW 8781   7.465   6.442   1.973 -0.6011  0.1203 -0.4269
 2498SOL    HW1 8782   7.412   6.431   1.894 -1.6899 -0.3452  0.3414
 2498SOL    HW2 8783   7.435   6.372   2.031  1.9196 -1.1394 -0.5104
 2499SOL     OW 8784   2.331   1.680   0.982  0.0892 -0.4031 -0.0715
 2499SOL    HW1 8785   2.352   1.669   0.889 -0.9312  0.1932 -0.3912
 2499SOL    HW2 8786   2.367   1.602   1.024  1.3052 -0.2914 -0.8324
 2500SOL     OW 8787   0.792   7.826   5.124  0.1263 -0.7288 -0.1341
 2500SOL    HW1 8788   0.846   7.778   5.062 -1.4857 -1.9035 -0.7019
 2500SOL    HW2 8789   0.705   7.826   5.086 -0.5651  0.0074  1.3338
 2501SOL     OW 8790   3.868   8.652   6.780 -0.0947  0.2548 -0.3812
 2501SOL    HW1 8791   3.885   8.640   6.686 -1.7161  0.6851 -0.7425
 2501SOL    HW2 8792   3.798   8.590   6.800  0.8706 -0.5127  0.7769
 2502SOL     OW 8793   2.837   8.369   8.528  0.1621 -0.0381  0.3572
 2502SOL    HW1 8794   2.787   8.336   8.454  0.8102 -1.2393  0.4354
 2502SOL    HW2 8795   2.848   8.463   8.510  1.2319 -0.4850 -1.6155
 2503SOL     OW 8796   7.666   7.153   2.411  0.1341 -0.0301  0.2116
 2503SOL    HW1 8797   7.757   7.157   2.381 -0.2994  0.9342 -1.0741
 2503SOL    HW2 8798   7.621   7.101   2.345 -0.7796  1.8676 -0.7470
 2504SOL     OW 8799   3.745   5.786   4.359  0.1602 -0.3210  0.0765
 2504SOL    HW1 8800   3.723   5.705   4.404 -0.0838 -0.1162  0.3296
 2504SOL    HW2 8801   3.690   5.853   4.400  1.2732  0.2073  0.7509
 2505SOL     OW 8802   5.798   7.082   1.107  0.6422 -0.0108 -0.0391
 2505SOL    HW1 8803   5.862   7.011   1.103 -1.0033 -1.6380  0.6668
 2505SOL    HW2 8804   5.850   7.161   1.123  2.5507 -1.0393 -0.8239
 2506SOL     OW 8805   7.428   1.544   6.484  0.2101  0.0771  0.1025
 2506SOL    HW1 8806   7.341   1.504   6.480 -0.0697  0.7281 -0.6041
 2506SOL    HW2 8807   7.411   1.637   6.499  0.7670  0.2579 -0.3462
 2507SOL     OW 8808   7.712   6.315   6.538 -0.3098 -0.1356  0.1218
 2507SOL    HW1 8809   7.621   6.321   6.569 -0.5385  0.2996 -0.6166
 2507SOL    HW2 8810   7.712   6.239   6.480  0.0503 -0.7724  0.9449
 2508SOL     OW 8811   7.246   4.903   3.462 -0.1226 -0.1183  0.0283
 2508SOL    HW1 8812   7.327   4.946   3.435  1.2313 -1.9341  0.9258
 2508SOL    HW2 8813   7.179   4.940   3.405  1.3574  1.2944 -0.9016
 2509SOL     OW 8814   2.094   5.486   2.612 -0.3337 -0.4390  0.4742
 2509SOL    HW1 8815   2.032   5.416   2.591  0.8814 -1.6319  0.7215
 2509SOL    HW2 8816   2.073   5.510   2.703 -1.8558  0.7476 -0.1381
 2510SOL     OW 8817   6.565   4.952   2.026  0.4522  0.7862 -0.5039
 2510SOL    HW1 8818   6.655   4.972   1.998 -0.2288  0.9713 -2.7149
 2510SOL    HW2 8819   6.546   4.867   1.987  0.5580 -0.6428  2.2960
 2511SOL     OW 8820   7.914   6.840   4.106  0.1188 -0.2941  0.0177
 2511SOL    HW1 8821   7.986   6.867   4.049 -0.0507 -0.4503 -0.2726
 2511SOL    HW2 8822   7.883   6.921   4.145 -0.2197 -0.0985 -0.6504
 2512SOL     OW 8823   4.698   7.012   2.817  0.4762 -0.0308 -0.3285
 2512SOL    HW1 8824   4.636   6.955   2.863  0.8812  0.0200  0.2822
 2512SOL    HW2 8825   4.688   7.097   2.859 -0.4160  0.4810 -1.4967
 2513SOL     OW 8826   8.304   7.588   1.313  0.1711 -0.1589  0.2371
 2513SOL    HW1 8827   8.283   7.551   1.399 -0.8906 -0.6914 -0.2406
 2513SOL    HW2 8828   8.387   7.546   1.289  0.3643 -0.1638  0.9058
 2514SOL     OW 8829   0.963   1.022   7.724  0.4155 -0.0938  0.8076
 2514SOL    HW1 8830   0.898   0.992   7.787 -0.5646  1.5143  0.6228
 2514SOL    HW2 8831   1.046   0.987   7.756 -0.4698 -1.8976  1.2407
 2515SOL     OW 8832   7.153   6.339   2.495 -0.0704 -0.1967 -0.0020
 2515SOL    HW1 8833   7.235   6.382   2.473  0.0466 -0.3126  0.2041
 2515SOL    HW2 8834   7.137   6.278   2.423  0.8478 -1.3449  0.7188
 2516SOL     OW 8835   6.742   5.778   0.553  0.0258 -0.0653 -0.0646
 2516SOL    HW1 8836   6.667   5.835   0.541 -0.7043 -0.2913  2.7385
 2516SOL    HW2 8837   6.790   5.816   0.627  1.1978 -1.4067 -0.0887
 2517SOL     OW 8838   0.305   5.911   7.489 -0.1418  0.2465  0.3223
 2517SOL    HW1 8839   0.221   5.940   7.525 -1.5616  0.0045 -2.5067
 2517SOL    HW2 8840   0.340   5.851   7.554 -1.4347  1.4556  2.2389
 2518SOL     OW 8841   2.578   6.162   8.000  0.1746  0.7693  0.6963
 2518SOL    HW1 8842   2.483   6.170   8.006 -0.0953 -0.9173 -0.5720
 2518SOL    HW2 8843   2.610   6.250   8.018 -1.6982  1.6555 -0.0025
 2519SOL     OW 8844   3.273   3.531   6.233 -0.4567 -0.0476  0.3833
 2519SOL    HW1 8845   3.264   3.626   6.230 -2.7679 -0.2182  0.2612
 2519SOL    HW2 8846   3.339   3.511   6.167  1.7019  1.5817  1.8765
 2520SOL     OW 8847   7.873   4.122   2.375  0.6661  0.5496  0.5780
 2520SOL    HW1 8848   7.825   4.131   2.292 -0.7966 -0.8724  1.2244
 2520SOL    HW2 8849   7.938   4.054   2.357  0.5512  0.4582  0.5031
 2521SOL     OW 8850   8.335   7.812   3.955  0.1027 -0.4778  0.5690
 2521SOL    HW1 8851   8.254   7.863   3.954  0.6430  0.4328  1.1985
 2521SOL    HW2 8852   8.320   7.741   3.892 -0.2926  1.0929 -1.2223
 2522SOL     OW 8853   5.294   7.101   1.211  0.6625  0.2158 -0.4741
 2522SOL    HW1 8854   5.364   7.143   1.261 -1.0188  0.6978  1.6692
 2522SOL    HW2 8855   5.338   7.039   1.153  2.8552  0.9113  0.3661
 2523SOL     OW 8856   3.776   5.534   1.231 -0.0901  0.1575  0.5456
 2523SOL    HW1 8857   3.751   5.487   1.311  1.0180  0.0306  0.8325
 2523SOL    HW2 8858   3.805   5.620   1.261 -0.7163  0.5079  0.1632
 2524SOL     OW 8859   7.485   1.199   6.442 -0.1289  0.5408 -0.3776
 2524SOL    HW1 8860   7.427   1.142   6.392 -0.5831  0.4773  0.1992
 2524SOL    HW2 8861   7.425   1.255   6.492  0.2738 -0.2257  1.0331
 2525SOL     OW 8862   7.148   2.293   2.368 -0.0506 -0.1346 -0.6244
 2525SOL    HW1 8863   7.172   2.385   2.379 -4.5935  1.2999 -0.7045
 2525SOL    HW2 8864   7.150   2.279   2.273  0.7215 -0.1793 -0.6081
 2526SOL     OW 8865   0.900   7.790   7.049  0.0569 -0.3693 -0.6361
 2526SOL    HW1 8866   0.920   7.815   6.959  0.7086 -1.4672 -0.8075
 2526SOL    HW2 8867   0.806   7.807   7.058 -0.1764 -0.9523 -1.7628
 2527SOL     OW 8868   0.489   4.985   4.350  0.0582 -0.0634 -0.5905
 2527SOL    HW1 8869   0.400   5.005   4.380  0.2937  1.3221 -0.7467
 2527SOL    HW2 8870   0.491   4.890   4.344 -1.2953 -0.1419 -0.2129
 2528SOL     OW 8871   4.222   4.063   7.319 -0.2270  0.2282  0.2301
 2528SOL    HW1 8872   4.235   4.005   7.244  0.9018  0.8500 -0.0901
 2528SOL    HW2 8873   4.212   4.150   7.279 -1.4524  0.3349  0.7211
 2529SOL     OW 8874   7.795   3.816   0.210 -0.4503  0.1932  0.0870
 2529SOL    HW1 8875   7.709   3.775   0.202  0.2792 -1.5614  0.6972
 2529SOL    HW2 8876   7.811   3.821   0.304  0.1380  0.4575 -0.0252
 2530SOL     OW 8877   5.371   3.911   6.243 -0.0151  0.1926 -0.0197
 2530SOL    HW1 8878   5.321   3.830   6.239 -1.3459  1.0305 -1.0722
 2530SOL    HW2 8879   5.432   3.906   6.170  1.8136 -0.9980  1.4837
 2531SOL     OW 8880   0.412   5.612   7.436  0.5282 -0.2406  0.1395
 2531SOL    HW1 8881   0.496   5.607   7.391  0.8773 -0.6153  0.8025
 2531SOL    HW2 8882   0.350   5.643   7.370  0.9808 -0.9491 -0.6370
 2532SOL     OW 8883   8.115   7.802   8.419 -0.3911 -0.1007 -0.3682
 2532SOL    HW1 8884   8.144   7.890   8.394 -0.1326 -0.2669 -0.6784
 2532SOL    HW2 8885   8.027   7.814   8.453 -0.1023  0.3698  0.2296
 2533SOL     OW 8886   5.259   1.424   5.616  0.6330  0.6069 -0.3797
 2533SOL    HW1 8887   5.206   1.400   5.540  0.0896 -0.5588  0.3552
 2533SOL    HW2 8888   5.348   1.430   5.581  0.6371 -1.4547 -0.8381
 2534SOL     OW 8889   4.693   6.654   4.961  0.0252  0.5754  0.3561
 2534SOL    HW1 8890   4.724   6.744   4.969 -1.5023  1.0762  0.9966
 2534SOL    HW2 8891   4.710   6.631   4.870  0.0186  1.6756  0.0617
 2535SOL     OW 8892   4.087   1.192   6.135 -0.0594 -0.1537 -0.6551
 2535SOL    HW1 8893   4.055   1.185   6.225  0.7427  4.0768  0.1484
 2535SOL    HW2 8894   4.011   1.170   6.081 -1.3284 -0.1629  1.0609
 2536SOL     OW 8895   5.059   6.500   2.835  0.2524 -0.2497 -0.7023
 2536SOL    HW1 8896   5.038   6.587   2.803  1.4356  0.4574  0.3581
 2536SOL    HW2 8897   5.152   6.504   2.857 -0.3953 -0.6792  2.6600
 2537SOL     OW 8898   1.673   6.075   8.116 -0.2141  0.1999  0.0020
 2537SOL    HW1 8899   1.697   6.023   8.039  1.7349  0.8907  0.0827
 2537SOL    HW2 8900   1.745   6.060   8.178 -0.6814  1.3176  0.8402
 2538SOL     OW 8901   6.056   7.680   5.440 -0.1424 -0.0189  0.8321
 2538SOL    HW1 8902   5.983   7.676   5.501  1.5426 -0.2651  2.9628
 2538SOL    HW2 8903   6.134   7.688   5.496  1.6354 -1.7636 -1.1868
 2539SOL     OW 8904   3.872   4.362   3.648 -0.2240 -0.4626 -0.0673
 2539SOL    HW1 8905   3.901   4.332   3.734  0.8503 -0.3897 -0.3892
 2539SOL    HW2 8906   3.798   4.305   3.626 -0.8952 -0.0810  1.1615
 2540SOL     OW 8907   6.706   7.386   0.579 -0.1570 -0.3160 -0.2542
 2540SOL    HW1 8908   6.682   7.310   0.632 -1.3292 -0.1234 -0.4953
 2540SOL    HW2 8909   6.631   7.401   0.522  0.6825  0.0903 -1.2906
 2541SOL     OW 8910   2.217   0.950   4.252  0.2362 -0.5068  0.6216
 2541SOL    HW1 8911   2.260   1.022   4.298 -0.5582 -0.8810  1.9928
 2541SOL    HW2 8912   2.153   0.916   4.314 -1.5452 -0.4543 -1.0524
 2542SOL     OW 8913   7.775   3.457   2.877 -0.1285  0.1237 -0.4543
 2542SOL    HW1 8914   7.845   3.418   2.825  0.5673 -1.3276  1.4794
 2542SOL    HW2 8915   7.814   3.538   2.912 -0.5345  1.0017 -1.9401
 2543SOL     OW 8916   4.325   8.684   3.809  0.3420  0.1814  0.3165
 2543SOL    HW1 8917   4.323   8.723   3.721 -0.5301  0.9497  0.6577
 2543SOL    HW2 8918   4.405   8.720   3.848  1.3836 -1.0997 -0.5472
 2544SOL     OW 8919   4.007   3.792   2.090  0.2772 -0.5716  0.0108
 2544SOL    HW1 8920   3.941   3.744   2.140 -0.6862 -0.5650 -1.2167
 2544SOL    HW2 8921   3.957   3.858   2.042  1.1096 -0.8591 -1.3001
 2545SOL     OW 8922   2.487   8.476   5.503  0.1414  0.1595  0.4099
 2545SOL    HW1 8923   2.554   8.454   5.568 -1.7398 -2.6648  1.5695
 2545SOL    HW2 8924   2.521   8.442   5.421  1.3784  1.4214  0.3571
 2546SOL     OW 8925   4.514   8.408   7.638 -0.6787 -0.3688  0.6848
 2546SOL    HW1 8926   4.505   8.399   7.733 -1.5354 -0.8897  0.5625
 2546SOL    HW2 8927   4.491   8.500   7.620 -0.7971 -0.3461  0.9500
 2547SOL     OW 8928   6.345   0.315   6.621  0.0142  0.0801  0.1626
 2547SOL    HW1 8929   6.374   0.340   6.533  0.7215 -1.1128  0.0269
 2547SOL    HW2 8930   6.391   0.232   6.638 -0.9933 -0.2899  1.1949
 2548SOL     OW 8931   7.385   4.207   2.381  0.1967  0.1785 -0.4642
 2548SOL    HW1 8932   7.456   4.159   2.340  0.4206  0.4527 -0.3996
 2548SOL    HW2 8933   7.354   4.149   2.450  0.2758  0.0079 -0.5698
 2549SOL     OW 8934   4.412   3.865   6.659 -0.5465  0.0820  0.0223
 2549SOL    HW1 8935   4.471   3.793   6.684  0.1854  0.4807 -0.5029
 2549SOL    HW2 8936   4.324   3.830   6.674 -0.2526 -1.4351 -1.5326
 2550SOL     OW 8937   5.730   6.030   5.429  0.2920  0.4178  0.0020
 2550SOL    HW1 8938   5.661   6.083   5.469  0.2869  0.1424  0.3685
 2550SOL    HW2 8939   5.683   5.960   5.384  0.3223 -1.8349  3.0983
 2551SOL     OW 8940   0.784   1.945   7.823 -0.5288  0.5605 -0.6674
 2551SOL    HW1 8941   0.760   1.896   7.744  1.1464  1.0900 -1.5528
 2551SOL    HW2 8942   0.717   1.921   7.887 -1.5837 -0.3669 -2.0484
 2552SOL     OW 8943   6.636   3.463   6.889  0.2104  0.0180  0.3722
 2552SOL    HW1 8944   6.642   3.501   6.977 -0.4216 -0.1854  0.5062
 2552SOL    HW2 8945   6.587   3.527   6.838 -1.2029 -0.7551  0.6984
 2553SOL     OW 8946   3.540   1.857   4.329 -0.4756 -0.2285  0.4106
 2553SOL    HW1 8947   3.531   1.949   4.305 -1.2539 -1.0554 -2.9621
 2553SOL    HW2 8948   3.450   1.826   4.338 -0.2198 -0.8093  1.0510
 2554SOL     OW 8949   5.314   7.639   3.231  0.1618 -0.0922  0.1417
 2554SOL    HW1 8950   5.380   7.620   3.165  0.2544  1.8353 -0.3751
 2554SOL    HW2 8951   5.339   7.724   3.267 -1.1987 -0.0180  1.0020
 2555SOL     OW 8952   6.356   2.193   3.118 -0.4313 -0.3753 -0.1807
 2555SOL    HW1 8953   6.267   2.170   3.146  0.7762 -2.1516  2.6474
 2555SOL    HW2 8954   6.357   2.288   3.119 -2.3192 -0.3188 -0.2961
 2556SOL     OW 8955   4.467   6.681   5.084 -0.0614 -0.1337  0.2045
 2556SOL    HW1 8956   4.559   6.668   5.063  0.4186  1.6602  0.9857
 2556SOL    HW2 8957   4.467   6.752   5.149 -2.0080  0.1999 -0.0891
 2557SOL     OW 8958   4.835   3.923   8.199 -0.0202  0.5027  0.3083
 2557SOL    HW1 8959   4.854   4.007   8.156 -0.3229  0.7462  0.6395
 2557SOL    HW2 8960   4.809   3.865   8.128  0.3369  0.6440  0.0558
 2558SOL     OW 8961   7.474   7.311   2.557 -0.5734 -0.3043  0.0252
 2558SOL    HW1 8962   7.490   7.278   2.645 -1.5504  0.2277  0.4225
 2558SOL    HW2 8963   7.538   7.266   2.502  0.7519  0.1312  1.1618
 2559SOL     OW 8964   5.893   1.039   4.603 -0.4124  0.0297  0.4749
 2559SOL    HW1 8965   5.875   1.043   4.697  1.3282 -1.6955  0.9376
 2559SOL    HW2 8966   5.963   1.103   4.590 -0.2972 -0.1005  0.4545
 2560SOL     OW 8967   8.616   1.944   6.093  0.4108 -0.1257 -0.5632
 2560SOL    HW1 8968   8.668   1.963   6.171 -0.8826 -0.2658  0.3829
 2560SOL    HW2 8969   8.676   1.955   6.020  1.0899  2.3788  0.2810
 2561SOL     OW 8970   1.382   2.328   6.780 -0.4719  0.7506  0.3531
 2561SOL    HW1 8971   1.352   2.356   6.693  2.3905  0.0048 -0.9904
 2561SOL    HW2 8972   1.472   2.359   6.786 -0.3941  0.2365  2.8425
 2562SOL     OW 8973   6.962   5.788   0.376  0.1563  0.2060  0.0945
 2562SOL    HW1 8974   6.894   5.721   0.377 -0.7944  1.1179  1.7114
 2562SOL    HW2 8975   6.990   5.793   0.284  0.7584 -2.8042  0.0300
 2563SOL     OW 8976   1.412   0.581   1.537 -0.1594  0.1284 -0.1950
 2563SOL    HW1 8977   1.505   0.599   1.525  0.1447 -1.3365 -0.1251
 2563SOL    HW2 8978   1.406   0.533   1.619 -0.9788  0.1911 -0.2037
 2564SOL     OW 8979   3.947   2.127   1.584  0.0869  0.2942  0.0726
 2564SOL    HW1 8980   3.975   2.174   1.663  1.2892 -0.8494  0.3692
 2564SOL    HW2 8981   3.987   2.040   1.593  2.4968  0.9277 -3.0424
 2565SOL     OW 8982   3.248   2.880   5.177  0.3620 -0.0051 -0.3783
 2565SOL    HW1 8983   3.321   2.931   5.141  1.2822 -0.4460  0.8000
 2565SOL    HW2 8984   3.219   2.929   5.253  0.2109 -0.4418 -0.1521
 2566SOL     OW 8985   7.744   3.151   3.174  0.9031  0.6154  0.4434
 2566SOL    HW1 8986   7.835   3.134   3.149  0.8197  0.4774  0.2279
 2566SOL    HW2 8987   7.709   3.064   3.194  0.0506  0.2786 -2.0706
 2567SOL     OW 8988   8.272   7.396   4.966  0.7058 -0.0097  0.3205
 2567SOL    HW1 8989   8.209   7.389   4.894  1.2997  1.3683 -0.3693
 2567SOL    HW2 8990   8.264   7.313   5.012 -0.8524 -0.2896 -0.3744
 2568SOL     OW 8991   3.530   8.057   3.805 -0.2054  0.0323 -0.0856
 2568SOL    HW1 8992   3.589   8.050   3.731  1.8675  0.0096  1.4689
 2568SOL    HW2 8993   3.509   7.966   3.828 -0.5481  0.0308 -0.3916
 2569SOL     OW 8994   0.020   7.630   4.275  0.6930 -0.3795  0.3096
 2569SOL    HW1 8995  -0.025   7.684   4.210 -0.4062 -0.4060  1.0162
 2569SOL    HW2 8996   0.016   7.541   4.239 -3.9184 -1.2709  2.2474
 2570SOL     OW 8997   7.019   5.099   4.790  0.7214 -0.4692 -0.1168
 2570SOL    HW1 8998   6.968   5.076   4.867  1.4258 -2.3686 -0.1354
 2570SOL    HW2 8999   6.954   5.124   4.724 -0.1257 -1.7192  0.2052
 2571SOL     OW 9000   3.613   6.451   4.163  0.0360 -0.4953 -0.1670
 2571SOL    HW1 9001   3.542   6.505   4.127 -1.2419 -1.5589  0.7025
 2571SOL    HW2 9002   3.583   6.426   4.250  1.5259 -0.9149  0.2572
 2572SOL     OW 9003   7.047   6.536   7.636  0.4818  0.3948 -0.6278
 2572SOL    HW1 9004   7.043   6.601   7.706  1.3266 -0.3765  0.1676
 2572SOL    HW2 9005   7.119   6.477   7.661  1.2748  0.4830 -2.4792
 2573SOL     OW 9006   3.834   2.734   0.943  0.7332  0.1853 -0.0940
 2573SOL    HW1 9007   3.804   2.692   0.863 -0.8030  0.6164  0.2307
 2573SOL    HW2 9008   3.876   2.815   0.913 -0.9304  0.9714 -0.4342
 2574SOL     OW 9009   4.529   3.488   0.841 -0.3835 -0.0247  0.1144
 2574SOL    HW1 9010   4.453   3.498   0.898 -0.9882  0.0736 -0.6992
 2574SOL    HW2 9011   4.503   3.529   0.759 -0.1989 -1.7054 -0.8248
 2575SOL     OW 9012   2.083   6.247   6.725 -0.0176 -0.1846  0.1961
 2575SOL    HW1 9013   2.009   6.227   6.783  0.3190  0.3858  0.8442
 2575SOL    HW2 9014   2.159   6.214   6.772  0.4094  1.4656  0.7315
 2576SOL     OW 9015   6.167   6.726   5.059  0.0865  0.3070  0.4105
 2576SOL    HW1 9016   6.096   6.676   5.098 -0.2422  0.3334 -0.1391
 2576SOL    HW2 9017   6.218   6.758   5.133 -0.3703  0.1343  0.8025
 2577SOL     OW 9018   6.278   3.736   2.423 -0.8974  0.0465 -0.6108
 2577SOL    HW1 9019   6.348   3.797   2.400 -0.2705 -0.4829 -0.1360
 2577SOL    HW2 9020   6.277   3.735   2.519 -0.4597 -1.1579 -0.5954
 2578SOL     OW 9021   3.408   4.949   1.907 -0.2483 -0.1951 -0.2334
 2578SOL    HW1 9022   3.315   4.930   1.897 -0.2409 -0.2924 -0.1200
 2578SOL    HW2 9023   3.439   4.963   1.817 -0.2947 -0.5306 -0.3048
 2579SOL     OW 9024   1.393   1.016   7.913 -0.3528  0.7085 -0.1412
 2579SOL    HW1 9025   1.470   1.049   7.959 -0.4715 -0.3239  0.8389
 2579SOL    HW2 9026   1.426   0.988   7.828  0.3265  0.4374  0.2057
 2580SOL     OW 9027   4.587   7.637   3.815 -0.1470 -0.1293 -0.1577
 2580SOL    HW1 9028   4.496   7.640   3.842  0.5815 -0.9362  2.7795
 2580SOL    HW2 9029   4.619   7.727   3.826  0.0389 -0.3704  1.4764
 2581SOL     OW 9030   5.319   3.583   1.093 -0.6279  0.1995 -0.4399
 2581SOL    HW1 9031   5.285   3.582   1.183  1.8537 -0.2287  0.5788
 2581SOL    HW2 9032   5.241   3.573   1.038 -2.0013 -4.1346  1.7625
 2582SOL     OW 9033   0.954   8.587   7.025 -0.1470 -0.5893 -0.2583
 2582SOL    HW1 9034   0.867   8.563   6.995 -0.6296 -1.4487  1.6670
 2582SOL    HW2 9035   1.009   8.513   7.001  0.0808 -0.0612 -1.4441
 2583SOL     OW 9036   3.809   7.960   5.536 -0.2280  0.2837 -0.2406
 2583SOL    HW1 9037   3.840   7.921   5.454  1.3625  0.7786  0.0865
 2583SOL    HW2 9038   3.888   7.999   5.575 -0.2440 -2.3840  2.9496
 2584SOL     OW 9039   3.149   7.573   7.720 -1.0155 -0.1816 -0.1673
 2584SOL    HW1 9040   3.106   7.507   7.666  1.2144 -1.5443 -0.3792
 2584SOL    HW2 9041   3.181   7.525   7.797  1.2523  0.4399 -0.6507
 2585SOL     OW 9042   7.602   4.979   0.088 -0.3865 -0.1197  0.5199
 2585SOL    HW1 9043   7.676   4.930   0.054 -0.9048 -2.3537  2.3571
 2585SOL    HW2 9044   7.641   5.048   0.142  0.4117 -1.2269  1.4124
 2586SOL     OW 9045   1.719   2.968   8.072 -0.1967 -0.1089 -0.0299
 2586SOL    HW1 9046   1.717   2.898   8.138 -2.3863 -0.3495 -0.2646
 2586SOL    HW2 9047   1.750   3.045   8.120  0.4169 -0.7945  0.7150
 2587SOL     OW 9048   5.714   8.050   2.263  0.7113 -0.3545  0.1742
 2587SOL    HW1 9049   5.728   8.108   2.188 -0.8198 -0.1674 -0.0039
 2587SOL    HW2 9050   5.761   8.091   2.335  2.3812 -0.6436 -0.6982
 2588SOL     OW 9051   4.405   4.121   6.500  0.2096 -0.9487  0.6931
 2588SOL    HW1 9052   4.431   4.030   6.517  0.5361 -0.9045  0.4254
 2588SOL    HW2 9053   4.487   4.168   6.487  0.0025 -1.2914 -2.6768
 2589SOL     OW 9054   8.176   3.620   8.685  0.3212  0.0644 -0.4206
 2589SOL    HW1 9055   8.215   3.667   8.611  1.1509  0.6409  0.3536
 2589SOL    HW2 9056   8.094   3.666   8.702  0.8635  0.9005 -0.0179
 2590SOL     OW 9057   0.419   3.188   8.178  0.5570  0.0849 -0.0943
 2590SOL    HW1 9058   0.336   3.226   8.149  0.8173  0.6303 -0.1473
 2590SOL    HW2 9059   0.484   3.225   8.118  0.6641 -1.4953 -0.9916
 2591SOL     OW 9060   7.619   1.923   5.202  0.0529 -0.4574 -0.1532
 2591SOL    HW1 9061   7.683   1.961   5.262 -2.0376 -0.0531  1.9945
 2591SOL    HW2 9062   7.613   1.984   5.129  0.4696  0.6705  0.7379
 2592SOL     OW 9063   2.315   6.342   7.580 -0.6734  0.0732 -0.2348
 2592SOL    HW1 9064   2.371   6.281   7.532 -1.1192 -1.2486  0.8684
 2592SOL    HW2 9065   2.345   6.336   7.670 -1.8519  0.1885  0.1817
 2593SOL     OW 9066   1.067   6.288   6.253 -0.3214  0.6040 -0.1263
 2593SOL    HW1 9067   1.073   6.382   6.267 -1.7384  1.0117 -1.8716
 2593SOL    HW2 9068   1.003   6.258   6.318  0.6167  0.6980  0.8722
 2594SOL     OW 9069   1.111   1.020   7.341 -0.2397  0.0695 -0.1456
 2594SOL    HW1 9070   1.113   0.954   7.272 -2.3877 -2.7924  2.2671
 2594SOL    HW2 9071   1.080   1.099   7.298 -0.8524 -1.3935 -2.5823
 2595SOL     OW 9072   5.926   1.839   7.777 -0.5470 -0.0002  0.3553
 2595SOL    HW1 9073   5.926   1.777   7.704 -2.6527  1.2064 -0.7441
 2595SOL    HW2 9074   5.946   1.923   7.737  0.0152  0.4165  1.4774
 2596SOL     OW 9075   3.616   3.325   5.359 -0.5003  0.3931  0.0315
 2596SOL    HW1 9076   3.657   3.383   5.295 -1.6838  0.1614 -0.9788
 2596SOL    HW2 9077   3.689   3.274   5.395  0.3344  1.3119 -0.3037
 2597SOL     OW 9078   0.231   3.671   0.874  0.5557  0.6470  0.3987
 2597SOL    HW1 9079   0.271   3.588   0.847 -1.1521 -0.0266 -0.1895
 2597SOL    HW2 9080   0.289   3.704   0.943 -0.2400 -2.5475  2.8652
 2598SOL     OW 9081   2.582   8.222   3.339 -0.2110 -0.3597  0.5349
 2598SOL    HW1 9082   2.535   8.224   3.423 -0.9380  0.4104  0.1330
 2598SOL    HW2 9083   2.647   8.291   3.346 -0.6719  0.1150  0.2607
 2599SOL     OW 9084   2.749   2.761   4.001 -0.5646 -0.2871 -0.7875
 2599SOL    HW1 9085   2.743   2.809   3.918 -0.7169  1.4204  0.1742
 2599SOL    HW2 9086   2.662   2.722   4.012 -1.7701  2.3828  0.1906
 2600SOL     OW 9087   0.352   2.481   4.807  0.1108  0.4194  0.2793
 2600SOL    HW1 9088   0.396   2.566   4.796  0.2205  0.3938  0.5118
 2600SOL    HW2 9089   0.422   2.416   4.796 -0.0191  0.3484 -0.1419
 2601SOL     OW 9090   2.813   3.195   6.230 -0.6734  0.4644  0.1089
 2601SOL    HW1 9091   2.870   3.170   6.302  0.5103 -0.0410 -0.9504
 2601SOL    HW2 9092   2.802   3.290   6.238  1.1344  0.7292 -0.1926
 2602SOL     OW 9093   1.916   8.085   6.396  0.3805  0.7204  0.2291
 2602SOL    HW1 9094   1.861   8.154   6.433  0.7326  0.8652  0.4826
 2602SOL    HW2 9095   1.976   8.060   6.467 -0.4952 -0.6647  0.5311
 2603SOL     OW 9096   5.200   1.728   8.149  0.0166 -0.4973  0.1127
 2603SOL    HW1 9097   5.258   1.775   8.209  0.0055 -0.1137 -0.1744
 2603SOL    HW2 9098   5.233   1.750   8.062  0.7782 -2.0179 -0.0079
 2604SOL     OW 9099   2.482   0.376   7.371 -0.6631  0.2129 -0.0752
 2604SOL    HW1 9100   2.514   0.405   7.457 -0.4994  1.8593 -0.6610
 2604SOL    HW2 9101   2.545   0.309   7.343  1.1529  1.9358 -0.3002
 2605SOL     OW 9102   0.748   4.296   6.943  0.2877 -0.4576  0.3403
 2605SOL    HW1 9103   0.727   4.345   6.864 -0.6432  0.6893  1.2620
 2605SOL    HW2 9104   0.669   4.246   6.962  0.3959 -0.4888  0.7096
 2606SOL     OW 9105   3.399   3.538   6.673 -0.4686  0.8496  0.1447
 2606SOL    HW1 9106   3.427   3.576   6.590  0.2906 -0.5614 -0.2866
 2606SOL    HW2 9107   3.479   3.534   6.725 -0.7286  0.7448  0.5390
 2607SOL     OW 9108   2.516   7.309   1.965 -0.3613 -0.2104 -0.5516
 2607SOL    HW1 9109   2.556   7.367   1.901  2.6165  1.2500  2.3811
 2607SOL    HW2 9110   2.552   7.223   1.945  3.8886  0.8843  1.3566
 2608SOL     OW 9111   5.454   0.952   2.911 -0.5519 -0.4107  0.0212
 2608SOL    HW1 9112   5.474   1.009   2.986 -1.6298 -0.0769  0.0830
 2608SOL    HW2 9113   5.413   0.875   2.951 -0.2756 -0.6534 -0.1623
 2609SOL     OW 9114   7.021   0.053   5.900  0.1346  0.2816  0.0215
 2609SOL    HW1 9115   6.999   0.045   5.993 -0.3938  0.4075 -0.0918
 2609SOL    HW2 9116   6.985  -0.026   5.860 -0.2190  0.5414 -0.1821
 2610SOL     OW 9117   6.698   8.041   2.840  0.1123 -0.1927  0.0311
 2610SOL    HW1 9118   6.741   8.074   2.761  2.0979 -1.5896  0.4401
 2610SOL    HW2 9119   6.642   7.970   2.809 -0.4332  0.3691 -0.2899
 2611SOL     OW 9120   2.279   7.509   2.290  0.7380  0.3376  0.6441
 2611SOL    HW1 9121   2.224   7.579   2.255  0.1060 -1.6121 -2.6904
 2611SOL    HW2 9122   2.218   7.450   2.334  0.0170 -1.5217 -2.5491
 2612SOL     OW 9123   8.581   5.634   6.082  0.0101  0.6139 -0.0419
 2612SOL    HW1 9124   8.632   5.659   6.159  0.7696 -0.6456 -0.1237
 2612SOL    HW2 9125   8.633   5.663   6.007  1.6064 -2.2781 -0.1903
 2613SOL     OW 9126   3.015   3.528   7.672  0.2561 -0.5670  0.1246
 2613SOL    HW1 9127   2.978   3.446   7.639 -0.4212 -0.1815 -0.0863
 2613SOL    HW2 9128   3.070   3.501   7.746 -0.1694 -1.1793  0.2242
 2614SOL     OW 9129   7.180   1.289   4.991  0.3183  0.2672  0.6850
 2614SOL    HW1 9130   7.112   1.321   5.050 -1.0087 -0.3538 -0.4485
 2614SOL    HW2 9131   7.139   1.289   4.904  2.6460  2.5298 -0.5402
 2615SOL     OW 9132   8.315   8.068   0.797 -0.6560 -0.4658  0.2498
 2615SOL    HW1 9133   8.258   8.008   0.845 -1.0655 -0.4172 -0.1724
 2615SOL    HW2 9134   8.266   8.091   0.718  0.2010 -0.9198 -0.4434
 2616SOL     OW 9135   4.711   4.511   5.965 -0.1595  0.1450 -0.3743
 2616SOL    HW1 9136   4.777   4.502   6.034 -1.1230 -1.0221  0.4347
 2616SOL    HW2 9137   4.658   4.431   5.972 -0.4394  0.1180 -2.3077
 2617SOL     OW 9138   1.407   5.883   6.689 -0.0800  0.3309 -0.0137
 2617SOL    HW1 9139   1.369   5.820   6.751  1.3784  1.1593  1.8190
 2617SOL    HW2 9140   1.339   5.897   6.624 -2.2550  0.4592  2.1701
 2618SOL     OW 9141   4.784   6.617   2.322  0.5135 -0.6331 -0.4595
 2618SOL    HW1 9142   4.843   6.651   2.254  0.3619 -0.3259 -0.4393
 2618SOL    HW2 9143   4.767   6.526   2.296  0.4173 -0.5012 -0.8612
 2619SOL     OW 9144   2.537   5.828   4.645  0.2106  0.0329 -0.9715
 2619SOL    HW1 9145   2.606   5.794   4.702 -0.9493 -0.1952  0.3381
 2619SOL    HW2 9146   2.525   5.919   4.674 -1.0273 -0.3621 -0.1854
 2620SOL     OW 9147   1.400   7.045   3.874  0.2219 -0.2392  0.6015
 2620SOL    HW1 9148   1.343   7.115   3.843 -1.0085 -0.8410  1.4370
 2620SOL    HW2 9149   1.475   7.046   3.814 -0.2503  1.1300  0.0115
 2621SOL     OW 9150   4.061   5.801   2.728 -0.2207 -0.3999 -0.3817
 2621SOL    HW1 9151   4.046   5.855   2.651  0.8691 -1.5197 -1.4163
 2621SOL    HW2 9152   4.057   5.862   2.801  0.4279  0.9863 -1.4633
 2622SOL     OW 9153   4.684   0.301   5.894 -0.5425  0.2728 -0.1932
 2622SOL    HW1 9154   4.708   0.267   5.808  0.2255  0.2256  0.0316
 2622SOL    HW2 9155   4.590   0.289   5.899 -0.1847 -3.2137  0.4441
 2623SOL     OW 9156   0.903   2.238   3.575  0.4589  0.0917  0.3914
 2623SOL    HW1 9157   0.914   2.144   3.561  0.1161  0.0353  0.5052
 2623SOL    HW2 9158   0.986   2.266   3.613  2.0093  0.5048 -2.9099
 2624SOL     OW 9159   8.217   1.427   6.770  0.3104  1.0415 -0.0261
 2624SOL    HW1 9160   8.256   1.506   6.808 -0.6642  3.2771 -3.2497
 2624SOL    HW2 9161   8.122   1.440   6.780  0.0854 -1.9102  3.2086
 2625SOL     OW 9162   8.391   3.643   5.075 -0.0226  0.1426  0.0316
 2625SOL    HW1 9163   8.396   3.667   5.168  0.7049  0.0881  0.0115
 2625SOL    HW2 9164   8.410   3.725   5.029  0.4892 -0.0247 -0.0586
 2626SOL     OW 9165   2.767   7.848   3.735  1.2153  0.7942  0.3953
 2626SOL    HW1 9166   2.762   7.826   3.642  1.1198 -0.0254  0.5819
 2626SOL    HW2 9167   2.859   7.867   3.751  1.4462 -0.2256  0.3671
 2627SOL     OW 9168   0.153   3.182   2.505  0.3570 -0.4784  0.1921
 2627SOL    HW1 9169   0.246   3.202   2.511  0.7693 -2.5144  1.9647
 2627SOL    HW2 9170   0.134   3.135   2.586 -2.4972  0.8474  0.3981
 2628SOL     OW 9171   5.853   3.742   6.190 -0.1615 -0.1522 -0.4658
 2628SOL    HW1 9172   5.835   3.781   6.276  2.2218 -0.7197  0.3892
 2628SOL    HW2 9173   5.911   3.668   6.210  0.5379 -0.2307 -2.5848
 2629SOL     OW 9174   0.733   7.895   3.455 -0.2809 -0.5677 -0.1270
 2629SOL    HW1 9175   0.649   7.937   3.471  0.3444  1.1182 -1.0549
 2629SOL    HW2 9176   0.794   7.939   3.515  0.3084 -0.3841 -0.8440
 2630SOL     OW 9177   1.993   1.556   7.316  0.0267 -0.1479  0.6618
 2630SOL    HW1 9178   2.054   1.549   7.389  0.3320 -0.2004  0.4060
 2630SOL    HW2 9179   1.935   1.481   7.326 -0.3632  0.2306  1.2392
 2631SOL     OW 9180   6.816   8.380   0.899 -0.1030  0.6759  1.2699
 2631SOL    HW1 9181   6.789   8.425   0.819  0.7018 -0.8311  0.1069
 2631SOL    HW2 9182   6.759   8.303   0.904  1.3479 -0.4507  0.9004
 2632SOL     OW 9183   5.560   4.968   2.035 -0.0532 -0.1309 -0.4930
 2632SOL    HW1 9184   5.537   5.057   2.061  1.6410  0.2620 -0.1768
 2632SOL    HW2 9185   5.481   4.917   2.049 -0.4916  0.9501  1.2314
 2633SOL     OW 9186   6.873   0.424   6.837  0.6734  0.2110  0.1566
 2633SOL    HW1 9187   6.785   0.457   6.857  0.5453 -0.0469  0.0256
 2633SOL    HW2 9188   6.857   0.344   6.786  0.9732 -0.6299  1.3535
 2634SOL     OW 9189   2.633   6.841   5.006  0.0594 -0.3450  0.4300
 2634SOL    HW1 9190   2.561   6.859   4.946  0.2873  0.3315  0.3480
 2634SOL    HW2 9191   2.597   6.858   5.093  0.6171  1.8014  0.2853
 2635SOL     OW 9192   2.041   7.795   4.407 -0.2237  0.4118 -0.3446
 2635SOL    HW1 9193   2.051   7.831   4.319  2.0413  0.0090 -0.3164
 2635SOL    HW2 9194   2.131   7.777   4.435 -0.9715 -0.3687  1.6742
 2636SOL     OW 9195   7.748   3.998   3.314  0.1479 -0.8122 -0.4402
 2636SOL    HW1 9196   7.808   4.061   3.274  0.2393 -1.0476 -0.6851
 2636SOL    HW2 9197   7.797   3.962   3.388 -0.1639 -0.1025  0.1127
 2637SOL     OW 9198   4.780   3.138   7.276 -0.0341  0.1397  0.1625
 2637SOL    HW1 9199   4.846   3.120   7.209  0.0478  0.9781  0.0022
 2637SOL    HW2 9200   4.711   3.074   7.260 -1.0124  1.6174 -2.0839
 2638SOL     OW 9201   3.835   3.117   7.468 -0.0834 -0.3213 -0.3697
 2638SOL    HW1 9202   3.815   3.080   7.382 -0.6329  0.6360 -0.6634
 2638SOL    HW2 9203   3.928   3.096   7.481  0.1581  0.0031 -1.4406
 2639SOL     OW 9204   7.699   4.522   5.960 -0.4225  0.1836 -0.3812
 2639SOL    HW1 9205   7.625   4.547   6.016  2.1693  1.0539  2.9892
 2639SOL    HW2 9206   7.680   4.431   5.935 -2.6655  0.4154  0.2160
 2640SOL     OW 9207   5.568   4.679   6.713  0.1522  0.2030  0.3598
 2640SOL    HW1 9208   5.516   4.677   6.632 -0.2857  1.5897  0.5694
 2640SOL    HW2 9209   5.519   4.738   6.771  0.1968 -1.1466  1.8331
 2641SOL     OW 9210   2.857   1.424   2.672 -0.6708  0.6748 -0.0975
 2641SOL    HW1 9211   2.780   1.449   2.622 -1.7633  1.6491  1.9970
 2641SOL    HW2 9212   2.856   1.328   2.670 -2.7633  0.6219  1.0559
 2642SOL     OW 9213   3.595   1.678   1.329 -0.0628 -0.6325  0.0325
 2642SOL    HW1 9214   3.515   1.723   1.354  0.6721  2.0926 -1.9588
 2642SOL    HW2 9215   3.645   1.670   1.410 -0.1335  2.5744  0.5170
 2643SOL     OW 9216   0.694   8.051   4.038  0.4585  0.2561 -0.6498
 2643SOL    HW1 9217   0.638   8.090   3.971  1.3907 -0.8281 -2.1290
 2643SOL    HW2 9218   0.691   7.957   4.019  0.0700 -0.1804  1.3946
 2644SOL     OW 9219   3.116   7.715   7.186  0.8357 -0.9583  0.0615
 2644SOL    HW1 9220   3.130   7.748   7.097 -0.7935 -0.5473 -0.0667
 2644SOL    HW2 9221   3.175   7.767   7.240 -0.6709  1.2990 -0.3229
 2645SOL     OW 9222   1.473   2.681   5.949  0.1220  0.4349 -0.1172
 2645SOL    HW1 9223   1.491   2.595   5.987 -1.7707  0.4170  0.8654
 2645SOL    HW2 9224   1.464   2.663   5.855 -1.7497 -0.7925  0.2283
 2646SOL     OW 9225   7.391   5.566   6.202 -0.7732  0.0800 -0.0978
 2646SOL    HW1 9226   7.482   5.582   6.180 -0.4937  0.6515  1.3585
 2646SOL    HW2 9227   7.344   5.642   6.168 -0.9338 -0.7624 -1.9143
 2647SOL     OW 9228   4.878   6.101   4.855  0.2163  0.0198  0.2795
 2647SOL    HW1 9229   4.861   6.074   4.945  0.0137  1.8505  0.8413
 2647SOL    HW2 9230   4.945   6.169   4.863 -0.6324  1.0379 -0.8264
 2648SOL     OW 9231   2.459   0.577   5.046 -0.7787 -0.0132  0.2570
 2648SOL    HW1 9232   2.546   0.540   5.036 -1.0557 -0.5517 -0.2517
 2648SOL    HW2 9233   2.465   0.635   5.122  0.7559  2.1794 -1.4262
 2649SOL     OW 9234   5.733   0.241   3.116  0.0750 -0.0030  0.3761
 2649SOL    HW1 9235   5.751   0.239   3.022  0.4635  1.2744  0.4050
 2649SOL    HW2 9236   5.703   0.153   3.137  0.9126 -0.5783 -0.7625
 2650SOL     OW 9237   6.084   5.797   5.828 -0.1821 -0.6636 -0.6897
 2650SOL    HW1 9238   6.061   5.845   5.908  0.9362  1.4947 -1.5685
 2650SOL    HW2 9239   6.018   5.823   5.764 -0.2813 -1.2985 -0.8499
 2651SOL     OW 9240   4.735   3.556   6.911  0.1640  0.0131  0.5299
 2651SOL    HW1 9241   4.723   3.461   6.908 -0.9291  0.1517 -0.4872
 2651SOL    HW2 9242   4.826   3.569   6.884 -0.4799 -0.6513 -2.3502
 2652SOL     OW 9243   4.259   5.857   7.321  1.0920  0.2918 -0.1465
 2652SOL    HW1 9244   4.200   5.902   7.381 -0.3972 -1.6049 -0.0749
 2652SOL    HW2 9245   4.232   5.887   7.234 -1.4238 -1.9762 -0.2636
 2653SOL     OW 9246   4.397   3.685   3.869  0.5343 -0.4103  0.0377
 2653SOL    HW1 9247   4.396   3.599   3.911  1.7284  0.9134  3.0997
 2653SOL    HW2 9248   4.321   3.730   3.906  0.3191  0.0850 -0.9941
 2654SOL     OW 9249   2.469   4.156   8.710 -0.5416 -0.0267  0.1952
 2654SOL    HW1 9250   2.558   4.131   8.736  0.1686  0.3458 -1.6997
 2654SOL    HW2 9251   2.414   4.130   8.784  1.0218 -1.0640  1.0523
 2655SOL     OW 9252   5.323   2.912   0.877 -0.1368 -0.0325  0.0319
 2655SOL    HW1 9253   5.411   2.921   0.839 -0.1771  1.2522  0.1755
 2655SOL    HW2 9254   5.264   2.937   0.805 -0.2523  1.5360  0.6165
 2656SOL     OW 9255   4.332   0.639   5.156 -0.5407 -0.1322 -1.0823
 2656SOL    HW1 9256   4.359   0.550   5.179 -0.8624 -0.0416 -0.3396
 2656SOL    HW2 9257   4.245   0.649   5.194 -0.0532  0.8839 -0.1744
 2657SOL     OW 9258   1.120   3.641   8.605 -0.0207 -0.2718  0.0338
 2657SOL    HW1 9259   1.032   3.648   8.570 -0.2396 -0.8705  0.4615
 2657SOL    HW2 9260   1.108   3.628   8.699  0.4771 -1.7156 -0.0825
 2658SOL     OW 9261   4.410   2.659   4.204 -0.5389  0.0687 -0.1743
 2658SOL    HW1 9262   4.450   2.730   4.154  0.1265  0.2116  0.5298
 2658SOL    HW2 9263   4.472   2.587   4.195 -1.1838 -0.4119 -0.8362
 2659SOL     OW 9264   4.758   6.462   2.608 -0.1669  0.3783  0.5625
 2659SOL    HW1 9265   4.789   6.388   2.660  1.4101  1.0116  0.5812
 2659SOL    HW2 9266   4.745   6.426   2.520  1.4744  0.2411  0.3492
 2660SOL     OW 9267   0.036   2.292   0.067  0.2576 -0.2730 -0.3246
 2660SOL    HW1 9268   0.010   2.376   0.028 -0.9729  0.1416  1.3116
 2660SOL    HW2 9269   0.109   2.263   0.012 -0.7281  0.7633 -2.3002
 2661SOL     OW 9270   8.185   8.239   6.461  0.0231 -0.0546 -0.1828
 2661SOL    HW1 9271   8.272   8.235   6.421  1.3347 -0.9096  2.5178
 2661SOL    HW2 9272   8.187   8.318   6.515 -0.4402 -0.6665  0.7538
 2662SOL     OW 9273   2.319   7.366   1.206 -0.4107 -0.1840  0.1978
 2662SOL    HW1 9274   2.319   7.337   1.115 -0.2136 -0.0211  0.1436
 2662SOL    HW2 9275   2.412   7.373   1.229 -0.3403  2.5501 -0.5116
 2663SOL     OW 9276   1.351   6.975   2.250  0.3608  0.5076  0.3187
 2663SOL    HW1 9277   1.295   6.983   2.327  0.0853  1.1339  0.0672
 2663SOL    HW2 9278   1.433   6.939   2.283 -0.3052 -0.7412  0.6430
 2664SOL     OW 9279   0.616   4.913   8.078  0.3445 -0.6310  0.1981
 2664SOL    HW1 9280   0.702   4.905   8.119  0.5944 -0.9522 -0.3681
 2664SOL    HW2 9281   0.570   4.979   8.129  0.1721 -1.9272  1.8075
 2665SOL     OW 9282   0.758   7.564   1.756 -0.4741  0.2498 -0.0152
 2665SOL    HW1 9283   0.705   7.550   1.678 -0.3148  0.1319 -0.1040
 2665SOL    HW2 9284   0.823   7.629   1.729 -0.8640  0.7487  0.2319
 2666SOL     OW 9285   8.367   0.997   5.712  0.3830  0.0602  0.1571
 2666SOL    HW1 9286   8.344   0.992   5.620  2.0573 -1.1386 -0.2560
 2666SOL    HW2 9287   8.458   1.028   5.712  1.4273 -2.6541  1.1704
 2667SOL     OW 9288   0.509   8.025   3.551 -0.4682 -0.1347 -0.3987
 2667SOL    HW1 9289   0.508   8.077   3.632  1.4768  0.7592 -0.8744
 2667SOL    HW2 9290   0.426   8.045   3.509 -1.9602 -1.3275  1.7384
 2668SOL     OW 9291   6.085   3.641   8.105 -0.5204  0.4339 -0.4958
 2668SOL    HW1 9292   5.994   3.611   8.097 -0.0887 -1.0922  0.0018
 2668SOL    HW2 9293   6.137   3.564   8.084  0.6490  0.0890  2.9250
 2669SOL     OW 9294   5.272   0.094   0.426  0.2456 -0.0794  0.2434
 2669SOL    HW1 9295   5.254   0.045   0.346 -0.3236 -0.5326  0.6403
 2669SOL    HW2 9296   5.366   0.115   0.421  0.4155 -0.8846 -0.1114
 2670SOL     OW 9297   7.562   5.053   4.896 -0.5802 -0.7467  0.1127
 2670SOL    HW1 9298   7.483   5.067   4.947  0.5038  0.7278  1.4983
 2670SOL    HW2 9299   7.544   5.094   4.812 -0.0125  3.3345  1.7266
 2671SOL     OW 9300   0.648   6.703   2.420  0.3233 -0.0653 -0.1261
 2671SOL    HW1 9301   0.724   6.677   2.369  1.6019  1.7040  0.7683
 2671SOL    HW2 9302   0.684   6.748   2.497 -1.6032  1.1394  0.1556
 2672SOL     OW 9303   0.150   7.453   7.934  0.0101 -0.7023 -0.0893
 2672SOL    HW1 9304   0.231   7.478   7.978 -0.5576  1.8041 -0.3077
 2672SOL    HW2 9305   0.088   7.437   8.005  0.0387 -0.1417  0.0670
 2673SOL     OW 9306   6.977   3.865   7.983  0.3471 -0.3386  0.0383
 2673SOL    HW1 9307   6.949   3.916   7.907  1.7960  1.6008  0.7151
 2673SOL    HW2 9308   6.996   3.778   7.947 -0.8826 -0.0528 -1.4268
 2674SOL     OW 9309   3.281   4.426   2.509 -0.5191 -0.5015 -0.2423
 2674SOL    HW1 9310   3.272   4.519   2.526 -0.3650 -0.6823  0.9447
 2674SOL    HW2 9311   3.234   4.411   2.427  0.2924  0.7820 -0.9771
 2675SOL     OW 9312   2.049   2.897   3.737  0.7188  0.7015 -0.0199
 2675SOL    HW1 9313   2.017   2.896   3.827 -1.8861  1.8804 -0.8367
 2675SOL    HW2 9314   2.033   2.987   3.707  0.1533 -0.0428 -2.1077
 2676SOL     OW 9315   5.727   5.861   7.188  0.4739  0.0052  0.5150
 2676SOL    HW1 9316   5.684   5.942   7.161  0.7234  0.2075  0.7264
 2676SOL    HW2 9317   5.686   5.794   7.133 -0.2642  0.1608  0.8562
 2677SOL     OW 9318   6.276   0.950   3.036 -0.0015 -0.3029  0.1269
 2677SOL    HW1 9319   6.219   0.894   3.088 -0.2431 -1.2304 -1.0789
 2677SOL    HW2 9320   6.300   1.022   3.094 -1.6240 -0.4004  0.9662
 2678SOL     OW 9321   0.071   1.771   0.827  0.4668  0.2557  0.0026
 2678SOL    HW1 9322   0.082   1.677   0.842 -2.1676 -0.0365  0.5845
 2678SOL    HW2 9323   0.051   1.777   0.734  4.0867  0.7296 -0.9202
 2679SOL     OW 9324   1.356   5.935   5.912 -0.0830  0.0331  0.0163
 2679SOL    HW1 9325   1.330   5.843   5.914  1.5613 -0.4963 -0.8437
 2679SOL    HW2 9326   1.422   5.944   5.981  0.3331  0.3680 -0.4166
 2680SOL     OW 9327   2.523   4.844   1.282 -0.1608 -0.4440 -0.0441
 2680SOL    HW1 9328   2.428   4.837   1.270 -0.3528 -1.1858  1.5955
 2680SOL    HW2 9329   2.543   4.776   1.347  1.3575  0.2943  0.2894
 2681SOL     OW 9330   7.413   1.299   5.282 -0.1543  0.3576  0.4149
 2681SOL    HW1 9331   7.330   1.323   5.323 -1.9623 -2.4637 -1.2996
 2681SOL    HW2 9332   7.462   1.254   5.351 -0.8098  0.4530  0.9577
 2682SOL     OW 9333   5.126   4.669   4.175 -0.6227  0.1780 -0.7185
 2682SOL    HW1 9334   5.217   4.685   4.198 -0.8182 -1.2428  1.2617
 2682SOL    HW2 9335   5.081   4.750   4.199 -0.1693  0.1794  0.1552
 2683SOL     OW 9336   1.275   7.365   1.974 -0.6226  0.7363  0.3187
 2683SOL    HW1 9337   1.308   7.454   1.986 -1.4983  1.1021  0.0733
 2683SOL    HW2 9338   1.192   7.376   1.929 -0.6293 -0.2263  0.0692
 2684SOL     OW 9339   7.395   0.045   7.188  0.4353  0.0699 -0.3881
 2684SOL    HW1 9340   7.419   0.109   7.121 -0.0705 -0.7100 -1.3351
 2684SOL    HW2 9341   7.346  -0.023   7.141  0.4159 -0.7046  0.7003
 2685SOL     OW 9342   0.744   3.044   5.907 -0.3825  0.1082 -0.3019
 2685SOL    HW1 9343   0.662   3.071   5.867 -1.1933 -0.8243  0.6516
 2685SOL    HW2 9344   0.770   3.118   5.962 -1.5251 -0.2493  0.7499
 2686SOL     OW 9345   8.224   7.293   7.277 -0.3663  0.7110 -0.0774
 2686SOL    HW1 9346   8.192   7.243   7.352 -2.9500  1.5807 -0.4900
 2686SOL    HW2 9347   8.297   7.344   7.311 -0.5234 -0.0321  1.4490
 2687SOL     OW 9348   6.509   3.163   1.797 -0.1868  0.9022  0.1315
 2687SOL    HW1 9349   6.418   3.189   1.812 -0.7125 -1.5185  1.6570
 2687SOL    HW2 9350   6.512   3.138   1.704 -1.7015 -1.0973  0.5684
 2688SOL     OW 9351   5.375   8.524   2.879 -0.6661  0.4134 -0.4464
 2688SOL    HW1 9352   5.454   8.560   2.919  0.1930 -1.7887  0.0126
 2688SOL    HW2 9353   5.334   8.473   2.949 -0.6770 -1.1647 -1.5366
 2689SOL     OW 9354   7.255   7.037   4.298  0.5600  0.5395  0.0529
 2689SOL    HW1 9355   7.215   7.015   4.382  0.1952  0.1284 -0.2286
 2689SOL    HW2 9356   7.271   6.953   4.256  1.1426  0.7257 -0.1123
 2690SOL     OW 9357   3.741   3.866   5.126  0.2256 -0.6740 -0.4010
 2690SOL    HW1 9358   3.703   3.935   5.071  2.5298 -0.0208 -1.3281
 2690SOL    HW2 9359   3.692   3.788   5.103 -0.1158 -0.0323 -2.0650
 2691SOL     OW 9360   6.932   2.557   3.795  0.9335 -0.1297  0.5833
 2691SOL    HW1 9361   6.887   2.479   3.764  0.5773 -0.0083  0.7831
 2691SOL    HW2 9362   6.963   2.601   3.715  0.1665  0.0983  0.4059
 2692SOL     OW 9363   1.247   2.817   3.538  0.4228  0.0951 -0.1646
 2692SOL    HW1 9364   1.277   2.880   3.603 -0.4602 -0.3604  0.7149
 2692SOL    HW2 9365   1.158   2.794   3.566 -1.0532  1.8245 -2.9503
 2693SOL     OW 9366   3.048   4.819   0.478  0.2583  0.1638 -0.3988
 2693SOL    HW1 9367   2.996   4.885   0.432 -1.0026 -0.1884  0.4487
 2693SOL    HW2 9368   3.053   4.745   0.417 -0.8437 -0.0542 -0.2472
 2694SOL     OW 9369   5.013   1.717   5.419 -0.7487  0.5424 -0.5402
 2694SOL    HW1 9370   5.043   1.775   5.490  0.0585 -0.3945 -0.0946
 2694SOL    HW2 9371   4.922   1.696   5.443 -0.2499 -0.3715  0.6465
 2695SOL     OW 9372   7.314   4.514   5.862  0.1050 -0.3728 -0.7790
 2695SOL    HW1 9373   7.225   4.524   5.896  1.3119 -1.0319  3.1297
 2695SOL    HW2 9374   7.343   4.604   5.844  0.1466  0.4727  2.7064
 2696SOL     OW 9375   7.886   0.293   3.874 -0.0625  0.1111 -0.3783
 2696SOL    HW1 9376   7.919   0.325   3.958 -1.7682 -0.5548  0.5979
 2696SOL    HW2 9377   7.838   0.368   3.837  1.1620  0.5872 -1.0710
 2697SOL     OW 9378   4.780   7.057   0.160 -0.9679  0.2848 -0.4461
 2697SOL    HW1 9379   4.783   6.984   0.222  1.3981  0.6715 -0.0223
 2697SOL    HW2 9380   4.869   7.063   0.126 -0.4644  4.2340  1.0782
 2698SOL     OW 9381   6.346   4.159   6.517 -0.0964 -0.8162  0.6317
 2698SOL    HW1 9382   6.254   4.159   6.544 -1.0478 -1.1666 -2.2060
 2698SOL    HW2 9383   6.362   4.249   6.489 -0.3064 -1.2198 -0.8865
 2699SOL     OW 9384   1.782   4.972   8.501 -0.2981  0.4004 -0.4600
 2699SOL    HW1 9385   1.771   4.923   8.583  1.4756  0.8990  0.1284
 2699SOL    HW2 9386   1.873   4.954   8.476  0.6246  3.7510  0.0618
 2700SOL     OW 9387   8.424   7.400   8.620  0.0148 -0.5606 -0.4718
 2700SOL    HW1 9388   8.346   7.404   8.565  0.5024  0.2381 -1.1328
 2700SOL    HW2 9389   8.426   7.311   8.653 -1.5024 -0.4209  0.0395
 2701SOL     OW 9390   1.949   7.459   4.399 -0.1172 -0.3026  0.0113
 2701SOL    HW1 9391   1.965   7.414   4.481  1.8433  0.8115  0.3087
 2701SOL    HW2 9392   1.926   7.549   4.425  3.1966  0.8668 -0.5413
 2702SOL     OW 9393   5.258   7.858   0.465 -0.4747  0.1416 -0.0291
 2702SOL    HW1 9394   5.261   7.919   0.391  2.2955  0.3045  0.1230
 2702SOL    HW2 9395   5.227   7.776   0.426  0.6729  0.2972 -1.3841
 2703SOL     OW 9396   8.353   3.215   8.659  0.2351  0.3820 -0.7463
 2703SOL    HW1 9397   8.376   3.222   8.566  0.8059 -1.5551 -0.8023
 2703SOL    HW2 9398   8.269   3.260   8.666 -0.2253 -0.1274 -2.3850
 2704SOL     OW 9399   4.139   6.392   1.723 -0.4963  0.5986 -0.1017
 2704SOL    HW1 9400   4.131   6.471   1.670  0.8146  0.2662 -0.8153
 2704SOL    HW2 9401   4.166   6.324   1.662 -0.4283 -0.1349  0.7249
 2705SOL     OW 9402   7.150   0.958   2.968  0.3195 -0.3251 -0.0466
 2705SOL    HW1 9403   7.111   0.886   2.918  1.6242 -2.2127  1.4991
 2705SOL    HW2 9404   7.074   1.006   3.003 -0.5857 -0.6194 -1.5086
 2706SOL     OW 9405   3.612   6.194   6.433 -0.4920  0.4345  0.4897
 2706SOL    HW1 9406   3.642   6.179   6.343  0.1440 -0.2733  0.8068
 2706SOL    HW2 9407   3.594   6.288   6.437  0.3499  0.6353 -0.1183
 2707SOL     OW 9408   0.232   4.779   5.424  0.3363  0.2956  0.4396
 2707SOL    HW1 9409   0.299   4.721   5.388  0.1756 -0.2853  1.0445
 2707SOL    HW2 9410   0.151   4.730   5.417  0.3259  0.0714  1.7306
 2708SOL     OW 9411   0.326   0.509   7.157  0.2406 -0.5654 -0.0372
 2708SOL    HW1 9412   0.368   0.423   7.165 -2.1601 -2.0025 -1.6576
 2708SOL    HW2 9413   0.371   0.551   7.084  0.8332 -0.8141  0.1780
 2709SOL     OW 9414   4.633   0.432   0.027  0.6706 -0.0674 -0.3021
 2709SOL    HW1 9415   4.569   0.461  -0.038  0.3853 -0.4724 -0.1991
 2709SOL    HW2 9416   4.658   0.344  -0.001 -1.7476 -1.5496  1.8118
 2710SOL     OW 9417   0.292   1.033   7.557  0.3059 -0.2784 -0.3478
 2710SOL    HW1 9418   0.376   0.989   7.569  1.9055  2.8991  1.6429
 2710SOL    HW2 9419   0.256   1.041   7.646 -0.7310  0.8003 -0.8360
 2711SOL     OW 9420   4.666   3.399   3.535 -0.4893 -0.1991  0.1775
 2711SOL    HW1 9421   4.658   3.458   3.610 -0.3463  0.3848 -0.2683
 2711SOL    HW2 9422   4.581   3.355   3.531 -1.2538  1.2673 -0.5665
 2712SOL     OW 9423   7.327   3.579   1.394  0.5252 -0.4915  0.4275
 2712SOL    HW1 9424   7.422   3.562   1.397  0.6297 -0.4566 -1.4857
 2712SOL    HW2 9425   7.320   3.666   1.354 -0.3319 -0.7119  0.0892
 2713SOL     OW 9426   7.810   4.366   3.751 -0.0827 -0.0384  0.0976
 2713SOL    HW1 9427   7.814   4.410   3.836 -3.1363 -1.7116  1.2399
 2713SOL    HW2 9428   7.804   4.273   3.773 -1.8468 -0.4472 -1.8730
 2714SOL     OW 9429   2.307   0.005   6.515 -0.7033 -0.6098 -0.1802
 2714SOL    HW1 9430   2.364  -0.067   6.541 -0.4687  0.0085  1.0613
 2714SOL    HW2 9431   2.240   0.008   6.583 -1.3636 -0.3668 -0.8325
 2715SOL     OW 9432   0.944   7.491   7.742  0.5463  0.0428 -0.0567
 2715SOL    HW1 9433   0.934   7.546   7.665 -1.7576  0.9372  0.8108
 2715SOL    HW2 9434   0.910   7.405   7.715 -0.0727  0.3005 -0.1112
 2716SOL     OW 9435   2.746   3.496   6.772  0.0079  0.3415 -0.4754
 2716SOL    HW1 9436   2.836   3.476   6.747  0.2574 -0.0235  0.6778
 2716SOL    HW2 9437   2.753   3.571   6.831 -0.5045  0.7335 -0.9052
 2717SOL     OW 9438   1.706   3.607   7.712  0.4034 -0.4726  0.3725
 2717SOL    HW1 9439   1.728   3.693   7.676  0.2065 -1.0960 -1.3334
 2717SOL    HW2 9440   1.612   3.598   7.698  0.4942 -1.1267  0.1123
 2718SOL     OW 9441   6.771   2.761   1.284  0.0079 -0.3774 -0.2765
 2718SOL    HW1 9442   6.776   2.708   1.363  0.0878 -0.9075 -0.6296
 2718SOL    HW2 9443   6.709   2.830   1.306 -1.6159 -1.7086 -0.4015
 2719SOL     OW 9444   7.147   0.017   6.791 -0.0918  0.1396  0.2922
 2719SOL    HW1 9445   7.230  -0.030   6.791 -0.2808 -0.2362 -0.9412
 2719SOL    HW2 9446   7.169   0.104   6.822  0.5358 -0.3227  1.1703
 2720SOL     OW 9447   2.477   5.449   3.246 -0.3367 -0.7616  0.2354
 2720SOL    HW1 9448   2.400   5.465   3.300 -0.6491  0.3829 -0.5201
 2720SOL    HW2 9449   2.537   5.402   3.304 -1.6711 -1.8832  0.7671
 2721SOL     OW 9450   7.032   4.289   6.474 -0.1039  0.6513 -0.1916
 2721SOL    HW1 9451   7.071   4.227   6.412 -0.4246  0.7569 -0.4993
 2721SOL    HW2 9452   7.099   4.357   6.483 -0.3766  1.0550 -1.0582
 2722SOL     OW 9453   3.978   5.126   1.671  0.3505  0.0323 -0.6178
 2722SOL    HW1 9454   3.966   5.038   1.636  0.4236 -0.5121  0.6685
 2722SOL    HW2 9455   3.965   5.184   1.596  1.9179 -1.1232 -1.8448
 2723SOL     OW 9456   1.626   0.099   0.763 -0.0138  0.0379 -0.6267
 2723SOL    HW1 9457   1.706   0.048   0.779 -1.6363 -2.6810 -0.4017
 2723SOL    HW2 9458   1.654   0.172   0.709  2.8059 -0.0839  0.5209
 2724SOL     OW 9459   3.812   1.982   2.085 -0.7048 -0.0570 -0.3014
 2724SOL    HW1 9460   3.852   1.897   2.104 -0.7412  0.0264  0.1679
 2724SOL    HW2 9461   3.800   2.022   2.171  1.4952  1.4612 -0.6255
 2725SOL     OW 9462   1.063   2.437   0.332 -0.6533 -0.1517 -0.2346
 2725SOL    HW1 9463   1.040   2.479   0.415 -1.6004 -0.8488 -0.1336
 2725SOL    HW2 9464   1.130   2.494   0.294 -0.1816  0.1552  1.0237
 2726SOL     OW 9465   7.530   7.432   7.811 -0.4241 -0.6275  0.3409
 2726SOL    HW1 9466   7.525   7.523   7.781 -2.7344 -0.5205  0.8559
 2726SOL    HW2 9467   7.613   7.400   7.776 -0.0945  1.3298 -0.8278
 2727SOL     OW 9468   5.427   1.331   4.714  0.2749 -0.1380  0.0231
 2727SOL    HW1 9469   5.390   1.286   4.790 -0.4860  1.4871  0.6728
 2727SOL    HW2 9470   5.481   1.401   4.752 -0.3569  0.8912 -0.8915
 2728SOL     OW 9471   6.305   8.440   4.073 -0.4137 -0.2256 -0.4804
 2728SOL    HW1 9472   6.290   8.505   4.005  1.1813  1.1268  0.3809
 2728SOL    HW2 9473   6.349   8.368   4.029 -2.7154 -1.0742 -1.5629
 2729SOL     OW 9474   6.008   4.733   5.002  0.3051  0.2102 -0.1698
 2729SOL    HW1 9475   6.072   4.756   5.070  1.2252  2.4875 -1.7170
 2729SOL    HW2 9476   6.058   4.679   4.940  0.2333  0.4818 -0.4633
 2730SOL     OW 9477   5.735   4.405   1.962 -0.1809  0.2004  0.3190
 2730SOL    HW1 9478   5.696   4.456   1.891  1.5681  0.7016 -0.3106
 2730SOL    HW2 9479   5.665   4.398   2.027 -1.7351 -0.0297 -1.2954
 2731SOL     OW 9480   1.150   1.000   1.948  0.0375 -0.3592 -0.1309
 2731SOL    HW1 9481   1.231   1.010   1.898  0.5752 -0.2142  0.7436
 2731SOL    HW2 9482   1.155   0.911   1.984  0.8146  0.3598  1.6186
 2732SOL     OW 9483   3.205   6.503   1.083 -0.0506 -0.2653  0.4060
 2732SOL    HW1 9484   3.169   6.461   1.005  0.7042 -1.2344  0.5541
 2732SOL    HW2 9485   3.264   6.570   1.049  1.3257 -1.5805  0.0774
 2733SOL     OW 9486   2.288   7.091   0.182  0.1519  0.0022  0.1267
 2733SOL    HW1 9487   2.267   7.147   0.108  3.2390 -0.5237 -1.2933
 2733SOL    HW2 9488   2.203   7.053   0.208 -1.1788  0.8908 -2.5292
 2734SOL     OW 9489   7.577   5.906   1.693 -0.8019  0.4369  0.3480
 2734SOL    HW1 9490   7.493   5.923   1.650 -0.5773  0.0635 -0.2497
 2734SOL    HW2 9491   7.640   5.957   1.642 -0.3913 -0.7475 -0.3692
 2735SOL     OW 9492   6.036   0.113   3.235 -0.2070  0.5974 -0.2632
 2735SOL    HW1 9493   6.117   0.072   3.207  1.6556  3.7260 -0.0011
 2735SOL    HW2 9494   6.035   0.102   3.330 -0.4527 -0.0285 -0.3365
 2736SOL     OW 9495   7.922   6.691   1.920 -0.1356 -0.6569  0.4397
 2736SOL    HW1 9496   7.829   6.702   1.940 -0.2199  2.3755 -1.0255
 2736SOL    HW2 9497   7.962   6.673   2.005 -1.5087  3.0894  2.1347
 2737SOL     OW 9498   8.651   4.765   1.240  0.1453 -0.5104  0.4178
 2737SOL    HW1 9499   8.585   4.700   1.265  1.7320 -1.8267  1.4018
 2737SOL    HW2 9500   8.686   4.734   1.157 -0.7669  0.4660 -0.3689
 2738SOL     OW 9501   6.613   4.230   2.361  0.0204 -0.0584  0.0607
 2738SOL    HW1 9502   6.603   4.210   2.268  0.7382 -0.5793  0.0896
 2738SOL    HW2 9503   6.566   4.313   2.373  1.2880  0.8685 -1.1049
 2739SOL     OW 9504   6.227   6.966   2.343 -0.0570 -0.2986  0.1330
 2739SOL    HW1 9505   6.293   6.944   2.277  0.5785  1.0207  0.3076
 2739SOL    HW2 9506   6.276   6.992   2.420 -0.6835  2.7010 -0.3790
 2740SOL     OW 9507   7.598   2.158   6.087 -0.1365  1.0825  0.3202
 2740SOL    HW1 9508   7.665   2.142   6.152  0.4699  0.9286 -0.3306
 2740SOL    HW2 9509   7.583   2.253   6.090 -2.2689  0.7861  2.7463
 2741SOL     OW 9510   3.009   1.845   6.236 -0.1965  0.0868 -0.2637
 2741SOL    HW1 9511   2.973   1.924   6.276  2.0949  1.1600 -0.1924
 2741SOL    HW2 9512   2.993   1.856   6.142 -0.4709  0.3154 -0.1906
 2742SOL     OW 9513   8.523   7.070   1.072  0.7466 -0.0830  0.4503
 2742SOL    HW1 9514   8.454   7.083   1.137  0.2443 -1.1411  0.1595
 2742SOL    HW2 9515   8.600   7.112   1.109  0.2406  0.0799  1.3299
 2743SOL     OW 9516   3.250   3.226   6.916 -0.5136  0.6493 -0.2329
 2743SOL    HW1 9517   3.225   3.286   6.846  0.6259  1.2167 -0.1764
 2743SOL    HW2 9518   3.274   3.283   6.989 -0.9814  0.0757  0.3869
 2744SOL     OW 9519   0.811   2.363   2.472 -0.1856  0.3382 -0.5594
 2744SOL    HW1 9520   0.777   2.412   2.397  1.0588 -0.0287 -1.3992
 2744SOL    HW2 9521   0.801   2.271   2.447  0.5241  0.2175 -0.4372
 2745SOL     OW 9522   3.396   2.897   2.324 -0.1489 -0.3469 -0.4374
 2745SOL    HW1 9523   3.453   2.900   2.247  0.4570  1.4861  0.0227
 2745SOL    HW2 9524   3.450   2.932   2.395 -1.1671 -0.6121  0.4952
 2746SOL     OW 9525   6.302   5.956   1.117 -0.1527  0.2644 -0.0344
 2746SOL    HW1 9526   6.226   6.012   1.130  0.5626  1.0159  1.0068
 2746SOL    HW2 9527   6.290   5.920   1.029 -0.6169  2.0615 -0.7429
 2747SOL     OW 9528   0.433   3.957   1.251  0.2428  0.2762  0.3418
 2747SOL    HW1 9529   0.498   3.899   1.291 -0.3942 -0.0480  0.9310
 2747SOL    HW2 9530   0.484   4.015   1.194  0.7676 -2.0364 -1.7569
 2748SOL     OW 9531   2.483   6.588   7.363  0.0113  0.0247  0.5673
 2748SOL    HW1 9532   2.528   6.672   7.354 -0.0013  0.1333  1.4307
 2748SOL    HW2 9533   2.552   6.523   7.354 -0.2282  0.0290 -1.8983
 2749SOL     OW 9534   3.128   6.954   5.299  0.2794 -0.4024  0.2709
 2749SOL    HW1 9535   3.183   7.031   5.284  1.4346 -0.7585  2.4030
 2749SOL    HW2 9536   3.188   6.886   5.328 -0.8464 -1.9026 -0.7273
 2750SOL     OW 9537   1.803   5.472   8.254  0.0943 -0.2031 -0.3307
 2750SOL    HW1 9538   1.896   5.469   8.275 -0.3777  1.0931  2.3995
 2750SOL    HW2 9539   1.771   5.384   8.273  0.6164 -0.3934 -0.3367
 2751SOL     OW 9540   0.295   8.568   4.841  0.3040 -0.0062 -0.0962
 2751SOL    HW1 9541   0.298   8.661   4.817  0.3945 -0.3351 -1.4070
 2751SOL    HW2 9542   0.357   8.526   4.782 -1.3698 -1.2250 -1.0453
 2752SOL     OW 9543   3.206   3.835   7.463  0.3547 -0.2120 -0.1147
 2752SOL    HW1 9544   3.229   3.802   7.376  2.5263  0.4341  0.1523
 2752SOL    HW2 9545   3.257   3.782   7.523  0.6996  0.8792  0.5924
 2753SOL     OW 9546   6.888   3.289   5.253 -0.1271 -0.2862 -0.2433
 2753SOL    HW1 9547   6.908   3.273   5.345 -0.9045  0.1732  0.0174
 2753SOL    HW2 9548   6.842   3.373   5.253 -1.1471 -0.8234 -0.9220
 2754SOL     OW 9549   2.341   0.700   6.072  0.4797 -0.0668  0.0568
 2754SOL    HW1 9550   2.432   0.675   6.057  0.9551  0.4144  1.8974
 2754SOL    HW2 9551   2.301   0.625   6.116  0.6600  0.6220  1.4259
 2755SOL     OW 9552   3.989   8.457   0.563  0.4213  0.3651 -0.6064
 2755SOL    HW1 9553   4.058   8.398   0.531 -0.0987 -0.5731 -0.0644
 2755SOL    HW2 9554   4.002   8.458   0.658 -1.6372 -1.6197 -0.2185
 2756SOL     OW 9555   4.829   8.617   5.822  0.0844  0.8354  0.5042
 2756SOL    HW1 9556   4.780   8.605   5.904 -0.3864  1.1815  0.2804
 2756SOL    HW2 9557   4.869   8.532   5.805 -0.7324  0.4396  0.5076
 2757SOL     OW 9558   2.821   4.868   0.056 -0.4720 -0.7747 -0.2866
 2757SOL    HW1 9559   2.759   4.901  -0.009 -0.4521 -0.0320  0.0622
 2757SOL    HW2 9560   2.767   4.848   0.133 -0.3145 -0.3306 -0.0569
 2758SOL     OW 9561   3.833   2.708   6.277 -0.4729  0.2179  0.6638
 2758SOL    HW1 9562   3.891   2.782   6.257  0.4578 -0.8801 -0.8439
 2758SOL    HW2 9563   3.795   2.685   6.193 -0.6423 -1.1143  1.0963
 2759SOL     OW 9564   3.574   0.879   6.045 -0.1165  0.6364 -0.1875
 2759SOL    HW1 9565   3.581   0.931   6.125 -0.5633  1.7532 -0.8511
 2759SOL    HW2 9566   3.522   0.803   6.070  1.3119  0.0020  1.0284
 2760SOL     OW 9567   5.907   4.034   1.138  0.2908 -0.1739  0.0205
 2760SOL    HW1 9568   5.858   3.965   1.183  0.8747 -1.5823 -1.4312
 2760SOL    HW2 9569   5.948   3.990   1.064  1.7781  1.4774 -0.1951
 2761SOL     OW 9570   7.631   1.369   3.261  0.1824 -0.6035  0.4376
 2761SOL    HW1 9571   7.669   1.309   3.198  1.2861  0.8117 -0.3130
 2761SOL    HW2 9572   7.600   1.443   3.208  1.6579  0.8844  1.5626
 2762SOL     OW 9573   1.659   6.228   2.389 -0.0869 -0.0637 -0.0152
 2762SOL    HW1 9574   1.621   6.252   2.473 -0.9359  0.2887 -0.4793
 2762SOL    HW2 9575   1.603   6.272   2.324  0.1235 -0.8946 -0.7886
 2763SOL     OW 9576   8.347   8.060   4.929 -0.1846  0.2504  0.2389
 2763SOL    HW1 9577   8.331   8.133   4.869 -1.0188 -0.4985 -0.4761
 2763SOL    HW2 9578   8.292   7.989   4.896  1.4920 -1.0970  0.2015
 2764SOL     OW 9579   4.005   7.714   0.094  0.5383  0.0555 -0.0825
 2764SOL    HW1 9580   3.982   7.806   0.078  1.1217 -0.0132 -1.4775
 2764SOL    HW2 9581   3.922   7.671   0.109 -0.2180  0.1137 -3.3900
 2765SOL     OW 9582   6.855   5.715   6.337 -0.4422  0.5451 -0.3252
 2765SOL    HW1 9583   6.821   5.678   6.418  2.6894 -0.3065  0.7523
 2765SOL    HW2 9584   6.822   5.658   6.268 -0.1044 -1.0328  0.7706
 2766SOL     OW 9585   8.096   1.924   5.415 -1.2651  0.6944  0.3256
 2766SOL    HW1 9586   8.158   1.940   5.344 -1.5402  0.9325  0.1425
 2766SOL    HW2 9587   8.129   1.844   5.457 -0.7142  0.9300  0.3565
 2767SOL     OW 9588   2.986   0.469   5.424 -0.7806 -0.2470 -0.1258
 2767SOL    HW1 9589   2.998   0.524   5.501 -0.4908  0.4038 -0.6208
 2767SOL    HW2 9590   3.074   0.435   5.405 -0.6708  0.3478 -0.7123
 2768SOL     OW 9591   5.416   1.135   0.165  0.5188 -0.1670 -0.6417
 2768SOL    HW1 9592   5.406   1.042   0.144  2.0795 -0.0469 -2.1243
 2768SOL    HW2 9593   5.351   1.179   0.109 -0.5919 -0.3664  0.4498
 2769SOL     OW 9594   3.353   8.625   6.442  0.0958 -0.1468 -0.3406
 2769SOL    HW1 9595   3.370   8.713   6.408  1.4105  0.3852  1.4992
 2769SOL    HW2 9596   3.258   8.617   6.440  0.0184  0.5942 -2.1701
 2770SOL     OW 9597   7.669   8.575   6.118  0.0932 -0.2149 -0.1151
 2770SOL    HW1 9598   7.699   8.501   6.171  0.6887 -0.2188 -0.4523
 2770SOL    HW2 9599   7.634   8.535   6.038  2.0262 -0.0690 -1.0837
 2771SOL     OW 9600   4.753   4.602   7.542 -0.0326  0.0536 -0.0798
 2771SOL    HW1 9601   4.672   4.631   7.583 -0.0832  1.5654 -1.1547
 2771SOL    HW2 9602   4.820   4.662   7.576  0.4630 -0.5838  0.0882
 2772SOL     OW 9603   3.065   0.294   2.196  0.1819  0.1377  0.3797
 2772SOL    HW1 9604   3.099   0.210   2.228  0.6002 -0.2214 -0.9334
 2772SOL    HW2 9605   3.140   0.354   2.204 -0.0662  0.3527  1.1572
 2773SOL     OW 9606   5.450   3.731   5.494 -0.3900  0.3769 -0.5448
 2773SOL    HW1 9607   5.386   3.695   5.556 -0.4220  0.8053 -0.3285
 2773SOL    HW2 9608   5.531   3.738   5.544 -0.1299 -0.3004 -0.8579
 2774SOL     OW 9609   0.155   7.855   7.494 -0.1881 -0.5991  0.0298
 2774SOL    HW1 9610   0.185   7.794   7.561 -0.9238 -0.3885  0.5640
 2774SOL    HW2 9611   0.227   7.916   7.482  0.8797 -1.9899 -1.0655
 2775SOL     OW 9612   7.139   4.123   6.304 -0.4565  0.3284 -0.3902
 2775SOL    HW1 9613   7.168   4.126   6.212 -0.3172 -1.9631 -0.4626
 2775SOL    HW2 9614   7.191   4.054   6.344 -3.0328 -1.2670  0.4708
 2776SOL     OW 9615   0.808   7.847   4.283  0.1343 -0.0872 -0.3816
 2776SOL    HW1 9616   0.775   7.816   4.199  1.1983 -0.1106 -0.8081
 2776SOL    HW2 9617   0.899   7.817   4.286  0.2347  0.2683  0.5947
 2777SOL     OW 9618   1.673   0.552   1.822  0.5300  0.0141  0.2060
 2777SOL    HW1 9619   1.677   0.637   1.865  1.6583 -1.0106  2.3129
 2777SOL    HW2 9620   1.692   0.570   1.730  1.4369  1.9626  0.7305
 2778SOL     OW 9621   2.096   2.251   6.595 -0.1532 -0.4937  0.6267
 2778SOL    HW1 9622   2.156   2.285   6.662  1.3438 -0.8937 -0.4545
 2778SOL    HW2 9623   2.107   2.310   6.521  0.2500 -1.5767 -0.2056
 2779SOL     OW 9624   3.018   5.893   1.967  0.0064 -0.0109 -0.1388
 2779SOL    HW1 9625   2.968   5.974   1.954  3.6394  2.4027 -0.6708
 2779SOL    HW2 9626   2.999   5.840   1.890 -1.8683  0.6257 -0.1619
 2780SOL     OW 9627   6.399   5.093   4.916  0.6677 -0.5270 -0.5921
 2780SOL    HW1 9628   6.358   5.029   4.974 -0.5947  1.1437  0.4694
 2780SOL    HW2 9629   6.454   5.041   4.857  1.2832 -2.3857  1.4928
 2781SOL     OW 9630   3.781   7.591   6.648 -0.3251 -0.3702 -0.2256
 2781SOL    HW1 9631   3.778   7.534   6.571 -0.0585 -0.8573  0.1213
 2781SOL    HW2 9632   3.866   7.634   6.641 -0.6473  0.2189 -0.6449
 2782SOL     OW 9633   7.735   5.352   5.735  0.1422  0.8517 -0.2979
 2782SOL    HW1 9634   7.648   5.344   5.772  0.6593 -0.9671  0.6192
 2782SOL    HW2 9635   7.743   5.445   5.713 -2.4069  0.8794 -1.4333
 2783SOL     OW 9636   2.914   1.863   1.289  0.3173 -0.3684  0.2590
 2783SOL    HW1 9637   2.875   1.926   1.229  2.8042  0.4660 -0.5997
 2783SOL    HW2 9638   2.961   1.916   1.353  0.1943 -1.3337  1.1966
 2784SOL     OW 9639   2.454   0.973   4.666  0.1605 -0.0849  0.0140
 2784SOL    HW1 9640   2.504   1.048   4.634 -0.4915 -0.7536 -2.8260
 2784SOL    HW2 9641   2.515   0.900   4.663  0.9040  0.2741  3.1269
 2785SOL     OW 9642   2.029   1.419   8.031 -0.0449 -0.4138  0.1655
 2785SOL    HW1 9643   2.080   1.466   8.097  1.5029 -3.0892  1.0558
 2785SOL    HW2 9644   2.081   1.425   7.951 -0.9326  1.1458 -0.3259
 2786SOL     OW 9645   3.043   7.784   4.716 -0.2375  0.0001  0.3804
 2786SOL    HW1 9646   3.043   7.861   4.772  0.0201  0.2380  0.0594
 2786SOL    HW2 9647   3.112   7.728   4.752 -1.9317 -1.1489  2.0297
 2787SOL     OW 9648   7.040   1.396   7.513 -0.1602 -0.3844 -0.5240
 2787SOL    HW1 9649   7.024   1.443   7.431 -1.4896  0.0512 -0.0447
 2787SOL    HW2 9650   7.053   1.466   7.578  0.3553 -0.7180 -0.2614
 2788SOL     OW 9651   2.015   0.848   7.236  0.1269  0.4342 -0.5527
 2788SOL    HW1 9652   2.016   0.920   7.174 -0.1526 -0.7102 -1.9328
 2788SOL    HW2 9653   2.088   0.792   7.210  0.5712  0.3743  0.7284
 2789SOL     OW 9654   7.259   3.351   5.543 -0.2536  0.4908  0.0116
 2789SOL    HW1 9655   7.345   3.339   5.505  1.1300 -0.2557  3.0426
 2789SOL    HW2 9656   7.256   3.443   5.569 -1.1588  0.9787 -1.6935
 2790SOL     OW 9657   7.743   6.065   6.993  0.3826  0.8575  0.4130
 2790SOL    HW1 9658   7.811   6.132   6.999 -0.4257  1.7022  0.4908
 2790SOL    HW2 9659   7.705   6.077   6.906  0.9136 -0.2002  0.0190
 2791SOL     OW 9660   5.012   8.386   0.628 -0.1297 -0.1775  0.2891
 2791SOL    HW1 9661   5.024   8.459   0.567 -1.3242 -2.5460 -3.0677
 2791SOL    HW2 9662   4.917   8.374   0.633  0.0517 -2.5317 -0.6968
 2792SOL     OW 9663   8.564   1.336   7.605  0.0673 -0.0383  0.9403
 2792SOL    HW1 9664   8.506   1.270   7.645 -1.3917  0.0573 -0.8837
 2792SOL    HW2 9665   8.652   1.304   7.624 -0.5641 -1.0652  2.4184
 2793SOL     OW 9666   6.154   0.890   5.743 -0.6599 -0.3590  0.1200
 2793SOL    HW1 9667   6.153   0.885   5.838  0.2866 -1.1889  0.1025
 2793SOL    HW2 9668   6.238   0.852   5.717 -0.7268  0.2259 -1.0278
 2794SOL     OW 9669   4.314   1.803   2.971  0.2742 -0.1005 -0.1762
 2794SOL    HW1 9670   4.289   1.745   2.900  0.0373  0.1072 -0.2650
 2794SOL    HW2 9671   4.231   1.839   3.003  0.5618  2.3954 -1.9923
 2795SOL     OW 9672   7.835   8.112   2.132  0.2911  0.0430  0.2518
 2795SOL    HW1 9673   7.875   8.181   2.080 -0.7974  1.2059  0.8960
 2795SOL    HW2 9674   7.760   8.154   2.175  0.9544 -0.9206  2.5186
 2796SOL     OW 9675   7.183   0.331   0.533  0.0364 -0.1929 -0.6387
 2796SOL    HW1 9676   7.192   0.254   0.591 -1.5085  0.4934  0.6079
 2796SOL    HW2 9677   7.194   0.406   0.592  1.8327  0.5883 -1.8970
 2797SOL     OW 9678   3.897   5.543   5.520 -0.0860 -0.4709  0.1207
 2797SOL    HW1 9679   3.975   5.486   5.522  2.4032  2.6495 -0.1097
 2797SOL    HW2 9680   3.873   5.554   5.612  0.2648 -0.8143  0.2542
 2798SOL     OW 9681   6.649   8.274   6.563  1.0538 -0.0879  0.2390
 2798SOL    HW1 9682   6.632   8.191   6.608  2.3283  0.1832  1.2883
 2798SOL    HW2 9683   6.578   8.282   6.500  0.0284 -1.2095  1.2001
 2799SOL     OW 9684   1.424   1.775   4.874  0.3711 -0.5825 -0.9169
 2799SOL    HW1 9685   1.334   1.790   4.902  0.9160  1.0064  0.1306
 2799SOL    HW2 9686   1.444   1.686   4.904 -0.6943 -0.7950 -0.7963
 2800SOL     OW 9687   3.078   6.576   5.667  0.2881  0.4387  0.1717
 2800SOL    HW1 9688   3.049   6.654   5.714 -1.4648 -0.4586  0.6712
 2800SOL    HW2 9689   3.039   6.503   5.716  1.8957 -0.7698 -0.2609
 2801SOL     OW 9690   7.869   7.234   8.507 -0.0282  0.0759 -0.3841
 2801SOL    HW1 9691   7.887   7.294   8.579 -1.2677 -0.4171  0.3538
 2801SOL    HW2 9692   7.869   7.290   8.429 -0.9575  1.0316  0.2678
 2802SOL     OW 9693   7.407   4.674   1.814 -0.0676 -0.1299 -1.2073
 2802SOL    HW1 9694   7.412   4.578   1.814  1.9110 -0.0728 -1.1565
 2802SOL    HW2 9695   7.483   4.701   1.762  1.0892  1.4368  1.1308
 2803SOL     OW 9696   5.361   3.588   0.164  0.3085 -0.3520  0.2400
 2803SOL    HW1 9697   5.436   3.622   0.213 -1.5479  1.5715  1.9586
 2803SOL    HW2 9698   5.362   3.637   0.081  0.0772  0.9024  0.9464
 2804SOL     OW 9699   2.951   5.275   3.982 -0.0830  0.2401  0.4077
 2804SOL    HW1 9700   3.007   5.322   4.044 -1.5876  2.1726  0.3801
 2804SOL    HW2 9701   2.871   5.327   3.976 -0.9113 -1.1010 -1.4557
 2805SOL     OW 9702   3.139   1.532   0.625 -0.0086  0.0055 -0.1565
 2805SOL    HW1 9703   3.046   1.545   0.641 -0.4804  0.5524 -2.8523
 2805SOL    HW2 9704   3.146   1.439   0.601  0.5766 -0.6283  2.1598
 2806SOL     OW 9705   0.864   1.948   6.207 -0.2968  0.5455  0.0876
 2806SOL    HW1 9706   0.815   1.880   6.161 -1.6931  0.7455  1.1996
 2806SOL    HW2 9707   0.956   1.925   6.194 -0.7318 -1.9393  0.9698
 2807SOL     OW 9708   1.188   1.796   0.157  0.3388 -0.4408 -0.2899
 2807SOL    HW1 9709   1.268   1.750   0.182  0.2274  0.1297  1.2170
 2807SOL    HW2 9710   1.216   1.856   0.087  1.3723  0.1646  0.6042
 2808SOL     OW 9711   3.014   1.430   4.921 -0.0762 -0.1318 -0.4018
 2808SOL    HW1 9712   3.081   1.486   4.883 -0.5602  1.5087  1.0122
 2808SOL    HW2 9713   2.934   1.450   4.872  0.1892 -1.2062 -1.3034
 2809SOL     OW 9714   5.685   4.777   4.800 -0.0343  0.5723  0.4257
 2809SOL    HW1 9715   5.679   4.758   4.706 -1.6016 -1.2605  0.8203
 2809SOL    HW2 9716   5.643   4.701   4.842  4.5720 -0.9913  2.8741
 2810SOL     OW 9717   8.515   7.989   3.845 -0.0992  0.3928 -0.1311
 2810SOL    HW1 9718   8.453   8.030   3.784 -0.8398 -2.0986 -1.1453
 2810SOL    HW2 9719   8.462   7.929   3.897  1.2732 -1.1058 -0.3807
 2811SOL     OW 9720   6.320   8.671   7.394  0.5334  0.1148 -0.1072
 2811SOL    HW1 9721   6.335   8.759   7.358 -0.7572  0.3932 -0.0367
 2811SOL    HW2 9722   6.317   8.685   7.489  1.1088 -0.1384 -0.0521
 2812SOL     OW 9723   3.065   5.146   3.388  0.1008  0.4317  0.7194
 2812SOL    HW1 9724   3.085   5.061   3.427  2.2430  0.2427 -0.6506
 2812SOL    HW2 9725   3.090   5.210   3.455 -3.9397  0.1166  2.8439
 2813SOL     OW 9726   5.395   5.584   4.310 -0.2028 -0.5228  0.4157
 2813SOL    HW1 9727   5.317   5.529   4.302 -1.4566  0.9367  1.8116
 2813SOL    HW2 9728   5.453   5.555   4.239 -1.2150 -2.9006  0.4628
 2814SOL     OW 9729   1.056   0.957   0.374  0.1820  0.3521  0.2336
 2814SOL    HW1 9730   1.040   0.900   0.450  0.7132 -0.2880 -0.1207
 2814SOL    HW2 9731   1.020   1.041   0.400 -1.5063 -0.3814  0.4044
 2815SOL     OW 9732   4.801   5.017   4.228  0.0713  0.1009  0.7489
 2815SOL    HW1 9733   4.753   5.096   4.254  1.0655  0.8278  0.4598
 2815SOL    HW2 9734   4.739   4.967   4.175 -0.9960  0.0573  1.9953
 2816SOL     OW 9735   0.477   4.195   1.106 -0.4825 -0.6141  0.0111
 2816SOL    HW1 9736   0.513   4.199   1.018 -0.9560  1.1692 -0.1483
 2816SOL    HW2 9737   0.383   4.181   1.093 -0.4855 -0.8228  0.2477
 2817SOL     OW 9738   6.551   8.123   4.900  0.4838  0.0558  0.4541
 2817SOL    HW1 9739   6.566   8.083   4.815 -2.8675 -0.6177  0.0425
 2817SOL    HW2 9740   6.581   8.213   4.891 -1.0868  0.4118 -1.9703
 2818SOL     OW 9741   0.161   3.362   4.431 -0.3845 -0.4340 -0.5862
 2818SOL    HW1 9742   0.173   3.437   4.489 -0.1209 -0.6442 -0.3600
 2818SOL    HW2 9743   0.201   3.388   4.349  0.9412 -0.8139 -0.0972
 2819SOL     OW 9744   4.533   4.973   5.351  0.4330 -0.4356  0.3033
 2819SOL    HW1 9745   4.615   4.925   5.346  0.1166 -1.0160  0.6366
 2819SOL    HW2 9746   4.486   4.951   5.270  0.3787 -0.5156  0.3570
 2820SOL     OW 9747   3.159   4.369   7.857  0.2444  0.1169 -0.1901
 2820SOL    HW1 9748   3.255   4.366   7.855  0.2615 -3.0192  0.2674
 2820SOL    HW2 9749   3.132   4.320   7.780 -0.9869  0.2839  0.1171
 2821SOL     OW 9750   3.093   2.873   0.729  0.0288  0.2267  0.0119
 2821SOL    HW1 9751   3.165   2.816   0.701  1.1812  1.8295 -0.4168
 2821SOL    HW2 9752   3.095   2.869   0.825  0.3748 -0.0861 -0.0055
 2822SOL     OW 9753   7.502   1.453   6.764  0.0358  0.5815  0.0064
 2822SOL    HW1 9754   7.507   1.496   6.679 -0.9748  1.1228  0.2060
 2822SOL    HW2 9755   7.430   1.390   6.755 -0.4194  1.0066  0.6088
 2823SOL     OW 9756   1.089   5.714   1.892  0.5610  0.2232  0.4769
 2823SOL    HW1 9757   1.039   5.767   1.954 -0.2871 -1.3052  1.1522
 2823SOL    HW2 9758   1.099   5.629   1.935 -1.3577 -1.4144 -2.0166
 2824SOL     OW 9759   0.487   7.431   6.117  0.0830 -0.4341  0.0193
 2824SOL    HW1 9760   0.546   7.444   6.043 -1.2507 -0.7672 -1.1461
 2824SOL    HW2 9761   0.458   7.340   6.108 -2.7409  0.4656 -1.1271
 2825SOL     OW 9762   2.793   2.822   3.235 -0.9148 -0.0176 -0.7878
 2825SOL    HW1 9763   2.883   2.853   3.222 -0.2333 -0.5552  1.9400
 2825SOL    HW2 9764   2.744   2.902   3.256 -0.9453  0.1793 -1.5628
 2826SOL     OW 9765   6.139   5.263   0.814  0.2933  0.6719 -0.3491
 2826SOL    HW1 9766   6.060   5.266   0.760 -0.6315  1.1479  0.9566
 2826SOL    HW2 9767   6.136   5.345   0.864  2.0126  1.0317 -0.7895
 2827SOL     OW 9768   5.012   3.246   2.228  0.3400  0.0143 -0.2138
 2827SOL    HW1 9769   5.073   3.201   2.170  2.1097 -1.0799  2.3317
 2827SOL    HW2 9770   4.966   3.176   2.274  1.4703  0.7109  2.1378
 2828SOL     OW 9771   3.240   5.556   8.505  0.1906  0.3853 -0.3261
 2828SOL    HW1 9772   3.187   5.589   8.432  0.4434 -1.4382 -1.3840
 2828SOL    HW2 9773   3.325   5.598   8.493  0.6171 -0.8181 -1.8570
 2829SOL     OW 9774   4.691   6.303   6.570  0.2746  0.1970 -0.5279
 2829SOL    HW1 9775   4.757   6.305   6.640  0.8157  1.3025 -1.0600
 2829SOL    HW2 9776   4.720   6.232   6.513  1.1157  0.7951 -0.8566
 2830SOL     OW 9777   8.384   6.248   8.055  0.6486  0.3394 -1.0844
 2830SOL    HW1 9778   8.478   6.230   8.056  0.3742 -1.2026 -0.1426
 2830SOL    HW2 9779   8.371   6.314   8.123  0.9642  0.1098 -0.8044
 2831SOL     OW 9780   5.725   6.800   8.075 -0.0769 -0.0656  0.0070
 2831SOL    HW1 9781   5.728   6.876   8.017 -0.8576  0.5243  0.7190
 2831SOL    HW2 9782   5.666   6.739   8.031 -0.3822  0.2294  0.0039
 2832SOL     OW 9783   4.893   8.515   1.611 -0.0081  0.7032  0.2072
 2832SOL    HW1 9784   4.967   8.465   1.577 -0.1520  0.2329  0.5599
 2832SOL    HW2 9785   4.831   8.519   1.538 -0.0225  0.2975  0.1908
 2833SOL     OW 9786   4.814   6.687   6.163 -0.2480 -0.2355 -0.2241
 2833SOL    HW1 9787   4.880   6.659   6.227 -0.6206 -0.9624 -0.1394
 2833SOL    HW2 9788   4.858   6.681   6.079 -0.1944 -0.7016 -0.1658
 2834SOL     OW 9789   4.028   6.721   4.934 -0.6744  0.3686  0.6245
 2834SOL    HW1 9790   3.985   6.807   4.935 -1.3159  0.0686  2.2732
 2834SOL    HW2 9791   3.957   6.658   4.946  0.0660 -0.1866  2.5798
 2835SOL     OW 9792   5.122   8.532   2.255  0.3807 -0.2871 -0.3775
 2835SOL    HW1 9793   5.030   8.505   2.255  0.7897 -1.8178  0.6200
 2835SOL    HW2 9794   5.170   8.451   2.240  1.5737  0.5377 -1.1293
 2836SOL     OW 9795   1.053   2.339   7.737 -0.6043  0.0253  0.3251
 2836SOL    HW1 9796   1.042   2.381   7.822  2.1066 -1.5547  1.6039
 2836SOL    HW2 9797   1.123   2.389   7.695 -0.8729 -0.1344 -0.3183
 2837SOL     OW 9798   7.094   6.957   0.805  0.2938  0.0057 -0.1732
 2837SOL    HW1 9799   7.050   6.903   0.871 -3.4196 -0.8277 -2.9808
 2837SOL    HW2 9800   7.062   7.046   0.821  1.3912  0.2583  0.6439
 2838SOL     OW 9801   5.481   0.406   2.557 -0.0906  0.0554  0.1928
 2838SOL    HW1 9802   5.516   0.318   2.570  0.3450  0.3110  0.7808
 2838SOL    HW2 9803   5.525   0.437   2.478 -1.4446 -0.8413 -0.9651
 2839SOL     OW 9804   6.718   2.104   0.955 -0.2195  0.0058 -0.1640
 2839SOL    HW1 9805   6.702   2.115   1.048 -0.5328 -0.0445 -0.2113
 2839SOL    HW2 9806   6.804   2.061   0.950  0.9109  2.1087  0.0320
 2840SOL     OW 9807   0.459   6.945   2.220 -0.0417  0.4578  0.7366
 2840SOL    HW1 9808   0.487   7.037   2.215 -0.3653  0.5110 -1.9485
 2840SOL    HW2 9809   0.509   6.902   2.150 -1.4871 -0.9340  0.5105
 2841SOL     OW 9810   2.262   4.959   8.050 -0.2538  0.0627  0.4710
 2841SOL    HW1 9811   2.358   4.953   8.057 -0.2490 -0.1824  0.2255
 2841SOL    HW2 9812   2.231   4.869   8.059 -0.4733  0.1633  0.7130
 2842SOL     OW 9813   5.337   4.569   4.536  0.0449 -0.0470  0.3721
 2842SOL    HW1 9814   5.351   4.662   4.550  2.2775 -0.4752  1.4270
 2842SOL    HW2 9815   5.242   4.557   4.545 -0.1045  1.8565  1.8056
 2843SOL     OW 9816   6.749   1.580   0.306  0.3436  0.0938 -0.2192
 2843SOL    HW1 9817   6.708   1.494   0.311 -0.0615  0.3398  3.0480
 2843SOL    HW2 9818   6.676   1.641   0.296  0.3207  0.2074  0.5388
 2844SOL     OW 9819   6.509   7.521   7.525  0.2807 -0.5697  0.5678
 2844SOL    HW1 9820   6.464   7.468   7.591  0.1758 -0.3111  0.7012
 2844SOL    HW2 9821   6.586   7.556   7.570 -0.5116  0.7237  0.9540
 2845SOL     OW 9822   1.458   1.877   3.733 -0.7743  0.0782  0.0113
 2845SOL    HW1 9823   1.540   1.829   3.736 -0.4716  0.5389 -0.8306
 2845SOL    HW2 9824   1.479   1.964   3.767 -1.1790 -0.1575  0.9033
 2846SOL     OW 9825   6.275   3.245   2.941  0.6923 -0.8538  0.4501
 2846SOL    HW1 9826   6.343   3.312   2.944 -0.0442 -0.0803  0.4623
 2846SOL    HW2 9827   6.257   3.224   3.033 -0.8222  0.8005  0.5939
 2847SOL     OW 9828   7.667   2.607   7.634  0.4353 -0.4502 -0.3992
 2847SOL    HW1 9829   7.633   2.539   7.577 -0.9009  1.6567 -2.2965
 2847SOL    HW2 9830   7.603   2.615   7.705 -0.2625 -0.0892 -1.0636
 2848SOL     OW 9831   5.336   8.291   4.694  0.0829  0.1480  0.0682
 2848SOL    HW1 9832   5.317   8.289   4.788 -0.3658  1.8840  0.0459
 2848SOL    HW2 9833   5.417   8.240   4.686 -1.1107 -2.0507  1.0297
 2849SOL     OW 9834   1.389   7.314   8.048 -0.0621 -0.4213 -0.6027
 2849SOL    HW1 9835   1.432   7.274   7.972  0.3257 -1.6335  0.2276
 2849SOL    HW2 9836   1.461   7.346   8.102 -0.2136 -1.4155  0.2270
 2850SOL     OW 9837   1.263   0.693   4.881  0.1589  0.4074  0.7495
 2850SOL    HW1 9838   1.337   0.752   4.865 -0.4314  1.4392  1.6135
 2850SOL    HW2 9839   1.280   0.617   4.826  1.5627  0.8707  0.4945
 2851SOL     OW 9840   1.401   4.383   6.386  0.6674  0.3622  0.4430
 2851SOL    HW1 9841   1.352   4.358   6.464  0.4190  0.3792  0.2928
 2851SOL    HW2 9842   1.480   4.424   6.419 -0.3835  2.2744  0.6971
 2852SOL     OW 9843   8.323   7.286   0.826  0.2716 -0.4147  0.1634
 2852SOL    HW1 9844   8.256   7.302   0.892  0.0769 -0.4460 -0.0272
 2852SOL    HW2 9845   8.366   7.371   0.814 -0.1816 -0.2361 -0.2080
 2853SOL     OW 9846   6.232   6.653   2.762 -0.1470  0.6659  0.3830
 2853SOL    HW1 9847   6.150   6.644   2.811 -0.7875  0.7459 -0.6360
 2853SOL    HW2 9848   6.219   6.599   2.684  0.7480  0.7458  0.1642
 2854SOL     OW 9849   1.671   0.957   1.638  0.3720  0.0291  0.4078
 2854SOL    HW1 9850   1.708   1.035   1.597 -0.8261 -0.4791 -1.7674
 2854SOL    HW2 9851   1.688   0.887   1.576 -2.5072 -0.5701  0.1334
 2855SOL     OW 9852   0.611   1.300   7.632 -0.0497  0.0414  0.4228
 2855SOL    HW1 9853   0.607   1.259   7.719  0.8362  1.0673  0.9749
 2855SOL    HW2 9854   0.616   1.394   7.650 -0.9727  0.3487 -0.7837
 2856SOL     OW 9855   2.743   4.552   4.354  0.0133 -0.1903  0.2767
 2856SOL    HW1 9856   2.683   4.572   4.425 -0.8048  1.4998 -0.8373
 2856SOL    HW2 9857   2.708   4.598   4.278  2.3486  0.3404 -0.5760
 2857SOL     OW 9858   7.078   1.620   5.975  0.3188  0.3381 -0.1603
 2857SOL    HW1 9859   6.991   1.580   5.986  0.4547  0.2777  0.7750
 2857SOL    HW2 9860   7.116   1.620   6.063  0.0002  3.3191  0.0834
 2858SOL     OW 9861   3.824   7.593   4.959  0.1967 -0.4489 -0.5494
 2858SOL    HW1 9862   3.822   7.524   4.893  2.5537  0.7759 -2.0423
 2858SOL    HW2 9863   3.907   7.579   5.006 -0.2679  0.1696  0.4975
 2859SOL     OW 9864   4.620   1.444   6.522 -0.0814  0.3072 -0.7217
 2859SOL    HW1 9865   4.675   1.508   6.476 -0.8112  0.6627 -1.1208
 2859SOL    HW2 9866   4.630   1.364   6.470  3.6809 -1.0858  1.7191
 2860SOL     OW 9867   5.102   1.979   7.765  0.0567 -0.5419 -0.3415
 2860SOL    HW1 9868   5.139   1.908   7.713  1.4508 -0.7521  0.8815
 2860SOL    HW2 9869   5.172   2.005   7.824 -0.8810  0.9302  0.1941
 2861SOL     OW 9870   5.681   5.586   4.686  0.1163 -0.3471  0.3955
 2861SOL    HW1 9871   5.755   5.533   4.715 -0.9050 -1.4406  1.1178
 2861SOL    HW2 9872   5.636   5.530   4.622 -0.6992 -0.1620  0.7986
 2862SOL     OW 9873   6.358   3.668   3.999 -0.2063 -0.5667 -0.1035
 2862SOL    HW1 9874   6.419   3.709   4.062 -0.3872 -1.3947  0.6277
 2862SOL    HW2 9875   6.341   3.737   3.935  1.0684 -0.1315 -0.0198
 2863SOL     OW 9876   4.406   3.315   4.919 -0.1289  0.4571 -0.0737
 2863SOL    HW1 9877   4.333   3.292   4.976 -0.3450  0.8349 -0.1953
 2863SOL    HW2 9878   4.370   3.380   4.858 -0.0700 -0.3851 -1.0356
 2864SOL     OW 9879   4.171   3.137   2.209 -0.0466 -0.8798 -0.3833
 2864SOL    HW1 9880   4.200   3.052   2.175 -0.9358 -0.3511 -2.6736
 2864SOL    HW2 9881   4.252   3.185   2.228  0.4639 -1.8992  0.0849
 2865SOL     OW 9882   6.003   4.164   6.652 -0.0488  0.0129  0.2347
 2865SOL    HW1 9883   6.031   4.172   6.561 -3.0815 -0.6293 -0.8961
 2865SOL    HW2 9884   5.964   4.249   6.672 -1.6890 -0.6491 -0.0081
 2866SOL     OW 9885   4.840   1.027   3.308 -0.9538 -0.1247 -0.2035
 2866SOL    HW1 9886   4.928   1.014   3.344 -0.3151 -0.3383 -1.7788
 2866SOL    HW2 9887   4.798   1.089   3.368  1.0383  1.7221 -0.6098
 2867SOL     OW 9888   4.378   7.390   2.389 -0.8029 -0.0929  0.2942
 2867SOL    HW1 9889   4.403   7.334   2.315 -0.6077  1.1890 -0.6572
 2867SOL    HW2 9890   4.385   7.479   2.354 -1.2715  0.5198  1.7048
 2868SOL     OW 9891   8.418   7.651   6.928 -0.3271  0.5762  0.0046
 2868SOL    HW1 9892   8.446   7.593   6.998 -0.5532 -1.0454 -1.1936
 2868SOL    HW2 9893   8.338   7.692   6.961 -0.3157 -0.0032  0.7718
 2869SOL     OW 9894   0.306   5.805   8.560 -0.4267 -0.6273  0.0993
 2869SOL    HW1 9895   0.279   5.870   8.625 -1.4472  0.0719 -0.9936
 2869SOL    HW2 9896   0.400   5.795   8.574 -0.4658  0.2043  1.0658
 2870SOL     OW 9897   7.265   7.616   5.040 -0.5167 -0.8330  0.5374
 2870SOL    HW1 9898   7.350   7.651   5.012 -1.2738  0.8897  0.2442
 2870SOL    HW2 9899   7.284   7.567   5.120  0.6594  0.1852  0.9152
 2871SOL     OW 9900   4.646   5.871   0.327  0.0188  0.0413  0.3013
 2871SOL    HW1 9901   4.642   5.925   0.248  1.1898  0.4509  0.4994
 2871SOL    HW2 9902   4.671   5.931   0.396  0.1120 -0.5250  0.7700
 2872SOL     OW 9903   6.058   6.326   7.911 -0.0025 -0.0171  0.6744
 2872SOL    HW1 9904   6.118   6.280   7.853  1.1939 -1.1479  2.7031
 2872SOL    HW2 9905   6.097   6.413   7.923 -0.3297  0.2736 -0.2738
 2873SOL     OW 9906   4.046   7.241   2.230  0.0732  0.2085  0.0250
 2873SOL    HW1 9907   3.995   7.322   2.242  0.3190  0.6091 -1.4538
 2873SOL    HW2 9908   3.989   7.172   2.264 -1.7146  0.5844 -1.9459
 2874SOL     OW 9909   5.533   7.648   3.840  0.1810  0.0156 -0.1820
 2874SOL    HW1 9910   5.603   7.582   3.840 -0.4185 -0.6303 -0.2265
 2874SOL    HW2 9911   5.575   7.727   3.805  0.8314 -0.4228 -0.4199
 2875SOL     OW 9912   3.032   2.143   5.132  0.1118 -0.0373 -0.1749
 2875SOL    HW1 9913   3.038   2.230   5.173 -2.0259 -0.5119  1.2869
 2875SOL    HW2 9914   3.071   2.084   5.196  1.9039 -0.1804 -1.3291
 2876SOL     OW 9915   0.506   8.384   4.301  0.4279  0.1463 -0.2554
 2876SOL    HW1 9916   0.530   8.291   4.298  0.4260  0.1074  0.5686
 2876SOL    HW2 9917   0.420   8.385   4.343 -0.2031  0.4281 -1.5229
 2877SOL     OW 9918   4.439   3.174   3.565 -0.7245  0.1359 -0.1982
 2877SOL    HW1 9919   4.494   3.113   3.515  0.0044  0.2446  0.4430
 2877SOL    HW2 9920   4.466   3.161   3.656 -2.7056 -0.7656  0.3130
 2878SOL     OW 9921   6.324   2.446   3.832 -0.0552 -0.1870 -0.1482
 2878SOL    HW1 9922   6.377   2.403   3.898 -0.0904 -0.7065 -0.4504
 2878SOL    HW2 9923   6.367   2.530   3.817 -0.0087 -0.1004  0.4785
 2879SOL     OW 9924   1.975   8.403   3.947 -0.0252 -0.1604  0.4957
 2879SOL    HW1 9925   2.051   8.448   3.911 -0.2273  0.0556  0.3395
 2879SOL    HW2 9926   1.907   8.470   3.952  0.1325 -0.0573  1.7293
 2880SOL     OW 9927   3.243   0.905   4.892 -0.4775 -0.3210 -0.1701
 2880SOL    HW1 9928   3.263   0.821   4.935 -2.8588  0.2216  2.2405
 2880SOL    HW2 9929   3.167   0.886   4.838 -2.1484  0.5280  1.7358
 2881SOL     OW 9930   3.368   5.128   1.664 -0.5363 -0.0001 -0.3497
 2881SOL    HW1 9931   3.327   5.182   1.731 -2.6915  0.0766 -1.6426
 2881SOL    HW2 9932   3.437   5.183   1.628 -1.1578  0.9873 -0.0599
 2882SOL     OW 9933   6.595   1.861   7.013  1.0530 -0.4573 -0.2639
 2882SOL    HW1 9934   6.580   1.779   7.060  1.4307 -0.6668 -0.5073
 2882SOL    HW2 9935   6.529   1.859   6.943 -1.1103  0.9430  1.5959
 2883SOL     OW 9936   7.878   0.999   2.438  0.3725 -0.0924  0.2448
 2883SOL    HW1 9937   7.899   0.936   2.507 -0.8122 -1.2808 -0.4330
 2883SOL    HW2 9938   7.860   0.944   2.361  0.7105  1.1575 -0.7510
 2884SOL     OW 9939   2.052   4.081   5.231 -0.0414 -0.7074  0.3746
 2884SOL    HW1 9940   1.961   4.049   5.231  0.2269 -1.6475 -1.4810
 2884SOL    HW2 9941   2.048   4.163   5.182  0.2697 -1.4360 -0.9255
 2885SOL     OW 9942   2.990   3.099   6.488 -0.6464  0.0641 -0.8262
 2885SOL    HW1 9943   3.012   3.119   6.578 -0.8326  1.2647 -1.0372
 2885SOL    HW2 9944   2.977   3.004   6.487 -0.4627  0.0159  0.3582
 2886SOL     OW 9945   0.393   0.284   7.292  0.5035  0.0094  0.2306
 2886SOL    HW1 9946   0.351   0.335   7.361 -1.9708  1.5679 -2.2592
 2886SOL    HW2 9947   0.393   0.194   7.326 -0.1653  0.7736  2.4175
 2887SOL     OW 9948   0.891   2.424   7.973  1.1011 -0.0768 -0.1067
 2887SOL    HW1 9949   0.819   2.366   7.947  0.0751  0.8082  0.7011
 2887SOL    HW2 9950   0.880   2.437   8.067  1.2218  1.5393 -0.2935
 2888SOL     OW 9951   1.790   4.004   3.901 -0.5752  0.4063 -0.6604
 2888SOL    HW1 9952   1.861   4.027   3.841 -0.6408  1.0285 -0.5027
 2888SOL    HW2 9953   1.731   4.079   3.899 -0.8515  0.2048 -0.2226
 2889SOL     OW 9954   1.644   4.115   0.442 -0.2260  0.1926 -0.2017
 2889SOL    HW1 9955   1.558   4.123   0.483 -0.6065 -0.8769 -0.7582
 2889SOL    HW2 9956   1.653   4.194   0.389 -0.7163  0.4616  0.1105
 2890SOL     OW 9957   7.327   3.094   8.279  0.2114  0.5999 -0.5456
 2890SOL    HW1 9958   7.365   3.181   8.272 -0.3703  0.7500 -2.1826
 2890SOL    HW2 9959   7.398   3.034   8.256  0.5254  0.6487  0.2768
 2891SOL     OW 9960   5.193   3.290   1.658  0.2026  0.4677  0.1914
 2891SOL    HW1 9961   5.205   3.236   1.736  0.6130  0.3606  0.0578
 2891SOL    HW2 9962   5.269   3.270   1.603 -0.5205 -0.1130 -0.6200
 2892SOL     OW 9963   1.135   5.958   8.497  0.0568 -0.0143 -0.4476
 2892SOL    HW1 9964   1.171   6.040   8.530 -1.3374  1.8421 -3.1254
 2892SOL    HW2 9965   1.158   5.957   8.404 -1.1361 -2.0024 -0.7945
 2893SOL     OW 9966   3.063   8.404   4.081  0.6764 -0.3502  0.1395
 2893SOL    HW1 9967   2.991   8.388   4.142  0.6026  0.8634  0.4159
 2893SOL    HW2 9968   3.030   8.376   3.996  0.4416 -1.2099  0.5097
 2894SOL     OW 9969   4.829   1.040   6.080 -0.6845  0.1011 -0.3029
 2894SOL    HW1 9970   4.741   1.078   6.079 -0.6045  0.2850 -0.4772
 2894SOL    HW2 9971   4.823   0.965   6.020 -1.3078 -1.2469  1.3717
 2895SOL     OW 9972   6.983   0.794   4.554 -0.5468  0.4467 -0.4226
 2895SOL    HW1 9973   7.005   0.860   4.619  0.1140  0.4882 -0.6766
 2895SOL    HW2 9974   7.067   0.771   4.515 -0.6668 -1.0434  0.1345
 2896SOL     OW 9975   4.820   3.464   2.254  0.6353  0.0193  0.0303
 2896SOL    HW1 9976   4.753   3.464   2.185  2.2382 -0.1681 -1.6000
 2896SOL    HW2 9977   4.860   3.377   2.248  1.5794  0.4178  0.4071
 2897SOL     OW 9978   4.136   3.998   0.511  0.4127 -0.5227 -0.0182
 2897SOL    HW1 9979   4.128   4.041   0.596  0.8357 -0.2745 -0.0999
 2897SOL    HW2 9980   4.061   4.030   0.461 -0.1598 -1.1087  0.4432
 2898SOL     OW 9981   6.485   7.727   8.304 -0.3613 -0.2799  0.3185
 2898SOL    HW1 9982   6.495   7.692   8.392 -0.3651 -0.1443  0.3738
 2898SOL    HW2 9983   6.558   7.690   8.255 -0.2473 -0.2025  0.4286
 2899SOL     OW 9984   1.416   1.583   3.322  0.3536 -0.3748  1.4668
 2899SOL    HW1 9985   1.331   1.566   3.283  0.1345 -0.3329  1.9126
 2899SOL    HW2 9986   1.428   1.513   3.386  0.2761  0.0764  1.9935
 2900SOL     OW 9987   7.538   4.680   6.528 -0.2592  0.1228  0.3983
 2900SOL    HW1 9988   7.585   4.697   6.446 -1.4577 -1.3162 -0.6612
 2900SOL    HW2 9989   7.579   4.738   6.592  2.1849 -0.2399 -0.7012
 2901SOL     OW 9990   1.191   3.305   8.393 -0.2258  0.4157  0.7828
 2901SOL    HW1 9991   1.141   3.387   8.394 -0.0931  0.5051  0.2833
 2901SOL    HW2 9992   1.125   3.236   8.394 -0.3453  0.5295  0.7672
 2902SOL     OW 9993   4.690   7.015   3.686  0.1918 -0.1004 -0.3803
 2902SOL    HW1 9994   4.595   7.013   3.681 -0.0039  0.9452  1.7543
 2902SOL    HW2 9995   4.719   6.997   3.597 -1.9858 -0.4799 -1.0745
 2903SOL     OW 9996   3.727   0.525   2.151 -0.0794 -0.1956 -0.2901
 2903SOL    HW1 9997   3.779   0.468   2.208  0.2001 -0.2341 -0.5801
 2903SOL    HW2 9998   3.639   0.521   2.187  0.0746 -0.3024  0.0776
 2904SOL     OW 9999   0.586   3.188   5.577 -0.1497 -0.2948 -0.3065
 2904SOL    HW110000   0.574   3.216   5.668 -0.9541  1.2201 -0.8355
 2904SOL    HW210001   0.537   3.106   5.570  1.9268 -1.7607  1.1992
 2905SOL     OW10002   7.983   3.786   6.539  0.1466  0.4348  0.4589
 2905SOL    HW110003   7.971   3.708   6.484 -2.9763  0.8473  0.3707
 2905SOL    HW210004   8.038   3.755   6.611  0.3991 -1.3987 -0.4419
 2906SOL     OW10005   7.471   5.718   1.341 -0.2851 -0.1677  0.4370
 2906SOL    HW110006   7.422   5.717   1.423 -0.4907 -0.1539  0.3141
 2906SOL    HW210007   7.466   5.809   1.311  1.4101  0.2863  1.3782
 2907SOL     OW10008   7.082   5.906   2.442 -0.0210 -0.0502  0.1677
 2907SOL    HW110009   7.131   5.915   2.524  1.2813 -1.0217 -0.4665
 2907SOL    HW210010   7.022   5.833   2.457  1.1104 -1.0774 -0.1237
 2908SOL     OW10011   1.277   5.170   0.732  0.4468  0.1263  0.1131
 2908SOL    HW110012   1.255   5.238   0.797 -1.4635  0.3687 -0.7019
 2908SOL    HW210013   1.192   5.134   0.706  1.3564 -2.0541 -0.0844
 2909SOL     OW10014   4.201   5.374   8.179  0.7629 -0.4877 -0.1255
 2909SOL    HW110015   4.270   5.401   8.240  1.7963 -1.7639 -0.6746
 2909SOL    HW210016   4.139   5.324   8.232  0.0698  0.9130  0.4313
 2910SOL     OW10017   5.450   8.678   3.734  0.4160 -0.4964 -0.1615
 2910SOL    HW110018   5.382   8.712   3.793 -0.5553 -0.4177 -1.2820
 2910SOL    HW210019   5.508   8.753   3.719 -0.4984  0.0845 -0.9108
 2911SOL     OW10020   1.364   5.972   3.751  0.2302  0.1802  0.0318
 2911SOL    HW110021   1.409   6.012   3.825  0.9490 -2.4999  1.1782
 2911SOL    HW210022   1.339   5.885   3.782 -3.4109  0.5310 -1.4719
 2912SOL     OW10023   0.097   6.892   2.694 -0.3685  0.0631 -0.7597
 2912SOL    HW110024   0.084   6.888   2.599 -0.0694 -2.2345 -0.7698
 2912SOL    HW210025   0.137   6.807   2.716 -1.5191  0.0481  1.5711
 2913SOL     OW10026   0.579   4.850   7.825 -0.1107 -0.2204  0.3565
 2913SOL    HW110027   0.668   4.852   7.790 -0.3735 -0.4154 -0.3316
 2913SOL    HW210028   0.587   4.887   7.913  0.3129  1.7465 -0.4471
 2914SOL     OW10029   4.338   5.206   7.548  0.3176  0.1264 -0.0311
 2914SOL    HW110030   4.364   5.126   7.503  0.3154  0.0172  0.1634
 2914SOL    HW210031   4.267   5.179   7.606 -0.3207  0.4376 -0.6412
 2915SOL     OW10032   1.762   1.114   7.445  0.0866 -0.3146  0.6171
 2915SOL    HW110033   1.830   1.053   7.475  0.3471 -0.2706  0.1186
 2915SOL    HW210034   1.707   1.128   7.523 -0.2855 -1.5945  0.6041
 2916SOL     OW10035   7.508   6.939   3.524  0.0537  0.1654  0.0931
 2916SOL    HW110036   7.424   6.969   3.489 -1.2269 -0.7691  2.1874
 2916SOL    HW210037   7.513   6.847   3.499  1.0630  0.5139 -1.0600
 2917SOL     OW10038   8.275   4.087   5.107 -0.5876 -0.2616 -0.2207
 2917SOL    HW110039   8.289   4.001   5.069  1.9973  0.7055 -1.8127
 2917SOL    HW210040   8.196   4.079   5.159 -1.4924 -3.0626 -1.8290
 2918SOL     OW10041   7.426   4.876   2.009  0.1574 -0.6333 -0.2160
 2918SOL    HW110042   7.410   4.813   1.939 -0.9023  0.8327 -1.3690
 2918SOL    HW210043   7.507   4.920   1.983  0.0330 -0.4347 -0.2767
 2919SOL     OW10044   3.344   2.407   5.215  0.0747 -0.0974 -0.0157
 2919SOL    HW110045   3.370   2.493   5.180 -0.5765 -0.5596 -1.7032
 2919SOL    HW210046   3.251   2.417   5.236 -0.1058 -0.5127 -0.6149
 2920SOL     OW10047   2.130   0.107   2.029 -0.0021  0.0551  0.7120
 2920SOL    HW110048   2.143   0.134   1.938  1.8442  2.1012  1.4861
 2920SOL    HW210049   2.053   0.155   2.058 -0.5799 -0.5830  0.2450
 2921SOL     OW10050   1.004   8.371   8.299  0.6243  0.0451 -0.2859
 2921SOL    HW110051   1.012   8.383   8.394  1.1804 -3.6639  0.2841
 2921SOL    HW210052   1.093   8.388   8.266  0.4693  1.1774 -0.1607
 2922SOL     OW10053   8.413   1.630   1.941  0.0527  0.3436 -0.4493
 2922SOL    HW110054   8.459   1.649   1.859  1.3874 -0.6015  0.0335
 2922SOL    HW210055   8.364   1.710   1.961 -0.6375  0.4386 -2.3636
 2923SOL     OW10056   3.064   2.896   3.178 -0.6098  0.1916 -0.1656
 2923SOL    HW110057   3.114   2.952   3.118  1.3230 -0.3965  0.7919
 2923SOL    HW210058   3.096   2.808   3.158  0.8733  0.0692  2.3499
 2924SOL     OW10059   6.637   1.368   3.694  0.6839  0.2300 -0.3668
 2924SOL    HW110060   6.560   1.324   3.730  0.7795 -0.1577 -0.6278
 2924SOL    HW210061   6.629   1.459   3.723 -0.3180  0.3909 -1.1005
 2925SOL     OW10062   0.084   0.403   8.383 -0.3773  0.2279 -0.0757
 2925SOL    HW110063  -0.002   0.408   8.342 -0.9533 -0.3598  1.0013
 2925SOL    HW210064   0.079   0.325   8.440  0.5369  0.7165  0.7126
 2926SOL     OW10065   8.066   2.120   7.786 -0.3211 -0.5429  0.4180
 2926SOL    HW110066   8.101   2.031   7.794  1.2689  0.0897  0.9864
 2926SOL    HW210067   8.041   2.143   7.876  0.3671 -0.0157  0.4832
 2927SOL     OW10068   6.361   3.552   8.416 -0.3820 -0.3074 -0.4085
 2927SOL    HW110069   6.300   3.501   8.469 -0.9687 -0.5951 -1.3329
 2927SOL    HW210070   6.314   3.633   8.397  0.2013  0.2123  0.2991
 2928SOL     OW10071   1.089   4.693   1.190 -0.6390 -0.3319  0.1816
 2928SOL    HW110072   1.181   4.702   1.214 -0.4794  0.4353 -0.6834
 2928SOL    HW210073   1.091   4.662   1.099 -1.1917  2.3928 -0.8431
 2929SOL     OW10074   4.564   5.842   6.886 -0.1268 -0.1795  0.0852
 2929SOL    HW110075   4.537   5.913   6.827 -0.8647 -0.3799  0.1747
 2929SOL    HW210076   4.488   5.826   6.941 -0.5005 -1.9911 -0.8612
 2930SOL     OW10077   2.498   2.041   0.208 -0.0592  0.3373  0.5574
 2930SOL    HW110078   2.564   2.083   0.262  2.2712 -2.3768  0.0375
 2930SOL    HW210079   2.520   2.066   0.119  1.4536 -1.9061  0.2261
 2931SOL     OW10080   7.647   7.043   6.957  0.1327 -0.1989  0.3223
 2931SOL    HW110081   7.593   7.004   7.026  0.4405  1.0106  1.2790
 2931SOL    HW210082   7.612   7.007   6.875  0.0583 -2.0292  1.1122
 2932SOL     OW10083   4.384   5.990   2.846  0.2080 -0.1108  0.2630
 2932SOL    HW110084   4.386   6.044   2.767 -0.8300 -0.1131  0.2273
 2932SOL    HW210085   4.291   5.982   2.868  0.4370 -0.7285  1.0618
 2933SOL     OW10086   4.911   2.959   8.477 -0.1635 -0.2897 -0.1382
 2933SOL    HW110087   4.874   3.033   8.526 -0.1943 -0.8754  0.7520
 2933SOL    HW210088   5.005   2.972   8.481 -0.0680 -1.1053  1.4134
 2934SOL     OW10089   0.541   8.327   2.288 -0.4833  0.5312  0.0174
 2934SOL    HW110090   0.635   8.309   2.298 -0.3772  1.4288  0.7274
 2934SOL    HW210091   0.521   8.389   2.358 -1.9090 -0.6673  0.7278
 2935SOL     OW10092   8.337   7.605   5.541 -0.3604 -0.3783 -0.0642
 2935SOL    HW110093   8.304   7.534   5.595 -1.2488  0.6526  0.7898
 2935SOL    HW210094   8.301   7.588   5.454 -0.9344 -0.7218  0.2417
 2936SOL     OW10095   8.024   1.653   7.815 -0.8193  0.1039  0.4746
 2936SOL    HW110096   8.103   1.708   7.814 -0.4378 -0.4393 -0.5804
 2936SOL    HW210097   8.022   1.612   7.729 -2.5295  0.4851  0.2932
 2937SOL     OW10098   8.670   2.994   2.398  0.2080  0.1995 -0.2068
 2937SOL    HW110099   8.697   2.907   2.424  1.6873  0.7179  0.1024
 2937SOL    HW210100   8.732   3.053   2.441 -2.5738  1.6553  2.1156
 2938SOL     OW10101   6.379   0.918   5.332  0.3424 -0.2137 -0.3213
 2938SOL    HW110102   6.447   0.871   5.382  0.0021 -0.1326  0.2261
 2938SOL    HW210103   6.426   0.989   5.289  0.0148  2.9469  3.8870
 2939SOL     OW10104   2.037   5.104   5.747  0.4133  0.7063 -0.0729
 2939SOL    HW110105   2.002   5.137   5.664 -1.7684  0.9532  0.8740
 2939SOL    HW210106   2.008   5.167   5.812 -0.2246 -0.8509  1.2198
 2940SOL     OW10107   7.141   2.334   8.238  0.3617 -0.1563 -0.1475
 2940SOL    HW110108   7.133   2.354   8.144  1.8769  0.1705 -0.2243
 2940SOL    HW210109   7.065   2.278   8.256 -0.7142  0.8646 -1.2501
 2941SOL     OW10110   8.426   0.596   6.755 -0.0443 -0.1896 -0.3138
 2941SOL    HW110111   8.369   0.662   6.714 -1.1685 -0.0870  1.3529
 2941SOL    HW210112   8.492   0.647   6.802  0.0318 -0.2815 -0.3205
 2942SOL     OW10113   7.912   1.246   3.317  0.1682 -0.2318  0.5592
 2942SOL    HW110114   7.860   1.323   3.292 -1.1679 -0.7038  1.7272
 2942SOL    HW210115   7.992   1.283   3.355  0.0816  0.5580  0.0052
 2943SOL     OW10116   6.425   4.884   0.577 -0.1801 -0.1725  0.5137
 2943SOL    HW110117   6.363   4.938   0.626  0.3113  2.9252 -1.9617
 2943SOL    HW210118   6.370   4.819   0.533 -1.4538  1.0904  0.1425
 2944SOL     OW10119   5.553   7.030   1.026 -0.1626 -0.3975  0.6437
 2944SOL    HW110120   5.640   7.053   1.058 -0.2125  1.5909 -0.4380
 2944SOL    HW210121   5.569   6.979   0.947  0.0977  0.8880 -0.1744
 2945SOL     OW10122   0.249   6.436   4.164 -0.0386  0.1903 -0.2766
 2945SOL    HW110123   0.330   6.420   4.213 -0.2440  0.9665  0.3465
 2945SOL    HW210124   0.251   6.373   4.093  1.6814  0.9247 -0.9522
 2946SOL     OW10125   7.884   5.317   2.714 -0.3745 -0.4593  0.0464
 2946SOL    HW110126   7.918   5.398   2.753 -0.4210 -1.2944  1.9535
 2946SOL    HW210127   7.962   5.271   2.683 -0.4613  0.9429 -2.4754
 2947SOL     OW10128   0.955   1.561   8.648 -0.1601  0.3196  0.1206
 2947SOL    HW110129   0.879   1.588   8.700  0.2366 -1.6440  1.8774
 2947SOL    HW210130   0.932   1.583   8.558 -1.4043  2.7549  0.9366
 2948SOL     OW10131   6.228   5.343   3.122  1.0174 -0.1536 -0.7285
 2948SOL    HW110132   6.153   5.385   3.080  0.5283  0.0761  0.3421
 2948SOL    HW210133   6.195   5.258   3.151  1.2808 -0.2114 -0.5970
 2949SOL     OW10134   2.443   4.040   6.607  0.2595 -0.0887  0.8616
 2949SOL    HW110135   2.520   4.005   6.563  0.4391  0.1964  0.9470
 2949SOL    HW210136   2.402   4.098   6.542  0.0465 -0.3397  0.7720
 2950SOL     OW10137   5.207   5.298   0.147 -0.3492 -0.4877 -0.2482
 2950SOL    HW110138   5.120   5.312   0.186 -1.1049 -1.6146 -1.4559
 2950SOL    HW210139   5.223   5.204   0.158  1.1020 -0.1656  0.6762
 2951SOL     OW10140   7.699   5.054   5.976 -0.5611  0.1839  0.5269
 2951SOL    HW110141   7.755   5.105   6.034 -0.4484 -0.1054  0.6760
 2951SOL    HW210142   7.737   4.966   5.977 -0.2687  0.2822 -0.3623
 2952SOL     OW10143   4.389   8.629   5.308 -0.2375 -0.1908  0.0430
 2952SOL    HW110144   4.306   8.603   5.346 -1.5291  0.1064 -2.3723
 2952SOL    HW210145   4.455   8.598   5.370 -2.0680 -1.5330  1.4247
 2953SOL     OW10146   0.084   6.159   1.642  0.1172  0.5908 -0.2973
 2953SOL    HW110147   0.080   6.117   1.727 -1.7218 -0.9836 -1.0926
 2953SOL    HW210148   0.177   6.176   1.628  1.1224 -3.5230  0.0130
 2954SOL     OW10149   4.276   1.236   3.548  0.3006 -0.0735 -0.3680
 2954SOL    HW110150   4.357   1.282   3.526  0.4090 -0.6820 -1.2992
 2954SOL    HW210151   4.210   1.274   3.490 -0.0751  0.3562  0.3239
 2955SOL     OW10152   3.264   2.460   4.634 -0.1890  0.4649 -0.0399
 2955SOL    HW110153   3.230   2.446   4.546 -1.0036  1.3782  0.1245
 2955SOL    HW210154   3.359   2.451   4.624 -0.2888  0.2974 -0.9508
 2956SOL     OW10155   6.612   1.582   2.008 -0.0559  0.0343  0.1196
 2956SOL    HW110156   6.692   1.541   2.040 -0.8050 -0.8605  0.8960
 2956SOL    HW210157   6.607   1.556   1.916 -0.1624 -1.0718  0.4277
 2957SOL     OW10158   5.292   4.005   3.976 -0.0892  0.4509  0.2835
 2957SOL    HW110159   5.217   4.049   4.016 -0.8949  0.0828 -0.7798
 2957SOL    HW210160   5.368   4.053   4.010 -0.9036  2.3355 -0.3841
 2958SOL     OW10161   8.282   4.919   3.945 -0.2656  0.7768  0.5658
 2958SOL    HW110162   8.278   4.945   4.037 -0.3818 -0.0689  0.8034
 2958SOL    HW210163   8.375   4.916   3.925 -0.2437  1.1075  0.6066
 2959SOL     OW10164   5.018   3.865   7.733 -0.6006 -0.2453  0.1633
 2959SOL    HW110165   5.105   3.897   7.757 -0.1014 -2.1394  1.0138
 2959SOL    HW210166   4.958   3.929   7.771  0.3732  0.4544  0.5714
 2960SOL     OW10167   5.738   4.023   3.962  0.1501  0.4238 -0.7668
 2960SOL    HW110168   5.664   3.993   4.015  1.3018 -0.0636  0.6164
 2960SOL    HW210169   5.729   4.119   3.960 -0.6417  0.3513 -0.8154
 2961SOL     OW10170   2.314   3.949   5.674 -0.2800 -0.0201 -0.1698
 2961SOL    HW110171   2.242   4.004   5.640  0.4947  0.8582 -0.4307
 2961SOL    HW210172   2.338   3.894   5.599  1.6853  2.1846 -1.2849
 2962SOL     OW10173   2.407   1.313   0.797  0.3200  0.1071  0.4001
 2962SOL    HW110174   2.456   1.232   0.781  1.2698  0.8456 -0.6154
 2962SOL    HW210175   2.328   1.305   0.744  0.8331  0.1913 -0.4010
 2963SOL     OW10176   1.061   1.724   2.679 -0.1988  0.6945  0.1780
 2963SOL    HW110177   0.973   1.758   2.661  0.3518  2.7544  1.0770
 2963SOL    HW210178   1.114   1.757   2.606  0.2523  1.4067  0.8130
 2964SOL     OW10179   5.184   7.138   4.168  0.0413 -0.0553 -0.1925
 2964SOL    HW110180   5.259   7.079   4.165  0.3438  0.3224 -0.1078
 2964SOL    HW210181   5.168   7.160   4.076 -0.1708 -0.3945 -0.2364
 2965SOL     OW10182   5.755   4.343   4.888 -0.5330 -0.0721 -0.4150
 2965SOL    HW110183   5.797   4.356   4.972 -0.6523  0.4716 -0.4342
 2965SOL    HW210184   5.662   4.363   4.904 -0.4924  0.4232 -0.7561
 2966SOL     OW10185   1.101   4.144   8.160  0.3585 -0.8676  0.1660
 2966SOL    HW110186   1.062   4.200   8.226 -0.0909  0.7071 -1.3591
 2966SOL    HW210187   1.190   4.177   8.149 -0.3966  0.7013 -1.8656
 2967SOL     OW10188   1.134   0.543   3.488 -0.0438 -0.2811  0.8589
 2967SOL    HW110189   1.082   0.521   3.566 -1.7319  0.6695  0.0655
 2967SOL    HW210190   1.196   0.470   3.479 -0.9253 -1.2381  2.1391
 2968SOL     OW10191   8.402   7.802   3.065 -0.0545 -0.1654 -0.8439
 2968SOL    HW110192   8.494   7.824   3.082 -0.3640  1.7324 -1.3302
 2968SOL    HW210193   8.366   7.781   3.151  0.5825  0.1757 -0.4856
 2969SOL     OW10194   3.178   7.872   5.746  0.2328 -0.6276  0.2308
 2969SOL    HW110195   3.097   7.823   5.735  0.3455 -0.5192 -1.2637
 2969SOL    HW210196   3.238   7.834   5.682  1.1168 -0.1720  0.7607
 2970SOL     OW10197   4.007   8.033   4.497  0.5550 -0.1128  0.0268
 2970SOL    HW110198   3.920   8.072   4.508  1.1529  0.6522  2.4999
 2970SOL    HW210199   3.989   7.940   4.483 -0.7560  0.4823 -3.3008
 2971SOL     OW10200   6.097   0.041   2.243 -0.0917 -0.0193 -0.1298
 2971SOL    HW110201   6.089   0.133   2.215  1.5998 -0.0838 -1.0024
 2971SOL    HW210202   6.191   0.030   2.259 -0.3051 -1.5487  0.1845
 2972SOL     OW10203   7.509   0.410   7.175 -0.1453 -0.4862  0.0510
 2972SOL    HW110204   7.512   0.496   7.133 -0.6204 -1.0271 -1.1615
 2972SOL    HW210205   7.589   0.366   7.144 -0.2019 -0.6906  0.1914
 2973SOL     OW10206   7.343   6.868   0.888  0.7846 -0.2366  0.2011
 2973SOL    HW110207   7.402   6.914   0.827  2.0160 -0.8358  0.8961
 2973SOL    HW210208   7.256   6.899   0.864  1.1759 -0.6582 -2.0667
 2974SOL     OW10209   7.714   6.309   7.527 -0.0571  0.8405  0.1146
 2974SOL    HW110210   7.635   6.348   7.566 -0.5070  1.2346 -1.1504
 2974SOL    HW210211   7.777   6.308   7.599 -1.2779  0.2874  1.2262
 2975SOL     OW10212   1.010   0.770   3.871  0.2587 -0.2910 -0.0913
 2975SOL    HW110213   1.065   0.758   3.948 -1.7005  1.2592  1.6728
 2975SOL    HW210214   0.931   0.719   3.890 -0.8783  1.3090 -0.3294
 2976SOL     OW10215   3.074   2.660   3.787  0.3592 -0.2778  0.1106
 2976SOL    HW110216   2.999   2.602   3.804 -0.8398  0.6081 -1.7320
 2976SOL    HW210217   3.065   2.683   3.694  2.3173  0.7437  0.1263
 2977SOL     OW10218   7.117   0.381   4.062 -0.2058  0.3972 -0.3568
 2977SOL    HW110219   7.165   0.339   3.991 -0.1115  1.7614 -1.1522
 2977SOL    HW210220   7.171   0.457   4.086  0.3372 -0.6226  1.9771
 2978SOL     OW10221   6.138   8.191   2.814 -0.7172 -0.5008  0.5323
 2978SOL    HW110222   6.227   8.205   2.847 -1.0386  1.4543  0.7288
 2978SOL    HW210223   6.150   8.152   2.728  0.3438  0.1128  0.3812
 2979SOL     OW10224   3.154   8.283   2.694 -0.2893 -0.4581  0.9912
 2979SOL    HW110225   3.080   8.255   2.640 -0.7333 -1.4222  2.0700
 2979SOL    HW210226   3.226   8.225   2.668  0.5320  1.3504 -1.0266
 2980SOL     OW10227   1.923   4.098   8.697  0.1862 -0.1659 -0.1029
 2980SOL    HW110228   1.901   4.130   8.785 -1.1443 -2.1082  0.3540
 2980SOL    HW210229   2.016   4.076   8.703  0.3297  0.5560  0.5366
 2981SOL     OW10230   8.700   6.128   4.563  0.1659 -0.3930 -0.3535
 2981SOL    HW110231   8.651   6.053   4.597 -0.5835 -0.3453 -1.2916
 2981SOL    HW210232   8.792   6.103   4.574 -0.0116 -0.1863  2.0849
 2982SOL     OW10233   7.249   0.496   8.312 -0.3073 -0.2577  0.1686
 2982SOL    HW110234   7.159   0.506   8.340 -0.1253 -0.7645  0.9707
 2982SOL    HW210235   7.302   0.518   8.389  0.2615  0.3004 -0.3701
 2983SOL     OW10236   0.277   7.060   2.832  0.3668  0.0433 -0.2244
 2983SOL    HW110237   0.207   7.020   2.780 -0.7077  0.4897  0.8396
 2983SOL    HW210238   0.336   7.098   2.767 -1.2457  1.1230 -1.1426
 2984SOL     OW10239   5.604   0.387   6.295  0.3676 -0.0041 -0.4366
 2984SOL    HW110240   5.584   0.329   6.222  1.6778  0.1409 -0.9226
 2984SOL    HW210241   5.631   0.329   6.366  0.8865 -0.0306 -0.6589
 2985SOL     OW10242   2.342   7.013   1.235  0.7705  0.2737 -0.1274
 2985SOL    HW110243   2.427   6.997   1.193  0.3987  0.1663 -0.8460
 2985SOL    HW210244   2.342   6.954   1.310  1.1205 -0.1124 -0.4237
 2986SOL     OW10245   5.815   6.207   4.101  0.3966 -0.4664 -0.3682
 2986SOL    HW110246   5.758   6.133   4.082  0.3752  0.2403 -3.6258
 2986SOL    HW210247   5.785   6.240   4.186 -0.8454 -2.9664  0.2414
 2987SOL     OW10248   2.321   7.857   4.538 -0.4884  0.0793  0.0925
 2987SOL    HW110249   2.282   7.887   4.620  0.9442 -0.4056  0.9828
 2987SOL    HW210250   2.310   7.762   4.539  0.8719 -0.0847  0.4556
 2988SOL     OW10251   5.100   4.984   0.939 -0.5190  0.1468  0.0415
 2988SOL    HW110252   5.141   5.011   1.021  2.2246 -0.4097 -1.0136
 2988SOL    HW210253   5.088   4.890   0.948 -3.9414  0.5712  1.2133
 2989SOL     OW10254   3.470   7.243   4.310  0.2413 -0.3697  0.0621
 2989SOL    HW110255   3.406   7.172   4.313 -0.5987  0.3934  0.9439
 2989SOL    HW210256   3.473   7.276   4.400  0.7650  0.5821 -0.2906
 2990SOL     OW10257   0.495   1.522   6.448  0.4905  0.4684  0.1053
 2990SOL    HW110258   0.454   1.597   6.405  0.2408 -0.4849 -1.3857
 2990SOL    HW210259   0.422   1.471   6.484  0.4394 -0.3655 -1.1149
 2991SOL     OW10260   3.826   3.940   0.836 -0.1211  0.0118 -0.5453
 2991SOL    HW110261   3.820   3.864   0.778  1.1040  0.8243 -1.8077
 2991SOL    HW210262   3.786   4.012   0.786 -2.2683  0.0395  1.0580
 2992SOL     OW10263   6.322   5.503   4.822 -0.3255  0.0651  0.7822
 2992SOL    HW110264   6.416   5.516   4.828 -0.4335  0.9585  0.6617
 2992SOL    HW210265   6.287   5.589   4.799 -0.9373 -0.7618 -1.7802
 2993SOL     OW10266   5.407   5.135   4.792  0.8157 -0.8184  0.1655
 2993SOL    HW110267   5.406   5.217   4.841 -2.4447  0.5833 -1.9481
 2993SOL    HW210268   5.358   5.074   4.847  1.6065 -0.8405  0.8765
 2994SOL     OW10269   6.237   6.147   7.112  0.1616 -0.3763 -0.5433
 2994SOL    HW110270   6.318   6.135   7.161 -0.8382 -0.6438  1.0838
 2994SOL    HW210271   6.202   6.058   7.100 -0.7957 -0.1336  0.3529
 2995SOL     OW10272   8.384   5.080   3.506 -0.0986  0.1098 -0.0380
 2995SOL    HW110273   8.349   4.998   3.472 -0.5714  0.5193 -0.5679
 2995SOL    HW210274   8.420   5.124   3.429  1.3132 -0.1540  0.4412
 2996SOL     OW10275   2.406   3.707   0.846 -0.0992  0.2395 -0.5023
 2996SOL    HW110276   2.375   3.785   0.892  3.8938  2.5398 -1.1772
 2996SOL    HW210277   2.348   3.699   0.771 -2.3320  0.7803  1.0553
 2997SOL     OW10278   7.934   5.869   7.449  0.0673  0.1257  0.3239
 2997SOL    HW110279   7.840   5.884   7.453  0.3192  1.6718  2.5103
 2997SOL    HW210280   7.958   5.848   7.539  1.8600 -0.0257 -0.1544
 2998SOL     OW10281   3.297   1.731   0.187  0.2620 -0.4640  0.1967
 2998SOL    HW110282   3.311   1.771   0.273  0.4035 -0.2354  0.0683
 2998SOL    HW210283   3.334   1.643   0.195 -1.2989 -1.0922  0.9176
 2999SOL     OW10284   7.538   6.985   6.726 -0.4399 -0.2996  0.2165
 2999SOL    HW110285   7.586   6.973   6.644 -1.0559 -0.1680 -0.1705
 2999SOL    HW210286   7.456   6.936   6.714  0.0097 -1.3366  1.2480
 3000SOL     OW10287   3.530   7.553   4.914 -0.1561  0.2257 -0.1469
 3000SOL    HW110288   3.609   7.606   4.912 -0.0403  0.0769  0.3379
 3000SOL    HW210289   3.505   7.549   5.007  0.2671 -1.1774 -0.0617
 3001SOL     OW10290   2.588   0.880   4.040 -0.0476 -0.3297 -0.8149
 3001SOL    HW110291   2.577   0.975   4.040  0.9274 -0.2113 -0.5033
 3001SOL    HW210292   2.654   0.863   3.973 -0.9769 -0.9006 -1.6292
 3002SOL     OW10293   4.739   8.185   4.870  0.6902 -0.0504  0.1216
 3002SOL    HW110294   4.758   8.186   4.776  0.1351 -1.5152 -0.0373
 3002SOL    HW210295   4.674   8.254   4.882  0.3394 -0.2315 -0.6877
 3003SOL     OW10296   6.821   5.193   3.036 -0.1325  0.1103 -0.1180
 3003SOL    HW110297   6.813   5.165   3.127  0.0420  1.9781  0.5138
 3003SOL    HW210298   6.742   5.157   2.993  0.1919 -1.4767  0.5379
 3004SOL     OW10299   3.000   2.660   3.505  0.1685 -0.3046 -0.0613
 3004SOL    HW110300   2.953   2.637   3.424  1.1259  1.3935 -1.1594
 3004SOL    HW210301   3.092   2.653   3.481  0.5815 -2.7024  1.8028
 3005SOL     OW10302   2.593   8.497   8.437 -0.0024 -0.1317 -0.3773
 3005SOL    HW110303   2.590   8.519   8.344  2.7578 -1.4017 -0.8658
 3005SOL    HW210304   2.673   8.538   8.469 -0.4885 -0.3897  1.2691
 3006SOL     OW10305   4.258   2.440   0.184  0.2927 -1.0012  0.0325
 3006SOL    HW110306   4.328   2.492   0.144 -0.2995 -0.6447 -0.5753
 3006SOL    HW210307   4.279   2.439   0.277 -0.2116  1.2205  0.2295
 3007SOL     OW10308   3.775   1.156   0.041 -0.7739 -0.4722  0.6477
 3007SOL    HW110309   3.815   1.235   0.079  1.7092 -0.0348 -2.4857
 3007SOL    HW210310   3.710   1.189  -0.021  1.3429 -0.6572 -1.8221
 3008SOL     OW10311   0.019   1.479   5.628  0.4022  0.6422  0.0469
 3008SOL    HW110312  -0.059   1.534   5.620 -1.1725 -1.1080  2.1630
 3008SOL    HW210313  -0.006   1.396   5.587  1.3077  0.1848  0.3958
 3009SOL     OW10314   8.299   2.406   1.913  0.4746 -0.2152 -0.5979
 3009SOL    HW110315   8.307   2.477   1.850 -0.3344  0.0686 -0.3875
 3009SOL    HW210316   8.232   2.435   1.974  1.7175 -0.1816  0.8182
 3010SOL     OW10317   5.614   3.633   8.322  0.0422 -0.0531  0.3027
 3010SOL    HW110318   5.529   3.589   8.316  0.0503  0.0520 -0.9230
 3010SOL    HW210319   5.614   3.694   8.248  0.8968  0.4701  0.7229
 3011SOL     OW10320   3.910   0.293   3.542  0.1068  0.8135  0.3241
 3011SOL    HW110321   3.955   0.341   3.472 -2.1253 -1.5865 -3.0491
 3011SOL    HW210322   3.964   0.215   3.555  0.4164  1.1653  1.2669
 3012SOL     OW10323   7.704   6.441   6.123 -0.3063 -0.0336  0.2728
 3012SOL    HW110324   7.758   6.508   6.083  1.2016  0.2443  2.5944
 3012SOL    HW210325   7.745   6.358   6.098 -0.5762  0.0229 -0.3772
 3013SOL     OW10326   2.457   6.718   6.108 -0.2551 -0.5325  0.7217
 3013SOL    HW110327   2.446   6.812   6.123  1.5090 -0.2665  0.5679
 3013SOL    HW210328   2.419   6.703   6.021  1.3199  0.4714 -0.1773
 3014SOL     OW10329   1.986   4.985   0.688 -0.4531 -0.1375 -0.6243
 3014SOL    HW110330   1.994   4.890   0.675 -0.2754  0.0840 -2.2696
 3014SOL    HW210331   2.035   5.024   0.616  1.4498  1.2601  1.2739
 3015SOL     OW10332   4.452   8.278   8.436 -0.6589  0.2730 -0.0530
 3015SOL    HW110333   4.491   8.193   8.418 -0.2743 -0.1189  2.2741
 3015SOL    HW210334   4.424   8.311   8.351 -1.1628 -2.3421 -0.9747
 3016SOL     OW10335   2.900   2.079   6.315  0.5653  0.3405  0.5287
 3016SOL    HW110336   2.995   2.084   6.307  0.8482 -1.0799  2.2278
 3016SOL    HW210337   2.867   2.158   6.271  2.5996  1.5234  0.9985
 3017SOL     OW10338   4.618   4.012   8.390  0.0990  0.2906  0.5983
 3017SOL    HW110339   4.711   3.992   8.381  0.1633  0.2572  1.3136
 3017SOL    HW210340   4.578   3.979   8.309  0.8089  0.9369 -0.0304
 3018SOL     OW10341   1.268   5.364   8.487  0.2807 -0.0856  0.1046
 3018SOL    HW110342   1.197   5.310   8.452 -1.0667  0.6487  1.5465
 3018SOL    HW210343   1.223   5.442   8.520  1.7929  0.4640  0.9217
 3019SOL     OW10344   3.078   2.196   3.086 -0.2250 -0.6069 -0.3582
 3019SOL    HW110345   3.157   2.153   3.121  0.1694  0.1426 -0.2884
 3019SOL    HW210346   3.026   2.216   3.164 -0.4701 -1.0661 -0.4010
 3020SOL     OW10347   1.234   4.206   1.088  0.2287 -0.4055  0.2724
 3020SOL    HW110348   1.204   4.294   1.063 -1.2222 -1.4203 -1.9086
 3020SOL    HW210349   1.229   4.205   1.184 -2.0611  1.1682  0.2578
 3021SOL     OW10350   1.578   6.329   1.696  0.2148  0.0545  0.3250
 3021SOL    HW110351   1.507   6.393   1.707  1.0131  0.8337  1.0646
 3021SOL    HW210352   1.640   6.351   1.765  1.0234 -0.8333 -0.1109
 3022SOL     OW10353   3.026   6.077   7.992  0.0998  0.0762 -0.6987
 3022SOL    HW110354   2.998   6.027   7.916 -0.9239  1.2865 -1.1574
 3022SOL    HW210355   2.992   6.028   8.067  1.2141 -1.1841 -0.9663
 3023SOL     OW10356   4.405   0.497   0.796 -0.1926 -0.0697 -0.3391
 3023SOL    HW110357   4.386   0.504   0.703 -0.0076 -0.8157 -0.4396
 3023SOL    HW210358   4.482   0.440   0.800  0.4500  0.8039  0.2100
 3024SOL     OW10359   0.291   4.356   0.608 -0.0355 -0.4719 -0.3396
 3024SOL    HW110360   0.228   4.416   0.567 -0.7469 -0.9129  0.0752
 3024SOL    HW210361   0.376   4.387   0.579 -0.4579 -0.0075 -1.1222
 3025SOL     OW10362   0.117   3.813   0.656  0.3582  0.3088  0.5108
 3025SOL    HW110363   0.044   3.853   0.704 -0.2229  0.2528 -0.3066
 3025SOL    HW210364   0.163   3.761   0.723 -1.9700 -1.9123  0.5654
 3026SOL     OW10365   8.562   5.473   4.306  0.0116 -0.7165  0.2194
 3026SOL    HW110366   8.528   5.544   4.360 -1.7628 -0.6550 -0.8656
 3026SOL    HW210367   8.616   5.421   4.365  2.2592  2.0627  0.8166
 3027SOL     OW10368   8.587   4.015   5.358  0.3024  0.5083 -0.1263
 3027SOL    HW110369   8.619   4.032   5.446  0.2507  1.2916 -0.2502
 3027SOL    HW210370   8.663   4.027   5.302  0.2828  0.2460 -0.2082
 3028SOL     OW10371   3.052   7.822   5.423  0.1117 -0.2838  0.0718
 3028SOL    HW110372   3.085   7.742   5.464 -2.1604 -0.6978  1.2262
 3028SOL    HW210373   2.994   7.861   5.488  0.1024  1.6037 -0.9899
 3029SOL     OW10374   0.147   7.835   3.963 -0.2685  0.1922  0.7132
 3029SOL    HW110375   0.240   7.818   3.975 -0.4652 -0.5944  1.2049
 3029SOL    HW210376   0.132   7.822   3.869 -0.2905 -1.8796  0.9621
 3030SOL     OW10377   4.356   1.067   3.938 -0.1515  0.3155  0.0723
 3030SOL    HW110378   4.321   0.991   3.891 -1.2690  0.5113  0.5411
 3030SOL    HW210379   4.282   1.098   3.991  1.0531  0.1201  1.9531
 3031SOL     OW10380   0.873   3.425   5.846  0.3923 -0.4854  0.4849
 3031SOL    HW110381   0.843   3.492   5.784 -0.2883  0.4027  1.7421
 3031SOL    HW210382   0.868   3.467   5.932  0.8987 -1.8347  1.2070
 3032SOL     OW10383   4.764   3.711   5.631 -0.0499 -0.5731  0.3774
 3032SOL    HW110384   4.816   3.775   5.678  0.5546 -1.7439  1.3639
 3032SOL    HW210385   4.678   3.752   5.620  0.3606  0.4360  0.8851
 3033SOL     OW10386   3.528   3.858   7.507  0.1380 -0.1418  0.0522
 3033SOL    HW110387   3.464   3.825   7.571 -0.9740 -0.6318 -1.2613
 3033SOL    HW210388   3.536   3.788   7.443  2.1963 -0.1600  0.2861
 3034SOL     OW10389   8.268   3.481   4.342  0.2376  0.2970  0.1318
 3034SOL    HW110390   8.245   3.552   4.402 -0.2328 -0.3735  0.7697
 3034SOL    HW210391   8.259   3.520   4.255  0.3429  1.1196  0.4730
 3035SOL     OW10392   3.860   7.045   7.084  0.0347  0.4453 -0.3877
 3035SOL    HW110393   3.956   7.041   7.094 -0.0899 -0.9373  0.5041
 3035SOL    HW210394   3.832   7.109   7.148  0.1418 -1.2252  1.4059
 3036SOL     OW10395   5.310   4.744   5.881  0.2571 -0.1050 -0.3819
 3036SOL    HW110396   5.302   4.716   5.972  0.1659  1.3876  0.0865
 3036SOL    HW210397   5.297   4.838   5.883  0.7124  0.0219 -1.8899
 3037SOL     OW10398   4.393   4.906   8.325  0.2354  0.1119 -0.0639
 3037SOL    HW110399   4.337   4.914   8.403  1.7633  2.4863  0.9102
 3037SOL    HW210400   4.480   4.885   8.360  0.6418 -0.2898 -1.2724
 3038SOL     OW10401   7.924   0.542   5.623  0.5290  0.1250 -0.2595
 3038SOL    HW110402   7.980   0.615   5.651  0.0241  0.4723 -0.1523
 3038SOL    HW210403   7.951   0.469   5.679 -0.2601  0.7343  0.9535
 3039SOL     OW10404   0.582   4.850   8.696  0.1453  0.1420 -0.1019
 3039SOL    HW110405   0.538   4.833   8.613 -1.0583  1.0736  0.3093
 3039SOL    HW210406   0.674   4.860   8.673 -0.1559  0.2867 -1.3101
 3040SOL     OW10407   1.630   5.440   6.371  0.3205 -0.2207  0.1915
 3040SOL    HW110408   1.660   5.441   6.461 -0.9119 -1.2425  0.6472
 3040SOL    HW210409   1.698   5.487   6.322  2.9204 -2.7731  1.0485
 3041SOL     OW10410   4.101   3.005   3.725 -0.1403  0.0993 -0.0540
 3041SOL    HW110411   4.129   3.088   3.687 -2.4429  1.0289  0.1056
 3041SOL    HW210412   4.020   3.026   3.771 -1.5485 -2.4792 -1.1352
 3042SOL     OW10413   5.923   1.810   5.582  0.1171 -0.2218  0.1688
 3042SOL    HW110414   5.827   1.801   5.584  0.1597 -0.7529  0.0762
 3042SOL    HW210415   5.948   1.781   5.494  0.3389  0.1898  0.0978
 3043SOL     OW10416   2.815   3.885   5.418  0.0659 -0.7560  0.2697
 3043SOL    HW110417   2.775   3.910   5.335  1.4066 -1.0959 -0.5110
 3043SOL    HW210418   2.859   3.964   5.448  2.5350 -1.4884 -1.1489
 3044SOL     OW10419   3.101   7.128   8.161 -0.0102  0.1519  0.0774
 3044SOL    HW110420   3.148   7.045   8.174  0.8060  0.8325  1.6937
 3044SOL    HW210421   3.071   7.153   8.248  1.7114  2.6562  0.0679
 3045SOL     OW10422   7.652   3.622   5.090 -0.3171 -0.1248  0.6431
 3045SOL    HW110423   7.602   3.645   5.169 -0.0939 -0.3824  0.8637
 3045SOL    HW210424   7.729   3.678   5.094 -1.2120  1.2364 -0.3948
 3046SOL     OW10425   2.038   5.926   7.395  0.1196  0.1510 -0.2270
 3046SOL    HW110426   2.078   5.846   7.428 -1.3719  0.5398  3.0212
 3046SOL    HW210427   2.082   5.944   7.313  2.4602 -2.4610  0.3189
 3047SOL     OW10428   4.578   6.761   4.387  0.4980 -0.0607  0.2086
 3047SOL    HW110429   4.521   6.729   4.457  3.5075  0.0316  2.9473
 3047SOL    HW210430   4.611   6.682   4.345  0.0280 -0.1699  0.0374
 3048SOL     OW10431   3.582   8.457   5.878  0.6220  0.0783  0.9056
 3048SOL    HW110432   3.582   8.374   5.830 -1.2379  1.5236 -1.8156
 3048SOL    HW210433   3.675   8.477   5.892  1.1855 -1.2294 -0.6741
 3049SOL     OW10434   1.488   8.080   8.269  0.0492 -0.4948  0.1189
 3049SOL    HW110435   1.527   8.131   8.340  0.9839  0.7556 -1.2149
 3049SOL    HW210436   1.394   8.082   8.286  0.3448 -1.8698  2.3308
 3050SOL     OW10437   7.173   8.320   0.247 -0.3028 -0.1600 -0.2259
 3050SOL    HW110438   7.102   8.288   0.303 -2.3199  1.5065 -1.6909
 3050SOL    HW210439   7.233   8.364   0.307 -0.4758 -1.5509  1.0379
 3051SOL     OW10440   7.436   7.464   4.173 -0.4576  0.1756 -0.2984
 3051SOL    HW110441   7.466   7.412   4.098 -2.1646  0.6742 -1.4001
 3051SOL    HW210442   7.342   7.477   4.156 -1.2722 -0.9532  2.6783
 3052SOL     OW10443   6.764   4.576   3.868  0.3429  0.3839  0.3041
 3052SOL    HW110444   6.769   4.582   3.772 -1.2169  0.9614  0.2181
 3052SOL    HW210445   6.707   4.500   3.884 -0.5106  1.0896  0.7151
 3053SOL     OW10446   2.760   2.142   6.665 -0.2721 -0.5031  0.2029
 3053SOL    HW110447   2.730   2.200   6.595  0.8672  2.0161  1.6923
 3053SOL    HW210448   2.787   2.062   6.619 -0.3668  0.7198 -2.1492
 3054SOL     OW10449   8.634   2.901   6.873 -0.2699 -0.8392 -0.0609
 3054SOL    HW110450   8.629   2.906   6.777 -0.2114  0.8036 -0.0041
 3054SOL    HW210451   8.543   2.898   6.902 -0.3391  0.3333 -0.1194
 3055SOL     OW10452   0.417   7.650   6.301 -0.2490 -0.6087 -0.1549
 3055SOL    HW110453   0.417   7.588   6.228  0.0799 -1.2260  0.3585
 3055SOL    HW210454   0.388   7.598   6.376 -2.0961  0.3993 -0.1426
 3056SOL     OW10455   5.375   1.346   3.311  0.9373 -0.3053 -0.3811
 3056SOL    HW110456   5.457   1.389   3.333  1.3399 -0.8174 -0.8508
 3056SOL    HW210457   5.329   1.408   3.254  0.8249  0.1377  0.1859
 3057SOL     OW10458   5.948   0.682   0.808 -0.4146  0.5699 -0.0791
 3057SOL    HW110459   6.003   0.750   0.770 -1.1463  1.7236  0.8338
 3057SOL    HW210460   5.948   0.701   0.902 -0.3845 -0.8919  0.2368
 3058SOL     OW10461   2.700   1.467   7.271  0.0264  0.0633  0.2157
 3058SOL    HW110462   2.777   1.496   7.221  0.9158 -0.0735  1.4720
 3058SOL    HW210463   2.714   1.502   7.359 -1.4594  0.1905  0.4170
 3059SOL     OW10464   7.303   1.061   0.983  0.0626 -0.2923 -0.5005
 3059SOL    HW110465   7.211   1.084   0.971 -0.1281 -1.1394 -0.7082
 3059SOL    HW210466   7.342   1.073   0.896 -0.5565 -3.0011 -1.2246
 3060SOL     OW10467   2.072   7.803   3.169 -0.0957 -0.5657 -0.2656
 3060SOL    HW110468   1.981   7.815   3.144  0.4382  1.1038 -1.6329
 3060SOL    HW210469   2.114   7.765   3.091  0.4895 -0.7269  0.1210
 3061SOL     OW10470   8.432   2.794   3.621 -0.4728 -0.1503 -0.0773
 3061SOL    HW110471   8.449   2.719   3.565  0.1297 -0.8138  0.9586
 3061SOL    HW210472   8.395   2.757   3.701  0.4557  0.5797  0.7192
 3062SOL     OW10473   8.058   5.663   3.134 -0.0392 -0.1259  0.3052
 3062SOL    HW110474   8.056   5.657   3.229 -0.0099 -0.1020  0.3072
 3062SOL    HW210475   8.031   5.575   3.104 -0.4419 -0.0153  0.3345
 3063SOL     OW10476   4.767   5.989   0.531  0.5070 -0.2764 -0.1311
 3063SOL    HW110477   4.717   6.024   0.604  1.0007  1.2424 -0.4708
 3063SOL    HW210478   4.822   5.920   0.569 -2.5152 -2.7737  0.0589
 3064SOL     OW10479   3.285   0.800   5.304 -0.2194  0.0984 -0.2811
 3064SOL    HW110480   3.225   0.784   5.376 -1.0421 -2.4620 -1.3896
 3064SOL    HW210481   3.228   0.802   5.226  0.7869  1.2751 -1.0173
 3065SOL     OW10482   1.447   5.061   7.236 -0.2828  0.3386  0.0575
 3065SOL    HW110483   1.367   5.061   7.289 -0.2123  0.7360  0.1734
 3065SOL    HW210484   1.422   5.103   7.154 -0.6998 -1.3935 -0.7287
 3066SOL     OW10485   5.207   5.766   8.225  0.0871 -0.3834  0.7791
 3066SOL    HW110486   5.206   5.795   8.134  0.4410  0.1779  0.9504
 3066SOL    HW210487   5.161   5.682   8.224 -0.0395 -0.3099  0.1086
 3067SOL     OW10488   0.623   6.384   4.875  0.0526  0.5028  0.7158
 3067SOL    HW110489   0.534   6.355   4.894  0.0512  0.4674  0.6552
 3067SOL    HW210490   0.624   6.399   4.781  0.2644 -0.0209  0.6308
 3068SOL     OW10491   8.501   5.906   6.878 -0.2823 -0.0075 -0.2643
 3068SOL    HW110492   8.584   5.926   6.835  1.0066  1.8609  2.7209
 3068SOL    HW210493   8.527   5.859   6.958 -2.4414 -2.4479 -0.8698
 3069SOL     OW10494   0.053   2.544   7.815 -0.2007 -0.1571  0.6930
 3069SOL    HW110495   0.040   2.635   7.844 -1.1070 -0.0181 -0.1298
 3069SOL    HW210496   0.009   2.539   7.731  0.3313 -1.2218  0.4669
 3070SOL     OW10497   3.594   1.963   5.719  0.5344  0.0229 -0.0458
 3070SOL    HW110498   3.595   2.046   5.767 -1.9290  0.1411 -0.0283
 3070SOL    HW210499   3.613   1.987   5.628  2.3000  0.2094  0.3402
 3071SOL     OW10500   1.032   3.387   4.383 -0.0795 -0.6558  0.1778
 3071SOL    HW110501   1.113   3.339   4.400  1.1402  1.2985  0.0921
 3071SOL    HW210502   0.976   3.366   4.457  0.2841 -2.3882  0.0239
 3072SOL     OW10503   7.508   5.189   7.558 -0.4404  0.4546  0.0917
 3072SOL    HW110504   7.530   5.198   7.466 -0.4631 -0.5657 -0.0303
 3072SOL    HW210505   7.564   5.252   7.603 -0.9209  1.4467 -0.6715
 3073SOL     OW10506   2.110   7.768   0.034  0.7412  0.6988  0.9239
 3073SOL    HW110507   2.073   7.746   0.120 -0.0452  2.3575  1.0512
 3073SOL    HW210508   2.196   7.805   0.054  0.2764  1.7402  1.0965
 3074SOL     OW10509   2.417   6.733   6.812  0.1918  0.0416  0.3528
 3074SOL    HW110510   2.439   6.642   6.792  0.3047  0.0289  0.5250
 3074SOL    HW210511   2.440   6.742   6.905 -1.3026 -0.2065  0.7664
 3075SOL     OW10512   6.681   5.805   1.099  0.0792 -0.5643 -0.6163
 3075SOL    HW110513   6.632   5.791   1.180  4.4588  1.4878  2.8204
 3075SOL    HW210514   6.685   5.900   1.089  2.5823 -0.6422 -1.0700
 3076SOL     OW10515   2.174   1.568   8.226  0.5503 -0.1162 -0.4207
 3076SOL    HW110516   2.184   1.662   8.241 -1.0847 -0.0009  0.1904
 3076SOL    HW210517   2.129   1.536   8.305  2.1440 -1.6433 -0.0771
 3077SOL     OW10518   1.716   6.023   3.717  0.7161  0.5221  0.1804
 3077SOL    HW110519   1.688   6.034   3.808 -0.0624 -0.1118  0.0267
 3077SOL    HW210520   1.744   5.932   3.711  0.5706  0.5072 -0.2723
 3078SOL     OW10521   1.753   2.055   4.318  0.1736  0.0007 -0.5978
 3078SOL    HW110522   1.705   2.081   4.396 -0.0059 -1.2713 -0.2710
 3078SOL    HW210523   1.686   2.031   4.255  0.3022  1.3587 -1.3020
 3079SOL     OW10524   0.112   2.909   6.402  0.8029  0.4583  0.0296
 3079SOL    HW110525   0.197   2.952   6.405  0.3957  1.2387  0.5976
 3079SOL    HW210526   0.061   2.960   6.339 -0.2372  1.9204  1.9253
 3080SOL     OW10527   7.792   7.175   0.534  0.6984  0.6127 -0.3477
 3080SOL    HW110528   7.736   7.151   0.461  0.4866 -2.3259  0.6543
 3080SOL    HW210529   7.741   7.238   0.584  0.4903  1.9745 -2.1787
 3081SOL     OW10530   4.790   0.866   7.352 -0.6959  0.2433  0.2677
 3081SOL    HW110531   4.738   0.806   7.298  1.2392 -0.3217 -1.0814
 3081SOL    HW210532   4.819   0.934   7.291 -1.8000  1.8980  1.5130
 3082SOL     OW10533   8.502   0.708   4.234 -0.0032 -0.0923 -0.0546
 3082SOL    HW110534   8.486   0.649   4.308  0.2980  1.1786  1.0533
 3082SOL    HW210535   8.585   0.679   4.197 -1.0570 -1.9426 -1.1298
 3083SOL     OW10536   0.859   0.621   7.058  0.3626 -0.1539  0.7170
 3083SOL    HW110537   0.823   0.636   7.145 -1.1009  0.4634  0.0612
 3083SOL    HW210538   0.782   0.621   7.001  1.3157 -0.1916 -0.6174
 3084SOL     OW10539   7.702   0.966   6.178  0.0072  0.1899  0.0227
 3084SOL    HW110540   7.768   0.979   6.110  0.0898  1.1730  0.2747
 3084SOL    HW210541   7.647   0.895   6.146  0.8651 -0.2650 -0.4386
 3085SOL     OW10542   4.868   4.844   5.580 -0.0629  0.3852  0.1362
 3085SOL    HW110543   4.822   4.789   5.643 -0.2102  0.6302  0.2461
 3085SOL    HW210544   4.832   4.819   5.495  0.7052 -0.5102  0.0608
 3086SOL     OW10545   6.434   2.842   4.682 -0.2408  0.0320  0.0664
 3086SOL    HW110546   6.403   2.826   4.771 -1.0704  1.4318  0.0585
 3086SOL    HW210547   6.382   2.916   4.651 -0.0006 -0.4577 -1.6082
 3087SOL     OW10548   1.775   5.099   5.998 -0.1363  0.3232  0.3257
 3087SOL    HW110549   1.738   5.098   5.909 -1.0861  1.3319  0.6918
 3087SOL    HW210550   1.842   5.168   5.995  0.3254 -0.1239  0.2129
 3088SOL     OW10551   3.714   2.666   1.189  0.0663 -0.1294 -0.3682
 3088SOL    HW110552   3.632   2.663   1.140  0.4801  0.2691 -1.1071
 3088SOL    HW210553   3.775   2.709   1.129  0.1680  1.8830  1.0881
 3089SOL     OW10554   8.260   8.691   5.808  0.0216  0.0405 -0.1090
 3089SOL    HW110555   8.286   8.603   5.834 -1.3012  0.0166  1.2397
 3089SOL    HW210556   8.258   8.741   5.889  0.3887  1.2262 -0.8111
 3090SOL     OW10557   2.268   6.530   1.480  0.1718 -0.5515 -0.3233
 3090SOL    HW110558   2.291   6.492   1.395 -1.2195  1.2769 -1.6010
 3090SOL    HW210559   2.348   6.575   1.508  0.1092  0.4897 -1.6683
 3091SOL     OW10560   1.931   7.360   6.931  0.5725 -0.2005  0.4363
 3091SOL    HW110561   1.851   7.395   6.891  1.1917 -0.3436 -0.9972
 3091SOL    HW210562   1.905   7.337   7.020 -1.5652 -2.2790 -0.5991
 3092SOL     OW10563   6.540   4.427   0.524  0.1592  0.5821  0.5055
 3092SOL    HW110564   6.616   4.393   0.573 -0.9589 -0.7246  1.3999
 3092SOL    HW210565   6.577   4.454   0.440  1.4067 -1.4709  0.3113
 3093SOL     OW10566   3.856   1.300   1.070  0.7528  0.0828  0.5036
 3093SOL    HW110567   3.799   1.368   1.033 -0.2429 -0.0191  1.7712
 3093SOL    HW210568   3.867   1.326   1.161  1.8210 -0.5239  0.5586
 3094SOL     OW10569   0.111   2.031   0.942  0.9415  0.3966  0.0657
 3094SOL    HW110570   0.163   2.014   1.020  0.9373 -0.2899 -0.0764
 3094SOL    HW210571   0.104   1.947   0.898 -0.8534  0.2957  0.4341
 3095SOL     OW10572   4.430   5.210   6.612 -0.3605 -0.7047  0.0540
 3095SOL    HW110573   4.335   5.218   6.612 -0.2826  0.4622 -0.6824
 3095SOL    HW210574   4.462   5.300   6.615  0.7405 -1.1056  1.2675
 3096SOL     OW10575   5.379   5.582   2.874  0.1625 -0.6654  0.6994
 3096SOL    HW110576   5.319   5.517   2.838 -1.4146  0.2931  1.4553
 3096SOL    HW210577   5.384   5.562   2.967  2.3425 -1.6938  0.4303
 3097SOL     OW10578   0.243   5.812   3.451 -0.2488 -0.0877  0.1782
 3097SOL    HW110579   0.240   5.834   3.544  0.5162 -3.5407  1.1706
 3097SOL    HW210580   0.334   5.827   3.426 -0.7331  2.1659 -0.5067
 3098SOL     OW10581   6.578   7.777   2.824 -0.0605 -0.0389 -0.0946
 3098SOL    HW110582   6.510   7.714   2.799  0.5694 -0.8709  0.2573
 3098SOL    HW210583   6.594   7.760   2.917  1.5996 -0.8113 -0.4906
 3099SOL     OW10584   6.375   7.651   4.384 -0.2423  0.4755  0.2211
 3099SOL    HW110585   6.440   7.656   4.454  1.1775  1.1198 -1.1021
 3099SOL    HW210586   6.322   7.730   4.396 -1.2206 -0.3511  1.6696
 3100SOL     OW10587   4.726   8.480   8.417 -0.6421 -0.3699  0.1162
 3100SOL    HW110588   4.682   8.472   8.333 -1.0960 -0.2012  0.3329
 3100SOL    HW210589   4.783   8.557   8.408  0.0508 -0.9290 -0.3554
 3101SOL     OW10590   0.176   5.272   1.950 -0.4712 -0.2749 -0.3557
 3101SOL    HW110591   0.205   5.182   1.937 -0.9859 -0.3371 -1.1185
 3101SOL    HW210592   0.091   5.277   1.906 -1.3214  0.0829  1.2746
 3102SOL     OW10593   0.666   4.949   1.791  0.0112 -0.5435  0.1816
 3102SOL    HW110594   0.658   4.872   1.734 -0.3253 -0.6202  0.3312
 3102SOL    HW210595   0.582   4.994   1.783  0.8032  0.7447 -1.2342
 3103SOL     OW10596   4.100   4.203   1.786  0.2730 -0.3896 -0.1877
 3103SOL    HW110597   4.019   4.201   1.735  0.7899 -0.3777 -1.0253
 3103SOL    HW210598   4.147   4.124   1.760  1.6598  0.8374 -1.6241
 3104SOL     OW10599   2.647   4.885   2.869 -0.1276 -0.8225  0.1950
 3104SOL    HW110600   2.631   4.791   2.862 -1.3518 -0.6333  0.1485
 3104SOL    HW210601   2.725   4.892   2.923  0.3146 -1.8765 -0.2760
 3105SOL     OW10602   5.914   6.884   1.307  0.0034  0.1360  0.1516
 3105SOL    HW110603   5.866   6.894   1.390  1.4669  1.8141  0.8816
 3105SOL    HW210604   6.003   6.913   1.328  0.3904  0.7382 -2.0380
 3106SOL     OW10605   6.791   8.225   1.547 -0.4968 -0.1467  0.2783
 3106SOL    HW110606   6.754   8.148   1.503 -2.3910  1.1289 -0.4701
 3106SOL    HW210607   6.824   8.190   1.631 -1.7391 -1.7015  0.1793
 3107SOL     OW10608   6.934   2.338   5.555 -0.5734  0.0827 -0.0593
 3107SOL    HW110609   6.978   2.256   5.532  1.0726  0.4759  1.4906
 3107SOL    HW210610   6.996   2.406   5.530 -1.6154  0.8408 -0.6456
 3108SOL     OW10611   6.038   6.528   2.985  0.3099  0.1259  0.1008
 3108SOL    HW110612   6.115   6.475   3.009  0.2447 -0.6626 -1.3149
 3108SOL    HW210613   5.984   6.529   3.064 -0.0697 -2.6301 -0.0005
 3109SOL     OW10614   0.427   8.220   8.234 -0.0154 -0.4793  0.2868
 3109SOL    HW110615   0.483   8.145   8.254 -0.0146 -0.3357  0.8407
 3109SOL    HW210616   0.391   8.246   8.319  0.8890  0.8719  0.2774
 3110SOL     OW10617   1.829   4.687   0.346 -0.2633  0.0927 -0.0530
 3110SOL    HW110618   1.858   4.635   0.272  0.1180  0.6412 -0.2914
 3110SOL    HW210619   1.890   4.760   0.350 -0.0447 -0.1270  1.0314
 3111SOL     OW10620   4.422   5.653   4.748  0.0976  0.0338 -0.4320
 3111SOL    HW110621   4.421   5.596   4.825 -0.1481  0.7886  0.1352
 3111SOL    HW210622   4.475   5.728   4.774 -0.1341  0.3778 -0.9392
 3112SOL     OW10623   4.201   4.378   1.483 -0.3826 -0.9135 -0.0425
 3112SOL    HW110624   4.221   4.418   1.567 -0.1726 -1.4256  0.1542
 3112SOL    HW210625   4.271   4.407   1.425  1.3204 -3.1332  0.7762
 3113SOL     OW10626   4.006   7.326   1.500  0.0694  0.0661  0.3258
 3113SOL    HW110627   4.094   7.313   1.466 -0.8496 -1.6599 -1.6192
 3113SOL    HW210628   3.972   7.402   1.453 -0.1289 -0.4491 -0.3795
 3114SOL     OW10629   3.392   3.838   6.737  0.4594  0.4648  0.3414
 3114SOL    HW110630   3.448   3.887   6.677  3.3608 -1.4333  1.3266
 3114SOL    HW210631   3.379   3.753   6.694 -3.3612  1.3869 -0.7026
 3115SOL     OW10632   3.063   4.303   7.138  0.1760 -0.2034  0.0504
 3115SOL    HW110633   3.089   4.305   7.230 -2.5852 -1.2573  0.9665
 3115SOL    HW210634   3.118   4.369   7.096  0.7707  1.1084  2.6608
 3116SOL     OW10635   1.605   3.357   4.833  0.5897  0.2599  0.6302
 3116SOL    HW110636   1.560   3.316   4.907 -1.0988  0.8618 -0.0165
 3116SOL    HW210637   1.542   3.421   4.799  0.8737 -0.7406 -2.0123
 3117SOL     OW10638   0.649   3.946   8.335 -0.2561  0.7719  0.5784
 3117SOL    HW110639   0.679   4.037   8.325 -1.0086  1.1022  1.2899
 3117SOL    HW210640   0.646   3.932   8.429 -2.0708  0.6689  0.5401
 3118SOL     OW10641   0.139   1.642   5.180  0.4390  0.2634  0.3531
 3118SOL    HW110642   0.171   1.619   5.267  3.0357  1.3489 -0.2355
 3118SOL    HW210643   0.157   1.735   5.171  0.9851  0.0169 -1.6181
 3119SOL     OW10644   6.523   7.790   1.122  0.3461  0.0109  0.3506
 3119SOL    HW110645   6.528   7.836   1.038  1.4270 -0.4709  0.1371
 3119SOL    HW210646   6.582   7.715   1.112  2.2249  1.1146  2.2611
 3120SOL     OW10647   5.243   1.195   8.618 -0.9793  0.1262 -0.4875
 3120SOL    HW110648   5.305   1.139   8.571 -1.6866 -0.5506 -0.6453
 3120SOL    HW210649   5.166   1.198   8.561 -2.2463 -1.5263  1.0159
 3121SOL     OW10650   0.296   2.523   3.297  0.7130  0.2748 -0.2424
 3121SOL    HW110651   0.242   2.446   3.315 -0.2257  1.0718  0.5087
 3121SOL    HW210652   0.321   2.555   3.384  1.1822  0.7490 -0.5517
 3122SOL     OW10653   3.519   6.415   6.676 -0.3711  0.5447 -0.1802
 3122SOL    HW110654   3.554   6.436   6.590  0.8343 -0.7787 -0.0445
 3122SOL    HW210655   3.592   6.374   6.723 -1.2819  0.3476  1.1303
 3123SOL     OW10656   8.415   5.544   2.795  0.3071 -0.2125  0.0780
 3123SOL    HW110657   8.433   5.549   2.889  0.1065 -1.8042  0.2206
 3123SOL    HW210658   8.322   5.521   2.790  0.3465 -0.2513 -0.5068
 3124SOL     OW10659   3.195   7.333   6.979  0.1738  0.4257  0.3931
 3124SOL    HW110660   3.215   7.413   6.930  0.2478  2.0382  2.8764
 3124SOL    HW210661   3.280   7.290   6.989  0.6062  1.3882  1.1577
 3125SOL     OW10662   2.876   7.743   6.923 -0.4276  0.4252  0.0604
 3125SOL    HW110663   2.816   7.818   6.916 -0.8210  0.2159  0.9630
 3125SOL    HW210664   2.821   7.673   6.959 -0.0790 -0.3237 -0.8244
 3126SOL     OW10665   3.795   1.940   3.003 -0.1068 -1.0895  0.2722
 3126SOL    HW110666   3.877   1.944   3.053 -0.6283 -1.5375  1.1854
 3126SOL    HW210667   3.817   1.980   2.919  0.7118 -0.0009  0.9646
 3127SOL     OW10668   2.643   3.543   0.579 -0.1339 -0.1776  0.2955
 3127SOL    HW110669   2.711   3.490   0.538  0.8947  0.5642  0.9687
 3127SOL    HW210670   2.569   3.484   0.593  0.2646 -0.9266 -0.7280
 3128SOL     OW10671   7.675   2.607   3.863 -0.0289  0.4590 -0.3897
 3128SOL    HW110672   7.662   2.551   3.939 -1.8509  0.3661 -0.7307
 3128SOL    HW210673   7.667   2.547   3.788  0.9972  0.6799 -0.6976
 3129SOL     OW10674   1.639   7.107   0.293  0.1797  0.4886  0.4097
 3129SOL    HW110675   1.571   7.172   0.312 -1.0627 -0.6737  0.0994
 3129SOL    HW210676   1.626   7.039   0.360  1.1235  0.3119  0.4211
 3130SOL     OW10677   5.069   2.116   7.475 -0.7415  0.3462 -0.6199
 3130SOL    HW110678   5.117   2.089   7.396  0.6656  0.8081  0.0402
 3130SOL    HW210679   5.025   2.036   7.504 -0.0709 -0.2011 -1.0571
 3131SOL     OW10680   6.416   2.068   6.505  0.2619 -0.3669 -0.4130
 3131SOL    HW110681   6.494   2.028   6.545  0.7830  1.9880  1.1450
 3131SOL    HW210682   6.444   2.157   6.482 -2.1745  0.9316  1.2031
 3132SOL     OW10683   2.482   2.887   6.777 -0.3135  0.1251  0.6620
 3132SOL    HW110684   2.569   2.890   6.739 -0.3759 -0.7754  0.4148
 3132SOL    HW210685   2.490   2.825   6.849 -0.7471  0.0266  0.6286
 3133SOL     OW10686   0.118   4.090   5.663  0.4312 -0.0660 -0.5073
 3133SOL    HW110687   0.144   4.175   5.627 -0.0827 -0.2562 -1.3585
 3133SOL    HW210688   0.200   4.041   5.672  0.6284  0.1822 -0.9295
 3134SOL     OW10689   3.226   2.632   1.911  0.1649  0.5969  0.2222
 3134SOL    HW110690   3.212   2.601   1.822 -1.2809  2.0515 -0.1047
 3134SOL    HW210691   3.182   2.567   1.966 -1.0932  0.9681 -0.3074
 3135SOL     OW10692   1.304   2.464   3.534  0.3011 -0.4716  0.0113
 3135SOL    HW110693   1.351   2.547   3.524 -0.1787 -0.0437  1.1084
 3135SOL    HW210694   1.341   2.407   3.466 -0.2062  0.9952 -1.5544
 3136SOL     OW10695   3.600   0.283   3.980  0.0271 -0.3148 -0.0366
 3136SOL    HW110696   3.630   0.252   4.065 -1.3312  0.3856  0.7375
 3136SOL    HW210697   3.528   0.224   3.957  0.9441 -1.0416 -1.1430
 3137SOL     OW10698   2.798   0.102   5.002  0.7342  0.3559  0.0421
 3137SOL    HW110699   2.777   0.165   4.934  1.3803  0.1810 -0.3298
 3137SOL    HW210700   2.714   0.080   5.042  0.3132  0.2068 -0.9115
 3138SOL     OW10701   0.704   6.771   3.147 -0.5616 -0.6795  0.5059
 3138SOL    HW110702   0.717   6.715   3.070 -0.3631 -0.8888  0.6862
 3138SOL    HW210703   0.772   6.838   3.140 -0.2811 -0.9385  0.7082
 3139SOL     OW10704   3.863   3.221   7.913 -0.1755  0.3036 -0.4049
 3139SOL    HW110705   3.938   3.166   7.936 -1.0891 -1.9623 -2.4904
 3139SOL    HW210706   3.887   3.261   7.830 -1.2921 -0.5569 -1.1619
 3140SOL     OW10707   7.084   1.608   3.490  0.5026  0.0170 -0.4023
 3140SOL    HW110708   7.161   1.551   3.486  0.5487 -0.2166  2.0637
 3140SOL    HW210709   7.106   1.675   3.555 -0.4839  1.4326 -1.4416
 3141SOL     OW10710   5.136   8.338   8.063 -0.4859  0.0793  0.8211
 3141SOL    HW110711   5.136   8.327   7.968 -0.0967  1.4452  0.6339
 3141SOL    HW210712   5.203   8.405   8.079 -0.5270 -0.1590  2.0615
 3142SOL     OW10713   4.835   4.436   1.368 -0.2783  0.6895 -0.5305
 3142SOL    HW110714   4.901   4.504   1.382 -2.0398  2.3923  0.1465
 3142SOL    HW210715   4.788   4.464   1.290  0.0321 -0.7037 -1.2325
 3143SOL     OW10716   0.104   0.537   6.570 -0.0278 -0.1397 -0.0919
 3143SOL    HW110717   0.123   0.570   6.657 -1.0910  0.2820 -0.0126
 3143SOL    HW210718   0.183   0.558   6.519 -0.1391  1.3210  0.2975
 3144SOL     OW10719   1.741   5.020   0.161 -0.3064 -0.0865 -0.1871
 3144SOL    HW110720   1.728   4.982   0.248 -0.5765  0.7843  0.1541
 3144SOL    HW210721   1.686   5.098   0.159  0.6071  0.5723 -0.7044
 3145SOL     OW10722   7.026   0.228   7.189  0.1327 -0.0002  0.5089
 3145SOL    HW110723   7.111   0.269   7.204  0.0868 -0.0599  0.9577
 3145SOL    HW210724   6.983   0.231   7.275  1.5703 -4.3365  1.6431
 3146SOL     OW10725   6.198   7.598   6.651  0.2957  0.0739 -0.2846
 3146SOL    HW110726   6.119   7.647   6.672  2.2062  3.1475  0.4187
 3146SOL    HW210727   6.256   7.613   6.726  2.6183  0.4609 -2.0473
 3147SOL     OW10728   2.403   4.332   4.549 -0.6768  0.6559 -0.2397
 3147SOL    HW110729   2.386   4.265   4.615 -0.2158 -2.7387 -3.2363
 3147SOL    HW210730   2.486   4.372   4.576 -0.4014 -0.7344  1.1019
 3148SOL     OW10731   6.567   1.095   3.068 -0.6096 -0.8841 -0.2812
 3148SOL    HW110732   6.563   1.122   2.976 -0.4377 -0.2192 -0.0978
 3148SOL    HW210733   6.655   1.060   3.079 -0.4746 -0.5446 -0.2608
 3149SOL     OW10734   8.110   5.468   4.865  0.2938  0.1099 -0.5797
 3149SOL    HW110735   8.179   5.502   4.808  1.2487 -1.9385 -0.7623
 3149SOL    HW210736   8.157   5.433   4.941 -0.7057  0.1199  0.0677
 3150SOL     OW10737   0.475   5.134   1.743  0.3387  0.0420 -0.1329
 3150SOL    HW110738   0.382   5.140   1.764 -0.0418 -1.6673 -1.1015
 3150SOL    HW210739   0.498   5.221   1.709 -0.9088  0.4636  0.0589
 3151SOL     OW10740   6.758   5.201   2.106  0.2687 -0.3209 -0.0012
 3151SOL    HW110741   6.781   5.288   2.072  0.2000  0.1209  1.0403
 3151SOL    HW210742   6.663   5.202   2.112  0.2105 -0.7438 -0.6461
 3152SOL     OW10743   3.034   2.465   5.547 -0.1942  0.4864  0.6291
 3152SOL    HW110744   3.046   2.370   5.537 -0.2564  0.7339 -3.0801
 3152SOL    HW210745   3.109   2.492   5.600 -0.0489 -1.5627  1.5949
 3153SOL     OW10746   4.235   6.116   6.446  0.2242 -0.1013  0.1726
 3153SOL    HW110747   4.234   6.187   6.511 -1.5778 -2.9707  3.6468
 3153SOL    HW210748   4.158   6.133   6.392 -0.9706 -0.0177  1.8111
 3154SOL     OW10749   7.951   8.268   5.364  0.1005 -0.3761 -0.4737
 3154SOL    HW110750   7.974   8.264   5.457  1.3219 -0.0076 -0.7322
 3154SOL    HW210751   8.030   8.302   5.322 -0.2035 -1.1682 -1.7357
 3155SOL     OW10752   7.503   1.799   1.581  0.3259 -0.4982 -0.9550
 3155SOL    HW110753   7.582   1.841   1.616  0.7536 -0.7528 -1.5987
 3155SOL    HW210754   7.437   1.868   1.581  0.8632  0.0297 -1.4553
 3156SOL     OW10755   4.413   6.019   8.534 -0.0847  0.2487 -0.1777
 3156SOL    HW110756   4.504   6.023   8.505  0.1870 -1.1487  0.4185
 3156SOL    HW210757   4.382   5.933   8.508 -0.9670  0.3682  0.4054
 3157SOL     OW10758   5.842   5.883   5.639  0.3139 -0.1096 -0.7188
 3157SOL    HW110759   5.776   5.936   5.595 -0.3527 -1.6029 -1.6055
 3157SOL    HW210760   5.920   5.890   5.583  0.7800  1.2778  0.0790
 3158SOL     OW10761   3.284   4.036   0.681  0.3364  0.6309 -0.2607
 3158SOL    HW110762   3.243   4.103   0.626 -4.0285 -1.4720 -0.0525
 3158SOL    HW210763   3.309   3.967   0.619 -1.1349 -0.1397 -0.0611
 3159SOL     OW10764   2.541   6.105   7.001 -0.2053  0.0147  0.1475
 3159SOL    HW110765   2.579   6.051   7.071 -1.5637 -1.6473 -0.3223
 3159SOL    HW210766   2.508   6.182   7.045 -0.6573 -0.8111  1.2987
 3160SOL     OW10767   3.221   7.648   3.940  0.5430 -0.0966 -1.2100
 3160SOL    HW110768   3.237   7.643   4.034 -3.2723  0.5684 -0.3334
 3160SOL    HW210769   3.222   7.557   3.910  2.3478 -0.2782 -0.6965
 3161SOL     OW10770   7.150   3.989   4.240 -0.0562 -0.6724 -0.3077
 3161SOL    HW110771   7.233   4.032   4.221 -0.7176 -0.5016 -3.3668
 3161SOL    HW210772   7.136   4.003   4.334  1.6232  2.4644 -0.3925
 3162SOL     OW10773   7.378   4.584   5.581  0.2115 -0.7632  0.2127
 3162SOL    HW110774   7.319   4.521   5.622 -0.5175 -0.7041 -0.7105
 3162SOL    HW210775   7.337   4.669   5.594 -0.6138 -0.8516 -1.5569
 3163SOL     OW10776   7.986   1.638   4.524  0.2852 -0.8615 -0.0976
 3163SOL    HW110777   7.909   1.587   4.548 -0.4586  0.3724  0.2769
 3163SOL    HW210778   8.040   1.640   4.603 -0.6970  0.6430  0.5798
 3164SOL     OW10779   5.795   2.991   5.491 -0.4946  0.0040 -0.1452
 3164SOL    HW110780   5.858   2.933   5.534  1.3740  2.1532  0.2550
 3164SOL    HW210781   5.761   3.046   5.562 -1.2925  0.1957 -0.6721
 3165SOL     OW10782   5.060   0.662   6.497  0.4378 -0.0263 -0.4060
 3165SOL    HW110783   5.122   0.726   6.532  1.4312 -1.6682  1.0549
 3165SOL    HW210784   5.111   0.611   6.434  0.4092 -0.9419  0.2892
 3166SOL     OW10785   2.405   8.300   1.505 -0.1181  0.0788 -0.6906
 3166SOL    HW110786   2.498   8.301   1.482 -0.0921  1.0860 -0.5790
 3166SOL    HW210787   2.404   8.314   1.600 -0.4507  3.4693 -1.0774
 3167SOL     OW10788   7.512   3.943   0.216 -0.2947  0.1256 -0.4549
 3167SOL    HW110789   7.420   3.920   0.203 -0.3244 -0.7910  1.1270
 3167SOL    HW210790   7.512   4.003   0.290  0.3104  0.9020 -1.0643
 3168SOL     OW10791   8.265   1.997   4.688  0.2146  0.1407  0.2226
 3168SOL    HW110792   8.264   2.013   4.594 -1.1914 -1.3014 -0.0500
 3168SOL    HW210793   8.173   1.987   4.712  0.6441 -3.0597  1.0633
 3169SOL     OW10794   5.592   2.725   3.972 -0.2235 -0.3891  0.0523
 3169SOL    HW110795   5.644   2.760   3.900 -1.9808 -0.4554 -1.3019
 3169SOL    HW210796   5.578   2.799   4.030 -0.8553  0.2899 -0.9397
 3170SOL     OW10797   3.622   4.642   5.298  0.3790  0.2794 -0.3952
 3170SOL    HW110798   3.651   4.678   5.383  0.8970  0.0440 -0.4667
 3170SOL    HW210799   3.689   4.577   5.276 -0.1831 -0.2323 -0.6041
 3171SOL     OW10800   0.013   4.442   5.342  0.0419  0.4600  0.1546
 3171SOL    HW110801   0.012   4.531   5.307  1.1968 -0.7447 -3.4494
 3171SOL    HW210802  -0.066   4.401   5.305  1.4986 -0.9815 -1.6003
 3172SOL     OW10803   7.641   2.401   2.497  0.1644 -0.3875  0.1864
 3172SOL    HW110804   7.718   2.349   2.474  0.0991  0.9831 -4.1195
 3172SOL    HW210805   7.675   2.476   2.545  1.5876  0.0274 -1.3755
 3173SOL     OW10806   5.112   0.354   7.013 -0.3676 -0.5483 -0.1359
 3173SOL    HW110807   5.068   0.350   6.928  1.3633 -0.7216 -1.0633
 3173SOL    HW210808   5.050   0.313   7.074 -1.7029 -0.2875 -1.2587
 3174SOL     OW10809   3.855   7.687   4.276  0.3722  0.1763  0.4962
 3174SOL    HW110810   3.820   7.603   4.247 -0.9122  1.3121 -1.5010
 3174SOL    HW210811   3.786   7.723   4.333  0.0117  0.6927 -0.2424
 3175SOL     OW10812   5.281   8.085   8.096  0.0933  0.0778 -0.7017
 3175SOL    HW110813   5.360   8.138   8.109  0.1113  0.6794 -2.9732
 3175SOL    HW210814   5.212   8.149   8.080 -0.5204 -0.5098 -0.4286
 3176SOL     OW10815   0.322   1.416   1.273 -0.3233 -0.0001  0.4445
 3176SOL    HW110816   0.348   1.506   1.257  1.3537 -0.9507 -3.1257
 3176SOL    HW210817   0.242   1.405   1.221 -0.5698 -0.5555  0.9322
 3177SOL     OW10818   4.579   2.358   8.323  0.4603 -0.1413  0.6838
 3177SOL    HW110819   4.619   2.282   8.365  0.6818 -0.3915  0.0146
 3177SOL    HW210820   4.620   2.364   8.238 -1.4798 -0.8949 -0.3770
 3178SOL     OW10821   0.615   4.366   4.950  0.3523 -0.4532 -0.1340
 3178SOL    HW110822   0.565   4.332   5.025  0.0406 -0.3064 -0.2699
 3178SOL    HW210823   0.659   4.289   4.914 -0.5057 -0.7653 -0.5613
 3179SOL     OW10824   3.744   2.646   0.710 -0.4075 -0.2135  0.2269
 3179SOL    HW110825   3.698   2.700   0.647  0.3464 -1.4142 -1.4122
 3179SOL    HW210826   3.815   2.605   0.661  0.3331 -1.0487  1.8897
 3180SOL     OW10827   7.284   6.486   8.415 -0.4478 -0.1358 -0.4929
 3180SOL    HW110828   7.326   6.436   8.484 -2.0572 -1.6800 -0.5458
 3180SOL    HW210829   7.193   6.494   8.443 -1.0547 -0.4845 -2.2206
 3181SOL     OW10830   4.640   3.166   6.623  0.1593  0.0384 -0.1738
 3181SOL    HW110831   4.624   3.153   6.529  0.0096 -2.1493  0.0896
 3181SOL    HW210832   4.571   3.115   6.666  1.6141 -0.9634  1.0766
 3182SOL     OW10833   5.040   7.164   5.501 -0.5743 -0.2475  0.1844
 3182SOL    HW110834   5.070   7.126   5.418  1.1685 -1.1661  1.1857
 3182SOL    HW210835   5.115   7.215   5.533 -1.3649  0.4411  1.0081
 3183SOL     OW10836   6.731   7.076   1.742 -0.0859 -0.1013  0.0395
 3183SOL    HW110837   6.682   6.995   1.753  1.6230 -1.4670 -1.6435
 3183SOL    HW210838   6.691   7.137   1.804 -1.1938 -2.3265  1.6800
 3184SOL     OW10839   6.424   6.576   7.887  0.2276  0.3838  0.0329
 3184SOL    HW110840   6.443   6.569   7.793 -0.0326  1.6161 -0.1359
 3184SOL    HW210841   6.488   6.640   7.919  0.1856  0.1168  0.6578
 3185SOL     OW10842   0.060   2.956   0.907 -0.2876  0.1890  0.3444
 3185SOL    HW110843   0.099   3.019   0.967  2.2414  0.4358 -1.3965
 3185SOL    HW210844   0.010   3.009   0.845 -0.0912  0.2477  0.2376
 3186SOL     OW10845   3.615   5.103   2.570 -0.6416 -0.1154 -0.0951
 3186SOL    HW110846   3.602   5.074   2.661 -0.0604  0.8186  0.2961
 3186SOL    HW210847   3.529   5.136   2.543 -1.7393 -3.3122 -1.0252
 3187SOL     OW10848   0.155   4.822   1.427 -0.1420 -0.0941  0.4220
 3187SOL    HW110849   0.107   4.762   1.369  0.6438 -0.8375  0.5095
 3187SOL    HW210850   0.087   4.870   1.474 -0.8002  0.1946 -0.7741
 3188SOL     OW10851   4.833   5.984   6.483  0.1825 -0.2175  0.3618
 3188SOL    HW110852   4.790   6.032   6.554 -2.2815 -0.8549 -0.5981
 3188SOL    HW210853   4.856   5.899   6.522 -0.7359 -0.3911  0.5568
 3189SOL     OW10854   7.728   1.322   1.341  0.8512  0.1609  0.2165
 3189SOL    HW110855   7.814   1.348   1.309  1.6391 -2.4979 -0.1282
 3189SOL    HW210856   7.691   1.270   1.270 -0.4275  0.0773  0.9220
 3190SOL     OW10857   4.894   2.995   6.646  0.2656 -0.3340 -0.2234
 3190SOL    HW110858   4.826   3.019   6.582 -0.6338 -0.0482  0.8174
 3190SOL    HW210859   4.975   3.027   6.607 -0.4731  1.3143 -0.4944
 3191SOL     OW10860   8.214   3.815   7.205  0.2147 -0.0128 -0.0258
 3191SOL    HW110861   8.128   3.774   7.212 -0.8945  2.1104 -0.6123
 3191SOL    HW210862   8.197   3.904   7.174  2.5882  0.6353  0.2990
 3192SOL     OW10863   1.745   3.337   7.472 -0.2870 -0.4047 -0.0549
 3192SOL    HW110864   1.810   3.408   7.474 -0.3114 -0.3834  2.2372
 3192SOL    HW210865   1.780   3.275   7.407 -0.1031  1.4808 -1.8773
 3193SOL     OW10866   3.905   3.081   2.832 -0.2629 -0.8529  0.6108
 3193SOL    HW110867   3.900   3.085   2.928 -0.1135 -2.5227  0.7097
 3193SOL    HW210868   3.996   3.103   2.812 -0.7023  1.2922  0.6893
 3194SOL     OW10869   6.864   3.185   1.678  0.5254  0.2776 -0.5635
 3194SOL    HW110870   6.795   3.251   1.679  0.1392 -0.0790 -1.7710
 3194SOL    HW210871   6.937   3.228   1.633  1.2513  0.7757  1.0174
 3195SOL     OW10872   0.771   2.511   2.227 -0.3772 -0.4858 -0.1841
 3195SOL    HW110873   0.861   2.476   2.227 -1.0617 -2.3849  0.6014
 3195SOL    HW210874   0.778   2.594   2.273  1.2918  0.3722 -1.8388
 3196SOL     OW10875   1.447   6.310   2.571  0.1509 -0.4027  0.5804
 3196SOL    HW110876   1.451   6.370   2.497  0.2238 -2.2870 -1.0042
 3196SOL    HW210877   1.363   6.330   2.614 -0.2641  0.1795 -0.4804
 3197SOL     OW10878   2.735   6.249   1.262  0.3891 -0.1078 -0.4234
 3197SOL    HW110879   2.669   6.291   1.207  1.7577  0.2355 -1.8823
 3197SOL    HW210880   2.740   6.303   1.340 -1.3188 -0.3700 -0.0949
 3198SOL     OW10881   3.333   7.619   3.291 -0.2964  0.1373 -0.4886
 3198SOL    HW110882   3.331   7.697   3.235 -0.9845  0.2537 -0.3163
 3198SOL    HW210883   3.399   7.639   3.357 -1.0468  0.9427  0.0527
 3199SOL     OW10884   5.805   6.381   4.333  0.5811 -0.3275  0.0751
 3199SOL    HW110885   5.805   6.444   4.405  2.1454 -0.0065 -0.1691
 3199SOL    HW210886   5.892   6.388   4.295 -0.4999  0.2015 -2.4882
 3200SOL     OW10887   7.990   0.780   7.807 -0.2929 -0.0143  0.2993
 3200SOL    HW110888   7.958   0.724   7.877  1.2151 -2.7439 -1.0316
 3200SOL    HW210889   8.067   0.823   7.843 -1.0233  0.6740  1.0896
 3201SOL     OW10890   8.414   3.017   1.485  0.2236 -0.1916 -0.5530
 3201SOL    HW110891   8.443   3.032   1.575  0.5776  0.3190 -0.7538
 3201SOL    HW210892   8.456   3.086   1.434  0.5245 -0.8561 -1.2150
 3202SOL     OW10893   6.369   2.657   7.375  0.2521 -0.3933 -0.0331
 3202SOL    HW110894   6.293   2.604   7.401  0.6809 -0.9743  0.0533
 3202SOL    HW210895   6.429   2.651   7.450  0.5625 -0.2744 -0.2707
 3203SOL     OW10896   6.883   0.255   8.344  0.0140  0.0068  0.2188
 3203SOL    HW110897   6.897   0.163   8.365  0.8790  0.2830  0.9353
 3203SOL    HW210898   6.840   0.291   8.421 -0.9313  0.0693 -0.3276
 3204SOL     OW10899   6.869   1.071   3.489  0.6250  0.2623 -0.3827
 3204SOL    HW110900   6.778   1.049   3.470  0.5736 -0.0777  0.2201
 3204SOL    HW210901   6.890   1.140   3.427  0.0475  0.1379 -0.7278
 3205SOL     OW10902   7.642   0.187   4.559  0.2151  0.0817  0.0387
 3205SOL    HW110903   7.697   0.156   4.630  2.0649 -0.2795 -1.4840
 3205SOL    HW210904   7.586   0.113   4.537  1.1435 -0.5385 -0.2840
 3206SOL     OW10905   8.662   5.449   5.780 -0.4277  0.0980 -0.0219
 3206SOL    HW110906   8.704   5.385   5.723 -1.7727 -1.4589  0.6290
 3206SOL    HW210907   8.677   5.533   5.738 -1.2542 -0.9584 -2.6283
 3207SOL     OW10908   6.429   7.215   2.982 -0.2369  0.6409 -0.1054
 3207SOL    HW110909   6.336   7.211   2.956 -0.1755  0.5158 -0.3118
 3207SOL    HW210910   6.450   7.308   2.982 -1.5245  1.1349  4.1252
 3208SOL     OW10911   5.877   0.267   6.037 -0.1524  0.2976  0.6114
 3208SOL    HW110912   5.876   0.260   6.132  0.8520 -0.5007  0.5914
 3208SOL    HW210913   5.964   0.235   6.012 -0.2644  0.8433 -0.5468
 3209SOL     OW10914   2.106   1.909   5.992 -0.6977  0.2642 -0.3775
 3209SOL    HW110915   2.159   1.833   5.967 -1.0722  0.3358 -1.4341
 3209SOL    HW210916   2.144   1.981   5.942 -0.7326  0.6608  0.1575
 3210SOL     OW10917   2.590   5.209   0.744 -0.0825  0.3641  0.2014
 3210SOL    HW110918   2.637   5.130   0.718 -1.1773 -0.2310 -0.0636
 3210SOL    HW210919   2.565   5.193   0.835 -0.0010  0.5597  0.2584
 3211SOL     OW10920   4.917   7.848   8.469 -0.5131 -0.3185  0.4294
 3211SOL    HW110921   4.899   7.900   8.547 -0.9990  0.7652 -0.3795
 3211SOL    HW210922   5.012   7.856   8.456 -0.1847 -1.7158  1.7176
 3212SOL     OW10923   7.937   1.186   1.718  0.7188 -0.2654 -0.2310
 3212SOL    HW110924   7.958   1.191   1.625  1.3795 -1.6423 -0.1848
 3212SOL    HW210925   7.887   1.105   1.727  1.7415 -0.8232  0.7699
 3213SOL     OW10926   1.897   5.977   0.953  0.3783 -0.1450  0.2257
 3213SOL    HW110927   1.860   6.026   1.026 -0.8099  0.7294 -0.9214
 3213SOL    HW210928   1.976   6.025   0.929 -0.8552  1.3978 -0.9845
 3214SOL     OW10929   5.362   6.623   0.314  0.2321  0.1325 -0.4955
 3214SOL    HW110930   5.328   6.544   0.355  1.2538  0.2768  0.7053
 3214SOL    HW210931   5.397   6.675   0.387 -0.5659  1.7779 -1.2148
 3215SOL     OW10932   0.631   0.764   6.278  0.3765  0.3310  0.6267
 3215SOL    HW110933   0.702   0.711   6.315  0.0133 -0.4181  0.2746
 3215SOL    HW210934   0.619   0.730   6.190  0.1972  1.0783  0.3545
 3216SOL     OW10935   4.301   1.195   0.413  0.4009 -0.1132 -0.3384
 3216SOL    HW110936   4.251   1.214   0.333 -0.0197  2.3488  0.4040
 3216SOL    HW210937   4.379   1.249   0.406 -0.5397  1.6835  1.6868
 3217SOL     OW10938   0.164   6.004   2.376 -0.1984  0.1028 -0.4363
 3217SOL    HW110939   0.103   6.053   2.431  0.0169  1.2309 -1.1783
 3217SOL    HW210940   0.114   5.928   2.347 -0.2551 -0.6244  1.4427
 3218SOL     OW10941   1.844   2.694   0.298  0.0941  0.4473  0.0888
 3218SOL    HW110942   1.789   2.712   0.222 -0.5319  0.0275  0.4346
 3218SOL    HW210943   1.927   2.663   0.260 -0.3858 -0.2476 -0.4215
 3219SOL     OW10944   4.295   1.899   5.877 -0.6775  0.1901 -0.2105
 3219SOL    HW110945   4.223   1.839   5.857  0.7163 -1.7223  0.2178
 3219SOL    HW210946   4.373   1.853   5.847  0.4355  1.9567 -0.1330
 3220SOL     OW10947   2.643   1.553   6.588  0.3410  0.1427 -0.4639
 3220SOL    HW110948   2.627   1.645   6.566  0.1573  0.0527 -0.7141
 3220SOL    HW210949   2.558   1.511   6.579  0.0452  0.2791  1.3761
 3221SOL     OW10950   3.151   3.899   5.970  0.4054 -0.2520 -0.8259
 3221SOL    HW110951   3.116   3.856   5.892 -0.0505 -0.0137 -0.7608
 3221SOL    HW210952   3.166   3.989   5.943  2.1600 -0.6286 -1.2006
 3222SOL     OW10953   7.133   0.581   0.864  0.5979 -0.0059  0.0294
 3222SOL    HW110954   7.206   0.529   0.831  1.3105  0.6031  0.6283
 3222SOL    HW210955   7.164   0.618   0.946 -0.0482  1.0116 -0.1662
 3223SOL     OW10956   8.392   1.144   0.830  0.9275 -0.8624 -0.9686
 3223SOL    HW110957   8.307   1.118   0.795  0.4594 -0.2435 -0.3391
 3223SOL    HW210958   8.419   1.071   0.886  0.2932 -0.5965 -0.3139
 3224SOL     OW10959   3.946   5.832   7.624 -0.5208  0.0692 -0.1475
 3224SOL    HW110960   3.976   5.751   7.581  2.4971  0.6546  0.6348
 3224SOL    HW210961   3.852   5.836   7.603 -0.5466 -2.9689 -1.2373
 3225SOL     OW10962   4.464   6.253   8.138 -0.4234  0.1839 -0.4060
 3225SOL    HW110963   4.380   6.263   8.182 -0.9471 -1.0487 -1.0717
 3225SOL    HW210964   4.474   6.158   8.128  1.1760  0.2907 -0.0947
 3226SOL     OW10965   6.570   8.257   2.528 -0.3078  0.0153 -0.4081
 3226SOL    HW110966   6.514   8.329   2.497 -1.7406 -1.1328 -0.6170
 3226SOL    HW210967   6.593   8.209   2.449  1.2332  0.6051 -0.3542
 3227SOL     OW10968   2.952   4.280   3.503  0.3084 -0.5128  0.2469
 3227SOL    HW110969   2.964   4.334   3.581 -0.0033  0.1183 -0.1282
 3227SOL    HW210970   2.889   4.213   3.529 -0.3349  0.1161  0.3400
 3228SOL     OW10971   4.931   4.474   4.153  0.1383 -0.2906  0.3007
 3228SOL    HW110972   5.015   4.517   4.166  1.0806 -1.8405 -0.3446
 3228SOL    HW210973   4.899   4.507   4.069 -0.7769  1.6086  1.3390
 3229SOL     OW10974   1.595   3.822   7.305 -0.0427  0.1842  0.4098
 3229SOL    HW110975   1.593   3.786   7.394  0.2050  1.4944  0.9657
 3229SOL    HW210976   1.580   3.915   7.317  0.4541  0.4456 -0.8899
 3230SOL     OW10977   3.529   6.570   7.770  0.9701 -0.6192  0.0279
 3230SOL    HW110978   3.525   6.663   7.794  1.3525 -0.8372  1.0009
 3230SOL    HW210979   3.437   6.545   7.757  0.8873 -0.0239 -0.6095
 3231SOL     OW10980   7.882   6.224   5.096 -0.2368  0.6697 -0.1657
 3231SOL    HW110981   7.917   6.274   5.022  0.6138  0.6470  0.2092
 3231SOL    HW210982   7.892   6.282   5.171 -0.2268  0.3367  0.0928
 3232SOL     OW10983   6.736   6.434   7.944  0.0664  0.7807 -0.3200
 3232SOL    HW110984   6.739   6.487   8.023 -2.5459  0.5099  0.0577
 3232SOL    HW210985   6.787   6.356   7.965  1.1646  1.6321  0.2961
 3233SOL     OW10986   7.773   1.362   6.825 -0.1518 -0.4338  0.2605
 3233SOL    HW110987   7.763   1.343   6.732  0.2806  2.0338 -0.3781
 3233SOL    HW210988   7.686   1.350   6.862 -0.3547 -1.3257 -0.4791
 3234SOL     OW10989   8.281   2.802   5.042 -0.3653 -0.2684  0.6740
 3234SOL    HW110990   8.220   2.857   4.993  0.2738 -0.0819  0.0824
 3234SOL    HW210991   8.342   2.864   5.083 -0.2076 -0.4890  0.7765
 3235SOL     OW10992   4.390   7.424   2.663  0.6204 -0.6048  0.1873
 3235SOL    HW110993   4.408   7.403   2.571 -0.8209  0.1639 -0.3070
 3235SOL    HW210994   4.300   7.393   2.677  0.6045 -0.1603  1.1553
 3236SOL     OW10995   1.988   2.812   7.584 -0.2605  0.7178  0.1431
 3236SOL    HW110996   1.945   2.863   7.653  0.2925  1.2216  0.1207
 3236SOL    HW210997   2.001   2.874   7.513 -0.7853  0.2126 -0.4106
 3237SOL     OW10998   3.347   6.320   1.497 -0.0197 -0.1940 -0.4210
 3237SOL    HW110999   3.305   6.281   1.420  1.0520 -0.1669 -1.0339
 3237SOL    HW211000   3.287   6.389   1.525 -0.1332  0.2176 -1.6230
 3238SOL     OW11001   1.636   4.638   4.882  0.0691 -0.3469 -0.3184
 3238SOL    HW111002   1.653   4.574   4.951  1.1049  1.3413  1.0723
 3238SOL    HW211003   1.723   4.667   4.853 -0.3595 -0.4420 -1.8234
 3239SOL     OW11004   3.802   0.570   1.887 -0.0474  0.3516  0.8129
 3239SOL    HW111005   3.770   0.550   1.974  2.8785 -0.7518  1.7623
 3239SOL    HW211006   3.796   0.487   1.839 -1.6499  0.9535 -0.1044
 3240SOL     OW11007   0.179   1.324   0.192 -0.4394 -0.2363 -0.5383
 3240SOL    HW111008   0.130   1.353   0.270 -1.5131  2.4031 -2.0848
 3240SOL    HW211009   0.112   1.281   0.138  0.2465 -1.7932 -0.2109
 3241SOL     OW11010   5.103   7.788   7.668  0.0489 -0.2919 -0.4615
 3241SOL    HW111011   5.141   7.876   7.680 -1.6968  0.4746 -0.2056
 3241SOL    HW211012   5.026   7.803   7.613 -0.5495 -1.5954 -0.0065
 3242SOL     OW11013   4.732   1.269   7.436 -0.4771  0.3620 -0.0930
 3242SOL    HW111014   4.723   1.265   7.341 -0.6520 -1.7150 -0.0479
 3242SOL    HW211015   4.824   1.246   7.452 -0.4663  0.6343  0.2436
 3243SOL     OW11016   3.082   1.576   4.453  0.1231 -0.4864 -0.1202
 3243SOL    HW111017   2.990   1.569   4.431  0.1351  0.8246 -0.6781
 3243SOL    HW211018   3.085   1.642   4.522  0.6893 -0.0207 -0.5746
 3244SOL     OW11019   0.030   1.881   2.292 -0.4979 -0.3306 -0.0183
 3244SOL    HW111020  -0.032   1.925   2.234 -0.4513 -0.7173 -0.3603
 3244SOL    HW211021   0.102   1.854   2.235 -0.5264 -0.8539  0.1892
 3245SOL     OW11022   1.719   5.542   4.294  0.3151  0.4675  0.4567
 3245SOL    HW111023   1.647   5.540   4.230  1.3367  1.1716 -0.7624
 3245SOL    HW211024   1.722   5.634   4.322  0.8581  0.4798  0.3589
 3246SOL     OW11025   5.833   6.810   4.338 -0.5038  0.4344  0.2816
 3246SOL    HW111026   5.834   6.810   4.243  0.0997 -0.8123  0.2557
 3246SOL    HW211027   5.824   6.902   4.363  0.4301  0.8900 -0.9709
 3247SOL     OW11028   5.738   5.969   1.082 -0.0016 -0.2015 -0.0557
 3247SOL    HW111029   5.798   6.023   1.031 -2.1513  3.2315  0.7697
 3247SOL    HW211030   5.761   5.987   1.173 -0.1909 -1.4809  0.2718
 3248SOL     OW11031   3.482   4.523   3.295 -0.2089 -0.0195  0.0961
 3248SOL    HW111032   3.399   4.491   3.259 -1.0035  1.1222  0.8179
 3248SOL    HW211033   3.460   4.550   3.384  1.0306 -0.0062  0.4133
 3249SOL     OW11034   0.439   6.266   7.388 -0.2819 -0.8799  0.2938
 3249SOL    HW111035   0.533   6.271   7.375 -0.4553  0.6110 -0.5501
 3249SOL    HW211036   0.429   6.222   7.472  1.2613  1.0811  1.5994
 3250SOL     OW11037   0.355   3.153   1.454  0.2250  0.5375  0.1268
 3250SOL    HW111038   0.407   3.147   1.374  0.8042  0.3371  0.5121
 3250SOL    HW211039   0.363   3.245   1.481 -0.7796  0.8497 -0.5669
 3251SOL     OW11040   8.008   1.075   2.714  0.2878  0.2560  1.1439
 3251SOL    HW111041   8.090   1.093   2.760  0.8261 -0.5474  0.5146
 3251SOL    HW211042   8.009   1.136   2.640 -0.4730  1.3908  2.0236
 3252SOL     OW11043   4.675   8.228   1.253  0.1928  0.4118  0.2553
 3252SOL    HW111044   4.585   8.196   1.262  0.1695  0.1878 -0.6927
 3252SOL    HW211045   4.718   8.164   1.197  0.5558  1.2405 -0.4392
 3253SOL     OW11046   4.009   6.360   6.502 -0.1860  0.5960  0.0252
 3253SOL    HW111047   4.054   6.327   6.580  0.8583  1.0372 -0.3747
 3253SOL    HW211048   3.951   6.429   6.536  0.3647  0.8805  0.4079
 3254SOL     OW11049   8.382   2.679   3.009 -0.6447  0.5184  0.1089
 3254SOL    HW111050   8.441   2.748   2.979  0.4457 -0.5367 -0.2404
 3254SOL    HW211051   8.380   2.616   2.938 -2.2768  0.5375  0.0818
 3255SOL     OW11052   7.901   0.929   3.504  0.1207 -0.5969 -0.5801
 3255SOL    HW111053   7.811   0.946   3.477 -0.0311  0.0849  0.2868
 3255SOL    HW211054   7.904   0.961   3.594  1.2010 -0.7286 -0.5665
 3256SOL     OW11055   8.193   2.213   0.528 -0.6158  0.0977  0.1060
 3256SOL    HW111056   8.150   2.143   0.577 -0.4935 -0.5995 -0.7560
 3256SOL    HW211057   8.161   2.203   0.438  1.2223 -0.3880 -0.5469
 3257SOL     OW11058   5.829   5.677   4.383  0.3462  0.0037  0.3199
 3257SOL    HW111059   5.819   5.635   4.298  0.9807  0.0159  0.2340
 3257SOL    HW211060   5.741   5.707   4.405 -0.0005 -0.8148  0.0998
 3258SOL     OW11061   6.371   3.043   1.124 -0.2954 -0.2051  0.4206
 3258SOL    HW111062   6.284   3.003   1.131 -0.8132  1.0852  2.1843
 3258SOL    HW211063   6.370   3.086   1.039 -1.8995  0.8353  0.9119
 3259SOL     OW11064   0.580   1.454   4.211 -0.1200 -0.1448 -0.6945
 3259SOL    HW111065   0.525   1.422   4.282 -0.3556 -0.6441 -1.0879
 3259SOL    HW211066   0.532   1.431   4.131 -0.5449  1.6963 -0.9921
 3260SOL     OW11067   4.192   4.344   4.790  0.6082  0.0403 -0.1015
 3260SOL    HW111068   4.277   4.313   4.822  0.7931 -0.5577 -1.1522
 3260SOL    HW211069   4.177   4.295   4.709 -1.8894 -1.7471  1.3061
 3261SOL     OW11070   4.769   6.314   7.290  0.2310 -0.0550  0.1075
 3261SOL    HW111071   4.685   6.318   7.336  0.8455  0.4577  1.2253
 3261SOL    HW211072   4.776   6.223   7.261 -0.5524 -0.1860  0.3056
 3262SOL     OW11073   2.699   1.777   4.163 -0.3010  0.3937 -0.0249
 3262SOL    HW111074   2.740   1.764   4.249  0.8679 -0.9032 -0.7249
 3262SOL    HW211075   2.608   1.749   4.175  0.1661 -1.0058  0.5173
 3263SOL     OW11076   1.087   3.359   3.249 -0.0792  0.2477 -0.3210
 3263SOL    HW111077   1.003   3.319   3.273 -0.6271  2.3110  1.5061
 3263SOL    HW211078   1.141   3.285   3.221 -1.2757 -1.7052  2.0677
 3264SOL     OW11079   7.072   0.548   6.470  0.3418  0.7497 -0.6714
 3264SOL    HW111080   6.986   0.540   6.427 -0.5349 -3.6040  1.3043
 3264SOL    HW211081   7.131   0.497   6.415  0.2532 -0.9727  0.7276
 3265SOL     OW11082   0.269   6.245   3.685 -0.7037  0.3475  0.7197
 3265SOL    HW111083   0.186   6.200   3.674  0.0064 -0.7418 -0.4234
 3265SOL    HW211084   0.330   6.198   3.628  0.7965  0.8692  1.8232
 3266SOL     OW11085   7.173   8.538   4.947 -0.1986 -0.1038  0.7453
 3266SOL    HW111086   7.186   8.447   4.921  0.7388  0.5854 -1.3646
 3266SOL    HW211087   7.250   8.559   5.001  0.2239 -0.2173  0.1969
 3267SOL     OW11088   2.141   1.476   5.432 -0.0010  0.3667  0.4527
 3267SOL    HW111089   2.226   1.441   5.407 -0.3376  0.2613 -0.5758
 3267SOL    HW211090   2.080   1.403   5.420 -0.2479  0.4368  1.1920
 3268SOL     OW11091   1.041   6.096   1.969 -0.1184  0.1102 -0.0653
 3268SOL    HW111092   1.108   6.161   1.991 -0.2627  0.5031 -0.7854
 3268SOL    HW211093   0.993   6.083   2.051  3.0130 -2.8256  1.5796
 3269SOL     OW11094   5.281   6.013   8.301 -0.0726 -0.1263 -0.3071
 3269SOL    HW111095   5.261   6.074   8.230 -1.1496 -1.0725 -0.8410
 3269SOL    HW211096   5.247   5.929   8.271  2.0754 -1.1991  0.0780
 3270SOL     OW11097   2.021   4.718   1.006  0.2927  0.4470 -0.1420
 3270SOL    HW111098   1.987   4.663   1.076  1.3026  1.9466  1.6274
 3270SOL    HW211099   1.983   4.804   1.021  1.5469  1.1283 -0.6253
 3271SOL     OW11100   5.693   7.217   8.151 -0.6697 -0.3390  0.5590
 3271SOL    HW111101   5.737   7.136   8.178 -0.2389 -0.4540 -0.4433
 3271SOL    HW211102   5.761   7.266   8.104 -0.9289  0.6081  1.1348
 3272SOL     OW11103   7.068   3.284   8.557  0.3806  0.3114 -0.1661
 3272SOL    HW111104   7.052   3.194   8.585  0.6850  0.4066  0.3225
 3272SOL    HW211105   6.986   3.311   8.515  0.4069 -0.3123 -0.6440
 3273SOL     OW11106   7.149   5.778   4.477  0.0032  0.1246 -0.4340
 3273SOL    HW111107   7.101   5.748   4.400 -0.9736  0.3368  0.0745
 3273SOL    HW211108   7.202   5.702   4.504  0.8577  0.2552 -1.6754
 3274SOL     OW11109   3.120   4.541   3.108  0.2831  0.2287  0.4389
 3274SOL    HW111110   3.118   4.488   3.029  0.2001  1.3079 -0.3005
 3274SOL    HW211111   3.092   4.482   3.178  2.2476 -1.2986  0.0136
 3275SOL     OW11112   3.449   1.640   4.661 -0.3225 -0.0964 -0.0791
 3275SOL    HW111113   3.366   1.684   4.641  0.3151  0.9896 -0.3908
 3275SOL    HW211114   3.440   1.554   4.621 -1.4167 -0.1051  0.1533
 3276SOL     OW11115   6.068   4.588   2.244 -0.2403 -0.1400 -0.0378
 3276SOL    HW111116   6.137   4.529   2.214  1.2232  1.5986 -0.2633
 3276SOL    HW211117   6.115   4.662   2.281 -1.9525  1.7072 -1.3726
 3277SOL     OW11118   0.460   1.614   1.086 -0.1469 -0.0986 -0.0907
 3277SOL    HW111119   0.511   1.661   1.152 -0.1367 -1.6489  1.0435
 3277SOL    HW211120   0.410   1.683   1.041  1.0158  1.1581  0.4709
 3278SOL     OW11121   5.199   2.276   3.366 -0.0221 -0.3870 -0.4933
 3278SOL    HW111122   5.166   2.258   3.455  0.4924 -2.2107 -0.6215
 3278SOL    HW211123   5.264   2.345   3.378 -0.4450 -0.1332  0.4513
 3279SOL     OW11124   6.736   6.871   4.540  0.4702  0.4500 -0.0052
 3279SOL    HW111125   6.709   6.836   4.625  3.2073 -2.9833 -0.3484
 3279SOL    HW211126   6.708   6.804   4.477  1.2701  1.4232 -1.4473
 3280SOL     OW11127   6.493   4.509   6.600  0.3630  0.0732 -0.1069
 3280SOL    HW111128   6.577   4.542   6.566  0.1204  0.9034  0.0622
 3280SOL    HW211129   6.506   4.503   6.694  0.0129  0.9060  0.0036
 3281SOL     OW11130   8.173   1.325   6.174  0.0701  0.0945 -0.4144
 3281SOL    HW111131   8.104   1.295   6.233  0.2958  0.7123  0.1759
 3281SOL    HW211132   8.173   1.420   6.183  0.9151  0.1088 -0.4874
 3282SOL     OW11133   2.082   8.707   0.209  0.2325  0.1784  0.2339
 3282SOL    HW111134   2.159   8.752   0.174 -0.5216  2.1585  1.0141
 3282SOL    HW211135   2.039   8.670   0.131  0.3642  1.6430 -0.5662
 3283SOL     OW11136   5.245   2.977   0.614  0.2672  0.0209  0.0918
 3283SOL    HW111137   5.176   2.958   0.550 -0.0178  0.9691  0.1071
 3283SOL    HW211138   5.326   2.972   0.565  0.1818 -0.8847  0.0228
 3284SOL     OW11139   7.682   2.259   6.500 -0.4597  0.2253 -0.3308
 3284SOL    HW111140   7.716   2.196   6.563  0.8831  0.3684 -0.8799
 3284SOL    HW211141   7.588   2.262   6.517 -0.6123 -2.1432 -0.4876
 3285SOL     OW11142   2.312   7.805   7.098  0.8631  0.4045 -0.5670
 3285SOL    HW111143   2.283   7.896   7.101  0.8374  0.4021 -0.6989
 3285SOL    HW211144   2.241   7.759   7.053  0.8329  0.3016 -0.4138
 3286SOL     OW11145   2.323   1.820   6.987 -0.1250 -0.4337  0.2452
 3286SOL    HW111146   2.245   1.806   7.041  0.5779  0.2181  1.4837
 3286SOL    HW211147   2.292   1.871   6.912 -1.2287 -1.8504 -0.3021
 3287SOL     OW11148   0.302   1.308   7.683 -0.0156  0.2354 -0.1315
 3287SOL    HW111149   0.355   1.336   7.608 -0.2710 -0.4655 -0.5832
 3287SOL    HW211150   0.365   1.267   7.742 -0.3476 -3.3334 -1.9799
 3288SOL     OW11151   7.590   2.465   3.655  0.5454  0.3284 -0.1174
 3288SOL    HW111152   7.619   2.395   3.596  1.4185  1.1177 -0.6413
 3288SOL    HW211153   7.594   2.544   3.602  0.9072  0.9887  0.8713
 3289SOL     OW11154   2.541   2.762   0.805  0.2752  0.2787 -0.1684
 3289SOL    HW111155   2.535   2.667   0.807 -1.1603  0.3602  0.4227
 3289SOL    HW211156   2.611   2.780   0.742  1.9388 -1.1975  1.1483
 3290SOL     OW11157   7.036   0.527   8.505 -0.2843 -0.0849  0.1778
 3290SOL    HW111158   7.029   0.476   8.586  0.9415 -0.7029 -0.0757
 3290SOL    HW211159   7.075   0.610   8.533 -0.6334  0.0265  0.3385
 3291SOL     OW11160   8.224   3.267   6.120 -0.1535 -0.1907 -0.4386
 3291SOL    HW111161   8.273   3.220   6.187 -1.8433 -1.3076  0.0866
 3291SOL    HW211162   8.138   3.284   6.160 -1.4171 -1.3815 -2.4526
 3292SOL     OW11163   4.768   8.478   1.374 -0.4326  0.5280  0.5284
 3292SOL    HW111164   4.735   8.530   1.301 -0.7338  0.6083  0.7213
 3292SOL    HW211165   4.756   8.387   1.345  2.1615  0.5149 -0.7583
 3293SOL     OW11166   0.420   3.719   1.056  0.0569 -0.0274  0.0941
 3293SOL    HW111167   0.515   3.716   1.071 -0.2457 -1.2815  2.0121
 3293SOL    HW211168   0.384   3.757   1.136 -1.0357  1.4827 -1.0366
 3294SOL     OW11169   1.718   1.772   2.456  0.0098 -0.7386 -0.3697
 3294SOL    HW111170   1.635   1.805   2.491  0.1520 -0.4279 -0.3258
 3294SOL    HW211171   1.693   1.710   2.388 -0.2518 -0.3927 -0.5850
 3295SOL     OW11172   7.250   3.459   3.738  0.4477  0.2957  0.3750
 3295SOL    HW111173   7.340   3.437   3.714  0.9360  1.6467  0.8780
 3295SOL    HW211174   7.231   3.404   3.814  0.1286 -1.4267 -0.8985
 3296SOL     OW11175   4.284   1.495   8.422  0.5835  0.0736  0.1364
 3296SOL    HW111176   4.365   1.539   8.395  0.5645 -0.4175 -0.7465
 3296SOL    HW211177   4.236   1.561   8.471  2.2074 -0.0791  2.0484
 3297SOL     OW11178   4.303   4.963   7.810  0.6835  0.0792 -0.1287
 3297SOL    HW111179   4.261   5.044   7.781 -2.0825 -0.8387  1.0182
 3297SOL    HW211180   4.329   4.979   7.901  0.6583 -0.1307 -0.0824
 3298SOL     OW11181   3.599   1.243   0.655 -0.1583 -0.4870  0.0245
 3298SOL    HW111182   3.608   1.179   0.726 -2.1778 -0.6411  0.1879
 3298SOL    HW211183   3.689   1.266   0.632  0.5547 -1.2784  1.8687
 3299SOL     OW11184   2.520   1.939   7.430 -0.0301 -0.0376  0.5256
 3299SOL    HW111185   2.613   1.921   7.444  0.1959  0.0005 -0.8051
 3299SOL    HW211186   2.475   1.863   7.467  0.7145 -1.6307 -1.6281
 3300SOL     OW11187   8.131   4.206   1.650  0.3317  0.2884 -0.0646
 3300SOL    HW111188   8.129   4.299   1.672  1.1959  1.1326 -2.9996
 3300SOL    HW211189   8.040   4.183   1.632 -0.1278  0.0422  2.2718
 3301SOL     OW11190   3.259   0.494   8.696 -0.3467  0.8207  0.0154
 3301SOL    HW111191   3.311   0.568   8.665  0.6963  0.2089  0.2338
 3301SOL    HW211192   3.227   0.520   8.782  1.1561  0.5224  0.6948
 3302SOL     OW11193   4.119   6.258   6.745 -0.0957  0.4483 -0.3450
 3302SOL    HW111194   4.108   6.288   6.836  1.1473 -0.3075  0.0737
 3302SOL    HW211195   4.073   6.174   6.743 -2.0587  1.4769 -1.0498
 3303SOL     OW11196   7.218   7.858   1.277  0.0247  0.0565 -0.0029
 3303SOL    HW111197   7.298   7.887   1.233  0.3958 -1.1037 -0.1259
 3303SOL    HW211198   7.184   7.937   1.319  2.9552  0.0247  2.7863
 3304SOL     OW11199   0.382   7.615   7.430  0.2037  0.4757 -0.1393
 3304SOL    HW111200   0.401   7.552   7.499 -0.3000 -0.3135 -0.6933
 3304SOL    HW211201   0.353   7.561   7.356 -3.4226  1.4288  0.3641
 3305SOL     OW11202   8.620   2.538   0.315  0.0564 -0.3162  0.4662
 3305SOL    HW111203   8.587   2.559   0.403 -0.5880 -1.6359  0.5776
 3305SOL    HW211204   8.689   2.473   0.331  1.8802  1.4559  0.1402
 3306SOL     OW11205   5.299   2.789   7.769  0.2782 -0.2398 -0.4489
 3306SOL    HW111206   5.240   2.743   7.829 -0.6038  1.1350 -0.2019
 3306SOL    HW211207   5.261   2.776   7.683  0.0926 -0.0670 -0.3935
 3307SOL     OW11208   4.336   1.447   0.932 -0.0144 -0.4664  0.1479
 3307SOL    HW111209   4.266   1.396   0.891 -0.3323 -1.3405  1.6722
 3307SOL    HW211210   4.393   1.474   0.860 -0.8371 -1.4552 -0.8992
 3308SOL     OW11211   1.140   8.259   6.777  0.1151 -0.3676 -0.0415
 3308SOL    HW111212   1.100   8.226   6.697  0.2338 -0.6811  0.0249
 3308SOL    HW211213   1.187   8.183   6.813 -0.3607 -0.3717  0.5930
 3309SOL     OW11214   3.257   3.667   0.865  0.2057 -0.2603  0.6066
 3309SOL    HW111215   3.277   3.752   0.903 -0.3085 -0.6700  1.8604
 3309SOL    HW211216   3.263   3.606   0.938  0.2392 -1.2603 -0.1991
 3310SOL     OW11217   1.654   7.421   2.132  0.3522 -0.0469  0.2352
 3310SOL    HW111218   1.723   7.356   2.121  0.7233  0.2149  0.9338
 3310SOL    HW211219   1.671   7.486   2.064 -0.3065 -0.9043 -0.7807
 3311SOL     OW11220   1.491   0.954   1.270  0.2921 -0.0712 -0.4234
 3311SOL    HW111221   1.461   0.913   1.189  1.1596  1.1682 -1.4107
 3311SOL    HW211222   1.566   1.008   1.244  1.5468 -0.8050  1.4673
 3312SOL     OW11223   4.016   7.754   4.515  0.1104 -0.2412 -0.1632
 3312SOL    HW111224   3.965   7.717   4.443 -1.5146 -2.0381  1.7696
 3312SOL    HW211225   4.094   7.699   4.520  1.6586  1.6004 -2.1883
 3313SOL     OW11226   6.246   6.749   3.638 -0.5883 -0.2036  0.0339
 3313SOL    HW111227   6.275   6.737   3.729 -1.0542  0.1067  0.2314
 3313SOL    HW211228   6.195   6.671   3.618  2.1724 -1.8542 -1.0795
 3314SOL     OW11229   2.623   2.238   1.128 -0.0856  0.4607 -0.2280
 3314SOL    HW111230   2.577   2.263   1.048  0.7625 -1.3622 -1.3581
 3314SOL    HW211231   2.688   2.307   1.141 -0.9059  1.3006 -0.5358
 3315SOL     OW11232   7.471   6.271   6.689  0.4042  0.2557 -0.3930
 3315SOL    HW111233   7.480   6.294   6.782 -0.8822 -1.6576  0.2526
 3315SOL    HW211234   7.445   6.353   6.647 -2.0347  0.5371  1.4632
 3316SOL     OW11235   1.847   8.037   8.635  0.4317 -0.4013 -0.1738
 3316SOL    HW111236   1.933   8.003   8.609  0.4528 -0.2636 -0.2808
 3316SOL    HW211237   1.788   7.962   8.625  0.1424  0.0287 -2.0819
 3317SOL     OW11238   6.006   8.329   2.372  0.4185  0.0366  0.3285
 3317SOL    HW111239   6.052   8.376   2.303  2.4000 -1.1855  0.7372
 3317SOL    HW211240   5.933   8.387   2.396  1.3245  1.7433 -0.8238
 3318SOL     OW11241   1.481   6.484   1.923 -0.2038 -0.3433 -0.9391
 3318SOL    HW111242   1.401   6.512   1.877 -0.1502  0.9549 -0.2936
 3318SOL    HW211243   1.459   6.399   1.960 -1.8968  0.7157  0.6510
 3319SOL     OW11244   3.037   0.117   6.365  0.2067  0.0366 -0.0589
 3319SOL    HW111245   3.075   0.132   6.451 -1.8867 -0.6325  1.0353
 3319SOL    HW211246   3.000   0.201   6.339  1.2866  0.3708 -0.5701
 3320SOL     OW11247   1.748   5.695   5.063  0.0915  0.0797  0.3723
 3320SOL    HW111248   1.724   5.615   5.110  1.0201 -0.4945 -0.1058
 3320SOL    HW211249   1.768   5.666   4.975  1.9053  0.6024  0.5712
 3321SOL     OW11250   3.911   3.506   4.075 -0.1403 -0.6628 -0.4396
 3321SOL    HW111251   3.986   3.450   4.050 -1.1801 -3.4327  2.0124
 3321SOL    HW211252   3.932   3.535   4.164 -2.0048 -1.7159  0.4037
 3322SOL     OW11253   2.345   6.273   7.190 -0.3400 -0.5605  0.0214
 3322SOL    HW111254   2.421   6.298   7.242 -1.6580  2.5824  0.6877
 3322SOL    HW211255   2.339   6.340   7.122 -3.0397 -0.0233  0.6547
 3323SOL     OW11256   6.071   3.564   3.322 -0.3034 -0.9114 -0.2433
 3323SOL    HW111257   6.122   3.601   3.394 -1.2661  0.9566 -0.4502
 3323SOL    HW211258   6.128   3.570   3.246 -1.0810  2.1790 -0.7073
 3324SOL     OW11259   6.665   7.785   7.241 -0.2714  0.1406 -0.6766
 3324SOL    HW111260   6.622   7.871   7.237  3.2149  2.0144 -2.7522
 3324SOL    HW211261   6.709   7.785   7.326 -0.9535  0.0307 -0.3193
 3325SOL     OW11262   6.807   1.848   0.215  0.2811 -0.4412  0.0224
 3325SOL    HW111263   6.785   1.914   0.149  0.8409  0.8563  1.0982
 3325SOL    HW211264   6.730   1.846   0.272  0.4688 -0.3621  0.2763
 3326SOL     OW11265   6.401   1.993   6.104  0.0138  0.2183 -0.5122
 3326SOL    HW111266   6.313   1.991   6.139  0.6479  2.7507  1.4745
 3326SOL    HW211267   6.390   2.025   6.014 -1.1103 -0.3521 -0.6006
 3327SOL     OW11268   4.359   4.043   1.898  0.7056  0.3306  0.0655
 3327SOL    HW111269   4.339   4.023   1.807 -0.7640  1.1163  0.1723
 3327SOL    HW211270   4.313   3.976   1.948 -1.1270  1.6527  0.2885
 3328SOL     OW11271   5.624   2.117   0.768  0.3417 -0.1404 -0.3555
 3328SOL    HW111272   5.701   2.152   0.725  1.0545 -0.5246  0.5552
 3328SOL    HW211273   5.555   2.120   0.702  1.0578  0.4899 -1.0896
 3329SOL     OW11274   5.324   3.146   7.515  0.0139 -0.4505 -0.1876
 3329SOL    HW111275   5.331   3.087   7.589 -0.6041  1.7844  1.7871
 3329SOL    HW211276   5.376   3.223   7.540 -1.1884  0.8705 -1.4993
 3330SOL     OW11277   1.258   4.509   7.190  0.2976  0.4242 -0.5844
 3330SOL    HW111278   1.177   4.478   7.149  0.5454 -1.1988  0.0847
 3330SOL    HW211279   1.234   4.593   7.230 -0.6334  0.7225 -1.7075
 3331SOL     OW11280   6.202   7.831   4.510 -0.0971 -0.3645  0.4411
 3331SOL    HW111281   6.184   7.803   4.420 -0.1389 -0.7346  0.5646
 3331SOL    HW211282   6.116   7.839   4.551 -0.3838  3.3165 -0.5640
 3332SOL     OW11283   5.885   7.464   8.586  0.2738  0.5751 -0.0951
 3332SOL    HW111284   5.806   7.414   8.607  0.4712  0.1330 -0.3819
 3332SOL    HW211285   5.854   7.554   8.575  0.2611  1.0158  2.7932
 3333SOL     OW11286   3.238   4.771   7.153  0.4049 -0.7195 -0.3492
 3333SOL    HW111287   3.326   4.733   7.157  0.7968 -0.2678 -2.8650
 3333SOL    HW211288   3.250   4.863   7.176  0.1473 -1.1193  1.5800
 3334SOL     OW11289   3.987   7.105   3.054 -0.4912 -0.2321 -0.0504
 3334SOL    HW111290   3.939   7.152   2.985 -0.3097 -0.2137 -0.1660
 3334SOL    HW211291   4.030   7.174   3.104  0.6094 -0.3146 -0.8414
 3335SOL     OW11292   8.551   5.097   1.108 -0.0343  0.7596 -0.5345
 3335SOL    HW111293   8.642   5.088   1.134 -0.4850 -1.6448  0.4594
 3335SOL    HW211294   8.549   5.178   1.056  2.5884  0.9735 -0.4412
 3336SOL     OW11295   0.078   7.481   5.805  0.1253 -0.1307 -0.2544
 3336SOL    HW111296   0.022   7.535   5.749  0.6883  0.1939 -0.5115
 3336SOL    HW211297   0.154   7.536   5.824  0.3414 -0.5503  0.1252
 3337SOL     OW11298   8.638   6.675   5.513 -0.2283 -0.2172 -0.1499
 3337SOL    HW111299   8.609   6.664   5.423 -1.3558  1.1299  0.0113
 3337SOL    HW211300   8.731   6.696   5.506  0.0706 -1.6988 -0.8754
 3338SOL     OW11301   5.421   5.602   6.887  0.2783  0.1405 -0.1798
 3338SOL    HW111302   5.331   5.636   6.883  0.3268  0.1589 -1.7459
 3338SOL    HW211303   5.439   5.571   6.798  1.5808 -0.5202  0.2888
 3339SOL     OW11304   0.897   8.245   5.816 -0.2847  0.1497  0.1161
 3339SOL    HW111305   0.957   8.173   5.834 -1.4684 -1.0992 -0.7145
 3339SOL    HW211306   0.830   8.207   5.759  0.5136  2.5441 -2.7007
 3340SOL     OW11307   6.788   7.179   1.075  0.2566  0.0535 -0.0956
 3340SOL    HW111308   6.699   7.144   1.067  0.3920 -0.8238  1.6409
 3340SOL    HW211309   6.779   7.255   1.133  0.6556 -0.2156  0.3334
 3341SOL     OW11310   5.624   2.997   6.944 -0.0465  0.7569 -0.2640
 3341SOL    HW111311   5.660   2.913   6.971  0.6270  0.8057 -0.9832
 3341SOL    HW211312   5.695   3.040   6.898 -0.7958  1.1488 -1.0957
 3342SOL     OW11313   5.305   8.318   3.055 -0.7823  0.7328  0.0136
 3342SOL    HW111314   5.220   8.276   3.044 -0.2027 -0.5508  0.3221
 3342SOL    HW211315   5.321   8.316   3.149  0.8876 -1.7608 -0.2376
 3343SOL     OW11316   7.636   5.268   2.615  0.3217 -0.7488 -0.5178
 3343SOL    HW111317   7.602   5.196   2.667 -0.3353 -0.4646 -0.5509
 3343SOL    HW211318   7.724   5.283   2.650 -0.7810  0.7054  1.8669
 3344SOL     OW11319   5.459   4.375   7.014  0.4399  0.2278  0.0637
 3344SOL    HW111320   5.511   4.341   6.941  0.4996 -1.0855  0.6841
 3344SOL    HW211321   5.393   4.308   7.030  0.7450  0.2242  1.5319
 3345SOL     OW11322   4.579   1.142   4.043  0.0544  0.5651  0.0784
 3345SOL    HW111323   4.498   1.107   4.006 -0.0130  1.4037 -0.5876
 3345SOL    HW211324   4.558   1.233   4.064  0.4301  0.4233  1.1558
 3346SOL     OW11325   3.153   3.009   8.591  0.0442 -0.3837 -0.1009
 3346SOL    HW111326   3.063   3.039   8.608  0.3966  0.2331  0.7412
 3346SOL    HW211327   3.197   3.086   8.556  0.2237 -0.7134 -0.5989
 3347SOL     OW11328   0.288   8.225   6.594  0.2257  0.0200  0.3587
 3347SOL    HW111329   0.202   8.262   6.575  0.3230 -0.1079 -0.3531
 3347SOL    HW211330   0.308   8.170   6.518  2.2091  2.3370 -0.9398
 3348SOL     OW11331   0.028   7.867   6.594  0.1685 -0.5398  0.3318
 3348SOL    HW111332   0.009   7.784   6.638  0.8275 -0.7260  0.2815
 3348SOL    HW211333  -0.040   7.926   6.625  0.3663 -0.7826  1.2755
 3349SOL     OW11334   0.628   6.021   4.335 -0.5407  0.2251  0.2766
 3349SOL    HW111335   0.651   5.941   4.383 -0.6330  0.3942  0.6121
 3349SOL    HW211336   0.710   6.070   4.329 -0.3669 -0.1561 -0.4324
 3350SOL     OW11337   8.399   7.755   2.343  0.4401 -0.5880  0.2066
 3350SOL    HW111338   8.379   7.768   2.250 -0.0464 -0.1979  0.3598
 3350SOL    HW211339   8.462   7.682   2.344  0.6316 -0.4412 -0.4418
 3351SOL     OW11340   1.176   3.987   6.142  0.1848  0.2349 -0.5899
 3351SOL    HW111341   1.163   4.012   6.051 -0.0304 -1.4309 -1.0513
 3351SOL    HW211342   1.228   4.058   6.179 -2.7483  2.7925 -0.9962
 3352SOL     OW11343   1.819   6.803   1.501 -0.0020 -0.1703  0.2025
 3352SOL    HW111344   1.786   6.890   1.521 -0.5521  0.1392 -1.8141
 3352SOL    HW211345   1.884   6.818   1.432  0.7780 -1.2616  0.6686
 3353SOL     OW11346   7.503   2.494   4.991  0.4247 -0.4270  0.3117
 3353SOL    HW111347   7.438   2.532   4.930  0.5825 -0.3779  0.1734
 3353SOL    HW211348   7.575   2.468   4.935  2.1752  2.8573  0.7689
 3354SOL     OW11349   5.554   4.536   4.269 -0.3574 -0.1145  0.0194
 3354SOL    HW111350   5.596   4.588   4.338  0.2820  0.5949 -0.8884
 3354SOL    HW211351   5.575   4.445   4.291  0.2772  0.1386  0.4660
 3355SOL     OW11352   6.817   4.221   5.563  0.0482 -0.5659  0.2495
 3355SOL    HW111353   6.816   4.224   5.467 -0.9902 -2.2290  0.1719
 3355SOL    HW211354   6.726   4.206   5.588 -0.2897  2.8870  1.7205
 3356SOL     OW11355   1.033   0.971   0.938 -0.2359  0.1607  0.1273
 3356SOL    HW111356   0.939   0.953   0.938 -0.0412 -1.0752  1.8068
 3356SOL    HW211357   1.072   0.891   0.903  0.3609 -0.9149  2.9814
 3357SOL     OW11358   6.925   1.487   4.437  0.5853 -0.1113  0.0262
 3357SOL    HW111359   6.859   1.528   4.380 -0.1628  0.6699  1.3772
 3357SOL    HW211360   6.995   1.552   4.443  0.4307  0.0235  0.3897
 3358SOL     OW11361   4.469   6.415   8.482 -0.1224 -0.3295  0.1919
 3358SOL    HW111362   4.545   6.470   8.461 -0.3636  0.2394  0.7807
 3358SOL    HW211363   4.477   6.339   8.423 -0.6048  1.0451 -1.7427
 3359SOL     OW11364   7.957   3.543   3.729  0.2823 -0.1347  0.0130
 3359SOL    HW111365   7.919   3.603   3.793  0.8519  0.8875 -0.5726
 3359SOL    HW211366   7.884   3.515   3.675 -0.2379 -1.1474  1.1830
 3360SOL     OW11367   4.550   0.107   3.908  0.1318 -0.2907 -0.3358
 3360SOL    HW111368   4.591   0.183   3.949  0.0963  0.1733 -1.1318
 3360SOL    HW211369   4.620   0.041   3.906  0.3229 -0.0964 -0.1309
 3361SOL     OW11370   5.994   7.945   5.351 -0.7952  0.1892  0.4427
 3361SOL    HW111371   6.054   7.977   5.419 -1.7349  1.6509  0.6430
 3361SOL    HW211372   5.976   7.855   5.376  0.4334  0.0752  1.0064
 3362SOL     OW11373   1.592   4.374   5.112 -0.4713 -1.0000  0.2519
 3362SOL    HW111374   1.612   4.305   5.175  1.0029 -0.4551  0.4125
 3362SOL    HW211375   1.498   4.386   5.119 -0.2621 -0.3269  3.0132
 3363SOL     OW11376   2.789   6.508   7.815  0.0700  0.3815 -0.1885
 3363SOL    HW111377   2.761   6.554   7.736 -2.1705 -1.0973 -0.3485
 3363SOL    HW211378   2.819   6.577   7.873 -0.6881  1.7838 -1.3747
 3364SOL     OW11379   7.060   2.911   7.134  0.1856  0.2607 -0.0544
 3364SOL    HW111380   7.114   2.902   7.213 -1.5555 -0.5988  1.1079
 3364SOL    HW211381   6.975   2.941   7.167 -0.2328  1.0327 -1.7542
 3365SOL     OW11382   2.755   4.517   8.149 -0.0867 -0.1729 -0.4190
 3365SOL    HW111383   2.823   4.559   8.203 -1.4446  1.3672  0.1895
 3365SOL    HW211384   2.796   4.507   8.063  1.6476 -1.3792  0.4739
 3366SOL     OW11385   1.710   4.605   2.681 -0.1251 -0.5542  0.0717
 3366SOL    HW111386   1.756   4.671   2.732 -1.9965  0.4562  0.5692
 3366SOL    HW211387   1.689   4.536   2.744 -1.1644  0.0115  0.3612
 3367SOL     OW11388   3.021   0.041   0.328  0.3178  0.4295 -0.2777
 3367SOL    HW111389   3.113   0.015   0.333  0.8557  2.1522 -0.7143
 3367SOL    HW211390   3.017   0.125   0.374 -1.2829 -0.1545  0.7473
 3368SOL     OW11391   7.919   7.590   0.746 -0.1889 -0.4495 -0.3082
 3368SOL    HW111392   7.983   7.661   0.759  0.0958 -0.5726 -0.9972
 3368SOL    HW211393   7.888   7.570   0.834 -0.6023  0.8321 -0.1461
 3369SOL     OW11394   5.525   6.501   2.039  0.0953  0.1856 -0.5850
 3369SOL    HW111395   5.554   6.410   2.036  1.0121  0.4466 -0.2413
 3369SOL    HW211396   5.588   6.544   2.098 -1.5089  0.6414  0.8544
 3370SOL     OW11397   2.326   7.747   7.404 -0.2407 -0.0816  0.0059
 3370SOL    HW111398   2.304   7.827   7.451 -1.7375 -0.3189 -0.2546
 3370SOL    HW211399   2.291   7.760   7.316  1.7595  0.0090 -0.8403
 3371SOL     OW11400   0.607   3.782   2.753  0.0890 -0.5932  0.6850
 3371SOL    HW111401   0.594   3.837   2.831  1.0536 -0.3415  0.6811
 3371SOL    HW211402   0.687   3.815   2.713 -0.1008 -1.0743 -0.1273
 3372SOL     OW11403   6.791   4.313   6.562 -0.5578  0.3720 -0.3107
 3372SOL    HW111404   6.765   4.405   6.570 -0.7308  0.1699  1.7836
 3372SOL    HW211405   6.886   4.316   6.550 -0.4029  0.7957  0.9240
 3373SOL     OW11406   0.516   5.833   0.311 -0.2592 -0.2646 -0.3280
 3373SOL    HW111407   0.500   5.867   0.223  1.5131 -0.5201 -0.7921
 3373SOL    HW211408   0.585   5.889   0.346  0.5039 -1.4279  0.0835
 3374SOL     OW11409   2.068   1.238   7.574  0.7908  0.5120 -0.2313
 3374SOL    HW111410   2.089   1.208   7.662 -1.8734  0.0898  0.3166
 3374SOL    HW211411   2.043   1.159   7.526  3.3027  0.5461 -1.8049
 3375SOL     OW11412   4.295   5.594   5.616  0.2850  0.2887  0.1685
 3375SOL    HW111413   4.341   5.669   5.580  0.6722  0.3609  0.7955
 3375SOL    HW211414   4.213   5.630   5.650  0.7062  0.5226  0.9464
 3376SOL     OW11415   8.096   6.014   6.976 -0.4264  0.7736  0.3849
 3376SOL    HW111416   8.056   6.018   7.063 -0.9088 -0.2016  0.2214
 3376SOL    HW211417   8.091   5.922   6.952  0.1122  0.9656 -0.4921
 3377SOL     OW11418   1.268   3.296   2.908 -0.2546 -0.5791  0.7899
 3377SOL    HW111419   1.221   3.345   2.841 -1.0736  0.3462  2.0021
 3377SOL    HW211420   1.334   3.246   2.860 -2.1008 -1.4819 -0.9028
 3378SOL     OW11421   2.532   3.551   0.301 -0.5217 -0.6451  0.0585
 3378SOL    HW111422   2.561   3.519   0.386  1.0653 -0.1930 -0.2829
 3378SOL    HW211423   2.583   3.501   0.238 -0.6845 -0.0173 -0.5860
 3379SOL     OW11424   1.109   3.683   0.649 -0.2180 -0.4963 -0.4016
 3379SOL    HW111425   1.117   3.601   0.600  0.2183 -0.1703 -0.8849
 3379SOL    HW211426   1.020   3.681   0.685 -0.1197 -1.2993 -0.1868
 3380SOL     OW11427   6.203   7.483   7.927 -0.1579 -0.1972  0.1833
 3380SOL    HW111428   6.220   7.473   8.020 -1.7876 -0.4039  0.4792
 3380SOL    HW211429   6.211   7.577   7.911  1.8524 -0.3373  0.1457
 3381SOL     OW11430   0.718   2.171   6.329  0.0153  0.4886 -0.4168
 3381SOL    HW111431   0.743   2.086   6.293  0.0400  0.3245 -0.0177
 3381SOL    HW211432   0.711   2.156   6.423 -1.7926  0.4839 -0.5135
 3382SOL     OW11433   4.563   2.867   6.144  0.8626 -0.7970 -0.2565
 3382SOL    HW111434   4.501   2.925   6.100 -0.4682 -1.3129  0.8552
 3382SOL    HW211435   4.643   2.872   6.091 -0.0968 -0.0548 -1.6983
 3383SOL     OW11436   8.588   7.598   1.050  0.3965 -0.0139  0.0334
 3383SOL    HW111437   8.656   7.654   1.086  1.1380 -1.0797  0.3353
 3383SOL    HW211438   8.589   7.520   1.106 -0.0154 -0.7038 -0.8899
 3384SOL     OW11439   7.782   6.117   2.236  0.3806 -0.1814 -0.2702
 3384SOL    HW111440   7.798   6.090   2.326  0.3614 -0.8258 -0.4501
 3384SOL    HW211441   7.708   6.177   2.241  0.1690 -0.4727  0.1041
 3385SOL     OW11442   7.723   0.388   5.230  0.2147 -0.0913 -0.0355
 3385SOL    HW111443   7.781   0.385   5.154 -1.4810 -3.8944 -1.4265
 3385SOL    HW211444   7.666   0.312   5.220 -1.5861  0.4733  3.9615
 3386SOL     OW11445   6.970   1.467   7.014  0.5904 -0.0042  0.0684
 3386SOL    HW111446   6.918   1.529   6.963 -0.0359 -0.8481 -0.3584
 3386SOL    HW211447   6.910   1.437   7.083  0.6586 -0.6373 -0.1402
 3387SOL     OW11448   2.452   5.763   8.005  0.2000 -0.1927 -0.1363
 3387SOL    HW111449   2.455   5.786   7.912 -4.5574  0.1797 -0.4594
 3387SOL    HW211450   2.488   5.674   8.009  0.4385 -0.2589 -2.3405
 3388SOL     OW11451   1.118   7.611   6.974 -0.2537 -0.5737 -0.4676
 3388SOL    HW111452   1.055   7.670   7.015  1.4569  1.9535 -1.2712
 3388SOL    HW211453   1.070   7.571   6.902 -1.0786  0.9605 -0.7992
 3389SOL     OW11454   6.037   8.045   6.548  0.3388  0.1299 -0.0121
 3389SOL    HW111455   5.978   8.075   6.479 -1.3773 -0.7797  0.9829
 3389SOL    HW211456   6.087   7.974   6.508 -0.7854 -0.5228 -0.2933
 3390SOL     OW11457   0.041   0.250   6.218  1.1405 -0.1245 -0.1457
 3390SOL    HW111458   0.063   0.332   6.174 -0.4631  0.3949 -0.0393
 3390SOL    HW211459  -0.001   0.197   6.150  3.1154 -1.3370 -0.5046
 3391SOL     OW11460   1.128   0.715   2.940  0.8227  0.4288 -0.1720
 3391SOL    HW111461   1.206   0.772   2.937  0.2498  1.2123 -0.8312
 3391SOL    HW211462   1.060   0.766   2.896  1.0610 -1.9310 -3.7623
 3392SOL     OW11463   2.579   6.322   3.962 -0.6167  0.4804  0.7266
 3392SOL    HW111464   2.500   6.272   3.941 -0.1108  0.0910 -0.3321
 3392SOL    HW211465   2.594   6.306   4.055 -0.1617 -1.8223  0.3172
 3393SOL     OW11466   3.591   3.737   0.732 -0.3376 -0.1451 -0.4523
 3393SOL    HW111467   3.601   3.825   0.696  0.4221  0.2781  0.7155
 3393SOL    HW211468   3.670   3.691   0.703 -0.4218 -0.2457 -0.5225
 3394SOL     OW11469   7.759   4.749   3.626  0.0489 -0.0945  0.4231
 3394SOL    HW111470   7.752   4.844   3.626  1.0825  0.0233  1.9167
 3394SOL    HW211471   7.789   4.727   3.538 -3.5441  0.5841 -1.1514
 3395SOL     OW11472   6.575   0.250   2.575 -0.4433 -0.1769  0.3453
 3395SOL    HW111473   6.585   0.177   2.514  0.0987  0.0291  0.1898
 3395SOL    HW211474   6.661   0.260   2.615  0.2537  2.0611 -1.5230
 3396SOL     OW11475   5.775   7.434   4.201  0.1651  0.1094 -0.0946
 3396SOL    HW111476   5.773   7.364   4.135  0.4637 -0.5741  0.5937
 3396SOL    HW211477   5.810   7.391   4.279 -1.7374  0.4512  1.0175
 3397SOL     OW11478   0.519   6.693   5.463  0.2748  0.0841 -0.6041
 3397SOL    HW111479   0.514   6.615   5.407 -1.8749 -0.6197  0.4682
 3397SOL    HW211480   0.493   6.662   5.549 -0.8415  2.0268 -0.1921
 3398SOL     OW11481   3.651   0.856   6.742  0.3031  0.0247  0.3992
 3398SOL    HW111482   3.676   0.765   6.757 -0.4393 -0.2775 -0.1720
 3398SOL    HW211483   3.647   0.865   6.647 -1.1148  0.2335  0.4656
 3399SOL     OW11484   8.551   1.258   4.899  0.6501 -0.0554  0.4200
 3399SOL    HW111485   8.540   1.320   4.828 -0.7730 -1.5204 -0.7319
 3399SOL    HW211486   8.472   1.204   4.896  0.7991 -0.5181  2.7826
 3400SOL     OW11487   8.558   1.026   8.538  0.3070 -0.2544 -0.5212
 3400SOL    HW111488   8.542   0.934   8.559  0.7330 -0.2941 -0.3581
 3400SOL    HW211489   8.499   1.074   8.596 -1.0169 -0.4542 -1.6542
 3401SOL     OW11490   1.975   0.837   4.783 -0.1639  0.1045 -0.0018
 3401SOL    HW111491   2.069   0.848   4.768 -0.0884  0.5785  0.7613
 3401SOL    HW211492   1.967   0.822   4.877 -0.8757  0.3557 -0.0141
 3402SOL     OW11493   4.973   6.591   6.808  0.2742 -0.4054  0.0662
 3402SOL    HW111494   5.049   6.625   6.854 -0.2543 -0.2618  0.8436
 3402SOL    HW211495   4.898   6.637   6.846 -0.1806 -0.3120 -0.9081
 3403SOL     OW11496   6.484   7.746   3.078  0.2312 -0.3813  0.2437
 3403SOL    HW111497   6.394   7.777   3.073  0.2157 -0.2653  1.0648
 3403SOL    HW211498   6.484   7.685   3.152  0.5225 -1.4639 -0.6039
 3404SOL     OW11499   2.576   7.563   3.178 -0.0836 -0.1060 -0.1055
 3404SOL    HW111500   2.574   7.561   3.273  0.6705 -0.2134 -0.0835
 3404SOL    HW211501   2.656   7.516   3.155 -0.1150  0.1594 -0.7781
 3405SOL     OW11502   1.383   7.642   3.499  0.4139 -0.1103  0.3898
 3405SOL    HW111503   1.353   7.614   3.586 -2.4314  0.0627 -0.4421
 3405SOL    HW211504   1.379   7.563   3.446 -0.8696  0.3869 -0.2898
 3406SOL     OW11505   8.605   6.669   1.011  0.0628  0.3280 -0.4866
 3406SOL    HW111506   8.682   6.619   0.984 -0.4786 -0.0599 -1.3692
 3406SOL    HW211507   8.533   6.606   1.009 -0.4941  0.9539 -0.8762
 3407SOL     OW11508   5.102   7.895   8.165  0.0030  0.2618  0.0272
 3407SOL    HW111509   5.182   7.945   8.148 -0.6413  1.6961  1.0152
 3407SOL    HW211510   5.075   7.864   8.078  1.0026  0.7266 -0.4714
 3408SOL     OW11511   2.055   7.064   7.322  0.3549  0.1435 -0.3175
 3408SOL    HW111512   2.071   7.075   7.416 -0.4256 -0.3646 -0.1208
 3408SOL    HW211513   2.043   7.153   7.289  0.5569  0.3177  0.0715
 3409SOL     OW11514   3.394   2.707   0.230  0.3245  0.0436 -0.3667
 3409SOL    HW111515   3.354   2.769   0.169  0.6364 -0.0562 -0.6694
 3409SOL    HW211516   3.336   2.709   0.307  0.5202  0.9736 -0.2300
 3410SOL     OW11517   2.603   7.895   7.624  0.0376  0.6792  0.0951
 3410SOL    HW111518   2.666   7.961   7.654 -0.9163  1.7530 -0.1576
 3410SOL    HW211519   2.519   7.925   7.659 -0.5027 -0.0874 -0.5193
 3411SOL     OW11520   8.549   0.162   4.219  0.0402  0.4745  0.0923
 3411SOL    HW111521   8.594   0.083   4.190 -2.9593 -1.5097  0.4243
 3411SOL    HW211522   8.531   0.211   4.139 -1.8380 -1.3932 -0.7116
 3412SOL     OW11523   0.595   0.143   3.120 -0.0505 -0.4294  0.0822
 3412SOL    HW111524   0.579   0.237   3.121  0.3317 -0.3632  0.4663
 3412SOL    HW211525   0.653   0.129   3.045  0.8271 -0.1849  0.6861
 3413SOL     OW11526   4.246   6.645   6.623  0.1680 -0.5065  0.0027
 3413SOL    HW111527   4.208   6.654   6.710 -2.3122  0.0160 -1.0208
 3413SOL    HW211528   4.246   6.551   6.606 -3.0090 -0.4978 -0.7726
 3414SOL     OW11529   3.964   0.635   5.739  0.6234 -0.2042 -0.2073
 3414SOL    HW111530   3.928   0.628   5.827  0.4497 -0.5748 -0.3057
 3414SOL    HW211531   3.961   0.546   5.705 -0.0596  0.0681 -0.8889
 3415SOL     OW11532   6.770   3.885   5.616 -0.3217 -0.1681  0.2253
 3415SOL    HW111533   6.710   3.903   5.689 -2.1658 -0.9546 -1.0269
 3415SOL    HW211534   6.842   3.948   5.628 -1.0613  0.3864  2.1394
 3416SOL     OW11535   7.870   6.430   8.581  0.0349 -0.4721 -0.3845
 3416SOL    HW111536   7.832   6.504   8.535  1.1308 -0.2334 -0.9283
 3416SOL    HW211537   7.946   6.466   8.626 -0.4867 -0.8900  0.8946
 3417SOL     OW11538   1.811   8.062   5.558  0.5665 -0.0846  0.0599
 3417SOL    HW111539   1.783   8.004   5.487  0.4229 -0.6238  0.5477
 3417SOL    HW211540   1.812   8.150   5.519  2.2443 -0.5854 -1.1062
 3418SOL     OW11541   5.003   1.110   1.144 -0.0962  0.4332 -0.2830
 3418SOL    HW111542   4.924   1.163   1.155 -2.3541 -2.6055 -0.5650
 3418SOL    HW211543   5.018   1.072   1.230  0.4376  0.1728 -0.4870
 3419SOL     OW11544   5.883   4.197   2.946 -0.2169  0.5217 -0.6858
 3419SOL    HW111545   5.922   4.113   2.922  2.6417  1.5474 -0.0224
 3419SOL    HW211546   5.817   4.213   2.878 -0.6277 -2.0761 -0.9825
 3420SOL     OW11547   8.172   4.956   8.526  0.0341  0.1051 -0.2413
 3420SOL    HW111548   8.211   5.029   8.478  0.7001 -0.3864 -0.4602
 3420SOL    HW211549   8.148   4.893   8.458 -0.6961  0.1914 -0.0694
 3421SOL     OW11550   2.844   0.439   3.910 -0.0160  0.0169 -0.7763
 3421SOL    HW111551   2.862   0.370   3.974  1.0040  0.0828 -0.9648
 3421SOL    HW211552   2.822   0.516   3.963  2.1220  0.4400 -0.4141
 3422SOL     OW11553   2.652   1.550   2.544 -0.2103 -0.2966 -0.2356
 3422SOL    HW111554   2.586   1.620   2.539  0.8221  0.5992 -2.3736
 3422SOL    HW211555   2.630   1.492   2.472  1.8585  0.5627 -1.6601
 3423SOL     OW11556   3.745   2.238   7.550  0.0617  0.0547  0.4833
 3423SOL    HW111557   3.665   2.208   7.507  0.2768  0.0684  0.0696
 3423SOL    HW211558   3.755   2.181   7.626 -0.7679  0.5563  0.9799
 3424SOL     OW11559   6.259   5.236   4.696  0.2816  0.5068  0.1635
 3424SOL    HW111560   6.277   5.191   4.778  1.4325  1.0223  0.2154
 3424SOL    HW211561   6.254   5.328   4.720 -1.7443  0.4674  0.0120
 3425SOL     OW11562   6.395   2.604   3.570  0.7770 -0.0154  0.3839
 3425SOL    HW111563   6.328   2.590   3.503  0.4663  2.7458  0.0004
 3425SOL    HW211564   6.354   2.663   3.633  1.9809 -0.4291  1.6145
 3426SOL     OW11565   4.271   7.423   3.037 -0.0362 -0.3921  0.2926
 3426SOL    HW111566   4.248   7.406   2.946 -1.7198 -0.6817  0.7414
 3426SOL    HW211567   4.200   7.384   3.087 -1.2884  3.1708  1.5817
 3427SOL     OW11568   5.520   4.763   3.964  0.4827 -0.1517 -0.1534
 3427SOL    HW111569   5.542   4.767   3.871 -1.1987 -2.8132 -0.7723
 3427SOL    HW211570   5.431   4.799   3.968  0.8462  0.6860  0.5839
 3428SOL     OW11571   1.702   0.831   7.763 -0.5576  0.2151  0.6454
 3428SOL    HW111572   1.779   0.839   7.707 -1.2738 -1.6046 -0.7111
 3428SOL    HW211573   1.734   0.851   7.851  1.2835  0.2004  0.0262
 3429SOL     OW11574   6.254   6.991   6.498  0.6367  0.1590 -0.6420
 3429SOL    HW111575   6.315   7.002   6.425  0.0004 -0.0344 -1.2219
 3429SOL    HW211576   6.219   6.903   6.487 -0.9414  0.8108 -1.3008
 3430SOL     OW11577   7.172   1.055   0.107  0.2960 -0.4641 -0.3475
 3430SOL    HW111578   7.247   1.108   0.135  1.4946 -1.8275 -0.8641
 3430SOL    HW211579   7.211   0.980   0.063 -1.3885  0.3198 -3.5035
 3431SOL     OW11580   5.257   2.327   7.555 -0.2042  0.3041 -0.4476
 3431SOL    HW111581   5.341   2.304   7.593 -0.2452  3.9752  2.4699
 3431SOL    HW211582   5.193   2.277   7.605  0.0545 -0.7431 -1.1199
 3432SOL     OW11583   3.876   3.429   1.481 -0.1853  0.0436 -0.7997
 3432SOL    HW111584   3.875   3.358   1.417 -0.2301 -0.9001  0.2167
 3432SOL    HW211585   3.785   3.456   1.489 -0.3237 -0.5377 -0.3831
 3433SOL     OW11586   2.016   6.240   7.202 -0.0754 -0.2036  0.0948
 3433SOL    HW111587   2.089   6.283   7.248  0.5701  0.7912 -1.7658
 3433SOL    HW211588   1.941   6.252   7.260  0.9378 -0.1263  1.4671
 3434SOL     OW11589   8.538   7.999   6.740 -0.1457 -0.8887  0.7083
 3434SOL    HW111590   8.452   7.978   6.777 -0.4846 -0.2863  0.2841
 3434SOL    HW211591   8.530   8.090   6.711 -0.4623 -1.8159 -2.4336
 3435SOL     OW11592   0.232   1.120   4.690 -0.2602 -0.0829  0.3491
 3435SOL    HW111593   0.257   1.066   4.616 -0.3011  0.4943 -0.0922
 3435SOL    HW211594   0.266   1.073   4.767  1.4584  0.2655 -0.1573
 3436SOL     OW11595   1.525   6.242   2.056  0.0511 -0.8640 -0.3613
 3436SOL    HW111596   1.443   6.227   2.102  0.3170  0.0367  0.4291
 3436SOL    HW211597   1.533   6.168   1.996 -0.7081 -1.6191  0.4557
 3437SOL     OW11598   3.352   8.393   4.642  0.4163  0.1411 -0.0310
 3437SOL    HW111599   3.346   8.389   4.547 -1.1659 -0.9002  0.0699
 3437SOL    HW211600   3.428   8.339   4.663  0.2008 -0.4216 -0.6636
 3438SOL     OW11601   6.239   7.406   2.009  0.0578 -0.1500 -0.2835
 3438SOL    HW111602   6.272   7.317   1.996  0.7542  0.1393 -0.5566
 3438SOL    HW211603   6.207   7.432   1.923  0.1434 -0.0239 -0.2776
 3439SOL     OW11604   7.882   5.214   7.535  0.2966 -0.3863 -0.4749
 3439SOL    HW111605   7.969   5.238   7.566 -0.1503  0.0767  0.4709
 3439SOL    HW211606   7.862   5.278   7.467  1.1877 -1.2605 -1.5943
 3440SOL     OW11607   0.072   1.378   1.162  1.0935 -0.0521 -0.1994
 3440SOL    HW111608   0.043   1.411   1.247 -2.1574 -1.2747 -0.6837
 3440SOL    HW211609   0.061   1.283   1.168  0.6356 -0.1522 -2.0367
 3441SOL     OW11610   6.579   6.438   8.509  0.2654 -0.2050 -0.3887
 3441SOL    HW111611   6.535   6.362   8.473 -1.7078  0.1755  1.0739
 3441SOL    HW211612   6.560   6.509   8.447  0.4394 -0.4626 -0.7369
 3442SOL     OW11613   6.283   6.390   0.493  0.0079  0.3549 -0.0197
 3442SOL    HW111614   6.291   6.315   0.552  0.4244 -0.5829 -1.2196
 3442SOL    HW211615   6.210   6.368   0.436 -0.8599  1.5795  0.5819
 3443SOL     OW11616   1.899   2.118   6.741  0.2671  0.2863 -0.5778
 3443SOL    HW111617   1.980   2.156   6.709  0.0727  0.6950 -0.5886
 3443SOL    HW211618   1.849   2.097   6.662 -0.5577  2.0395 -0.5639
 3444SOL     OW11619   8.531   7.491   2.067 -0.0329 -0.5903 -0.1514
 3444SOL    HW111620   8.479   7.571   2.074 -0.2407 -0.8451  2.5667
 3444SOL    HW211621   8.474   7.423   2.101  1.0026 -1.4460 -0.0803
 3445SOL     OW11622   2.728   5.799   5.077 -0.3474  0.3162 -0.5600
 3445SOL    HW111623   2.767   5.820   4.992 -0.1391  2.4055 -0.0031
 3445SOL    HW211624   2.777   5.722   5.107  0.3675  0.2586 -1.7887
 3446SOL     OW11625   5.089   7.748   3.088  0.0887 -0.0066 -0.2716
 3446SOL    HW111626   5.182   7.729   3.082  0.2627 -0.5898  2.7155
 3446SOL    HW211627   5.084   7.836   3.126 -0.5074 -0.4551  0.7487
 3447SOL     OW11628   5.479   6.317   2.458 -0.2451  0.2637  0.0973
 3447SOL    HW111629   5.429   6.383   2.506  0.0162  1.2901 -1.0040
 3447SOL    HW211630   5.530   6.272   2.526 -1.6686  0.0571  1.0672
 3448SOL     OW11631   2.984   2.218   5.688  0.0418 -0.0661 -0.4496
 3448SOL    HW111632   2.991   2.241   5.780 -1.4237  1.1028 -0.6078
 3448SOL    HW211633   3.060   2.160   5.673  1.4237  1.2571  0.9887
 3449SOL     OW11634   3.758   2.517   2.494 -0.6538  0.8301 -0.0067
 3449SOL    HW111635   3.699   2.442   2.484 -0.2221  0.6377 -1.3362
 3449SOL    HW211636   3.745   2.546   2.584 -1.6851 -0.1222  0.1746
 3450SOL     OW11637   3.014   1.144   1.805 -0.0481  0.0882 -0.3865
 3450SOL    HW111638   2.961   1.114   1.731 -1.0135 -0.8527  0.6276
 3450SOL    HW211639   3.059   1.065   1.836 -4.4778 -1.3435  3.8389
 3451SOL     OW11640   4.744   2.162   0.629 -0.4487 -0.1298  0.3939
 3451SOL    HW111641   4.829   2.120   0.615 -1.4777 -2.0174 -0.5075
 3451SOL    HW211642   4.702   2.162   0.544 -1.6965  0.0213  0.9854
 3452SOL     OW11643   1.183   7.255   4.290 -0.4109  0.4397 -0.0309
 3452SOL    HW111644   1.169   7.193   4.218 -0.6619 -1.5856  1.6620
 3452SOL    HW211645   1.250   7.213   4.344 -0.0960  1.9995  0.8233
 3453SOL     OW11646   8.662   4.734   4.672 -0.2397  0.4951  0.4573
 3453SOL    HW111647   8.656   4.647   4.712 -2.9057  0.2867 -0.2205
 3453SOL    HW211648   8.642   4.795   4.743 -0.7908  0.3854  0.4008
 3454SOL     OW11649   1.862   5.511   2.006 -0.2975 -0.7818  0.2088
 3454SOL    HW111650   1.836   5.603   1.998  0.3410 -0.7252 -1.8341
 3454SOL    HW211651   1.779   5.463   2.003 -0.5409 -0.3395 -0.6336
 3455SOL     OW11652   6.066   7.212   8.618  0.0746 -0.2995  0.2429
 3455SOL    HW111653   5.986   7.257   8.647  0.4285  1.2336 -1.0027
 3455SOL    HW211654   6.034   7.135   8.571 -0.9929  2.1579 -3.4842
 3456SOL     OW11655   8.404   2.685   6.616  0.0150 -0.3412 -0.1352
 3456SOL    HW111656   8.464   2.758   6.605 -1.0009  0.3666 -1.1606
 3456SOL    HW211657   8.461   2.610   6.632  1.1932  0.2741 -1.2548
 3457SOL     OW11658   8.388   3.441   2.679  0.4981  0.5241 -0.1849
 3457SOL    HW111659   8.445   3.511   2.712 -0.3063  1.0550  0.1040
 3457SOL    HW211660   8.446   3.385   2.627  0.9713  1.9785 -1.3021
 3458SOL     OW11661   6.848   6.563   4.876  0.1393  0.1973 -0.1253
 3458SOL    HW111662   6.795   6.633   4.912 -1.8700 -0.6471 -1.2949
 3458SOL    HW211663   6.848   6.495   4.945 -1.0858 -0.1550 -0.4487
 3459SOL     OW11664   3.046   5.627   1.383 -0.1888 -0.4741 -0.5348
 3459SOL    HW111665   2.986   5.694   1.417 -1.2496 -1.3541 -0.6019
 3459SOL    HW211666   3.043   5.639   1.288 -0.4308 -0.6387 -0.5511
 3460SOL     OW11667   1.227   2.081   7.459 -0.0627 -0.5431  0.0661
 3460SOL    HW111668   1.154   2.094   7.398 -0.0893  0.0998  0.2247
 3460SOL    HW211669   1.285   2.155   7.443  1.0013 -1.5113 -0.6547
 3461SOL     OW11670   5.949   0.775   8.196  0.0366 -0.2228  0.6439
 3461SOL    HW111671   5.904   0.857   8.176  0.5944 -0.5905 -2.6572
 3461SOL    HW211672   5.884   0.707   8.179  0.4808 -0.5657  0.2829
 3462SOL     OW11673   4.710   0.784   3.455  0.6898 -0.1450 -0.2501
 3462SOL    HW111674   4.626   0.742   3.433 -0.0429  0.6518  0.9029
 3462SOL    HW211675   4.726   0.843   3.382  0.8917 -1.2054 -1.0838
 3463SOL     OW11676   5.573   4.224   5.719  0.4933 -0.2086  0.1624
 3463SOL    HW111677   5.579   4.245   5.812  1.4472 -0.8253  0.2590
 3463SOL    HW211678   5.615   4.298   5.675 -0.7467  0.5095  0.1463
 3464SOL     OW11679   4.009   5.000   7.380 -0.3015  0.6217 -0.0806
 3464SOL    HW111680   4.023   4.972   7.471 -2.6480  0.0720  0.1717
 3464SOL    HW211681   3.963   5.084   7.388 -1.3600  0.1267 -0.7094
 3465SOL     OW11682   1.511   4.153   3.900  0.1243  0.4179  0.3919
 3465SOL    HW111683   1.488   4.246   3.902 -1.6903  0.0360 -0.8898
 3465SOL    HW211684   1.525   4.131   3.992  1.8920  2.2156  0.6369
 3466SOL     OW11685   1.933   1.296   7.091 -0.6215 -0.2790 -0.3407
 3466SOL    HW111686   1.890   1.285   7.006 -1.6739  0.2653  0.1061
 3466SOL    HW211687   1.861   1.303   7.153  0.1285  0.1061  0.4999
 3467SOL     OW11688   8.390   4.135   8.646  0.1427  0.5904 -0.3862
 3467SOL    HW111689   8.385   4.042   8.622  1.4855  0.6221 -0.8839
 3467SOL    HW211690   8.300   4.167   8.640 -0.4886 -0.8872  0.6615
 3468SOL     OW11691   1.527   7.014   6.785 -0.1285  0.3904  0.7319
 3468SOL    HW111692   1.554   7.079   6.720 -0.2801 -0.2886 -0.0248
 3468SOL    HW211693   1.471   6.953   6.737 -0.5287  0.0620  1.5816
 3469SOL     OW11694   7.309   6.879   6.118 -1.2095 -0.5802 -0.4515
 3469SOL    HW111695   7.357   6.880   6.035 -0.7886  2.1509 -0.2676
 3469SOL    HW211696   7.218   6.862   6.094 -1.0017 -0.3571 -1.4198
 3470SOL     OW11697   0.776   0.076   2.933  0.4486 -0.0329  0.1104
 3470SOL    HW111698   0.752   0.122   2.852 -1.4721  4.2604  2.7459
 3470SOL    HW211699   0.871   0.089   2.940  0.5436  0.0802 -1.0882
 3471SOL     OW11700   5.217   5.242   0.494 -0.4476 -0.5712 -0.2597
 3471SOL    HW111701   5.220   5.168   0.434 -1.8834 -0.8461 -0.0314
 3471SOL    HW211702   5.146   5.221   0.555 -0.8155  0.9216 -0.1177
 3472SOL     OW11703   4.028   4.624   0.935  0.5467  0.7596 -0.1828
 3472SOL    HW111704   3.945   4.613   0.982 -0.1584 -0.2000 -1.5913
 3472SOL    HW211705   4.013   4.696   0.874  1.1274  1.3174  0.3117
 3473SOL     OW11706   3.009   6.480   4.879 -0.6419 -0.0699 -0.1158
 3473SOL    HW111707   2.931   6.537   4.877  0.5465  1.6334 -2.4245
 3473SOL    HW211708   3.050   6.499   4.964 -0.0893  2.9369 -0.9425
 3474SOL     OW11709   0.627   2.218   6.589  0.2818 -0.2072 -0.7391
 3474SOL    HW111710   0.564   2.146   6.599  0.6717 -0.5423 -0.6504
 3474SOL    HW211711   0.656   2.237   6.678 -0.0633  0.2883 -0.7263
 3475SOL     OW11712   2.610   7.388   4.597 -0.2370 -0.4287  0.7135
 3475SOL    HW111713   2.616   7.301   4.558 -0.5782 -0.3637  0.5215
 3475SOL    HW211714   2.522   7.392   4.634 -0.0278 -0.3717  1.2162
 3476SOL     OW11715   0.761   8.046   8.580 -0.5547  0.4819 -0.3219
 3476SOL    HW111716   0.711   8.097   8.643 -0.4744 -0.2112  0.3052
 3476SOL    HW211717   0.797   7.973   8.630 -1.6014 -0.8401 -1.4301
 3477SOL     OW11718   7.684   2.439   8.580  0.8611 -0.4048 -0.0661
 3477SOL    HW111719   7.719   2.464   8.494  0.6547  1.5297  0.3689
 3477SOL    HW211720   7.681   2.521   8.629  0.3915 -1.3769  1.5931
 3478SOL     OW11721   4.091   0.846   1.883  0.2240  0.2168 -0.4164
 3478SOL    HW111722   4.022   0.829   1.819  0.2492 -0.3490 -0.3070
 3478SOL    HW211723   4.154   0.775   1.868 -0.6330 -1.0258  1.4068
 3479SOL     OW11724   4.801   1.781   5.834 -0.4640 -0.0621 -0.3759
 3479SOL    HW111725   4.830   1.694   5.808 -1.0771  0.1273 -1.7960
 3479SOL    HW211726   4.882   1.830   5.851 -0.1299 -1.2466  1.7528
 3480SOL     OW11727   0.789   5.549   1.785  0.0646  0.3338 -0.0098
 3480SOL    HW111728   0.851   5.485   1.750 -0.1516 -0.9091  1.7316
 3480SOL    HW211729   0.776   5.612   1.714  2.8188  0.2982 -0.6680
 3481SOL     OW11730   6.301   7.130   3.493  0.4009  0.1167 -0.2484
 3481SOL    HW111731   6.341   7.180   3.563 -0.0202  0.2399 -0.0928
 3481SOL    HW211732   6.355   7.051   3.485  0.6730  0.2854 -0.0485
 3482SOL     OW11733   4.925   6.703   1.049 -0.0854 -0.1351  0.3975
 3482SOL    HW111734   4.891   6.781   1.005  1.3741  0.0941 -0.3673
 3482SOL    HW211735   4.933   6.729   1.141  1.7488  1.1552 -0.0704
 3483SOL     OW11736   2.509   1.533   5.656 -0.5816  0.5999 -0.0275
 3483SOL    HW111737   2.546   1.621   5.665  1.7627 -0.3878  0.5483
 3483SOL    HW211738   2.552   1.496   5.579 -1.6747 -0.0298 -0.3655
 3484SOL     OW11739   5.558   5.910   0.885 -0.5655 -0.2712 -0.0244
 3484SOL    HW111740   5.562   5.814   0.879  0.6178 -0.1493 -3.0805
 3484SOL    HW211741   5.626   5.932   0.948  1.5331 -1.4188 -1.7129
 3485SOL     OW11742   7.287   0.910   1.711  0.2353  0.1829  0.7333
 3485SOL    HW111743   7.349   0.962   1.659  0.2420 -0.4406  0.1035
 3485SOL    HW211744   7.285   0.954   1.796  0.0616  1.3502  0.1441
 3486SOL     OW11745   8.044   7.487   7.633 -0.0033 -0.2032  0.2249
 3486SOL    HW111746   8.044   7.500   7.538 -2.0666 -0.0382  0.1980
 3486SOL    HW211747   8.120   7.536   7.664  1.1918 -0.9414 -1.4067
 3487SOL     OW11748   0.440   1.037   6.060  0.1541  0.4086 -0.5125
 3487SOL    HW111749   0.514   1.051   6.000 -0.6515  0.5776 -1.4964
 3487SOL    HW211750   0.456   1.098   6.132  1.7014 -0.5540  0.0010
 3488SOL     OW11751   2.129   5.894   3.717  0.7488 -0.1460  0.2081
 3488SOL    HW111752   2.118   5.973   3.769  0.0258  1.1908 -1.8430
 3488SOL    HW211753   2.171   5.923   3.636 -0.4057 -1.6640 -1.0138
 3489SOL     OW11754   6.114   6.462   5.191 -0.2859 -0.3165 -0.1733
 3489SOL    HW111755   6.105   6.391   5.254 -1.2293  1.2270  1.5345
 3489SOL    HW211756   6.185   6.434   5.133 -0.8439 -2.7522  0.2161
 3490SOL     OW11757   3.849   6.694   6.697  0.4188 -0.5195 -0.9158
 3490SOL    HW111758   3.788   6.744   6.751 -0.0559 -0.7294 -1.2459
 3490SOL    HW211759   3.807   6.690   6.611  0.7338 -0.9686 -1.0523
 3491SOL     OW11760   8.217   4.301   5.326  0.0891 -0.4111  0.3399
 3491SOL    HW111761   8.165   4.239   5.276  1.3989 -2.1897  1.0954
 3491SOL    HW211762   8.179   4.387   5.304 -2.9568 -1.5523  0.6558
 3492SOL     OW11763   5.376   4.801   4.250  0.4060 -0.3384 -0.2667
 3492SOL    HW111764   5.420   4.720   4.228  2.5235  1.0190 -1.3672
 3492SOL    HW211765   5.426   4.838   4.323 -1.0508 -0.4019  0.8049
 3493SOL     OW11766   1.181   6.012   5.535 -0.1352 -0.7746 -0.3456
 3493SOL    HW111767   1.100   5.987   5.580  0.5211 -1.1602  0.6671
 3493SOL    HW211768   1.231   6.060   5.602  1.0427 -1.7000 -0.5344
 3494SOL     OW11769   5.802   4.406   5.679 -0.2454 -0.3539  0.1108
 3494SOL    HW111770   5.811   4.457   5.760  2.9379 -1.1716  0.4029
 3494SOL    HW211771   5.774   4.470   5.614  0.1778  1.0098  1.2003
 3495SOL     OW11772   2.066   8.423   2.853 -0.5131  0.0419 -0.2379
 3495SOL    HW111773   2.132   8.475   2.899 -2.9231  2.0301  1.2082
 3495SOL    HW211774   2.079   8.334   2.886  0.9615  0.5030  0.5314
 3496SOL     OW11775   2.213   3.965   2.941  0.2672  0.5469  0.2742
 3496SOL    HW111776   2.298   3.922   2.950  0.6270  1.4491  1.4269
 3496SOL    HW211777   2.152   3.893   2.923  1.4020  0.0036 -1.7315
 3497SOL     OW11778   7.543   3.932   3.786  0.2889 -0.5002  0.2594
 3497SOL    HW111779   7.480   3.874   3.743 -1.4834 -0.5650  2.7213
 3497SOL    HW211780   7.506   4.020   3.774 -0.0915 -0.4971  1.4101
 3498SOL     OW11781   5.457   8.310   1.226  0.2332 -0.0232  0.1286
 3498SOL    HW111782   5.402   8.389   1.227  1.7313  1.0570  0.3858
 3498SOL    HW211783   5.533   8.333   1.279 -0.1006 -2.2924  1.7075
 3499SOL     OW11784   8.236   0.322   7.620  0.7751  0.2633 -0.2677
 3499SOL    HW111785   8.288   0.383   7.672  2.1581 -1.1561  0.0886
 3499SOL    HW211786   8.164   0.297   7.677  1.6961 -0.4691  0.6079
 3500SOL     OW11787   7.112   6.397   6.249  0.7587 -0.0477 -0.1529
 3500SOL    HW111788   7.074   6.310   6.243  0.2108  0.1027  0.8871
 3500SOL    HW211789   7.133   6.421   6.159 -1.3077 -0.2659 -0.7292
 3501SOL     OW11790   1.378   1.431   3.635 -0.4894  0.5511 -0.6447
 3501SOL    HW111791   1.403   1.365   3.700 -1.9648 -0.0582 -0.6501
 3501SOL    HW211792   1.460   1.473   3.610  0.7241 -2.1173 -1.5530
 3502SOL     OW11793   3.563   8.262   7.710  0.3481  0.8015 -0.5886
 3502SOL    HW111794   3.550   8.167   7.713 -1.3346  1.0289  0.4981
 3502SOL    HW211795   3.641   8.277   7.765 -0.9434  0.2358  1.5328
 3503SOL     OW11796   5.650   4.446   2.990  0.4020  0.0246  0.0832
 3503SOL    HW111797   5.699   4.517   3.032 -0.6353  0.5582  0.4259
 3503SOL    HW211798   5.616   4.394   3.062  2.3356 -1.7307 -0.1472
 3504SOL     OW11799   5.297   7.227   0.452  0.0474 -0.1226 -0.2010
 3504SOL    HW111800   5.205   7.240   0.431 -0.4814  0.6756  2.2010
 3504SOL    HW211801   5.302   7.138   0.486  0.1106 -0.0792 -0.0953
 3505SOL     OW11802   7.036   8.273   3.354 -0.6773  0.1822  0.3462
 3505SOL    HW111803   7.073   8.208   3.293  0.0899  1.0101 -0.0874
 3505SOL    HW211804   6.943   8.249   3.360 -0.7125 -0.0804 -0.9532
 3506SOL     OW11805   7.901   2.567   7.186  0.0834  0.0967  0.2218
 3506SOL    HW111806   7.849   2.592   7.110  2.0552  0.8935 -0.9327
 3506SOL    HW211807   7.932   2.650   7.222  1.2016 -0.3800  0.3999
 3507SOL     OW11808   8.086   6.039   7.261 -0.0994 -0.1343  0.2164
 3507SOL    HW111809   8.056   5.976   7.326  0.4406  0.0032  0.6102
 3507SOL    HW211810   8.059   6.124   7.296 -0.1456 -0.0901  0.0731
 3508SOL     OW11811   6.933   6.849   7.539  0.1711  0.5972 -0.0442
 3508SOL    HW111812   6.931   6.844   7.635 -1.3888  2.0415  0.0460
 3508SOL    HW211813   6.847   6.817   7.512  0.8446 -0.4216 -1.0193
 3509SOL     OW11814   3.754   7.637   0.893 -0.4850  0.4328 -0.2873
 3509SOL    HW111815   3.707   7.704   0.843  0.3185 -0.1522 -1.8956
 3509SOL    HW211816   3.791   7.579   0.826  1.5072  0.1927  0.9589
 3510SOL     OW11817   8.444   5.665   1.174  0.7769  0.3559  0.5028
 3510SOL    HW111818   8.540   5.659   1.177  0.6816 -2.2103  0.4083
 3510SOL    HW211819   8.421   5.635   1.086 -0.1403  0.8087  0.5775
 3511SOL     OW11820   2.925   6.757   5.488  0.5308 -0.8275 -0.1484
 3511SOL    HW111821   2.999   6.722   5.536 -0.1237 -0.5479  1.1164
 3511SOL    HW211822   2.908   6.693   5.419  1.1792 -1.5013  0.3014
 3512SOL     OW11823   4.965   5.683   3.463  0.8475  0.6356 -0.0294
 3512SOL    HW111824   5.034   5.741   3.492  1.9412  0.3347 -1.8843
 3512SOL    HW211825   5.006   5.626   3.398 -0.9329 -0.1466 -0.5559
 3513SOL     OW11826   5.863   2.474   4.020  0.4440 -0.4784 -0.5894
 3513SOL    HW111827   5.802   2.533   4.063  0.1341 -1.5998  0.5933
 3513SOL    HW211828   5.931   2.456   4.086  0.2420 -1.8256 -0.7044
 3514SOL     OW11829   5.181   3.525   6.372  0.8493  0.3160  0.1298
 3514SOL    HW111830   5.086   3.513   6.378  1.0358 -0.8231  0.9688
 3514SOL    HW211831   5.195   3.618   6.393  0.0192  0.2200  1.1630
 3515SOL     OW11832   4.189   6.602   5.109  0.4879 -0.2956 -0.7194
 3515SOL    HW111833   4.126   6.651   5.056  1.0371 -0.1108 -1.2068
 3515SOL    HW211834   4.274   6.627   5.074  0.7571 -3.2449 -2.4948
 3516SOL     OW11835   0.426   1.402   6.813 -0.0870  0.2335  0.4054
 3516SOL    HW111836   0.502   1.363   6.771 -0.2662  0.6354 -0.2997
 3516SOL    HW211837   0.416   1.353   6.895  0.7153 -0.0526  0.3391
 3517SOL     OW11838   7.489   3.644   5.302 -0.3842 -0.1955 -0.3272
 3517SOL    HW111839   7.415   3.692   5.340  0.8758  1.5709 -0.0104
 3517SOL    HW211840   7.499   3.567   5.359 -1.9249 -0.4563 -0.3637
 3518SOL     OW11841   3.951   4.020   8.191 -0.5290  0.2373  0.0807
 3518SOL    HW111842   3.856   4.033   8.194 -0.8468 -1.0099 -2.1731
 3518SOL    HW211843   3.983   4.063   8.270 -2.9166  1.0294  0.7262
 3519SOL     OW11844   6.665   7.149   2.223 -0.0641  0.2768 -0.2273
 3519SOL    HW111845   6.637   7.189   2.141 -0.0179  0.9833  0.0948
 3519SOL    HW211846   6.684   7.223   2.281  0.9968 -0.1971  0.0623
 3520SOL     OW11847   7.335   1.999   4.293 -0.1031 -0.3881  0.2228
 3520SOL    HW111848   7.293   2.080   4.321 -1.3868 -1.0575  0.2835
 3520SOL    HW211849   7.397   2.026   4.226  0.0553  0.7299  0.7943
 3521SOL     OW11850   4.206   8.139   3.577 -0.0404  0.4883  0.7181
 3521SOL    HW111851   4.156   8.073   3.626  1.1410 -0.2944  0.9070
 3521SOL    HW211852   4.150   8.161   3.502 -0.0738 -1.4297  0.1340
 3522SOL     OW11853   5.986   5.826   7.660 -0.1772  0.3103 -0.1309
 3522SOL    HW111854   5.938   5.800   7.581  0.2715 -0.1464 -0.2516
 3522SOL    HW211855   6.039   5.750   7.683 -0.1294  0.5242  0.4809
 3523SOL     OW11856   5.807   5.112   0.063  0.8582  0.4542  0.1808
 3523SOL    HW111857   5.874   5.073   0.120 -1.1500 -0.1846  2.2757
 3523SOL    HW211858   5.734   5.050   0.067 -0.3046  1.6778 -1.0891
 3524SOL     OW11859   8.390   6.878   6.264  0.1795  0.5707 -0.1077
 3524SOL    HW111860   8.306   6.924   6.276  0.5807  0.7417  2.9247
 3524SOL    HW211861   8.381   6.799   6.318  2.1574  0.9267  0.8159
 3525SOL     OW11862   5.829   8.713   4.986  0.5803 -0.5245 -0.3513
 3525SOL    HW111863   5.753   8.665   4.951 -0.3649  1.2471 -0.8457
 3525SOL    HW211864   5.882   8.645   5.029 -1.1656 -1.8550 -0.1568
 3526SOL     OW11865   5.079   6.115   7.223  0.4299 -0.7207 -0.2676
 3526SOL    HW111866   4.988   6.124   7.196  0.8908 -0.8636 -1.9646
 3526SOL    HW211867   5.085   6.165   7.304 -0.8676  0.3469 -0.8014
 3527SOL     OW11868   7.659   5.946   7.389 -0.6302  0.1668  0.1515
 3527SOL    HW111869   7.565   5.959   7.385 -0.6931 -0.5168 -1.6373
 3527SOL    HW211870   7.696   6.028   7.354 -0.6227 -0.0815 -0.4336
 3528SOL     OW11871   2.848   0.528   1.285 -0.0934  0.6876  0.3381
 3528SOL    HW111872   2.807   0.527   1.371  2.2151 -0.8450  1.5238
 3528SOL    HW211873   2.849   0.436   1.258  0.5459  0.9658 -0.6464
 3529SOL     OW11874   7.694   7.225   4.337 -0.2996 -0.0829 -0.1531
 3529SOL    HW111875   7.601   7.219   4.360 -0.3064 -1.3386 -0.3911
 3529SOL    HW211876   7.732   7.282   4.403 -1.2164  0.3139  0.0402
 3530SOL     OW11877   5.220   5.340   2.902 -0.5718  0.0592 -0.0333
 3530SOL    HW111878   5.234   5.250   2.871  0.1728 -0.4740  1.6944
 3530SOL    HW211879   5.125   5.347   2.913 -0.5786 -0.8820  0.7323
 3531SOL     OW11880   2.164   1.300   0.674 -0.0433 -0.0638 -0.6857
 3531SOL    HW111881   2.093   1.327   0.734  0.6014 -0.5816  0.3395
 3531SOL    HW211882   2.134   1.217   0.638 -0.2139 -0.0024 -0.6868
 3532SOL     OW11883   2.275   4.645   2.672  0.1194  0.1101  0.2519
 3532SOL    HW111884   2.311   4.727   2.638  0.6283 -0.5592 -0.8664
 3532SOL    HW211885   2.349   4.585   2.671 -0.2764 -0.4052  0.9754
 3533SOL     OW11886   5.798   4.192   0.189 -0.1545 -0.4584 -0.2102
 3533SOL    HW111887   5.765   4.192   0.099  0.5973  1.0262 -0.5271
 3533SOL    HW211888   5.862   4.121   0.191  0.2147 -0.1628 -1.0107
 3534SOL     OW11889   6.863   0.268   4.097  0.4597 -0.4277  0.2590
 3534SOL    HW111890   6.956   0.281   4.082  0.2222 -0.3021 -1.2263
 3534SOL    HW211891   6.846   0.310   4.182  1.6592 -0.0886  0.3427
 3535SOL     OW11892   8.355   5.691   6.744  0.3358  0.3021 -0.2259
 3535SOL    HW111893   8.357   5.615   6.801  0.0101  0.0108 -0.5940
 3535SOL    HW211894   8.381   5.764   6.800  0.5334 -0.0571  0.1595
 3536SOL     OW11895   4.773   0.155   5.682  0.0269 -0.1035  0.1038
 3536SOL    HW111896   4.802   0.073   5.723  2.0237  0.5854  0.1921
 3536SOL    HW211897   4.855   0.201   5.661 -0.9946  0.7552 -2.2476
 3537SOL     OW11898   2.434   0.370   7.883 -0.0706 -0.5039 -0.1119
 3537SOL    HW111899   2.390   0.376   7.798  1.4304 -0.9516 -0.9667
 3537SOL    HW211900   2.522   0.405   7.866  0.0187  0.0753  1.4532
 3538SOL     OW11901   7.224   0.098   4.642 -0.0583 -0.0707 -0.6014
 3538SOL    HW111902   7.228   0.133   4.731  0.3194 -1.1227 -0.1960
 3538SOL    HW211903   7.218   0.176   4.587 -0.8861  0.5688  0.3654
 3539SOL     OW11904   4.087   8.258   0.180 -0.2964 -0.0273  0.5583
 3539SOL    HW111905   4.030   8.185   0.204 -1.3203  1.3980  2.7708
 3539SOL    HW211906   4.054   8.287   0.095 -0.5710 -1.4150  0.1627
 3540SOL     OW11907   0.415   7.492   5.495 -0.0167 -0.5334  0.3702
 3540SOL    HW111908   0.432   7.419   5.554 -1.9225 -0.4550  1.0572
 3540SOL    HW211909   0.321   7.489   5.478  0.2356  0.3334 -1.5143
 3541SOL     OW11910   1.606   7.451   6.219 -0.0044 -0.8041  0.6048
 3541SOL    HW111911   1.615   7.530   6.272 -0.1770 -0.4009  0.0398
 3541SOL    HW211912   1.523   7.412   6.250 -0.8444  0.1821 -0.3331
 3542SOL     OW11913   4.418   7.172   1.007  0.6849  0.3729 -0.0317
 3542SOL    HW111914   4.353   7.110   0.975  1.1101 -0.1379  0.0737
 3542SOL    HW211915   4.438   7.227   0.931  1.4366 -0.6104 -0.5782
 3543SOL     OW11916   7.184   0.533   0.177 -0.3233  0.0393 -0.2785
 3543SOL    HW111917   7.120   0.551   0.245  1.6290  0.3549  1.5974
 3543SOL    HW211918   7.262   0.582   0.204  0.3111  0.8143 -3.1836
 3544SOL     OW11919   3.785   5.589   1.741 -0.6928 -0.7479 -0.0813
 3544SOL    HW111920   3.690   5.599   1.731 -0.6067  0.1523 -0.0367
 3544SOL    HW211921   3.795   5.529   1.814 -1.2267  0.0908  0.7071
 3545SOL     OW11922   0.691   1.806   5.116 -0.1893  0.1329 -0.0121
 3545SOL    HW111923   0.654   1.780   5.032  0.2020  0.2262 -0.2118
 3545SOL    HW211924   0.676   1.730   5.173 -0.5267  0.1011 -0.1399
 3546SOL     OW11925   3.750   5.445   4.785  0.5054 -0.7886  0.3000
 3546SOL    HW111926   3.704   5.465   4.867 -0.9160 -0.8714 -0.4494
 3546SOL    HW211927   3.723   5.356   4.763  0.0266 -0.3820 -0.8052
 3547SOL     OW11928   5.328   8.545   6.200  0.2275 -0.1073  0.1839
 3547SOL    HW111929   5.270   8.476   6.167  0.1275  0.4331 -0.8156
 3547SOL    HW211930   5.282   8.626   6.180  1.5047  0.3577 -1.0747
 3548SOL     OW11931   8.077   6.675   0.699  0.2863  0.3595 -0.2449
 3548SOL    HW111932   8.058   6.639   0.786 -0.8863  1.0647 -0.1831
 3548SOL    HW211933   8.136   6.749   0.715  2.0860 -0.9910 -0.3051
 3549SOL     OW11934   3.544   5.343   4.124 -0.0306 -0.2685 -0.1519
 3549SOL    HW111935   3.486   5.312   4.054 -1.7459  0.2671  0.9763
 3549SOL    HW211936   3.562   5.435   4.102 -1.5410  0.2583  0.6741
 3550SOL     OW11937   6.817   4.966   4.504  0.0846 -0.0906 -0.1698
 3550SOL    HW111938   6.845   5.053   4.533 -1.3253  0.7798 -1.2596
 3550SOL    HW211939   6.739   4.948   4.556 -0.9541  0.3459 -1.5122
 3551SOL     OW11940   3.916   7.294   0.678 -0.3814 -0.3831 -0.3323
 3551SOL    HW111941   3.989   7.316   0.620 -0.5752 -2.9372 -1.6936
 3551SOL    HW211942   3.838   7.316   0.629 -0.5448  0.0923  0.1344
 3552SOL     OW11943   8.300   0.392   5.152  0.0479 -0.0958  0.4423
 3552SOL    HW111944   8.258   0.467   5.109 -0.8676 -0.1233  1.2320
 3552SOL    HW211945   8.239   0.369   5.223 -0.0798 -2.0552 -0.2376
 3553SOL     OW11946   6.773   2.297   3.269 -0.3233 -0.0698  0.1669
 3553SOL    HW111947   6.809   2.349   3.341  0.3727  0.2100 -0.3685
 3553SOL    HW211948   6.845   2.239   3.243 -0.9714 -1.0667  0.5221
 3554SOL     OW11949   3.933   6.204   7.802  0.3200  0.5362 -0.0135
 3554SOL    HW111950   3.971   6.144   7.866  1.7022  0.5086 -0.8237
 3554SOL    HW211951   3.955   6.166   7.717 -1.5416  0.5320 -0.5417
 3555SOL     OW11952   3.362   6.814   7.772 -0.6742 -0.5984  0.0709
 3555SOL    HW111953   3.369   6.862   7.855  1.9741  1.4101 -1.1721
 3555SOL    HW211954   3.328   6.879   7.710  1.2236 -0.7991 -1.2568
 3556SOL     OW11955   3.108   8.150   6.682  0.3719 -0.1192  0.1830
 3556SOL    HW111956   3.163   8.214   6.637 -1.8132  1.4382 -0.4647
 3556SOL    HW211957   3.098   8.079   6.619  1.0093 -0.0706  0.0188
 3557SOL     OW11958   6.176   3.678   4.349  0.2212 -0.2462  0.0818
 3557SOL    HW111959   6.161   3.672   4.443 -0.5182  1.1898  0.0789
 3557SOL    HW211960   6.256   3.627   4.335  0.5893 -0.1329  1.5548
 3558SOL     OW11961   6.099   3.001   0.989  0.2254  0.4543 -0.0600
 3558SOL    HW111962   6.147   3.084   0.983  0.8831 -0.0025 -1.8863
 3558SOL    HW211963   6.118   2.957   0.906 -0.0080 -1.5883  0.9267
 3559SOL     OW11964   4.052   5.376   5.095  0.7006  0.3552  0.2300
 3559SOL    HW111965   3.960   5.349   5.100  1.0392 -0.9325  0.0843
 3559SOL    HW211966   4.050   5.471   5.103 -0.6038  0.3125  0.7257
 3560SOL     OW11967   1.617   4.278   3.337 -0.4119  0.3873  0.7203
 3560SOL    HW111968   1.621   4.366   3.299  2.3583  0.3352  0.6413
 3560SOL    HW211969   1.626   4.220   3.262  1.4015  0.1963  1.0266
 3561SOL     OW11970   6.685   2.027   4.122  0.3221  0.1791 -0.4736
 3561SOL    HW111971   6.686   1.935   4.096 -2.3338  0.4188 -1.7581
 3561SOL    HW211972   6.769   2.061   4.092  1.1902 -1.7010 -0.3351
 3562SOL     OW11973   5.941   5.408   0.406 -0.6437 -0.5112 -0.2425
 3562SOL    HW111974   5.885   5.407   0.328 -0.3820  0.2687 -0.4461
 3562SOL    HW211975   6.028   5.431   0.373 -0.6639  0.4672  0.3611
 3563SOL     OW11976   0.985   4.718   7.481  0.3652 -0.3029  0.3421
 3563SOL    HW111977   1.050   4.649   7.496  0.1773 -0.4794  0.3548
 3563SOL    HW211978   1.035   4.789   7.441  0.6137 -0.3397  0.5799
 3564SOL     OW11979   2.675   4.101   0.462  0.2585  0.3086 -0.2515
 3564SOL    HW111980   2.734   4.121   0.389  2.0109 -2.2193  0.3410
 3564SOL    HW211981   2.697   4.011   0.487  0.6843  1.4108  4.2430
 3565SOL     OW11982   3.226   1.306   4.555  0.6581 -0.2038  0.3811
 3565SOL    HW111983   3.190   1.252   4.626  0.7829  0.4447  0.9456
 3565SOL    HW211984   3.218   1.396   4.587  1.1924  0.0603 -0.2137
 3566SOL     OW11985   8.372   7.729   0.626  0.1148 -0.2087 -0.4394
 3566SOL    HW111986   8.287   7.767   0.646 -0.0652 -0.7194 -0.2204
 3566SOL    HW211987   8.387   7.665   0.695  0.5426 -0.3378 -0.6456
 3567SOL     OW11988   4.969   0.984   2.524 -0.3741  0.4192  0.4744
 3567SOL    HW111989   5.040   1.032   2.483 -0.1667 -0.1936  0.0911
 3567SOL    HW211990   5.013   0.926   2.587 -0.4432 -0.4795 -0.2708
 3568SOL     OW11991   0.513   3.693   4.387  0.3185  0.4436  0.2134
 3568SOL    HW111992   0.579   3.663   4.449  1.3341 -0.2364 -1.1395
 3568SOL    HW211993   0.562   3.706   4.305 -0.8176  2.1144 -0.2390
 3569SOL     OW11994   1.601   2.239   0.067 -0.3676 -0.5116 -0.4504
 3569SOL    HW111995   1.620   2.295  -0.008 -0.4045  0.8132  0.4893
 3569SOL    HW211996   1.536   2.288   0.118 -0.0190 -1.1687  0.6695
 3570SOL     OW11997   4.884   7.365   8.676 -0.9256 -0.1473 -0.4878
 3570SOL    HW111998   4.958   7.418   8.704  0.2237 -1.4921 -0.8621
 3570SOL    HW211999   4.896   7.355   8.581 -0.0201 -2.5625 -0.2056
 3571SOL     OW12000   4.364   1.648   3.934  0.0253  0.1072 -0.6556
 3571SOL    HW112001   4.328   1.579   3.990 -1.5768  0.6283 -0.9806
 3571SOL    HW212002   4.314   1.641   3.853  0.2085  1.2983 -0.8906
 3572SOL     OW12003   3.106   3.720   5.747 -0.2930  0.3726 -0.3769
 3572SOL    HW112004   3.193   3.708   5.708  0.8000  2.0685  1.3449
 3572SOL    HW212005   3.046   3.717   5.673  0.8763 -3.3857 -1.3884
 3573SOL     OW12006   0.169   3.749   8.267 -0.1118 -0.0972 -0.0397
 3573SOL    HW112007   0.081   3.771   8.237 -0.2122  1.1652  1.1103
 3573SOL    HW212008   0.227   3.785   8.199 -0.4621 -1.6596 -1.2290
 3574SOL     OW12009   0.751   2.266   7.584 -0.2878  0.2985 -0.3300
 3574SOL    HW112010   0.682   2.215   7.542 -1.2324  1.8855 -0.7478
 3574SOL    HW212011   0.830   2.212   7.573 -1.1733 -0.8979 -1.0682
 3575SOL     OW12012   2.281   2.839   7.469 -0.6917 -0.4052 -0.2938
 3575SOL    HW112013   2.296   2.930   7.496  0.1587  0.0492 -2.1480
 3575SOL    HW212014   2.291   2.788   7.549  3.1931  0.6684  0.0903
 3576SOL     OW12015   5.213   3.438   2.097 -0.4771 -0.0734  0.2073
 3576SOL    HW112016   5.128   3.427   2.139 -0.6732 -0.9460 -0.3870
 3576SOL    HW212017   5.259   3.356   2.115  0.6717  0.7964  1.4468
 3577SOL     OW12018   2.291   2.708   4.294  0.3488 -0.3966 -0.2538
 3577SOL    HW112019   2.328   2.690   4.208  1.4686  0.0407  0.1233
 3577SOL    HW212020   2.297   2.804   4.303  2.7270 -0.6176  1.3582
 3578SOL     OW12021   1.498   0.921   2.124 -0.4989 -0.2623  0.0671
 3578SOL    HW112022   1.467   0.933   2.034  0.6004 -0.3641 -0.3353
 3578SOL    HW212023   1.581   0.969   2.128 -0.5026 -0.3038  1.0125
 3579SOL     OW12024   0.688   8.343   8.422 -0.4145  0.2572  0.3939
 3579SOL    HW112025   0.769   8.389   8.399  0.0393 -0.8827 -0.3572
 3579SOL    HW212026   0.691   8.263   8.370 -1.5844 -0.2353  1.0710
 3580SOL     OW12027   7.389   8.449   7.633 -0.6632  0.1696 -0.1588
 3580SOL    HW112028   7.419   8.540   7.631  1.7912 -0.5215  0.9988
 3580SOL    HW212029   7.402   8.418   7.544 -0.8764  0.7704 -0.4067
 3581SOL     OW12030   3.228   5.305   7.559 -0.1924 -0.1416  0.2420
 3581SOL    HW112031   3.303   5.315   7.501 -0.8631 -0.0260 -0.6226
 3581SOL    HW212032   3.216   5.210   7.568 -0.5348 -0.1627 -0.4071
 3582SOL     OW12033   2.267   4.732   5.469 -0.5769 -0.1900  0.1540
 3582SOL    HW112034   2.249   4.758   5.379 -1.1727  0.1471  0.3572
 3582SOL    HW212035   2.253   4.812   5.520 -0.9103 -0.5390  0.6198
 3583SOL     OW12036   2.099   5.749   6.300  0.1811  0.1368 -0.3708
 3583SOL    HW112037   2.159   5.739   6.226  0.3255  1.0874 -0.3895
 3583SOL    HW212038   2.144   5.809   6.360 -0.4879  0.3837 -0.1082
 3584SOL     OW12039   2.685   4.112   4.089 -0.0537  0.0615 -0.1775
 3584SOL    HW112040   2.639   4.161   4.157 -0.8705 -2.0440  0.8941
 3584SOL    HW212041   2.740   4.177   4.045 -1.1827  1.9251  1.0223
 3585SOL     OW12042   2.906   0.296   7.811  0.0507 -0.0684 -0.3253
 3585SOL    HW112043   2.931   0.346   7.890 -1.1039 -3.2482  2.2662
 3585SOL    HW212044   2.988   0.285   7.763  0.7108  2.3636  0.0629
 3586SOL     OW12045   5.733   5.420   2.018 -0.1324 -0.2607 -0.2763
 3586SOL    HW112046   5.646   5.436   1.979 -0.4593 -0.9776  0.1363
 3586SOL    HW212047   5.724   5.447   2.109  0.2149  0.0872 -0.3450
 3587SOL     OW12048   6.208   3.145   8.280 -0.0157  0.0180 -0.0760
 3587SOL    HW112049   6.133   3.193   8.247  0.4690  0.3294 -0.7540
 3587SOL    HW212050   6.283   3.200   8.259  0.3615  0.0190  1.1668
 3588SOL     OW12051   6.898   2.174   4.016 -0.1780  0.2086 -0.1143
 3588SOL    HW112052   6.975   2.131   3.980 -0.1417  0.2547 -0.0917
 3588SOL    HW212053   6.845   2.196   3.939 -0.4833 -0.4150 -0.0916
 3589SOL     OW12054   0.674   1.642   4.602 -0.0856 -0.2096  0.0912
 3589SOL    HW112055   0.630   1.559   4.619 -2.2580  0.5923 -1.2404
 3589SOL    HW212056   0.749   1.619   4.547 -0.4135 -1.3362  0.1001
 3590SOL     OW12057   8.007   1.951   1.413 -0.0255 -0.7717 -0.2945
 3590SOL    HW112058   7.985   1.911   1.497 -0.6687 -2.6230 -1.2941
 3590SOL    HW212059   8.076   2.015   1.434 -1.0070 -0.3164  1.7856
 3591SOL     OW12060   2.819   0.925   4.215  0.2517  0.1424 -1.0680
 3591SOL    HW112061   2.764   0.943   4.292  0.0196 -1.1487 -0.9053
 3591SOL    HW212062   2.756   0.898   4.147  0.5643  0.1651 -1.3697
 3592SOL     OW12063   0.750   0.832   3.345 -0.1323  0.8936 -0.7935
 3592SOL    HW112064   0.708   0.918   3.353 -2.9980 -0.6045  2.0466
 3592SOL    HW212065   0.809   0.827   3.420 -0.9014 -0.0459 -0.2313
 3593SOL     OW12066   7.354   0.461   6.243  0.4876 -0.4007 -0.3977
 3593SOL    HW112067   7.371   0.369   6.262 -0.0654 -0.3680  0.3337
 3593SOL    HW212068   7.437   0.505   6.261  0.5859 -0.6795 -0.1568
 3594SOL     OW12069   7.240   1.294   2.992  0.2846  0.2958 -0.0669
 3594SOL    HW112070   7.233   1.380   2.951  0.3450  0.6374  0.6243
 3594SOL    HW212071   7.226   1.310   3.085 -1.1673 -0.6552 -0.0925
 3595SOL     OW12072   3.146   0.645   0.171  0.1444 -0.7364 -0.4059
 3595SOL    HW112073   3.159   0.707   0.243 -0.4932 -2.4044  1.2288
 3595SOL    HW212074   3.056   0.662   0.142 -0.1904 -1.1893  0.3466
 3596SOL     OW12075   2.428   0.773   4.237 -0.0807  0.3232 -0.1976
 3596SOL    HW112076   2.349   0.826   4.247  0.2259  0.6409  0.6507
 3596SOL    HW212077   2.485   0.827   4.182 -0.5553 -0.0360 -1.0639
 3597SOL     OW12078   5.848   3.329   3.789  0.8957 -0.1776 -0.2067
 3597SOL    HW112079   5.773   3.330   3.849  0.4220  0.2650 -0.7939
 3597SOL    HW212080   5.917   3.375   3.836  0.4169  0.4802 -0.1344
 3598SOL     OW12081   3.748   7.890   6.623  0.3311 -0.3631 -0.7004
 3598SOL    HW112082   3.805   7.899   6.699  1.8816  1.7662 -2.0161
 3598SOL    HW212083   3.708   7.803   6.633  2.1528 -1.0426  1.3863
 3599SOL     OW12084   1.479   8.117   5.694  0.5029  0.2787  0.2037
 3599SOL    HW112085   1.459   8.067   5.614 -0.8115  1.2871 -0.1336
 3599SOL    HW212086   1.573   8.102   5.708  0.1500 -2.5068  0.2984
 3600SOL     OW12087   4.770   0.909   8.545  0.2660 -0.4401  0.0693
 3600SOL    HW112088   4.768   0.998   8.580 -1.1207 -0.1955 -0.5673
 3600SOL    HW212089   4.862   0.894   8.521  0.5725  0.6785  0.4981
 3601SOL     OW12090   4.413   7.519   1.516 -0.1343  0.0033 -0.2285
 3601SOL    HW112091   4.472   7.492   1.446  0.4089 -1.4631  0.7352
 3601SOL    HW212092   4.456   7.488   1.596  0.0842  2.9793  0.9565
 3602SOL     OW12093   8.409   1.701   4.672 -0.1550  0.2335 -0.5656
 3602SOL    HW112094   8.360   1.783   4.665 -1.3614 -0.2332  1.4741
 3602SOL    HW212095   8.343   1.635   4.696  1.2767 -0.5722  1.5383
 3603SOL     OW12096   3.324   6.965   6.908  0.5472 -1.1115 -0.6470
 3603SOL    HW112097   3.338   6.895   6.971  0.1422  0.4917  1.3470
 3603SOL    HW212098   3.398   7.025   6.922 -0.7707  0.4361  0.0378
 3604SOL     OW12099   4.206   0.167   5.460 -0.3042  0.4076  0.5950
 3604SOL    HW112100   4.226   0.154   5.368 -0.7053  0.0950  0.5491
 3604SOL    HW212101   4.292   0.167   5.504 -0.1840 -0.6951  0.3789
 3605SOL     OW12102   5.947   2.273   3.385  0.2079  0.0531  0.5894
 3605SOL    HW112103   5.939   2.233   3.472  1.4842 -0.5868  0.4392
 3605SOL    HW212104   5.872   2.238   3.336  0.5191 -1.0734  0.8906
 3606SOL     OW12105   2.425   3.075   7.338  0.1961 -0.0693  0.2723
 3606SOL    HW112106   2.391   2.988   7.317  0.2124  0.1423 -0.6949
 3606SOL    HW212107   2.348   3.127   7.358  0.1989 -0.3466  1.0059
 3607SOL     OW12108   7.459   5.330   7.341 -0.4832 -0.6452  0.2074
 3607SOL    HW112109   7.429   5.410   7.383 -0.5970 -0.1162 -0.8385
 3607SOL    HW212110   7.509   5.360   7.265 -0.7365 -1.5685 -0.3466
 3608SOL     OW12111   7.638   0.174   8.671  0.0747  0.2758 -0.2240
 3608SOL    HW112112   7.578   0.194   8.743  1.7068  1.2747  0.9352
 3608SOL    HW212113   7.596   0.102   8.624 -1.8025  0.6572  0.7677
 3609SOL     OW12114   5.111   0.599   7.933  0.2477  0.2569 -0.1045
 3609SOL    HW112115   5.188   0.552   7.966 -0.3585 -1.2845 -0.8012
 3609SOL    HW212116   5.057   0.531   7.893  1.2957  1.9111 -5.1127
 3610SOL     OW12117   2.445   6.332   1.626 -0.4374 -0.2838  0.5386
 3610SOL    HW112118   2.514   6.338   1.691  0.0024  1.0109 -0.0090
 3610SOL    HW212119   2.445   6.418   1.583 -0.5050 -1.1891 -1.3706
 3611SOL     OW12120   7.849   5.315   4.277  0.5776 -0.9017 -0.1443
 3611SOL    HW112121   7.807   5.237   4.313  0.3989 -2.3702 -3.2653
 3611SOL    HW212122   7.792   5.387   4.302 -0.4108 -2.0318  0.9835
 3612SOL     OW12123   4.418   8.254   6.573  0.2520 -0.1743  0.0963
 3612SOL    HW112124   4.361   8.191   6.617 -2.5703  2.2188  0.1920
 3612SOL    HW212125   4.499   8.252   6.624 -0.3953 -2.3737  1.1649
 3613SOL     OW12126   7.982   7.908   5.466 -0.1105 -0.0852 -0.2590
 3613SOL    HW112127   7.984   7.931   5.373  0.6459  0.1304 -0.1914
 3613SOL    HW212128   7.909   7.959   5.501  0.8782  1.4158 -0.3267
 3614SOL     OW12129   5.283   8.356   4.951  0.3348  0.0057  0.1751
 3614SOL    HW112130   5.190   8.372   4.967 -0.2011 -0.7204 -1.9141
 3614SOL    HW212131   5.306   8.287   5.014 -0.4426  0.3838  0.8954
 3615SOL     OW12132   7.975   2.671   3.163 -0.5094 -0.5680 -0.3168
 3615SOL    HW112133   7.994   2.762   3.188 -1.4006 -1.1499  3.0143
 3615SOL    HW212134   8.053   2.622   3.188 -0.5781 -0.9166 -0.7786
 3616SOL     OW12135   5.691   0.058   5.323 -0.5380  0.1459  0.0035
 3616SOL    HW112136   5.704  -0.034   5.303  0.1720 -0.1890  1.8232
 3616SOL    HW212137   5.648   0.058   5.409  0.1504  1.5071  0.3712
 3617SOL     OW12138   2.825   8.585   0.426 -0.6269  0.6631 -0.0766
 3617SOL    HW112139   2.749   8.616   0.376 -0.5963  0.7064 -0.0965
 3617SOL    HW212140   2.886   8.659   0.423 -0.0070  0.1177 -1.2540
 3618SOL     OW12141   0.791   5.684   4.791 -0.0380 -0.2561 -0.0994
 3618SOL    HW112142   0.816   5.772   4.818  0.3772  0.0488 -1.4454
 3618SOL    HW212143   0.861   5.628   4.826 -0.3721 -0.0874  0.8697
 3619SOL     OW12144   4.066   8.009   6.532 -0.0958 -0.1187 -0.1740
 3619SOL    HW112145   4.094   8.011   6.441  2.4458  0.6473  0.5311
 3619SOL    HW212146   3.980   8.050   6.532  1.1743  2.8857 -1.8619
 3620SOL     OW12147   4.603   3.182   7.518  0.2061  0.4567  0.2002
 3620SOL    HW112148   4.569   3.217   7.436 -0.9993 -0.9880  0.0484
 3620SOL    HW212149   4.535   3.201   7.583 -0.6244 -1.7109  0.0628
 3621SOL     OW12150   4.576   3.443   3.005  0.1917 -0.2333 -0.1607
 3621SOL    HW112151   4.656   3.392   2.989  0.9091 -0.3060  2.9495
 3621SOL    HW212152   4.568   3.499   2.928  1.3094 -2.5759 -2.1199
 3622SOL     OW12153   5.458   2.550   7.532 -0.1388  0.3245 -0.4212
 3622SOL    HW112154   5.489   2.465   7.501 -0.0616  0.7572 -1.5539
 3622SOL    HW212155   5.363   2.538   7.543 -0.2240  0.2504 -1.1599
 3623SOL     OW12156   8.575   8.362   8.146 -0.4942  0.0464 -0.2078
 3623SOL    HW112157   8.624   8.444   8.148  0.7459 -0.6103 -1.4410
 3623SOL    HW212158   8.508   8.372   8.213  1.2662  1.0352  1.5035
 3624SOL     OW12159   7.170   3.939   2.018 -0.0507  0.2126 -0.0857
 3624SOL    HW112160   7.231   3.885   1.967  0.9663 -0.6194  1.8880
 3624SOL    HW212161   7.087   3.893   2.013 -0.0928  0.3939 -1.3339
 3625SOL     OW12162   8.446   4.699   1.622 -0.3720  0.4039  0.6930
 3625SOL    HW112163   8.447   4.670   1.531  0.7024  0.4061  0.6908
 3625SOL    HW212164   8.470   4.621   1.673 -0.5977  0.4947  0.9402
 3626SOL     OW12165   1.430   7.773   8.244 -0.0940 -0.6050 -0.1433
 3626SOL    HW112166   1.496   7.832   8.208 -0.0777 -0.8294 -0.4897
 3626SOL    HW212167   1.376   7.829   8.301  0.7162 -0.5357  0.5728
 3627SOL     OW12168   0.987   7.151   4.081  0.4664  0.0696  0.3126
 3627SOL    HW112169   0.956   7.071   4.124 -0.1651  0.3538  0.3898
 3627SOL    HW212170   1.014   7.121   3.994 -0.8570 -0.0479 -0.0817
 3628SOL     OW12171   1.706   4.080   1.329 -0.0888 -0.1852 -0.6631
 3628SOL    HW112172   1.641   4.092   1.259 -0.4995  1.7174 -0.0171
 3628SOL    HW212173   1.664   4.115   1.407  1.3686  0.2298 -0.0307
 3629SOL     OW12174   3.064   2.466   3.310  0.2377 -0.1655 -0.1764
 3629SOL    HW112175   3.159   2.457   3.299  0.5071  1.2496  0.7370
 3629SOL    HW212176   3.044   2.411   3.386  0.6132  0.7526  0.6155
 3630SOL     OW12177   7.132   2.250   4.709 -0.3062  0.1720  0.2228
 3630SOL    HW112178   7.186   2.282   4.781 -1.6378  0.9772  0.9103
 3630SOL    HW212179   7.044   2.243   4.746 -0.5206 -2.1303 -0.5679
 3631SOL     OW12180   0.279   7.579   4.462 -0.0474  0.0405  0.3496
 3631SOL    HW112181   0.200   7.549   4.506 -0.1251  1.3789  1.1761
 3631SOL    HW212182   0.283   7.673   4.481  0.4126  0.5029 -1.7508
 3632SOL     OW12183   6.281   0.523   5.563  0.2643  0.2365 -0.1285
 3632SOL    HW112184   6.292   0.547   5.471  0.2338  0.5779 -0.0473
 3632SOL    HW212185   6.211   0.580   5.594  0.8716  0.7533  0.3305
 3633SOL     OW12186   0.806   3.258   6.122 -0.1831  0.0792  0.4798
 3633SOL    HW112187   0.868   3.321   6.159  0.5853  0.3820 -1.2108
 3633SOL    HW212188   0.733   3.312   6.091 -0.3471 -0.0621  0.6182
 3634SOL     OW12189   8.481   1.022   6.923 -0.6374  0.2441  0.1104
 3634SOL    HW112190   8.470   0.973   6.842 -1.2053  0.2418  0.1887
 3634SOL    HW212191   8.412   1.089   6.920 -1.7514 -0.7980  1.3666
 3635SOL     OW12192   4.123   2.587   7.954  0.4311 -0.2585  0.3371
 3635SOL    HW112193   4.138   2.537   7.874  0.5936  0.7467 -0.2832
 3635SOL    HW212194   4.028   2.592   7.963  0.3493  1.3928 -0.9757
 3636SOL     OW12195   2.121   3.217   1.485  0.1743 -0.1131  0.0144
 3636SOL    HW112196   2.057   3.289   1.486 -0.1885 -0.4042  1.4738
 3636SOL    HW212197   2.077   3.146   1.532  2.2134  0.3139  2.8676
 3637SOL     OW12198   6.767   1.659   2.569  0.0830  0.0555 -0.2584
 3637SOL    HW112199   6.696   1.669   2.632  0.0516 -0.4810 -0.1977
 3637SOL    HW212200   6.805   1.746   2.560 -0.8518  0.4392 -0.6118
 3638SOL     OW12201   2.959   6.395   3.578  0.2111 -0.4775 -0.1330
 3638SOL    HW112202   2.982   6.315   3.530 -0.0927 -0.3486 -0.4982
 3638SOL    HW212203   2.897   6.366   3.645  1.0374 -0.7439  0.5247
 3639SOL     OW12204   3.404   6.909   5.740  0.7593 -0.2935  0.1925
 3639SOL    HW112205   3.374   6.924   5.830 -0.6269 -1.9543  0.0787
 3639SOL    HW212206   3.366   6.981   5.690 -1.7180 -1.3534  0.3767
 3640SOL     OW12207   3.343   3.755   1.732 -0.1433 -0.8142 -0.5132
 3640SOL    HW112208   3.256   3.715   1.732 -0.4160 -0.2266 -0.8828
 3640SOL    HW212209   3.337   3.827   1.795  0.4864 -1.6134  0.5118
 3641SOL     OW12210   0.863   6.343   8.016  0.0118  0.1009 -0.0023
 3641SOL    HW112211   0.915   6.264   8.004  0.1194  0.2900 -0.8956
 3641SOL    HW212212   0.899   6.405   7.952  1.0162  1.4431  1.7574
 3642SOL     OW12213   3.331   6.404   5.042  0.7006  0.2487  0.7955
 3642SOL    HW112214   3.242   6.422   5.074  0.0281 -0.7616 -0.4048
 3642SOL    HW212215   3.365   6.490   5.017  0.0214  0.6371  1.1756
 3643SOL     OW12216   5.435   1.080   6.589  0.1430  0.1373  0.1851
 3643SOL    HW112217   5.367   1.144   6.571 -2.2369 -1.9414  1.2157
 3643SOL    HW212218   5.462   1.049   6.502 -1.1932  0.0599 -0.2207
 3644SOL     OW12219   3.193   4.337   3.374  0.0756 -0.3647  0.0378
 3644SOL    HW112220   3.227   4.386   3.449 -1.3474  1.3397 -0.3599
 3644SOL    HW212221   3.123   4.283   3.411 -1.7467  1.6891 -0.2179
 3645SOL     OW12222   3.799   3.704   3.937 -0.2955  0.2794  0.4524
 3645SOL    HW112223   3.876   3.760   3.948  0.0142 -0.0569  0.0490
 3645SOL    HW212224   3.820   3.624   3.986 -1.0933  0.8298  1.7530
 3646SOL     OW12225   4.944   5.070   1.354  0.2408  0.0682 -0.1729
 3646SOL    HW112226   4.982   5.033   1.435  0.4440 -0.0788 -0.3337
 3646SOL    HW212227   4.990   5.153   1.342 -1.9969  1.6824  1.5937
 3647SOL     OW12228   7.248   8.008   6.593  0.1384  0.3442  0.1138
 3647SOL    HW112229   7.278   8.085   6.642  3.1831 -0.7172  0.1777
 3647SOL    HW212230   7.287   7.934   6.640 -1.0395 -1.0919 -1.0873
 3648SOL     OW12231   5.591   4.381   4.543 -0.1837  0.6349  0.1226
 3648SOL    HW112232   5.670   4.405   4.590 -0.4603 -0.0361  0.9491
 3648SOL    HW212233   5.527   4.449   4.566 -0.4608  0.0583  1.1207
 3649SOL     OW12234   1.797   4.451   1.740 -0.1597  0.0418  0.3966
 3649SOL    HW112235   1.848   4.410   1.810  0.3572  0.9081  0.5455
 3649SOL    HW212236   1.707   4.421   1.755 -0.1839  0.7699  1.8705
 3650SOL     OW12237   4.311   3.185   6.834  0.2350  0.7285 -0.1407
 3650SOL    HW112238   4.349   3.129   6.902 -0.4198  0.5982  0.1235
 3650SOL    HW212239   4.319   3.135   6.753 -0.3463  0.2494  0.0929
 3651SOL     OW12240   5.143   6.073   4.083  0.2024 -0.3163  0.1735
 3651SOL    HW112241   5.231   6.074   4.121  1.0839 -1.2949 -1.6885
 3651SOL    HW212242   5.092   6.131   4.140  1.8358 -0.3182  1.7583
 3652SOL     OW12243   2.570   7.930   2.579 -0.0408 -0.0139  0.9705
 3652SOL    HW112244   2.501   7.869   2.605 -0.5156  0.3124  0.4940
 3652SOL    HW212245   2.648   7.900   2.627  0.2743 -2.2364 -0.7822
 3653SOL     OW12246   2.835   5.170   7.598 -0.1164  0.2080  0.0391
 3653SOL    HW112247   2.869   5.231   7.532 -0.9083 -0.2904 -0.8371
 3653SOL    HW212248   2.816   5.226   7.674  0.8342  0.7783 -0.1129
 3654SOL     OW12249   1.129   8.061   5.173  0.5616  0.1497  0.0168
 3654SOL    HW112250   1.093   8.091   5.256  0.4734 -0.4179  0.1826
 3654SOL    HW212251   1.091   8.120   5.108 -0.7761 -0.5285  0.1667
 3655SOL     OW12252   7.018   8.180   5.248  0.1847 -0.1365 -0.0885
 3655SOL    HW112253   7.048   8.162   5.337  0.5871 -2.8328 -0.6697
 3655SOL    HW212254   6.924   8.164   5.250  0.0282  0.7411  0.0322
 3656SOL     OW12255   1.202   5.721   6.985  0.2695  0.0245 -0.0652
 3656SOL    HW112256   1.231   5.745   7.073 -0.9460  0.6876  0.1683
 3656SOL    HW212257   1.154   5.798   6.953 -0.5522 -0.7466 -0.7385
 3657SOL     OW12258   1.861   1.237   6.069 -0.1570  0.0448 -0.0547
 3657SOL    HW112259   1.783   1.263   6.118  0.2939  1.4678 -0.0196
 3657SOL    HW212260   1.934   1.263   6.126  0.4135 -3.3751  0.9878
 3658SOL     OW12261   1.828   6.838   7.263 -0.1371  0.6105  0.0256
 3658SOL    HW112262   1.909   6.865   7.306 -0.4227  1.2921  0.1565
 3658SOL    HW212263   1.855   6.775   7.197  0.4691  0.6410  0.2405
 3659SOL     OW12264   0.954   0.502   4.307 -0.1494 -1.0043  0.0832
 3659SOL    HW112265   1.016   0.431   4.324  0.3606 -1.1892 -2.1522
 3659SOL    HW212266   0.883   0.460   4.258 -0.4947 -0.2211 -0.1022
 3660SOL     OW12267   7.796   6.191   2.853  0.0668 -0.5726 -0.2730
 3660SOL    HW112268   7.745   6.233   2.922 -0.8016 -1.5435 -0.3042
 3660SOL    HW212269   7.790   6.097   2.872  2.1692 -0.7110 -0.0578
 3661SOL     OW12270   0.934   2.700   8.059 -0.0541 -0.2458 -0.0156
 3661SOL    HW112271   0.954   2.610   8.082 -0.5600 -0.4049 -0.1883
 3661SOL    HW212272   0.839   2.708   8.068 -0.1268  0.0130 -0.8605
 3662SOL     OW12273   7.533   8.225   1.308  0.3406  0.4741  0.4440
 3662SOL    HW112274   7.514   8.230   1.402 -1.7953 -0.4089  0.1038
 3662SOL    HW212275   7.496   8.305   1.272 -0.2512  0.0796  0.1601
 3663SOL     OW12276   0.864   4.937   7.231 -0.2912 -0.5808 -0.2091
 3663SOL    HW112277   0.910   4.940   7.147  0.0023 -1.3858 -0.0880
 3663SOL    HW212278   0.847   4.844   7.245 -1.6200 -0.3307 -0.0671
 3664SOL     OW12279   3.186   6.359   8.045  0.6707  0.0589  0.4431
 3664SOL    HW112280   3.121   6.288   8.045  0.5551  0.1049 -1.3182
 3664SOL    HW212281   3.264   6.319   8.083  0.0735 -0.4709  1.1448
 3665SOL     OW12282   2.384   2.967   3.789 -0.4507  0.1373  0.0763
 3665SOL    HW112283   2.411   2.887   3.834 -3.4627 -1.0767 -0.0424
 3665SOL    HW212284   2.398   2.948   3.696  0.1780  0.2988  0.1402
 3666SOL     OW12285   3.666   4.812   5.914 -0.3738  0.4188 -0.1813
 3666SOL    HW112286   3.639   4.901   5.937 -1.7752  0.0301 -0.2292
 3666SOL    HW212287   3.592   4.777   5.864  0.2396 -0.7099 -0.3190
 3667SOL     OW12288   7.605   6.734   2.746  0.3703 -0.0003 -0.0302
 3667SOL    HW112289   7.527   6.730   2.690  0.4693 -2.0153 -0.0931
 3667SOL    HW212290   7.665   6.793   2.699  0.5235 -1.7338 -2.1971
 3668SOL     OW12291   5.960   7.154   2.411 -0.1548  0.3843  0.3489
 3668SOL    HW112292   5.960   7.248   2.394  1.9922  0.2222 -0.9786
 3668SOL    HW212293   6.022   7.141   2.482 -0.5550 -0.0284  0.6329
 3669SOL     OW12294   4.395   0.992   1.994  0.4066 -0.0630 -0.6255
 3669SOL    HW112295   4.314   0.965   1.950  0.5398 -0.3364 -0.7046
 3669SOL    HW212296   4.452   1.021   1.923  0.5662 -0.3592 -0.6158
 3670SOL     OW12297   7.538   3.415   0.385  0.2196  0.1367  0.2024
 3670SOL    HW112298   7.507   3.421   0.294 -1.1427  2.6402  0.7369
 3670SOL    HW212299   7.606   3.348   0.382  1.6496  1.4860 -3.0952
 3671SOL     OW12300   7.403   0.647   4.486 -0.1854 -0.1573 -0.1354
 3671SOL    HW112301   7.397   0.567   4.539  0.9029 -0.4406 -0.4214
 3671SOL    HW212302   7.431   0.616   4.400  3.5813  0.7868  0.5924
 3672SOL     OW12303   1.211   3.091   6.645  0.2613  0.0273 -0.5161
 3672SOL    HW112304   1.135   3.138   6.678 -0.1684 -0.2441 -1.0947
 3672SOL    HW212305   1.282   3.154   6.648  0.5482 -0.3057  2.0307
 3673SOL     OW12306   8.575   5.810   4.664 -0.0328 -0.4238 -0.0617
 3673SOL    HW112307   8.624   5.775   4.739  0.0181 -0.2123  0.0042
 3673SOL    HW212308   8.489   5.833   4.700 -0.2804 -1.0519 -0.2357
 3674SOL     OW12309   1.400   7.425   8.555 -0.7561 -0.4503  0.2190
 3674SOL    HW112310   1.430   7.451   8.468 -1.0468 -0.8208  0.0065
 3674SOL    HW212311   1.311   7.392   8.542 -0.6892 -0.7991  0.6061
 3675SOL     OW12312   7.210   7.719   7.802  0.2903 -0.4339 -0.0962
 3675SOL    HW112313   7.145   7.649   7.799  2.2910 -2.4711  0.8363
 3675SOL    HW212314   7.182   7.775   7.875  0.3315 -2.1220  1.2673
 3676SOL     OW12315   2.746   3.191   6.593 -0.1462 -0.1304  0.1554
 3676SOL    HW112316   2.824   3.172   6.542 -0.4624 -0.1949 -0.3177
 3676SOL    HW212317   2.772   3.179   6.684  0.8042  1.3501  0.1028
 3677SOL     OW12318   7.365   4.464   6.167 -0.2058  0.0113 -0.2943
 3677SOL    HW112319   7.451   4.495   6.197 -0.1134 -0.3213 -0.1991
 3677SOL    HW212320   7.363   4.484   6.074 -1.7176  3.8820  0.3789
 3678SOL     OW12321   2.035   5.085   4.646 -0.1689  0.6631  0.4185
 3678SOL    HW112322   2.103   5.125   4.700  0.6329 -0.0983 -0.0147
 3678SOL    HW212323   2.081   5.047   4.572 -1.0803  0.2455  0.0455
 3679SOL     OW12324   1.106   7.817   0.783 -0.2525 -0.3999 -0.1918
 3679SOL    HW112325   1.081   7.779   0.698 -0.9704 -0.5391  0.0795
 3679SOL    HW212326   1.033   7.875   0.806  0.0465 -0.1834  0.2276
 3680SOL     OW12327   7.536   3.914   5.347  0.4700  0.3150 -0.2061
 3680SOL    HW112328   7.611   3.918   5.407  0.5300 -0.2430 -0.2349
 3680SOL    HW212329   7.515   3.820   5.342 -0.5585  0.5020  0.2139
 3681SOL     OW12330   6.059   1.643   1.451  0.3449 -0.2586  0.0831
 3681SOL    HW112331   6.098   1.566   1.493  1.7775  1.1710  1.4860
 3681SOL    HW212332   6.128   1.678   1.395  0.2375  0.8427  0.6045
 3682SOL     OW12333   7.024   7.447   2.401 -0.0817  0.4794  0.0169
 3682SOL    HW112334   7.023   7.462   2.496 -0.2883  1.1323 -0.0870
 3682SOL    HW212335   7.113   7.417   2.383  0.0578  0.6787  0.3695
 3683SOL     OW12336   8.492   7.111   8.416  0.1218 -0.3637 -0.0012
 3683SOL    HW112337   8.397   7.101   8.411 -0.2073  1.8664  0.8705
 3683SOL    HW212338   8.520   7.116   8.324 -1.0228  1.9781 -0.2903
 3684SOL     OW12339   1.572   2.698   1.667 -0.1817  0.0234  0.3227
 3684SOL    HW112340   1.551   2.778   1.716  0.8141  1.0890 -0.9229
 3684SOL    HW212341   1.564   2.724   1.575 -2.2996 -2.0073 -0.1390
 3685SOL     OW12342   5.754   1.861   4.017  0.3036  0.0643  0.6096
 3685SOL    HW112343   5.811   1.923   4.063  0.6031  0.4162 -0.2088
 3685SOL    HW212344   5.671   1.909   4.007  0.3908  0.1680  0.3729
 3686SOL     OW12345   3.289   3.938   5.068  0.0052 -0.2347 -0.5007
 3686SOL    HW112346   3.314   3.891   4.988  0.7582  0.9223 -0.9761
 3686SOL    HW212347   3.248   4.018   5.036 -0.1334  0.0160  0.2855
 3687SOL     OW12348   2.080   1.983   7.999  0.0907 -0.3237 -0.0746
 3687SOL    HW112349   2.061   2.070   7.964 -1.1131 -1.1418 -1.6244
 3687SOL    HW212350   2.133   1.941   7.932 -0.8219 -1.3557 -0.1943
 3688SOL     OW12351   2.975   0.521   8.367 -0.2423  0.3273  0.2209
 3688SOL    HW112352   3.067   0.530   8.391 -0.3042 -1.6588  1.4425
 3688SOL    HW212353   2.948   0.438   8.406 -1.8316 -0.5168 -2.4258
 3689SOL     OW12354   0.855   4.891   8.205  0.3079  0.2872 -0.1644
 3689SOL    HW112355   0.904   4.818   8.167  1.1540  1.1493 -0.7694
 3689SOL    HW212356   0.919   4.963   8.211 -0.4502  0.9252  0.6082
 3690SOL     OW12357   2.730   2.601   8.380 -0.7857  0.2470  0.1968
 3690SOL    HW112358   2.696   2.527   8.431  0.6845  0.0674  0.9741
 3690SOL    HW212359   2.700   2.584   8.291 -0.1772 -1.5027  0.2902
 3691SOL     OW12360   2.010   5.397   3.551 -0.3017  0.4977 -0.4962
 3691SOL    HW112361   1.941   5.455   3.518 -0.6948  0.3551  0.0625
 3691SOL    HW212362   2.030   5.431   3.638  1.0341  1.1313 -1.0262
 3692SOL     OW12363   4.759   0.914   2.838 -0.4611 -0.4489  0.1351
 3692SOL    HW112364   4.767   0.821   2.817  0.9757 -0.6084  1.2337
 3692SOL    HW212365   4.666   0.933   2.830 -0.6537 -1.7307 -1.0722
 3693SOL     OW12366   6.920   7.282   6.185  0.5613 -0.6697  0.5443
 3693SOL    HW112367   6.919   7.214   6.252 -0.9244 -0.5879  0.6492
 3693SOL    HW212368   6.947   7.361   6.232  0.2659 -0.7722  0.8983
 3694SOL     OW12369   6.547   8.005   1.648 -1.0091  0.0190 -0.2451
 3694SOL    HW112370   6.595   7.937   1.695 -0.6549  0.8475  0.6201
 3694SOL    HW212371   6.591   8.010   1.563 -0.2088  0.0549  0.1599
 3695SOL     OW12372   7.781   4.622   4.301  0.2507  0.2304  0.0922
 3695SOL    HW112373   7.806   4.712   4.324  1.7870 -0.1704  0.0768
 3695SOL    HW212374   7.690   4.615   4.330 -0.1202  1.9949 -0.5280
 3696SOL     OW12375   3.966   2.503   3.495  0.5862  0.0490  0.3248
 3696SOL    HW112376   3.871   2.512   3.504  0.5029  1.4345 -1.4836
 3696SOL    HW212377   4.000   2.592   3.504  1.4706 -0.0799 -1.3869
 3697SOL     OW12378   7.251   4.776   6.985 -0.5169  0.0514  0.6542
 3697SOL    HW112379   7.180   4.766   6.921  1.2836 -1.4713 -1.2735
 3697SOL    HW212380   7.219   4.732   7.063 -1.1677 -2.0468 -0.6924
 3698SOL     OW12381   6.881   7.253   5.033  0.1183  0.6078 -0.2799
 3698SOL    HW112382   6.905   7.301   5.112 -0.1810 -0.8343  0.7239
 3698SOL    HW212383   6.832   7.316   4.980  1.0276  1.8361  0.2837
 3699SOL     OW12384   6.484   5.745   6.286  0.4264 -0.1656 -0.3658
 3699SOL    HW112385   6.480   5.814   6.353  1.8570  0.4268 -0.8459
 3699SOL    HW212386   6.557   5.771   6.230  0.0326 -1.3031 -1.4437
 3700SOL     OW12387   3.280   5.855   1.237 -0.0198  0.0901  0.2931
 3700SOL    HW112388   3.357   5.804   1.262 -1.4705 -1.2944  2.3214
 3700SOL    HW212389   3.277   5.850   1.142  0.5806 -2.6624  0.3518
 3701SOL     OW12390   0.590   3.770   7.905 -0.1677  0.4237  0.8218
 3701SOL    HW112391   0.656   3.726   7.958  1.7450  2.0014 -0.1535
 3701SOL    HW212392   0.563   3.704   7.841  0.9071 -0.0746  0.8622
 3702SOL     OW12393   6.267   5.037   0.738 -0.3379  0.0599 -0.3155
 3702SOL    HW112394   6.194   5.093   0.761  0.3468  0.7063  0.3280
 3702SOL    HW212395   6.332   5.052   0.806 -0.4964 -2.2359  0.4423
 3703SOL     OW12396   7.296   3.379   7.834 -0.3344  0.0804  0.2683
 3703SOL    HW112397   7.383   3.359   7.868 -0.3546 -0.7546 -0.1367
 3703SOL    HW212398   7.300   3.351   7.742 -1.4278 -1.2793  0.5941
 3704SOL     OW12399   2.797   3.369   0.431 -0.2341  0.5483 -0.2166
 3704SOL    HW112400   2.812   3.288   0.480  0.7805  2.0909  2.2256
 3704SOL    HW212401   2.878   3.382   0.383 -0.2981  0.2723 -0.4057
 3705SOL     OW12402   3.844   2.760   3.359 -0.6690 -0.5351  0.2369
 3705SOL    HW112403   3.806   2.843   3.389 -0.6978 -0.7991  0.9629
 3705SOL    HW212404   3.790   2.734   3.285 -0.2525  0.4294 -0.4335
 3706SOL     OW12405   7.022   6.117   3.617  0.1313 -0.7460 -0.7003
 3706SOL    HW112406   7.036   6.102   3.710 -0.3674  0.2729 -0.4393
 3706SOL    HW212407   7.109   6.108   3.578  0.1859 -2.1490 -0.2978
 3707SOL     OW12408   6.366   4.474   5.256  0.2973 -0.1735  0.2998
 3707SOL    HW112409   6.353   4.379   5.260  1.4699 -0.4709 -1.9327
 3707SOL    HW212410   6.280   4.510   5.280 -0.4746 -1.8064  0.1391
 3708SOL     OW12411   7.772   7.237   5.345 -0.3587  0.3096 -0.3821
 3708SOL    HW112412   7.842   7.205   5.402  1.1623  1.4182 -1.5370
 3708SOL    HW212413   7.710   7.281   5.404 -0.1147 -0.7099  0.6637
 3709SOL     OW12414   6.397   2.260   6.219 -0.4102 -0.4677  0.2810
 3709SOL    HW112415   6.397   2.165   6.229 -0.9176 -0.6643 -1.3056
 3709SOL    HW212416   6.309   2.287   6.246 -0.6252 -0.5852 -0.2892
 3710SOL     OW12417   2.356   2.186   1.105 -0.0840 -0.2433 -0.0252
 3710SOL    HW112418   2.427   2.146   1.154  1.3998  2.6523  0.3820
 3710SOL    HW212419   2.396   2.213   1.022 -1.1304 -0.0147 -0.4712
 3711SOL     OW12420   7.900   1.150   5.381  0.2918  0.0847 -0.1644
 3711SOL    HW112421   7.880   1.060   5.406 -2.7425  0.8888  0.7609
 3711SOL    HW212422   7.985   1.169   5.422 -0.2212 -1.5580  1.7684
 3712SOL     OW12423   3.093   4.170   7.660  0.0029  0.0846 -0.1963
 3712SOL    HW112424   3.044   4.105   7.611  1.6937 -0.7303 -0.9018
 3712SOL    HW212425   3.101   4.133   7.748 -1.3345  0.6295  0.1805
 3713SOL     OW12426   2.790   6.382   1.513 -0.4320 -0.5601  0.2503
 3713SOL    HW112427   2.863   6.421   1.562  1.2538 -3.4262  0.2384
 3713SOL    HW212428   2.724   6.451   1.510  1.6840  1.6848  1.5419
 3714SOL     OW12429   1.610   7.018   2.488 -0.2674 -0.0774  0.1937
 3714SOL    HW112430   1.687   7.043   2.538 -0.7382  1.1186  0.3701
 3714SOL    HW212431   1.581   7.100   2.447 -0.9004 -0.6924 -0.6252
 3715SOL     OW12432   3.016   3.716   7.869  0.4545 -0.2740 -0.0305
 3715SOL    HW112433   2.993   3.680   7.783 -0.6809 -0.3969  0.3075
 3715SOL    HW212434   2.981   3.652   7.931 -0.8746  0.9795  0.5636
 3716SOL     OW12435   4.061   1.311   3.370  1.0522  0.3676 -0.2978
 3716SOL    HW112436   4.069   1.406   3.365  1.2407  0.3921  0.4064
 3716SOL    HW212437   4.079   1.280   3.281  1.9318  0.9207 -0.3175
 3717SOL     OW12438   2.317   5.795   3.291  0.8311 -0.2874 -0.0586
 3717SOL    HW112439   2.305   5.880   3.334  2.2735  1.1798 -2.3398
 3717SOL    HW212440   2.233   5.751   3.303 -0.4182  1.9713  0.1510
 3718SOL     OW12441   0.572   8.177   5.552  0.3599 -0.3944  0.0893
 3718SOL    HW112442   0.623   8.108   5.595 -0.3392 -0.1441  1.3604
 3718SOL    HW212443   0.546   8.236   5.624 -1.3250 -0.2695 -0.5888
 3719SOL     OW12444   5.236   0.313   5.112  0.6878  0.0710 -0.4159
 3719SOL    HW112445   5.189   0.256   5.174 -1.5126  0.0848 -1.9460
 3719SOL    HW212446   5.170   0.376   5.083  2.8782  3.2107  0.8007
 3720SOL     OW12447   4.901   0.114   1.254 -0.2086 -0.0949 -0.1432
 3720SOL    HW112448   4.972   0.053   1.275 -0.8814 -1.6397 -2.0075
 3720SOL    HW212449   4.890   0.166   1.333  2.4073 -0.3702  0.4858
 3721SOL     OW12450   3.407   1.152   6.945 -0.5346 -0.0409 -0.1551
 3721SOL    HW112451   3.365   1.107   6.872 -1.2778  0.1080  0.1701
 3721SOL    HW212452   3.498   1.163   6.918  0.0302 -2.8483  0.2219
 3722SOL     OW12453   2.580   1.105   2.687 -0.9310  0.0962  0.3009
 3722SOL    HW112454   2.557   1.197   2.704  0.1917  0.6202 -0.8678
 3722SOL    HW212455   2.509   1.072   2.632 -2.1779 -0.2503  2.0343
 3723SOL     OW12456   6.129   7.775   4.262  0.0075  0.5069  0.2231
 3723SOL    HW112457   6.194   7.821   4.209 -1.0139  1.3343 -0.3398
 3723SOL    HW212458   6.072   7.732   4.198 -0.7650  0.8530  0.6718
 3724SOL     OW12459   4.977   4.386   0.993 -0.0121 -0.3995 -0.1241
 3724SOL    HW112460   4.986   4.344   0.908  2.3288  1.0608 -0.6854
 3724SOL    HW212461   5.010   4.475   0.979 -1.5356  0.5419  1.8316
 3725SOL     OW12462   7.885   2.842   3.668 -0.7082 -0.2600  0.6440
 3725SOL    HW112463   7.805   2.821   3.716 -2.8027 -0.6320 -2.6903
 3725SOL    HW212464   7.923   2.757   3.647 -0.5159 -0.1504  0.5502
 3726SOL     OW12465   2.977   0.988   0.891 -0.4860 -0.0459 -0.2207
 3726SOL    HW112466   3.050   1.007   0.832 -0.8766 -1.2072 -1.1216
 3726SOL    HW212467   2.985   0.894   0.908  1.4241  0.6541  4.0768
 3727SOL     OW12468   7.169   8.253   4.124 -0.0268  0.1320 -0.1502
 3727SOL    HW112469   7.258   8.244   4.160 -0.7033 -2.4823  1.0618
 3727SOL    HW212470   7.126   8.170   4.144 -1.9789  0.3053 -3.0114
 3728SOL     OW12471   6.513   0.440   2.091  0.1019  0.2404  0.4976
 3728SOL    HW112472   6.573   0.366   2.091  0.9178  0.8745 -0.2994
 3728SOL    HW212473   6.569   0.517   2.076 -0.4114  1.3067  3.3487
 3729SOL     OW12474   7.586   3.084   3.611  0.2605  0.7724 -0.0237
 3729SOL    HW112475   7.570   3.027   3.687  0.5514 -0.4860 -0.8823
 3729SOL    HW212476   7.522   3.057   3.546  0.6624  1.1588 -0.5940
 3730SOL     OW12477   1.630   8.283   2.421  0.9749 -0.2375 -0.4497
 3730SOL    HW112478   1.615   8.364   2.372 -1.6515  1.0746  2.1107
 3730SOL    HW212479   1.718   8.291   2.456  0.8203  1.5095 -0.3871
 3731SOL     OW12480   8.006   5.592   2.131 -0.6012 -0.5413  0.2358
 3731SOL    HW112481   8.007   5.664   2.068 -0.8279  0.7706  1.6872
 3731SOL    HW212482   8.098   5.571   2.145 -0.5164 -0.1709  0.2319
 3732SOL     OW12483   3.870   1.981   1.143  0.3610  0.0988  0.3501
 3732SOL    HW112484   3.794   1.995   1.087 -0.6523 -2.0771  1.0237
 3732SOL    HW212485   3.861   2.047   1.212 -1.0387 -0.1859  0.4882
 3733SOL     OW12486   4.851   6.248   2.754  0.3717  0.3723  0.0444
 3733SOL    HW112487   4.837   6.153   2.758  0.8679  0.1720 -1.8395
 3733SOL    HW212488   4.944   6.257   2.732 -0.1946  1.1706 -2.3297
 3734SOL     OW12489   7.564   0.926   8.322  0.3342  0.5622 -0.0835
 3734SOL    HW112490   7.501   0.893   8.258  0.4030 -0.7000  0.4515
 3734SOL    HW212491   7.630   0.972   8.270 -0.0047  0.2072 -0.8409
 3735SOL     OW12492   2.059   3.648   3.141  0.2624 -0.4218 -0.0557
 3735SOL    HW112493   2.087   3.667   3.051 -0.2121 -4.0486 -1.1271
 3735SOL    HW212494   2.132   3.600   3.180 -0.6301 -1.3821  0.4866
 3736SOL     OW12495   1.154   5.679   8.207  0.5998  0.2490  0.1274
 3736SOL    HW112496   1.098   5.634   8.143 -0.0882  0.9101  0.2500
 3736SOL    HW212497   1.093   5.711   8.273  0.9587  2.0962 -0.4022
 3737SOL     OW12498   6.929   5.956   4.200 -0.4051 -0.0348 -0.3479
 3737SOL    HW112499   6.992   5.969   4.129 -0.7803  0.4339 -0.6002
 3737SOL    HW212500   6.949   5.868   4.234  1.9843  0.9754  1.1547
 3738SOL     OW12501   8.352   8.593   4.263 -0.3274  0.2888 -0.1566
 3738SOL    HW112502   8.389   8.635   4.341  0.5610  0.5420 -0.6941
 3738SOL    HW212503   8.374   8.652   4.192 -1.2763  0.1401 -0.5911
 3739SOL     OW12504   8.226   7.585   4.551  0.1878 -0.7491  0.4450
 3739SOL    HW112505   8.251   7.652   4.488 -0.8545 -0.4515  0.3316
 3739SOL    HW212506   8.303   7.575   4.608  0.9734 -0.7101 -0.5927
 3740SOL     OW12507   2.025   3.324   0.650 -0.0639 -0.3124 -0.3390
 3740SOL    HW112508   1.957   3.265   0.685 -2.5856  2.1592 -0.7458
 3740SOL    HW212509   2.086   3.335   0.723 -0.8490 -1.5112  0.5448
 3741SOL     OW12510   7.229   4.229   7.055  0.7234  0.0174  0.0549
 3741SOL    HW112511   7.270   4.150   7.091  1.1206 -0.7896 -2.0516
 3741SOL    HW212512   7.302   4.277   7.015  0.5250  1.6199  1.5072
 3742SOL     OW12513   6.480   5.446   2.006 -0.6558  0.1816  0.3485
 3742SOL    HW112514   6.464   5.408   2.093  1.3915 -0.8873  0.3127
 3742SOL    HW212515   6.494   5.370   1.949  2.9548  0.8198  0.1436
 3743SOL     OW12516   5.687   6.513   6.669 -0.0173 -0.1678 -0.1029
 3743SOL    HW112517   5.728   6.596   6.645 -0.4008 -0.2691 -1.1708
 3743SOL    HW212518   5.714   6.498   6.760 -0.8600  1.6860  0.5175
 3744SOL     OW12519   1.839   6.552   1.596  0.3687  0.1585  0.2468
 3744SOL    HW112520   1.810   6.638   1.567 -0.9145 -0.7132 -1.2442
 3744SOL    HW212521   1.871   6.509   1.517 -1.4099 -1.6066  0.3835
 3745SOL     OW12522   1.818   6.626   4.447  0.2332 -0.0778  0.2395
 3745SOL    HW112523   1.748   6.677   4.487 -0.5374  0.6939 -1.9543
 3745SOL    HW212524   1.774   6.555   4.401  0.9115  0.0742 -0.6836
 3746SOL     OW12525   4.117   8.629   6.298 -0.0979  0.6715 -0.3544
 3746SOL    HW112526   4.144   8.653   6.386 -1.2433  3.9466 -0.7191
 3746SOL    HW212527   4.198   8.605   6.253  0.5226 -0.8882  1.4898
 3747SOL     OW12528   0.908   2.463   7.305 -0.3394  0.0039 -0.4780
 3747SOL    HW112529   0.855   2.385   7.287  1.3567 -0.8023 -2.3139
 3747SOL    HW212530   0.997   2.430   7.315  0.0689  1.4670  1.3098
 3748SOL     OW12531   6.729   7.404   2.328 -0.1327  0.4099  0.1081
 3748SOL    HW112532   6.733   7.386   2.422  3.2386 -3.1225 -0.4529
 3748SOL    HW212533   6.798   7.469   2.313 -0.3898  0.6619  0.0066
 3749SOL     OW12534   0.610   2.522   3.633 -0.4933 -0.3768 -0.0386
 3749SOL    HW112535   0.522   2.521   3.669 -0.9208  0.0834 -1.0149
 3749SOL    HW212536   0.639   2.613   3.642 -0.5982 -0.2581 -0.7864
 3750SOL     OW12537   8.124   7.179   7.511  0.3608 -0.3364  0.5002
 3750SOL    HW112538   8.041   7.136   7.531 -1.3867  1.4610 -2.1490
 3750SOL    HW212539   8.141   7.235   7.586 -1.3855 -0.0273  0.7073
 3751SOL     OW12540   4.391   6.899   1.433  0.1324  0.1873 -0.4128
 3751SOL    HW112541   4.480   6.873   1.410 -0.5614 -1.0243 -1.9671
 3751SOL    HW212542   4.366   6.963   1.366 -0.8231 -0.9912 -1.2430
 3752SOL     OW12543   8.532   3.708   4.584  1.0880 -0.1295  0.4147
 3752SOL    HW112544   8.503   3.723   4.673  0.0153  0.7460 -0.0678
 3752SOL    HW212545   8.596   3.777   4.567  1.1845 -0.2102  0.4439
 3753SOL     OW12546   0.897   5.296   0.969 -0.4076 -0.7050 -0.3034
 3753SOL    HW112547   0.987   5.294   1.001 -0.0155 -0.7624 -1.3586
 3753SOL    HW212548   0.843   5.301   1.048  0.5950  2.6180  0.3245
 3754SOL     OW12549   6.659   2.239   6.492  0.3513 -0.2888 -0.3665
 3754SOL    HW112550   6.689   2.202   6.409  0.7787 -1.6472  0.3652
 3754SOL    HW212551   6.610   2.317   6.467 -0.3350 -1.1847 -1.9542
 3755SOL     OW12552   2.623   5.212   7.298  0.3097  0.1473 -0.1528
 3755SOL    HW112553   2.717   5.196   7.307  0.3328  0.0519 -0.5503
 3755SOL    HW212554   2.601   5.175   7.213 -0.0301  0.4329 -0.1904
 3756SOL     OW12555   8.119   7.336   0.981  0.3361 -0.5421 -0.3882
 3756SOL    HW112556   8.151   7.302   1.064  0.1617  1.2422  0.4562
 3756SOL    HW212557   8.024   7.324   0.985  0.3154 -0.3518 -0.2538
 3757SOL     OW12558   3.304   1.702   2.556  0.3535 -0.0849 -0.0700
 3757SOL    HW112559   3.246   1.633   2.590 -1.4944  1.4301 -0.0131
 3757SOL    HW212560   3.339   1.744   2.635 -0.3504  0.5211 -0.0787
 3758SOL     OW12561   1.782   5.255   4.626  0.2087 -0.5180  0.4447
 3758SOL    HW112562   1.715   5.192   4.654  0.0913  0.0373  1.4960
 3758SOL    HW212563   1.860   5.202   4.611  0.1298 -0.9247  1.3667
 3759SOL     OW12564   2.576   7.429   1.260 -0.0033  0.3702  0.4199
 3759SOL    HW112565   2.594   7.521   1.282  1.1197  0.2777 -0.0435
 3759SOL    HW212566   2.650   7.402   1.206 -0.9500 -0.4517 -0.5051
 3760SOL     OW12567   3.826   7.085   6.434  0.1316  0.5185 -0.1101
 3760SOL    HW112568   3.908   7.047   6.464  1.0115 -0.0934 -2.9332
 3760SOL    HW212569   3.760   7.019   6.455  0.6829  0.1195  0.3993
 3761SOL     OW12570   5.790   0.502   5.911 -0.3220  0.4753 -0.2475
 3761SOL    HW112571   5.845   0.437   5.956 -1.1824  0.2461  0.5175
 3761SOL    HW212572   5.842   0.582   5.912  1.8688 -0.7258 -3.4934
 3762SOL     OW12573   7.383   2.089   2.488 -0.1348  0.1767 -0.2377
 3762SOL    HW112574   7.345   2.168   2.451 -0.2255 -0.9125 -2.7185
 3762SOL    HW212575   7.455   2.067   2.429 -0.0380 -1.5122  0.4283
 3763SOL     OW12576   6.834   7.314   4.491  0.8209 -0.8073 -0.0061
 3763SOL    HW112577   6.776   7.291   4.564 -1.1141  1.1443 -0.8191
 3763SOL    HW212578   6.819   7.244   4.426 -0.4730 -0.4843 -0.0891
 3764SOL     OW12579   2.142   2.683   7.255  0.4663 -0.6193  0.3756
 3764SOL    HW112580   2.188   2.730   7.324  1.4305  0.2202 -0.8021
 3764SOL    HW212581   2.103   2.752   7.201 -2.1893 -1.2767  1.2767
 3765SOL     OW12582   1.476   8.416   6.432 -0.1868 -0.1752  0.4326
 3765SOL    HW112583   1.424   8.414   6.512  0.6669 -0.2358  1.0043
 3765SOL    HW212584   1.505   8.507   6.425 -1.3950  0.1550 -0.5781
 3766SOL     OW12585   0.241   6.936   7.121 -0.1769  0.3686 -0.8570
 3766SOL    HW112586   0.201   6.910   7.038  2.2578  1.6978 -2.5967
 3766SOL    HW212587   0.297   7.011   7.098  0.1553  1.1834  2.1288
 3767SOL     OW12588   6.794   8.365   0.205  0.0537 -0.1637 -0.1627
 3767SOL    HW112589   6.727   8.396   0.266  0.5179 -0.0120  0.2780
 3767SOL    HW212590   6.862   8.433   0.207 -0.2058  0.1414 -1.3226
 3768SOL     OW12591   7.036   0.962   2.298  0.7431  0.7385  0.0225
 3768SOL    HW112592   7.100   0.986   2.232  0.6038  1.1613  0.0412
 3768SOL    HW212593   7.012   1.044   2.340  0.3770  0.5513  0.1859
 3769SOL     OW12594   4.078   3.037   7.959  0.1416 -0.2942 -0.0798
 3769SOL    HW112595   4.088   2.984   7.881  1.8075 -0.0104 -0.0812
 3769SOL    HW212596   4.083   2.975   8.032 -0.2599 -0.4120 -0.1488
 3770SOL     OW12597   7.355   7.483   1.858 -0.9110 -0.1023 -0.1804
 3770SOL    HW112598   7.443   7.521   1.852 -0.0437 -1.9726 -0.0967
 3770SOL    HW212599   7.330   7.495   1.950 -1.1511  1.2470 -0.4063
 3771SOL     OW12600   3.570   1.266   6.592 -0.0882 -1.1407  0.7431
 3771SOL    HW112601   3.653   1.296   6.627 -1.1335  1.1101  1.4816
 3771SOL    HW212602   3.548   1.189   6.644  1.1853 -1.3682  0.9780
 3772SOL     OW12603   8.301   7.529   1.814  0.2774 -0.0926  0.3427
 3772SOL    HW112604   8.213   7.528   1.778 -0.5913  0.9900  2.2946
 3772SOL    HW212605   8.316   7.440   1.845 -0.1862 -0.2417  0.1404
 3773SOL     OW12606   8.461   0.939   8.268  0.1551  0.6107 -0.4256
 3773SOL    HW112607   8.495   0.875   8.206 -0.2456 -0.3258  0.3002
 3773SOL    HW212608   8.539   0.979   8.306  0.4105  0.5114 -0.8404
 3774SOL     OW12609   8.127   5.949   2.265  0.0366 -0.3789 -0.2864
 3774SOL    HW112610   8.127   6.022   2.327  0.0014 -1.9648  1.6867
 3774SOL    HW212611   8.069   5.978   2.194  1.4406  2.1997 -0.5210
 3775SOL     OW12612   1.775   3.505   5.152  0.1915 -0.1425 -0.0454
 3775SOL    HW112613   1.728   3.559   5.216  1.6296 -0.0939  1.0045
 3775SOL    HW212614   1.853   3.475   5.198  0.9038 -0.7150 -1.5580
 3776SOL     OW12615   5.407   5.589   3.740  0.6399 -0.3632  0.6944
 3776SOL    HW112616   5.390   5.621   3.651 -0.2604 -1.7677  0.3325
 3776SOL    HW212617   5.345   5.637   3.795 -0.1050 -0.8311  0.2793
 3777SOL     OW12618   2.489   1.157   3.765 -0.1907 -0.5067 -0.6748
 3777SOL    HW112619   2.466   1.245   3.797 -2.0223 -0.6209 -1.5086
 3777SOL    HW212620   2.538   1.117   3.837 -0.3958  0.7627  0.2138
 3778SOL     OW12621   6.257   6.348   8.218  0.6273  0.2686  0.2111
 3778SOL    HW112622   6.310   6.355   8.139 -0.4088  0.1166 -0.5242
 3778SOL    HW212623   6.167   6.336   8.185  0.2215 -0.1078  1.4091
 3779SOL     OW12624   6.306   4.313   0.855  0.2812  0.7004 -0.4439
 3779SOL    HW112625   6.318   4.407   0.843  0.2048  0.9381  1.1284
 3779SOL    HW212626   6.395   4.278   0.859  0.3108  0.6414 -1.3034
 3780SOL     OW12627   2.969   1.313   5.596  0.1368 -0.0838  0.0141
 3780SOL    HW112628   2.972   1.249   5.667  2.2390  1.2204  1.2099
 3780SOL    HW212629   2.884   1.299   5.555  0.2283 -3.1495  0.6369
 3781SOL     OW12630   0.882   6.968   1.289  0.6318 -0.2238 -0.4309
 3781SOL    HW112631   0.797   6.928   1.270  0.3035 -0.3130  1.0704
 3781SOL    HW212632   0.929   6.968   1.205 -0.7249 -0.4598 -1.2096
 3782SOL     OW12633   2.608   5.067   3.583 -0.0994 -0.3464 -0.1594
 3782SOL    HW112634   2.575   5.082   3.495 -0.5775 -0.2078  0.0338
 3782SOL    HW212635   2.648   5.149   3.609 -2.7215  0.7151  0.9018
 3783SOL     OW12636   1.686   3.833   3.028 -0.2107  0.2332  0.0811
 3783SOL    HW112637   1.696   3.799   2.939 -1.3779  2.2385 -0.9046
 3783SOL    HW212638   1.635   3.767   3.074 -0.0077 -0.6195 -0.8817
 3784SOL     OW12639   7.270   8.392   8.273  0.3209 -0.6004  0.1156
 3784SOL    HW112640   7.300   8.330   8.206  2.6066  0.0690  0.4524
 3784SOL    HW212641   7.197   8.438   8.231 -0.1011 -2.0936 -0.8792
 3785SOL     OW12642   8.562   2.817   7.205 -0.0041 -0.3922  0.1674
 3785SOL    HW112643   8.504   2.848   7.136  0.3794 -2.2622 -1.0671
 3785SOL    HW212644   8.641   2.871   7.195 -0.6336  0.6004  0.3811
 3786SOL     OW12645   8.645   7.175   5.235 -0.2187 -0.0487  0.4216
 3786SOL    HW112646   8.621   7.152   5.145 -0.3044  2.4159 -0.2551
 3786SOL    HW212647   8.734   7.139   5.245  0.3606  0.8162 -1.1702
 3787SOL     OW12648   7.381   7.928   5.090 -0.0959  0.0619 -0.1693
 3787SOL    HW112649   7.443   8.001   5.095 -0.9453  0.6953  1.7535
 3787SOL    HW212650   7.434   7.854   5.058  1.0682  1.1663 -0.9084
 3788SOL     OW12651   5.801   0.178   8.513 -0.1751 -0.0150 -0.6753
 3788SOL    HW112652   5.721   0.132   8.488 -3.1972  3.0082  2.3202
 3788SOL    HW212653   5.827   0.138   8.596  1.3207 -0.7737 -1.4769
 3789SOL     OW12654   7.198   8.311   6.026 -0.0680  0.3809  0.7668
 3789SOL    HW112655   7.191   8.399   5.989  0.3214  0.4463  0.8534
 3789SOL    HW212656   7.254   8.321   6.103 -0.0772  0.0670  0.8157
 3790SOL     OW12657   2.615   4.583   8.680 -0.2461  0.0757 -0.4661
 3790SOL    HW112658   2.604   4.506   8.623  0.6475 -0.2651 -0.1890
 3790SOL    HW212659   2.682   4.557   8.743 -1.5765  0.2638  1.0877
 3791SOL     OW12660   1.469   8.513   6.159 -0.2459 -0.8414  0.0294
 3791SOL    HW112661   1.475   8.422   6.188 -0.1905 -0.2518  2.0130
 3791SOL    HW212662   1.427   8.558   6.232  0.5003  0.8722 -0.5627
 3792SOL     OW12663   1.390   3.699   3.326  0.5058  0.1912 -0.3895
 3792SOL    HW112664   1.413   3.779   3.279  1.9061 -0.9672 -1.7919
 3792SOL    HW212665   1.294   3.693   3.317  0.3771  1.7056 -0.2222
 3793SOL     OW12666   7.836   6.961   8.525 -0.1028 -0.0670  0.1012
 3793SOL    HW112667   7.853   7.055   8.530  3.1845 -0.5858  1.9362
 3793SOL    HW212668   7.855   6.938   8.434  1.5130  0.7507  0.1928
 3794SOL     OW12669   4.595   2.015   6.483 -0.7717 -0.1256 -0.3269
 3794SOL    HW112670   4.582   2.063   6.565  1.9875 -1.0148  0.7456
 3794SOL    HW212671   4.540   1.937   6.492  0.2488 -0.7158  1.1959
 3795SOL     OW12672   7.422   7.543   5.705  0.6251  0.0909  0.0103
 3795SOL    HW112673   7.509   7.581   5.714  0.5847  0.0306  0.7288
 3795SOL    HW212674   7.392   7.530   5.796  0.7339 -1.8415 -0.1778
 3796SOL     OW12675   4.584   7.204   7.353 -0.1183 -0.4805  0.0918
 3796SOL    HW112676   4.571   7.163   7.268  0.6778 -2.9167  1.0594
 3796SOL    HW212677   4.508   7.177   7.405  0.9880 -1.7711  1.0985
 3797SOL     OW12678   2.172   3.671   4.837  0.3822  0.2233  0.1611
 3797SOL    HW112679   2.124   3.677   4.919  1.5213  3.0121  0.7317
 3797SOL    HW212680   2.248   3.616   4.858  0.1471  0.0849  0.6729
 3798SOL     OW12681   0.604   2.410   8.344  0.3880  0.1454  0.1116
 3798SOL    HW112682   0.560   2.493   8.361 -1.2770 -0.5143 -0.7370
 3798SOL    HW212683   0.645   2.386   8.427 -1.2236  0.6062  1.0754
 3799SOL     OW12684   2.750   3.378   5.063  0.5192 -0.5493 -0.2711
 3799SOL    HW112685   2.729   3.470   5.049 -1.0150 -0.4758  1.9811
 3799SOL    HW212686   2.837   3.378   5.103  0.7918 -0.1420 -0.8525
 3800SOL     OW12687   4.904   3.470   3.177 -0.1895  0.2410 -0.1537
 3800SOL    HW112688   4.835   3.413   3.142 -1.5566  0.2668  2.2662
 3800SOL    HW212689   4.900   3.549   3.123 -2.0017  0.1851 -0.1656
 3801SOL     OW12690   4.335   0.382   2.828  0.1432  0.0926 -0.3074
 3801SOL    HW112691   4.310   0.294   2.857  2.1399  0.1954  2.1392
 3801SOL    HW212692   4.295   0.392   2.742 -0.7226 -2.9358 -0.3605
 3802SOL     OW12693   1.962   7.379   0.942 -0.0985 -0.3040  0.0640
 3802SOL    HW112694   1.927   7.320   1.009 -0.1731 -0.5381 -0.1821
 3802SOL    HW212695   2.030   7.429   0.988 -0.3042 -0.3030  0.3749
 3803SOL     OW12696   4.624   7.984   5.002 -0.2395  0.0433  0.7541
 3803SOL    HW112697   4.658   8.044   4.935 -1.2342 -1.7407 -1.4733
 3803SOL    HW212698   4.682   7.997   5.077  1.6823  1.3174 -0.8363
 3804SOL     OW12699   5.660   7.555   8.065 -0.5979 -0.2404 -0.6680
 3804SOL    HW112700   5.596   7.508   8.119 -3.1480  2.0903 -1.4905
 3804SOL    HW212701   5.727   7.583   8.128 -1.0379 -1.5515  0.4545
 3805SOL     OW12702   6.297   7.896   1.634  0.0861  0.6072  0.2957
 3805SOL    HW112703   6.378   7.944   1.648  1.5700 -2.0010  1.4473
 3805SOL    HW212704   6.241   7.920   1.707  0.8792  0.4846  0.9583
 3806SOL     OW12705   5.863   0.133   2.596  0.1505 -0.0068  0.0982
 3806SOL    HW112706   5.926   0.060   2.598 -1.2664 -1.3791 -1.7995
 3806SOL    HW212707   5.884   0.181   2.517 -0.7694 -0.1258 -0.2336
 3807SOL     OW12708   6.446   4.765   5.998 -0.1308  0.2784 -0.5809
 3807SOL    HW112709   6.540   4.759   6.017 -0.2670  1.9875  1.0328
 3807SOL    HW212710   6.423   4.855   6.022 -1.9518  0.2887 -2.1421
 3808SOL     OW12711   1.887   6.129   3.537 -0.1304  0.2792 -0.4515
 3808SOL    HW112712   1.899   6.222   3.555 -2.9200  0.6706 -0.1584
 3808SOL    HW212713   1.834   6.097   3.610  3.3315 -2.3890  1.1760
 3809SOL     OW12714   2.683   4.396   7.784 -0.3649  0.2833 -0.3590
 3809SOL    HW112715   2.658   4.417   7.694 -1.2582  0.3364 -0.1045
 3809SOL    HW212716   2.719   4.479   7.818 -0.4820  0.3956 -0.5076
 3810SOL     OW12717   3.909   3.761   4.464  0.1399  0.3617  0.0712
 3810SOL    HW112718   3.847   3.732   4.397 -0.1838  1.2508 -0.0309
 3810SOL    HW212719   3.880   3.850   4.486  0.9798  0.5351  0.5047
 3811SOL     OW12720   5.311   1.424   0.070 -0.5556 -0.1798  0.6045
 3811SOL    HW112721   5.291   1.356   0.007  0.0484  0.8212 -0.7083
 3811SOL    HW212722   5.233   1.480   0.072 -0.7318 -0.4353  1.0625
 3812SOL     OW12723   0.256   6.773   0.653  0.3204 -0.3817 -0.3429
 3812SOL    HW112724   0.234   6.708   0.719 -0.9429  0.9388  0.5967
 3812SOL    HW212725   0.225   6.735   0.571 -0.2179 -1.0641  0.1599
 3813SOL     OW12726   4.115   3.481   1.650  0.4243  0.0108  0.6541
 3813SOL    HW112727   4.172   3.544   1.606 -0.1847  0.4635  0.5026
 3813SOL    HW212728   4.062   3.444   1.579 -0.4737  0.6516  0.9741
 3814SOL     OW12729   4.910   6.491   0.334  0.0897 -0.4539 -0.1053
 3814SOL    HW112730   4.829   6.453   0.367 -1.0694  1.1723 -0.9587
 3814SOL    HW212731   4.898   6.585   0.341  2.0478 -0.1686  0.0315
 3815SOL     OW12732   8.435   3.706   7.050  0.1858  0.8293 -0.4004
 3815SOL    HW112733   8.377   3.748   7.114 -1.7442 -1.1795 -0.6797
 3815SOL    HW212734   8.479   3.778   7.006 -0.1935  2.3564  1.5794
 3816SOL     OW12735   0.895   1.649   3.467 -1.1895  0.1931 -0.0743
 3816SOL    HW112736   0.821   1.709   3.469 -0.0882  1.6745 -1.2131
 3816SOL    HW212737   0.961   1.690   3.523 -1.5477 -1.6846  1.8929
 3817SOL     OW12738   1.167   4.564   1.543  0.0225 -0.5390 -0.4012
 3817SOL    HW112739   1.077   4.596   1.549 -0.4082 -1.7825  0.1398
 3817SOL    HW212740   1.209   4.595   1.623  0.2914  0.6260 -0.9741
 3818SOL     OW12741   8.445   4.043   7.607 -0.2719 -0.4184 -0.3809
 3818SOL    HW112742   8.352   4.066   7.613 -0.0483  1.4876 -2.4954
 3818SOL    HW212743   8.489   4.105   7.664 -0.3059 -1.8659  1.2829
 3819SOL     OW12744   8.090   3.300   2.418 -0.4380  0.0095  0.7211
 3819SOL    HW112745   8.048   3.386   2.414 -0.4680 -0.0131  0.5455
 3819SOL    HW212746   8.175   3.317   2.459  0.6838  0.5717 -1.6587
 3820SOL     OW12747   4.418   6.992   6.128  0.3336 -0.3570 -0.6671
 3820SOL    HW112748   4.360   7.037   6.066 -1.6600 -1.1766  0.5036
 3820SOL    HW212749   4.475   7.061   6.162 -1.1152  0.8636 -0.6030
 3821SOL     OW12750   3.667   1.398   6.351 -0.0133  0.2001 -0.2145
 3821SOL    HW112751   3.666   1.486   6.387  0.9857  0.6410 -1.1901
 3821SOL    HW212752   3.603   1.350   6.403 -0.5905  1.4972  0.3204
 3822SOL     OW12753   0.375   1.252   5.836  0.0245 -0.1069 -0.2367
 3822SOL    HW112754   0.352   1.181   5.896  0.8064 -0.8580 -0.7848
 3822SOL    HW212755   0.469   1.240   5.820 -0.0222  0.5051 -1.0498
 3823SOL     OW12756   0.507   3.049   2.470 -0.1357  0.5075 -0.0855
 3823SOL    HW112757   0.456   2.972   2.442  1.0269 -0.3455  0.0803
 3823SOL    HW212758   0.542   3.085   2.388  0.2698  0.1631 -0.0690
 3824SOL     OW12759   3.756   5.180   1.323 -0.3997  0.1831  0.0882
 3824SOL    HW112760   3.783   5.232   1.248 -3.1138  0.7896 -0.5522
 3824SOL    HW212761   3.737   5.094   1.287  1.7324 -0.6279  0.7494
 3825SOL     OW12762   5.905   2.315   7.804  0.3462  0.0839 -0.3197
 3825SOL    HW112763   5.838   2.355   7.749 -0.8724  0.2780  1.2080
 3825SOL    HW212764   5.976   2.379   7.806 -0.2977  0.8143 -0.3434
 3826SOL     OW12765   6.984   6.458   0.862  0.2210 -0.3789 -0.2001
 3826SOL    HW112766   7.011   6.442   0.771 -0.2472 -0.8086 -0.2692
 3826SOL    HW212767   6.888   6.454   0.860  0.2201 -0.8325  0.3902
 3827SOL     OW12768   4.890   3.134   4.926 -0.4555  0.4361  0.3962
 3827SOL    HW112769   4.893   3.059   4.986 -1.2060 -0.4244 -0.6087
 3827SOL    HW212770   4.833   3.197   4.970 -2.5147 -0.9385 -0.1858
 3828SOL     OW12771   3.733   2.203   3.531 -0.3411  0.6056 -0.3274
 3828SOL    HW112772   3.804   2.176   3.473 -0.5613  1.5723 -1.0646
 3828SOL    HW212773   3.762   2.175   3.618  0.0802 -0.6913 -0.8527
 3829SOL     OW12774   6.239   7.598   8.451 -0.2620 -0.0413 -0.1686
 3829SOL    HW112775   6.320   7.572   8.496  0.4051  0.1284 -1.2492
 3829SOL    HW212776   6.189   7.518   8.442  0.0189 -0.2422  0.0408
 3830SOL     OW12777   3.391   0.312   6.087  0.2366  0.0805 -0.1041
 3830SOL    HW112778   3.329   0.316   6.014  0.9316 -0.8513 -0.7651
 3830SOL    HW212779   3.474   0.288   6.046  0.7313 -0.0336  0.9479
 3831SOL     OW12780   5.851   2.843   5.044  0.3447  0.1451 -0.5701
 3831SOL    HW112781   5.872   2.886   4.961 -0.0555  1.0450 -0.2171
 3831SOL    HW212782   5.756   2.837   5.045  0.2827  1.0328  0.2541
 3832SOL     OW12783   7.017   0.450   2.586 -0.0403 -0.1594 -0.6046
 3832SOL    HW112784   7.004   0.528   2.641 -0.5727  0.4344 -1.5613
 3832SOL    HW212785   7.027   0.378   2.649  1.7535  0.8503  0.3462
 3833SOL     OW12786   2.109   8.185   2.995  0.1389 -0.3499 -0.0840
 3833SOL    HW112787   2.044   8.117   2.975 -0.3264 -0.3054  1.2131
 3833SOL    HW212788   2.138   8.166   3.084  1.3783  0.0759 -0.3721
 3834SOL     OW12789   5.296   4.912   2.037 -0.5641  0.0089  0.5124
 3834SOL    HW112790   5.323   4.887   1.949  2.6909 -1.0052  1.6609
 3834SOL    HW212791   5.243   4.991   2.024 -2.0741 -1.3171 -2.4278
 3835SOL     OW12792   4.758   1.634   5.496 -0.0986  0.1229  0.0150
 3835SOL    HW112793   4.701   1.694   5.544  0.5711 -0.4896  1.6536
 3835SOL    HW212794   4.722   1.547   5.513  0.5652 -0.1656 -0.0002
 3836SOL     OW12795   2.969   3.524   5.177 -0.2294  0.2589 -0.1788
 3836SOL    HW112796   2.999   3.606   5.216  0.4871 -0.4203  0.7676
 3836SOL    HW212797   3.024   3.513   5.100  0.6134  0.0077  0.4463
 3837SOL     OW12798   1.275   7.615   6.150  1.0440  0.2844  0.7130
 3837SOL    HW112799   1.371   7.620   6.151  1.0296  0.7561  2.7026
 3837SOL    HW212800   1.246   7.706   6.150  0.5511  0.1571 -0.5113
 3838SOL     OW12801   2.013   3.202   3.717 -0.0857  0.6160 -0.1231
 3838SOL    HW112802   1.984   3.293   3.712  0.8660  0.9525  0.2942
 3838SOL    HW212803   2.107   3.208   3.733 -0.0355 -0.4444  0.0249
 3839SOL     OW12804   5.944   2.758   4.043  0.5183 -0.7106 -0.3602
 3839SOL    HW112805   6.023   2.727   4.000 -0.6259 -1.2714 -2.1385
 3839SOL    HW212806   5.872   2.732   3.986 -0.9422  0.2436  0.9253
 3840SOL     OW12807   8.474   8.470   6.410 -0.2817  0.5544  0.1631
 3840SOL    HW112808   8.470   8.538   6.343  0.8950 -1.4984 -2.1795
 3840SOL    HW212809   8.561   8.480   6.449  0.2151 -0.0618 -0.7533
 3841SOL     OW12810   6.174   0.775   2.774 -0.0985 -0.3638  0.1805
 3841SOL    HW112811   6.267   0.751   2.770 -0.3073 -1.3096  0.7074
 3841SOL    HW212812   6.174   0.868   2.793  0.7601  0.2026 -2.2339
 3842SOL     OW12813   3.174   3.973   2.620 -0.4075  0.3707  0.5543
 3842SOL    HW112814   3.257   3.931   2.641  0.0970  1.3435  0.5938
 3842SOL    HW212815   3.124   3.907   2.572  1.3829  0.5453 -1.7209
 3843SOL     OW12816   3.322   1.751   6.570 -0.4715  0.1747  0.0598
 3843SOL    HW112817   3.263   1.696   6.621 -1.1852  1.8492  1.1272
 3843SOL    HW212818   3.407   1.742   6.613 -0.7625  0.4974  0.7108
 3844SOL     OW12819   7.910   0.785   1.393  0.0815 -0.0267 -0.3428
 3844SOL    HW112820   7.993   0.743   1.370 -0.5073 -1.2361 -0.3978
 3844SOL    HW212821   7.894   0.848   1.323  1.5696  1.1778  0.3543
 3845SOL     OW12822   6.631   0.739   4.230  0.0579  0.2045 -0.0688
 3845SOL    HW112823   6.726   0.750   4.232  0.0160  0.6295 -0.4329
 3845SOL    HW212824   6.601   0.800   4.163 -0.5929  0.9356  0.8701
 3846SOL     OW12825   1.697   5.776   2.938 -0.2181  0.5559  0.8064
 3846SOL    HW112826   1.660   5.858   2.906 -0.4271  0.4272  0.7202
 3846SOL    HW212827   1.719   5.794   3.029 -0.8343  0.5207  0.9680
 3847SOL     OW12828   7.927   7.012   3.804 -0.1033  0.1216  0.3682
 3847SOL    HW112829   7.922   6.976   3.715  0.2140  1.1885 -0.1048
 3847SOL    HW212830   7.993   6.959   3.848 -1.5301 -1.5671  0.5503
 3848SOL     OW12831   8.197   4.978   0.301 -0.7871  0.3628  0.0251
 3848SOL    HW112832   8.152   4.938   0.227 -0.4696  1.7104 -0.9317
 3848SOL    HW212833   8.288   4.948   0.293 -0.7993  0.3280  0.0158
 3849SOL     OW12834   6.556   8.201   4.417 -0.0125 -0.5047  0.1829
 3849SOL    HW112835   6.496   8.137   4.456 -1.4087  0.3326 -0.4948
 3849SOL    HW212836   6.544   8.190   4.323 -0.4803  0.9052  0.0559
 3850SOL     OW12837   1.432   5.249   4.570  0.3723  0.2674 -0.0668
 3850SOL    HW112838   1.403   5.268   4.481  0.1964 -0.2565 -0.1205
 3850SOL    HW212839   1.478   5.165   4.564  0.3376  0.2162  0.3428
 3851SOL     OW12840   6.894   1.229   1.326 -0.7095  0.7444 -0.0944
 3851SOL    HW112841   6.978   1.182   1.326 -0.7432  0.6792 -0.5408
 3851SOL    HW212842   6.916   1.317   1.354 -0.6501  0.4519  0.7978
 3852SOL     OW12843   4.525   2.807   6.586  0.3359 -0.4448  0.2374
 3852SOL    HW112844   4.446   2.754   6.577 -0.3242  0.3294  1.1298
 3852SOL    HW212845   4.588   2.768   6.526 -1.8603  1.1208 -3.4033
 3853SOL     OW12846   1.155   4.833   2.802 -0.4054 -0.2766  0.4940
 3853SOL    HW112847   1.074   4.835   2.751 -0.5426  0.1214  0.7199
 3853SOL    HW212848   1.171   4.924   2.825  0.5440 -0.2453 -0.2267
 3854SOL     OW12849   8.152   8.494   2.764  0.1740 -0.6815 -0.1790
 3854SOL    HW112850   8.244   8.516   2.747  0.4089 -0.2299  1.4988
 3854SOL    HW212851   8.103   8.551   2.705  0.9460 -0.4616 -0.6315
 3855SOL     OW12852   0.007   1.580   0.060  0.6020  0.1739  0.5770
 3855SOL    HW112853   0.078   1.620   0.010  0.7549  0.0894  0.7270
 3855SOL    HW212854  -0.051   1.654   0.082 -0.3579 -0.0174 -1.1598
 3856SOL     OW12855   4.039   1.271   7.781  0.3482 -0.0763  0.0578
 3856SOL    HW112856   4.011   1.181   7.764 -0.5703  0.3642 -0.9149
 3856SOL    HW212857   4.134   1.269   7.771  0.2715 -0.8050 -0.6814
 3857SOL     OW12858   3.779   3.948   5.511  0.2568  0.1067  0.3216
 3857SOL    HW112859   3.844   4.017   5.493  0.6630 -0.3396  0.0447
 3857SOL    HW212860   3.696   3.995   5.518  0.4772  0.5944 -0.1938
 3858SOL     OW12861   8.690   6.723   0.160 -0.3344 -0.1067  0.4290
 3858SOL    HW112862   8.696   6.748   0.252 -1.7061 -0.0816  0.5347
 3858SOL    HW212863   8.628   6.786   0.122 -2.5824 -2.2144  0.3307
 3859SOL     OW12864   3.412   6.260   8.181 -0.2185 -0.6547  0.1751
 3859SOL    HW112865   3.425   6.175   8.223  0.8270 -0.6107 -0.0414
 3859SOL    HW212866   3.454   6.252   8.095 -0.2531  0.0293  0.0848
 3860SOL     OW12867   3.667   5.816   8.311 -0.1796  0.1762 -0.1111
 3860SOL    HW112868   3.683   5.899   8.266  2.1673 -0.3664 -0.4049
 3860SOL    HW212869   3.692   5.749   8.247 -0.9118 -0.7353  0.5327
 3861SOL     OW12870   6.666   6.889   8.338  1.0758 -0.1000  0.0272
 3861SOL    HW112871   6.712   6.853   8.414  2.4097 -0.6427 -0.9958
 3861SOL    HW212872   6.646   6.979   8.362  0.6464 -0.5262  1.3616
 3862SOL     OW12873   6.728   3.565   1.961  0.1231  0.0976 -0.3609
 3862SOL    HW112874   6.819   3.566   1.932 -0.1851  0.2628 -1.3396
 3862SOL    HW212875   6.677   3.592   1.885 -0.6704  1.0257  0.4473
 3863SOL     OW12876   6.133   4.737   0.754 -0.0949 -0.1001  0.1667
 3863SOL    HW112877   6.157   4.667   0.815 -2.7643 -0.0875  1.3820
 3863SOL    HW212878   6.156   4.703   0.668  1.7638 -1.0194  0.9655
 3864SOL     OW12879   0.326   1.063   4.158 -0.3786 -0.7027 -0.2965
 3864SOL    HW112880   0.408   1.014   4.169 -0.3153 -0.3547  0.8159
 3864SOL    HW212881   0.258   0.997   4.161 -0.1545 -1.0017 -1.2673
 3865SOL     OW12882   3.136   2.262   1.728  0.0358 -0.2695  0.7973
 3865SOL    HW112883   3.042   2.244   1.741 -0.4034  1.0965 -0.3194
 3865SOL    HW212884   3.140   2.355   1.704  1.8538  0.1850  2.5783
 3866SOL     OW12885   1.895   5.902   1.327 -0.6624  0.3166  0.7576
 3866SOL    HW112886   1.912   5.838   1.395 -1.5450 -0.9445 -0.1552
 3866SOL    HW212887   1.824   5.864   1.275  0.3714  0.9287 -1.2359
 3867SOL     OW12888   0.899   3.768   0.315 -0.2782 -0.2850 -0.0191
 3867SOL    HW112889   0.878   3.861   0.326  0.2352 -0.1265 -0.3368
 3867SOL    HW212890   0.864   3.725   0.393 -1.0933  0.0812 -0.1786
 3868SOL     OW12891   7.614   0.217   2.630 -0.2185 -0.7970 -0.0802
 3868SOL    HW112892   7.619   0.123   2.644  0.1392 -0.9855 -1.3541
 3868SOL    HW212893   7.667   0.255   2.700 -2.1690 -1.3826  1.8254
 3869SOL     OW12894   5.730   8.088   3.165 -0.6149  0.0977  0.1724
 3869SOL    HW112895   5.644   8.052   3.186 -1.1138 -1.1311 -3.3386
 3869SOL    HW212896   5.721   8.119   3.075  3.2232 -2.4380 -1.3278
 3870SOL     OW12897   1.607   4.976   5.127 -0.1816  0.0142  0.7087
 3870SOL    HW112898   1.584   5.065   5.154  2.8129  0.5488  1.8381
 3870SOL    HW212899   1.589   4.922   5.205 -2.1608 -0.4646 -0.0311
 3871SOL     OW12900   1.989   5.156   2.045  0.1797  0.2660 -0.2607
 3871SOL    HW112901   2.007   5.235   2.096  0.8149  0.1321 -0.2747
 3871SOL    HW212902   2.014   5.084   2.103 -0.7553  0.0559 -0.1031
 3872SOL     OW12903   4.897   5.163   6.460  0.6312  0.0551 -0.4517
 3872SOL    HW112904   4.891   5.119   6.375  0.5993  1.1584 -1.0314
 3872SOL    HW212905   4.975   5.126   6.501  0.2084 -1.0630 -0.6063
 3873SOL     OW12906   5.074   0.544   0.185 -0.3447  0.0055  0.6228
 3873SOL    HW112907   5.094   0.637   0.187 -0.0989 -0.0565  1.4970
 3873SOL    HW212908   4.980   0.539   0.204 -0.5602  0.1118 -0.3302
 3874SOL     OW12909   1.753   8.058   3.809 -0.2861  1.4315 -0.0323
 3874SOL    HW112910   1.743   8.099   3.723 -0.7529 -2.0023 -1.7595
 3874SOL    HW212911   1.801   7.977   3.792 -2.0213 -0.2968  2.6070
 3875SOL     OW12912   0.165   1.501   7.048 -0.3889 -0.3683 -0.1889
 3875SOL    HW112913   0.256   1.530   7.047 -0.4382  0.0510  1.7867
 3875SOL    HW212914   0.117   1.569   7.000  0.0013  0.9868  1.2283
 3876SOL     OW12915   2.593   7.248   0.641  0.7114 -0.6257  0.0373
 3876SOL    HW112916   2.639   7.194   0.578  0.9467  1.7399 -1.9854
 3876SOL    HW212917   2.500   7.226   0.628  0.7676 -0.2591 -1.0867
 3877SOL     OW12918   7.718   4.174   5.293  0.9187 -0.7768 -0.0692
 3877SOL    HW112919   7.724   4.246   5.356  1.1046 -0.4905 -0.4123
 3877SOL    HW212920   7.730   4.095   5.346  0.3589 -0.5787  0.3609
 3878SOL     OW12921   6.293   7.367   5.945 -0.3848  0.5065 -0.3921
 3878SOL    HW112922   6.219   7.320   5.985 -0.0413  0.1602 -0.1541
 3878SOL    HW212923   6.252   7.434   5.890 -0.8780  0.8760  0.3989
 3879SOL     OW12924   0.154   4.057   4.420 -0.6170 -0.5530  0.1851
 3879SOL    HW112925   0.148   4.097   4.333  0.5261 -1.3325 -0.2818
 3879SOL    HW212926   0.216   4.112   4.467  0.4802 -1.3715 -0.2543
 3880SOL     OW12927   5.671   0.889   8.147 -0.1942 -0.5765 -0.7892
 3880SOL    HW112928   5.595   0.876   8.204  0.3035 -1.9283 -0.4090
 3880SOL    HW212929   5.693   0.982   8.158  1.3206 -1.2171  3.1316
 3881SOL     OW12930   4.988   7.257   8.170  0.1833 -0.4402 -0.0711
 3881SOL    HW112931   4.944   7.173   8.159 -2.6893  1.1483 -1.9219
 3881SOL    HW212932   5.072   7.246   8.124 -0.4724 -2.0661 -0.9629
 3882SOL     OW12933   5.066   6.109   3.673  0.1071 -0.0613 -0.0693
 3882SOL    HW112934   5.049   6.201   3.690 -2.8427 -0.5725  0.2462
 3882SOL    HW212935   5.056   6.100   3.578 -1.1263 -0.2875  0.0685
 3883SOL     OW12936   0.374   2.542   2.205  0.7890 -0.2678 -0.2337
 3883SOL    HW112937   0.422   2.479   2.152 -0.2068 -1.6331  0.4406
 3883SOL    HW212938   0.398   2.522   2.295  1.2532  1.0145 -0.0420
 3884SOL     OW12939   5.428   6.805   4.357  0.0073 -0.3626  0.0363
 3884SOL    HW112940   5.479   6.876   4.318  0.9526 -1.4193 -0.6850
 3884SOL    HW212941   5.456   6.804   4.449  0.0032  0.1815  0.0477
 3885SOL     OW12942   4.186   7.447   5.838 -0.1758 -0.2879 -0.6189
 3885SOL    HW112943   4.116   7.393   5.874 -0.0277 -0.2165 -0.2183
 3885SOL    HW212944   4.264   7.420   5.886  0.1022 -0.4694 -1.1633
 3886SOL     OW12945   3.247   1.770   1.179 -0.1658 -0.2678  0.0995
 3886SOL    HW112946   3.245   1.828   1.254 -2.1533  0.2157 -0.2691
 3886SOL    HW212947   3.192   1.813   1.113  3.3252  0.5344 -2.5975
 3887SOL     OW12948   4.776   8.145   1.508  0.0729  0.4035  0.4875
 3887SOL    HW112949   4.751   8.157   1.416  0.7753  0.8444  0.3454
 3887SOL    HW212950   4.800   8.232   1.538 -0.0286  0.2374  1.0569
 3888SOL     OW12951   8.179   3.362   5.321 -0.2973 -0.7175 -0.2898
 3888SOL    HW112952   8.115   3.411   5.270  0.3268  0.8874  0.3807
 3888SOL    HW212953   8.179   3.405   5.407  0.4575 -1.7721  0.2664
 3889SOL     OW12954   3.807   6.026   6.501  0.5708 -0.4135 -0.1482
 3889SOL    HW112955   3.788   5.932   6.494  0.0952 -0.5661  2.3875
 3889SOL    HW212956   3.722   6.068   6.489  0.5714 -0.3926 -0.0811
 3890SOL     OW12957   5.705   0.179   6.477  0.6384  0.6290  0.2947
 3890SOL    HW112958   5.792   0.182   6.437  1.3069  0.2501  1.6669
 3890SOL    HW212959   5.689   0.086   6.492  0.5338  0.7831  1.1796
 3891SOL     OW12960   0.795   1.648   5.582  0.2221  0.0283 -0.0950
 3891SOL    HW112961   0.870   1.589   5.582  0.0424 -0.2190 -0.7661
 3891SOL    HW212962   0.746   1.626   5.661 -0.6750 -1.8432 -1.0881
 3892SOL     OW12963   7.295   7.750   5.589 -0.0035 -0.3270 -0.0157
 3892SOL    HW112964   7.338   7.668   5.611  1.5219  0.6216  0.6656
 3892SOL    HW212965   7.326   7.771   5.501  0.7044  0.1891  0.3452
 3893SOL     OW12966   3.533   4.908   8.068  0.3120  0.0358 -0.4878
 3893SOL    HW112967   3.488   4.889   8.150  1.1306  0.3120  0.0454
 3893SOL    HW212968   3.622   4.874   8.082  0.6817  0.7798 -0.9550
 3894SOL     OW12969   2.043   6.301   2.145  0.0012  0.8011  0.7386
 3894SOL    HW112970   2.137   6.297   2.163  0.0372 -0.1580  0.4061
 3894SOL    HW212971   2.029   6.387   2.105  0.8605  0.6626  0.1248
 3895SOL     OW12972   1.860   0.091   0.416  0.4790  0.1264  0.5884
 3895SOL    HW112973   1.913   0.146   0.359  0.9568  0.0063  0.9123
 3895SOL    HW212974   1.791   0.150   0.448 -1.3345 -0.3837 -2.0429
 3896SOL     OW12975   0.966   8.241   6.223  0.2705  0.0108 -0.3629
 3896SOL    HW112976   0.894   8.185   6.193  1.3798 -2.2252  0.9304
 3896SOL    HW212977   1.037   8.225   6.160  0.1211  1.1938 -0.8662
 3897SOL     OW12978   6.066   5.439   3.647 -0.7987  0.1679  0.0483
 3897SOL    HW112979   6.041   5.358   3.692  0.1397 -0.7450 -1.0019
 3897SOL    HW212980   5.993   5.455   3.587 -1.9535  1.2755  1.6806
 3898SOL     OW12981   3.945   1.561   7.842  0.5755 -0.2359 -0.0638
 3898SOL    HW112982   3.898   1.597   7.767  1.3679 -0.3434 -0.6300
 3898SOL    HW212983   3.972   1.638   7.893 -0.3602 -0.1816  0.3748
 3899SOL     OW12984   0.172   4.186   1.436 -0.2185  0.4804  0.2700
 3899SOL    HW112985   0.092   4.153   1.395 -1.0128 -1.6125  3.1929
 3899SOL    HW212986   0.243   4.152   1.381 -1.2487 -0.8407 -0.3015
 3900SOL     OW12987   2.376   7.346   0.879  0.5711  0.4032 -0.2054
 3900SOL    HW112988   2.357   7.435   0.850 -1.1735  0.3871  0.7282
 3900SOL    HW212989   2.338   7.289   0.812  1.2479  0.3477 -0.5506
 3901SOL     OW12990   4.453   8.339   3.799 -0.4272  0.1647  0.0963
 3901SOL    HW112991   4.406   8.382   3.728  2.5280  0.3886 -1.9173
 3901SOL    HW212992   4.497   8.265   3.757  2.8483  1.3098  1.1600
 3902SOL     OW12993   7.924   4.659   6.245  0.1527  0.2412  0.4170
 3902SOL    HW112994   7.927   4.618   6.331  1.3367  2.5180  1.5684
 3902SOL    HW212995   8.016   4.662   6.217  0.1581  2.1446  0.4851
 3903SOL     OW12996   8.124   0.309   1.543  0.6368  0.2005  0.1456
 3903SOL    HW112997   8.200   0.280   1.491  0.0958 -0.2950 -0.3905
 3903SOL    HW212998   8.156   0.310   1.633  0.9037 -1.3683  0.1002
 3904SOL     OW12999   5.304   0.014   2.281  0.3837 -0.4509  0.2008
 3904SOL    HW113000   5.241   0.070   2.326  0.8945 -0.7475  1.3270
 3904SOL    HW213001   5.251  -0.049   2.233 -0.2133  1.1971 -1.3970
 3905SOL     OW13002   7.424   5.238   1.953  0.4344 -0.1398 -0.5931
 3905SOL    HW113003   7.363   5.242   2.027  0.1159 -1.3010 -0.7820
 3905SOL    HW213004   7.439   5.330   1.930  0.8206  0.2591  1.1301
 3906SOL     OW13005   6.894   5.716   2.506  0.1704  0.2167 -0.1076
 3906SOL    HW113006   6.839   5.737   2.580  1.2656  0.7325  0.5857
 3906SOL    HW213007   6.834   5.684   2.439 -0.9293  0.6053  0.6780
 3907SOL     OW13008   1.660   1.034   0.165  0.0841 -0.5333  0.4082
 3907SOL    HW113009   1.580   0.989   0.193  1.0735 -2.5322  0.2110
 3907SOL    HW213010   1.725   0.964   0.158  2.3704  1.2534  2.3149
 3908SOL     OW13011   6.014   1.903   3.093  0.6923 -0.3926  0.2075
 3908SOL    HW113012   5.975   1.969   3.037 -0.7962 -1.0181  0.4563
 3908SOL    HW213013   6.087   1.868   3.041  0.6190  0.4456 -0.4849
 3909SOL     OW13014   5.723   3.601   7.769  0.4180  0.1939 -0.3629
 3909SOL    HW113015   5.743   3.623   7.860 -1.3738 -1.2632  0.4643
 3909SOL    HW213016   5.803   3.620   7.721  0.9781  2.3151  1.2655
 3910SOL     OW13017   1.631   0.986   7.257 -0.8784  0.0049 -0.8272
 3910SOL    HW113018   1.548   0.957   7.295  0.4454 -2.4188  0.4153
 3910SOL    HW213019   1.686   1.009   7.333  0.7934 -2.0246 -1.3265
 3911SOL     OW13020   5.473   0.718   8.361  0.1047 -0.4085 -0.3956
 3911SOL    HW113021   5.489   0.624   8.358 -0.2670 -0.4508 -1.1101
 3911SOL    HW213022   5.403   0.729   8.425 -0.0722 -0.6478 -0.5477
 3912SOL     OW13023   6.171   4.032   3.207  0.1941  0.9064 -0.1138
 3912SOL    HW113024   6.218   4.033   3.290 -0.3855 -0.5096  0.2603
 3912SOL    HW213025   6.110   4.106   3.212 -0.2141  0.5014  0.9469
 3913SOL     OW13026   1.480   4.038   7.170 -1.3475  0.0860  0.7515
 3913SOL    HW113027   1.419   4.110   7.157 -0.5899  0.4013 -1.5944
 3913SOL    HW213028   1.552   4.057   7.110 -0.1375 -1.5638  1.6064
 3914SOL     OW13029   6.230   6.969   0.275 -0.0221  0.3835 -0.5383
 3914SOL    HW113030   6.287   6.927   0.339 -0.4294 -1.2516 -1.1696
 3914SOL    HW213031   6.141   6.952   0.307 -0.1979  1.4962 -0.3996
 3915SOL     OW13032   5.516   5.061   8.472 -0.6963 -0.4777 -0.1225
 3915SOL    HW113033   5.449   5.129   8.484  0.7347  1.0643 -0.5578
 3915SOL    HW213034   5.590   5.090   8.525 -0.2067 -1.9764  0.0777
 3916SOL     OW13035   7.239   6.640   3.232 -0.5995  0.2777  0.0613
 3916SOL    HW113036   7.204   6.728   3.246 -0.7302  0.0473  1.2782
 3916SOL    HW213037   7.208   6.616   3.145  0.3968  1.8730 -0.7880
 3917SOL     OW13038   3.008   2.428   0.514  0.1985  0.0375  0.1119
 3917SOL    HW113039   2.986   2.432   0.607 -2.4572 -0.1473 -0.4309
 3917SOL    HW213040   3.004   2.335   0.492  0.7910  0.0831 -0.2135
 3918SOL     OW13041   0.820   7.314   2.563  0.3936 -0.5209 -0.2790
 3918SOL    HW113042   0.743   7.360   2.598  2.0012  1.1729  1.2316
 3918SOL    HW213043   0.784   7.252   2.499 -2.0988  1.1738 -0.6516
 3919SOL     OW13044   7.268   1.399   5.938 -0.2575 -0.2184  0.5999
 3919SOL    HW113045   7.195   1.339   5.956  0.4662 -1.1458  0.4921
 3919SOL    HW213046   7.277   1.449   6.019 -0.2164 -0.9547  1.0638
 3920SOL     OW13047   6.598   2.070   1.871 -0.3471 -0.0068 -0.5553
 3920SOL    HW113048   6.551   1.988   1.855 -0.6615 -0.0730  0.6659
 3920SOL    HW213049   6.561   2.104   1.952  2.3816 -0.5603  1.0161
 3921SOL     OW13050   2.376   8.064   5.602  0.5883  0.1274  0.0583
 3921SOL    HW113051   2.282   8.063   5.620  0.6653 -0.4383  0.4274
 3921SOL    HW213052   2.409   8.138   5.653  0.2176  0.9004 -0.7752
 3922SOL     OW13053   0.135   1.492   7.967 -0.0710 -0.0102  1.2644
 3922SOL    HW113054   0.094   1.536   7.892  2.0603 -0.7894 -0.4623
 3922SOL    HW213055   0.136   1.400   7.944  0.5297 -0.2880  2.3320
 3923SOL     OW13056   4.882   7.719   5.299  0.1812  0.2196  0.0877
 3923SOL    HW113057   4.852   7.806   5.327  0.6477  0.1446  0.8585
 3923SOL    HW213058   4.936   7.736   5.222  2.2264  0.9025  1.5879
 3924SOL     OW13059   0.839   2.821   2.929  0.2515  0.2247  0.0234
 3924SOL    HW113060   0.887   2.898   2.962 -1.8652  0.8157  1.9350
 3924SOL    HW213061   0.846   2.757   2.999  0.8359 -0.8697 -1.0029
 3925SOL     OW13062   7.513   4.746   0.402 -0.2025 -0.6322 -0.0871
 3925SOL    HW113063   7.434   4.692   0.409  0.5056 -1.6713  0.2928
 3925SOL    HW213064   7.578   4.689   0.361 -0.0676  0.7129 -1.8427
 3926SOL     OW13065   3.426   7.081   1.386 -0.1540  0.7766  0.8743
 3926SOL    HW113066   3.432   7.085   1.481  2.1203  1.5128  0.7538
 3926SOL    HW213067   3.482   7.007   1.362 -0.2741  0.9319  0.0928
 3927SOL     OW13068   7.138   5.471   5.267  0.5781 -0.3792 -0.6185
 3927SOL    HW113069   7.122   5.560   5.237  2.4826 -0.5212 -2.3120
 3927SOL    HW213070   7.205   5.479   5.335 -0.5960 -0.4127  0.5815
 3928SOL     OW13071   0.931   7.860   6.474 -0.0786 -0.4910 -0.5010
 3928SOL    HW113072   1.003   7.839   6.533  0.6600  2.3382 -0.2331
 3928SOL    HW213073   0.974   7.888   6.393 -0.8184  0.9576 -0.4386
 3929SOL     OW13074   2.709   1.078   0.522 -0.2130  0.5957 -0.5904
 3929SOL    HW113075   2.784   1.124   0.560  1.6120 -2.9513  0.5302
 3929SOL    HW213076   2.651   1.062   0.596 -0.1522 -0.1039 -0.6936
 3930SOL     OW13077   1.827   0.414   4.094 -0.1711 -0.1687 -0.2727
 3930SOL    HW113078   1.880   0.428   4.015 -0.8631 -2.5471 -1.2679
 3930SOL    HW213079   1.876   0.350   4.145 -0.4870  0.1737  0.4752
 3931SOL     OW13080   3.161   5.008   7.439 -0.3988 -0.7086  0.1583
 3931SOL    HW113081   3.074   5.008   7.479 -0.9177  0.9543 -0.8785
 3931SOL    HW213082   3.197   4.922   7.461 -2.5281 -1.6713  0.1270
 3932SOL     OW13083   7.624   0.961   0.355  0.7271 -0.1344 -0.1157
 3932SOL    HW113084   7.681   0.914   0.293  1.2548  0.0141  0.2456
 3932SOL    HW213085   7.615   0.901   0.429  3.3697  1.1608  1.4451
 3933SOL     OW13086   5.082   7.147   3.914 -0.0985 -0.1158 -0.4786
 3933SOL    HW113087   4.992   7.120   3.897  0.2945 -1.2821 -0.7900
 3933SOL    HW213088   5.136   7.084   3.867  0.8902  1.0110 -0.9292
 3934SOL     OW13089   5.615   8.633   7.401 -0.3994 -0.3198  0.2286
 3934SOL    HW113090   5.605   8.540   7.422  1.4724 -0.2770  1.5779
 3934SOL    HW213091   5.708   8.650   7.413 -0.6821  1.7160 -0.1231
 3935SOL     OW13092   7.988   0.705   4.854 -0.1263  0.0291  0.1785
 3935SOL    HW113093   8.027   0.766   4.792  2.1093 -0.2438  1.2155
 3935SOL    HW213094   7.907   0.675   4.811 -0.1340  1.9892 -1.2933
 3936SOL     OW13095   2.848   1.142   7.302 -0.1080  0.1490 -0.1737
 3936SOL    HW113096   2.782   1.118   7.368  1.1081  0.0917  1.0776
 3936SOL    HW213097   2.797   1.165   7.224 -1.5520 -0.8282  0.4410
 3937SOL     OW13098   5.077   2.656   7.146  0.0051  0.2717  0.2659
 3937SOL    HW113099   5.083   2.645   7.241 -1.0792  1.1895  0.4557
 3937SOL    HW213100   5.157   2.702   7.122 -0.8300  2.2951  1.1232
 3938SOL     OW13101   7.657   4.388   3.186 -0.2553  0.2730 -0.7588
 3938SOL    HW113102   7.654   4.360   3.278  0.1666  0.0153 -0.8235
 3938SOL    HW213103   7.733   4.343   3.149 -0.9336 -0.3287 -1.4672
 3939SOL     OW13104   0.277   2.898   8.479 -0.2436  0.1363  0.2068
 3939SOL    HW113105   0.354   2.864   8.434  0.0996 -0.8937  1.4948
 3939SOL    HW213106   0.312   2.946   8.554 -0.8127  1.4294 -0.3213
 3940SOL     OW13107   3.143   1.775   7.748  0.1054  0.3193 -0.1441
 3940SOL    HW113108   3.167   1.742   7.834  0.5560 -0.3112 -0.4991
 3940SOL    HW213109   3.162   1.702   7.688 -0.4934  0.6373 -0.7367
 3941SOL     OW13110   1.939   5.563   0.117 -0.2480  0.4756  0.2802
 3941SOL    HW113111   1.885   5.603   0.186 -0.0521  0.3400  0.5163
 3941SOL    HW213112   1.877   5.513   0.064 -0.1802 -0.7857  1.3401
 3942SOL     OW13113   0.880   4.813   0.787  0.2995 -0.4014  0.1852
 3942SOL    HW113114   0.912   4.903   0.799 -0.3337  0.2222 -2.0752
 3942SOL    HW213115   0.803   4.824   0.730  1.2016 -2.4804 -1.5559
 3943SOL     OW13116   5.329   8.537   8.677  0.0685  0.4578  0.2420
 3943SOL    HW113117   5.331   8.492   8.592 -0.5301  2.4840 -0.9272
 3943SOL    HW213118   5.410   8.512   8.720 -0.0365 -1.3359 -0.5145
 3944SOL     OW13119   3.621   4.064   3.725 -0.1762 -0.2628 -0.2346
 3944SOL    HW113120   3.577   4.017   3.796 -0.4735  0.2607 -0.0671
 3944SOL    HW213121   3.647   4.147   3.764  1.3308 -0.7103 -0.2125
 3945SOL     OW13122   1.020   0.467   6.894 -0.1938 -0.3898 -0.3329
 3945SOL    HW113123   0.955   0.489   6.961 -1.1104 -0.0557 -1.3142
 3945SOL    HW213124   1.052   0.551   6.862  0.6020 -0.5521  0.0079
 3946SOL     OW13125   0.244   3.465   8.282  0.6226  0.7827  0.6135
 3946SOL    HW113126   0.209   3.534   8.225  2.1546 -0.3745 -1.9199
 3946SOL    HW213127   0.173   3.401   8.287  0.4663  0.8922 -0.0348
 3947SOL     OW13128   5.132   1.816   5.207  0.3032 -0.0465 -0.1027
 3947SOL    HW113129   5.179   1.742   5.168  0.8549 -0.4500  1.2539
 3947SOL    HW213130   5.070   1.775   5.267  0.3754  0.5820  0.4093
 3948SOL     OW13131   4.966   3.984   2.394  0.5538  0.0678  0.3443
 3948SOL    HW113132   5.035   4.017   2.451  1.6124 -1.2727 -0.1052
 3948SOL    HW213133   4.966   4.044   2.320  1.6609 -0.2113  0.0852
 3949SOL     OW13134   7.783   4.422   5.439  0.5409 -0.0952  0.1992
 3949SOL    HW113135   7.798   4.515   5.457  0.4580 -0.3604  1.7709
 3949SOL    HW213136   7.690   4.409   5.457  0.6330 -0.5646  0.3282
 3950SOL     OW13137   4.175   3.670   5.374  0.1542 -0.2286  0.2901
 3950SOL    HW113138   4.252   3.678   5.431 -0.4461 -2.0351  1.4358
 3950SOL    HW213139   4.209   3.684   5.286  1.3074  1.5377  0.9575
 3951SOL     OW13140   3.366   7.065   5.051  0.0220 -0.1362  0.2078
 3951SOL    HW113141   3.394   7.136   4.993  0.5885  0.2975  0.9932
 3951SOL    HW213142   3.272   7.059   5.037 -0.0347  0.7664  0.1156
 3952SOL     OW13143   7.210   6.288   4.108  0.2708 -0.2977 -0.1387
 3952SOL    HW113144   7.114   6.290   4.104  0.0794 -2.7078  1.0715
 3952SOL    HW213145   7.239   6.330   4.027 -1.6998  2.7558  0.5715
 3953SOL     OW13146   1.113   8.092   2.550 -0.5819  0.3208 -0.0007
 3953SOL    HW113147   1.142   8.103   2.460 -2.5964 -0.8821 -0.8532
 3953SOL    HW213148   1.018   8.103   2.547 -0.8372 -0.8604  1.7546
 3954SOL     OW13149   3.640   2.018   8.340  0.3205 -0.7419 -0.3200
 3954SOL    HW113150   3.706   2.050   8.278  1.3929 -2.2865 -0.0495
 3954SOL    HW213151   3.683   1.944   8.384 -1.1972 -1.0631  0.7026
 3955SOL     OW13152   1.464   6.774   2.467 -0.1097 -0.1557  0.1850
 3955SOL    HW113153   1.517   6.854   2.470  2.3203 -1.7100  1.3598
 3955SOL    HW213154   1.476   6.741   2.379  1.9611 -1.1258  0.7893
 3956SOL     OW13155   7.343   3.887   2.218 -0.0975 -0.1233 -0.3066
 3956SOL    HW113156   7.303   3.913   2.301 -0.9826 -0.3541 -0.6491
 3956SOL    HW213157   7.273   3.897   2.153 -0.0172 -1.7839 -0.7067
 3957SOL     OW13158   0.212   3.461   2.148  0.3030  0.6819  0.6931
 3957SOL    HW113159   0.212   3.543   2.099 -0.5237 -0.2892 -0.9867
 3957SOL    HW213160   0.298   3.459   2.191 -0.4615  3.4611  2.6749
 3958SOL     OW13161   6.496   1.034   3.707 -0.0582 -0.7074 -0.0662
 3958SOL    HW113162   6.540   1.021   3.624 -2.0988  0.1986 -1.3678
 3958SOL    HW213163   6.503   0.949   3.751 -0.7973 -1.9268 -2.1390
 3959SOL     OW13164   4.638   6.868   3.432 -0.2455  0.1914 -0.6227
 3959SOL    HW113165   4.647   6.955   3.393 -0.1529  0.5824  0.2601
 3959SOL    HW213166   4.592   6.816   3.365 -2.2119  1.4773 -0.3393
 3960SOL     OW13167   1.741   3.689   2.187 -0.8913  0.3039  0.6268
 3960SOL    HW113168   1.762   3.700   2.280  0.5281  0.0403  0.3746
 3960SOL    HW213169   1.826   3.670   2.146 -1.1225  2.5752 -1.0722
 3961SOL     OW13170   1.269   0.563   8.041  0.4052  0.2580  0.5177
 3961SOL    HW113171   1.324   0.544   8.117 -1.0079 -2.2858  1.0357
 3961SOL    HW213172   1.329   0.595   7.974  2.7187 -2.9279  0.8396
 3962SOL     OW13173   6.599   4.412   2.722  0.4828 -0.0995 -0.4686
 3962SOL    HW113174   6.674   4.386   2.669  1.4209  0.3946  0.5657
 3962SOL    HW213175   6.551   4.331   2.738  0.5598 -0.3535 -1.4899
 3963SOL     OW13176   2.975   6.485   0.748 -0.4917 -0.2589 -0.3324
 3963SOL    HW113177   2.912   6.550   0.780 -0.2711  0.8711 -2.0586
 3963SOL    HW213178   2.958   6.407   0.801  0.3880  1.6306  3.0571
 3964SOL     OW13179   1.604   5.839   6.382 -0.6104 -0.0077 -0.0072
 3964SOL    HW113180   1.597   5.824   6.288 -0.7236 -0.6835  0.0999
 3964SOL    HW213181   1.519   5.872   6.408 -0.6846 -0.1315 -0.0914
 3965SOL     OW13182   1.472   0.691   0.739  0.1431 -0.0717 -0.3074
 3965SOL    HW113183   1.448   0.727   0.653  0.7140  1.5828  0.1897
 3965SOL    HW213184   1.429   0.749   0.802  0.6589 -0.5862  0.5355
 3966SOL     OW13185   7.523   4.545   7.278  0.1371 -0.6584  0.7225
 3966SOL    HW113186   7.463   4.616   7.301  0.0090 -0.2169 -0.8400
 3966SOL    HW213187   7.527   4.548   7.182  2.8868 -0.4753  0.7696
 3967SOL     OW13188   2.036   2.520   7.658  0.4383  0.0555 -0.1317
 3967SOL    HW113189   2.015   2.572   7.580  0.1089 -1.1353 -0.8558
 3967SOL    HW213190   1.963   2.537   7.718  1.7835  2.7779  0.9184
 3968SOL     OW13191   2.313   0.297   8.253 -0.0970  0.2036  0.0424
 3968SOL    HW113192   2.308   0.373   8.196 -0.9095 -1.0428 -1.6334
 3968SOL    HW213193   2.406   0.287   8.272  0.0677  1.2654 -0.1636
 3969SOL     OW13194   0.795   7.432   4.492 -0.2710 -0.0058  0.1606
 3969SOL    HW113195   0.874   7.435   4.437 -1.6489  1.5274 -1.8745
 3969SOL    HW213196   0.782   7.522   4.520 -3.3540  0.6958 -2.8115
 3970SOL     OW13197   8.415   7.092   7.478  0.0998  0.3738  0.0882
 3970SOL    HW113198   8.452   7.174   7.447 -1.4471  0.5157 -1.5109
 3970SOL    HW213199   8.444   7.086   7.569  3.1605  0.9175 -0.7558
 3971SOL     OW13200   8.588   3.029   0.254  0.2287 -0.0678  0.6466
 3971SOL    HW113201   8.510   3.010   0.202 -0.2343  0.1962  1.2362
 3971SOL    HW213202   8.635   3.095   0.203 -0.6725  0.8489  0.9816
 3972SOL     OW13203   7.024   4.457   4.004  0.3329  0.3095 -0.0222
 3972SOL    HW113204   7.012   4.526   3.939  1.2081 -0.6361 -1.2407
 3972SOL    HW213205   6.975   4.487   4.081 -0.6227  1.5227 -1.0662
 3973SOL     OW13206   7.286   6.071   6.613 -0.3646 -0.1274  0.0677
 3973SOL    HW113207   7.297   6.057   6.519 -1.9274  3.1268 -0.7497
 3973SOL    HW213208   7.365   6.118   6.640 -0.5207  0.1633  0.0315
 3974SOL     OW13209   3.128   4.780   6.233  0.5928 -0.0216 -0.1362
 3974SOL    HW113210   3.169   4.856   6.191 -2.5169  1.9790  0.1022
 3974SOL    HW213211   3.107   4.721   6.161  0.4839  0.6659 -0.6766
 3975SOL     OW13212   2.204   2.874   8.378 -0.3632  0.0880  0.8684
 3975SOL    HW113213   2.239   2.801   8.429 -1.1578 -0.6989  0.3191
 3975SOL    HW213214   2.275   2.895   8.316 -1.0782 -2.0914 -0.8423
 3976SOL     OW13215   7.704   0.444   4.177 -0.0596  0.1442 -0.1818
 3976SOL    HW113216   7.727   0.355   4.150 -1.1176 -0.8366  1.9166
 3976SOL    HW213217   7.770   0.500   4.135  2.8489 -1.9626  1.2617
 3977SOL     OW13218   4.552   8.079   3.114 -0.2400 -0.0903 -0.1854
 3977SOL    HW113219   4.474   8.036   3.078  1.5446 -1.9093 -2.2288
 3977SOL    HW213220   4.574   8.146   3.049 -1.7671  2.7042  1.9412
 3978SOL     OW13221   3.300   8.134   0.781  0.2018 -0.1790  0.3752
 3978SOL    HW113222   3.261   8.112   0.697  1.4517 -0.4846 -0.1418
 3978SOL    HW213223   3.275   8.225   0.797  0.1982 -0.0306 -0.4625
 3979SOL     OW13224   3.236   0.405   0.337  0.2251 -0.2610 -0.2390
 3979SOL    HW113225   3.236   0.482   0.279  0.7103  0.4799  0.7111
 3979SOL    HW213226   3.240   0.330   0.277  2.3302  0.5087 -1.1765
 3980SOL     OW13227   2.779   1.002   6.472  0.7219 -0.0295  0.5802
 3980SOL    HW113228   2.805   0.962   6.389 -1.8449  0.1506 -0.4015
 3980SOL    HW213229   2.850   0.981   6.532  3.3511  1.0183 -1.9618
 3981SOL     OW13230   1.164   2.107   5.701 -0.6717  0.3692 -0.2007
 3981SOL    HW113231   1.202   2.187   5.664 -1.7191  0.9000 -0.1759
 3981SOL    HW213232   1.148   2.128   5.793 -1.7119  0.4315 -0.3832
 3982SOL     OW13233   1.837   2.487   8.311 -0.4202  0.6272  0.2238
 3982SOL    HW113234   1.788   2.407   8.297 -0.0645  0.5281 -0.4657
 3982SOL    HW213235   1.908   2.484   8.247  0.7629  0.5454  1.4889
 3983SOL     OW13236   5.194   0.984   6.793 -0.5474  0.2461  0.2487
 3983SOL    HW113237   5.106   0.975   6.828  0.0558 -0.2723  1.7140
 3983SOL    HW213238   5.208   1.079   6.788 -0.7618  0.3431  1.1890
 3984SOL     OW13239   5.044   5.635   7.468  0.1873 -0.0895  0.0846
 3984SOL    HW113240   4.952   5.627   7.494 -0.0021 -1.0645 -0.7985
 3984SOL    HW213241   5.050   5.721   7.427  0.0193  0.5847  1.4083
 3985SOL     OW13242   2.783   5.836   6.820  0.1545  0.1612 -0.6969
 3985SOL    HW113243   2.829   5.896   6.761 -0.1127  0.5367 -0.5248
 3985SOL    HW213244   2.843   5.762   6.830  1.0404  0.9567  0.0854
 3986SOL     OW13245   7.308   7.075   8.078  0.2452  0.5241 -0.8405
 3986SOL    HW113246   7.242   7.136   8.110 -0.8244  0.2124 -2.3414
 3986SOL    HW213247   7.292   6.995   8.127 -0.3101  0.5464 -0.9785
 3987SOL     OW13248   3.980   5.461   5.906  0.2629  0.4209  0.0930
 3987SOL    HW113249   3.984   5.370   5.935 -0.5776  0.6600  1.0245
 3987SOL    HW213250   4.061   5.474   5.857  0.1795 -0.9550 -0.4550
 3988SOL     OW13251   8.403   8.519   2.648 -0.1425  0.0755 -0.0522
 3988SOL    HW113252   8.404   8.614   2.639  0.2117 -0.0373 -1.3479
 3988SOL    HW213253   8.421   8.486   2.560  1.2420 -1.1708  0.6481
 3989SOL     OW13254   1.330   2.184   8.229 -0.5285 -0.6091  0.0320
 3989SOL    HW113255   1.236   2.195   8.215 -0.5815 -1.4831 -0.3760
 3989SOL    HW213256   1.361   2.271   8.256 -1.2947 -0.0907 -0.7046
 3990SOL     OW13257   6.914   5.377   1.074 -0.6469  0.2475  0.0271
 3990SOL    HW113258   6.992   5.389   1.020 -0.5842  0.7149  0.2107
 3990SOL    HW213259   6.851   5.334   1.017 -0.7819  1.2369 -0.6032
 3991SOL     OW13260   0.783   3.803   8.130  0.4620 -0.3494  0.1440
 3991SOL    HW113261   0.818   3.871   8.073  0.6436 -1.0632 -0.6137
 3991SOL    HW213262   0.724   3.850   8.190 -1.1170  0.2187 -1.7434
 3992SOL     OW13263   4.984   8.572   8.337 -0.0059  0.4230 -0.1050
 3992SOL    HW113264   5.030   8.593   8.418 -0.3790  1.2364 -0.0950
 3992SOL    HW213265   4.973   8.656   8.293 -1.0092  0.1688 -0.3580
 3993SOL     OW13266   7.535   2.984   6.595  0.1389  0.0011 -0.4030
 3993SOL    HW113267   7.581   3.068   6.597 -0.7720  0.5351  2.2254
 3993SOL    HW213268   7.600   2.921   6.625  0.0220  0.2702  0.4430
 3994SOL     OW13269   6.936   8.622   4.827  0.4320 -0.2464  0.2643
 3994SOL    HW113270   7.010   8.580   4.872 -0.2056 -2.3232 -0.5216
 3994SOL    HW213271   6.862   8.563   4.842 -0.2836  0.0661 -1.7703
 3995SOL     OW13272   1.100   7.762   0.194  0.1340  0.4000  0.0436
 3995SOL    HW113273   1.115   7.738   0.103 -1.6505  0.5774 -0.3327
 3995SOL    HW213274   1.186   7.789   0.226  0.9484 -0.4294 -1.3389
 3996SOL     OW13275   3.702   6.632   5.506  0.6392  0.1053  0.3838
 3996SOL    HW113276   3.787   6.589   5.513  0.3768 -0.1314  2.6456
 3996SOL    HW213277   3.663   6.624   5.593 -2.8846 -2.1729 -1.1739
 3997SOL     OW13278   4.845   0.620   8.511 -0.4723  0.6600  0.2040
 3997SOL    HW113279   4.909   0.579   8.570 -1.3387  0.2972  0.9251
 3997SOL    HW213280   4.806   0.690   8.563 -2.9553 -1.1618  1.0018
 3998SOL     OW13281   2.964   5.479   3.033 -0.3545 -0.5287 -0.7569
 3998SOL    HW113282   2.951   5.453   3.124 -1.6770 -0.6801 -0.9821
 3998SOL    HW213283   3.048   5.527   3.034 -0.4256 -0.3974  0.5557
 3999SOL     OW13284   0.695   2.008   1.801  0.1635  0.4951 -0.4300
 3999SOL    HW113285   0.696   2.045   1.889  2.3211  1.1284 -0.6563
 3999SOL    HW213286   0.747   1.927   1.808  0.4312  0.5980 -1.1239
 4000SOL     OW13287   7.617   0.257   7.403 -0.0934 -0.6497 -0.2649
 4000SOL    HW113288   7.636   0.321   7.472 -1.1340 -2.3635  1.6937
 4000SOL    HW213289   7.575   0.309   7.334  1.8115  1.2755 -0.0962
 4001SOL     OW13290   1.602   2.845   6.151 -0.1831 -0.0643  0.0688
 4001SOL    HW113291   1.546   2.816   6.079 -0.9535  0.4659  0.4412
 4001SOL    HW213292   1.644   2.765   6.183 -0.2341 -0.3749 -0.6209
 4002SOL     OW13293   7.161   7.370   6.943 -0.4112 -0.9510  0.2659
 4002SOL    HW113294   7.225   7.435   6.971 -1.6651  0.7981 -0.7618
 4002SOL    HW213295   7.204   7.322   6.873  1.2866 -2.7190  2.3569
 4003SOL     OW13296   8.266   4.148   0.330  0.0680  0.1689 -0.5120
 4003SOL    HW113297   8.341   4.137   0.270  0.7304 -1.5836  0.5857
 4003SOL    HW213298   8.199   4.089   0.296  0.7908 -1.5631  0.9568
 4004SOL     OW13299   7.802   5.550   7.476 -0.7737  0.0047  0.1660
 4004SOL    HW113300   7.836   5.504   7.399 -0.2529  0.9291 -0.1690
 4004SOL    HW213301   7.879   5.591   7.515 -1.4107  1.7903 -0.3683
 4005SOL     OW13302   8.421   0.288   4.420 -0.4377  0.0730 -0.1754
 4005SOL    HW113303   8.347   0.328   4.373  0.6087  1.3446 -0.8168
 4005SOL    HW213304   8.458   0.226   4.357 -0.7692 -0.3570  0.0450
 4006SOL     OW13305   3.627   7.697   2.466  0.3519  0.1377 -0.6221
 4006SOL    HW113306   3.635   7.689   2.371  0.2494  0.4127 -0.6547
 4006SOL    HW213307   3.606   7.789   2.481 -1.5509 -0.2729 -0.4631
 4007SOL     OW13308   8.433   5.186   7.296 -0.2594 -0.7215  0.1765
 4007SOL    HW113309   8.462   5.095   7.292  0.3521 -0.5799  1.1015
 4007SOL    HW213310   8.432   5.207   7.389 -0.4524  0.2011 -0.0228
 4008SOL     OW13311   5.825   0.229   0.303 -0.1145 -0.2840 -0.0805
 4008SOL    HW113312   5.832   0.241   0.397 -1.6323 -1.5339  0.2345
 4008SOL    HW213313   5.831   0.318   0.267  1.8414  0.1131  1.0287
 4009SOL     OW13314   4.521   1.398   4.072 -0.2064  0.4174  0.2351
 4009SOL    HW113315   4.428   1.417   4.082 -0.7697 -1.1378 -1.6017
 4009SOL    HW213316   4.562   1.484   4.065 -1.5992  1.1120  0.2852
 4010SOL     OW13317   2.683   7.677   6.370  0.2571 -0.2248  0.5781
 4010SOL    HW113318   2.729   7.739   6.313  0.6834 -0.1700  0.9771
 4010SOL    HW213319   2.590   7.696   6.356  0.3887  0.8210  1.0442
 4011SOL     OW13320   1.729   5.577   6.860 -0.7672 -0.1283  0.1728
 4011SOL    HW113321   1.775   5.517   6.918 -0.5707 -0.0432  0.1028
 4011SOL    HW213322   1.741   5.663   6.899  0.9786  0.2010 -0.9947
 4012SOL     OW13323   5.669   3.189   8.388 -0.0638 -0.4211  0.4850
 4012SOL    HW113324   5.639   3.168   8.477  1.1182 -2.6726  0.4379
 4012SOL    HW213325   5.625   3.124   8.332 -1.4497  1.4813 -0.7506
 4013SOL     OW13326   7.926   1.179   7.229 -0.0789  0.6777 -0.4538
 4013SOL    HW113327   7.935   1.247   7.161 -1.3824  1.5253  0.1665
 4013SOL    HW213328   7.844   1.202   7.274  0.7065  0.0911  1.3584
 4014SOL     OW13329   4.794   2.889   3.751  0.0451  0.6368 -0.2419
 4014SOL    HW113330   4.794   2.983   3.733 -1.4040  0.3889 -1.6537
 4014SOL    HW213331   4.882   2.872   3.785 -0.2680  2.8209  1.9536
 4015SOL     OW13332   8.273   3.576   4.100 -0.1465 -0.1926  0.0419
 4015SOL    HW113333   8.345   3.550   4.043  0.5551  0.6236  0.5209
 4015SOL    HW213334   8.197   3.528   4.067  0.6793 -1.3118 -0.2811
 4016SOL     OW13335   2.257   7.523   0.067 -0.0147 -0.5828  0.2965
 4016SOL    HW113336   2.310   7.583   0.119  0.6563  0.7857 -1.8164
 4016SOL    HW213337   2.167   7.553   0.080  0.2961  0.8333 -0.5749
 4017SOL     OW13338   5.271   2.817   6.802  0.0957 -0.4333 -0.3072
 4017SOL    HW113339   5.274   2.835   6.896 -0.3020 -1.6202 -0.0576
 4017SOL    HW213340   5.346   2.864   6.766  0.8307 -0.7797  0.7376
 4018SOL     OW13341   4.833   6.414   1.749  0.1816 -0.3573  0.0108
 4018SOL    HW113342   4.792   6.500   1.759 -0.4404 -0.4775 -1.2775
 4018SOL    HW213343   4.907   6.415   1.810  0.4765  1.2654 -0.3353
 4019SOL     OW13344   7.971   0.550   0.746 -0.0738 -0.2464  0.0096
 4019SOL    HW113345   7.972   0.641   0.774  0.8713  0.5299 -2.3036
 4019SOL    HW213346   8.047   0.542   0.688 -2.6450 -1.1687 -3.5700
 4020SOL     OW13347   4.835   7.140   7.777 -0.3487 -0.5591 -0.3020
 4020SOL    HW113348   4.820   7.170   7.687  1.1155 -1.0242 -0.7330
 4020SOL    HW213349   4.916   7.089   7.772  1.2056  1.5524  1.7469
 4021SOL     OW13350   7.650   5.397   4.465  0.0645  0.4097 -0.3040
 4021SOL    HW113351   7.572   5.435   4.504 -0.4339  0.0831 -0.9768
 4021SOL    HW213352   7.688   5.343   4.535 -0.1874  0.7426  0.0904
 4022SOL     OW13353   3.456   0.433   5.626  0.1664 -0.0230  0.1398
 4022SOL    HW113354   3.520   0.452   5.694  0.7317  0.8820 -0.6166
 4022SOL    HW213355   3.438   0.339   5.635 -0.1024  0.1579  1.7910
 4023SOL     OW13356   5.735   4.796   8.654 -0.4818  0.1133  0.0529
 4023SOL    HW113357   5.746   4.704   8.629 -1.5932  0.2743 -1.0918
 4023SOL    HW213358   5.658   4.796   8.711 -0.2122  0.2844  0.4203
 4024SOL     OW13359   4.576   4.656   2.300  0.4187 -0.3115 -0.3176
 4024SOL    HW113360   4.667   4.652   2.329  0.1212 -0.2201  0.6729
 4024SOL    HW213361   4.542   4.567   2.315  0.2556 -0.2605 -0.3782
 4025SOL     OW13362   5.425   8.341   3.291 -0.3904 -0.3889 -0.4076
 4025SOL    HW113363   5.487   8.381   3.351 -0.4264 -0.3641 -0.3871
 4025SOL    HW213364   5.392   8.264   3.339  0.7329 -1.2675 -0.9830
 4026SOL     OW13365   0.194   5.805   6.703 -0.2378 -0.3617 -0.1869
 4026SOL    HW113366   0.267   5.781   6.760  0.4991  1.9172 -0.0510
 4026SOL    HW213367   0.236   5.838   6.624 -1.1567 -0.0865 -0.5742
 4027SOL     OW13368   8.033   4.903   4.678 -0.2798  0.0788  0.0868
 4027SOL    HW113369   7.988   4.947   4.749 -0.2504 -0.1652  0.2554
 4027SOL    HW213370   8.053   4.973   4.615  2.2887  0.8599  1.6174
 4028SOL     OW13371   1.287   4.499   3.434  0.3081  0.1048  0.1401
 4028SOL    HW113372   1.306   4.566   3.368  1.2401 -0.7109 -0.4444
 4028SOL    HW213373   1.298   4.416   3.388 -2.2288 -0.4877  0.4535
 4029SOL     OW13374   5.580   3.861   3.598  0.2423  0.0032  0.0964
 4029SOL    HW113375   5.527   3.844   3.676 -1.1558 -1.2530 -1.0682
 4029SOL    HW213376   5.665   3.823   3.617 -0.1811 -0.5598  0.8901
 4030SOL     OW13377   0.271   6.013   4.637  0.1276  0.4608  0.3551
 4030SOL    HW113378   0.344   6.074   4.639 -0.8009  1.6636 -0.9609
 4030SOL    HW213379   0.308   5.932   4.601  0.4912  1.5765 -1.9118
 4031SOL     OW13380   1.886   0.144   5.767  0.1139  0.9191  0.3478
 4031SOL    HW113381   1.879   0.228   5.812  2.4676  1.0674  0.5510
 4031SOL    HW213382   1.815   0.146   5.702  0.9128  3.6807 -0.6109
 4032SOL     OW13383   7.251   6.933   1.812  0.7817  0.1635  0.0623
 4032SOL    HW113384   7.250   6.924   1.716 -0.8034  1.0751 -0.0396
 4032SOL    HW213385   7.204   7.015   1.829  1.3636  0.2085  1.6216
 4033SOL     OW13386   1.200   8.482   5.308  0.6396 -0.4900 -0.1830
 4033SOL    HW113387   1.181   8.553   5.247  2.1331  0.4649  0.4042
 4033SOL    HW213388   1.128   8.486   5.372  0.3765  0.1062 -0.5073
 4034SOL     OW13389   5.657   4.580   3.748 -0.4602  0.1368 -0.3846
 4034SOL    HW113390   5.622   4.563   3.836 -2.9434  0.2644 -1.2439
 4034SOL    HW213391   5.715   4.655   3.759 -1.2884  0.6053  1.0638
 4035SOL     OW13392   7.880   2.243   8.610  0.5032  0.0096  0.2793
 4035SOL    HW113393   7.815   2.313   8.610  0.2347 -0.2154  1.8263
 4035SOL    HW213394   7.858   2.191   8.532  1.5169  2.3119 -1.6757
 4036SOL     OW13395   6.022   0.711   4.947 -0.1832  0.3132 -0.0492
 4036SOL    HW113396   5.979   0.650   4.888  0.3088  0.5659 -0.6853
 4036SOL    HW213397   5.952   0.743   5.004 -0.5890 -0.2386 -0.2336
 4037SOL     OW13398   4.498   8.448   6.381 -0.3090 -0.1263  0.1213
 4037SOL    HW113399   4.461   8.375   6.431 -1.7392 -0.4033 -1.2578
 4037SOL    HW213400   4.556   8.405   6.318 -0.5638 -0.0110 -0.1919
 4038SOL     OW13401   2.414   3.530   4.565 -0.6399  0.0407 -0.0816
 4038SOL    HW113402   2.325   3.562   4.548 -0.9451 -0.2869  0.8018
 4038SOL    HW213403   2.463   3.551   4.486 -2.1629 -2.1714 -1.7613
 4039SOL     OW13404   8.409   1.422   4.412 -0.4185  0.5332 -0.2362
 4039SOL    HW113405   8.443   1.361   4.346 -1.6758  0.2581 -0.6525
 4039SOL    HW213406   8.362   1.367   4.474 -1.5066  1.0559 -0.5748
 4040SOL     OW13407   5.272   3.143   8.065 -0.3084 -0.2664 -0.2283
 4040SOL    HW113408   5.252   3.171   7.976  2.2316 -1.5216 -1.2984
 4040SOL    HW213409   5.365   3.162   8.076 -0.2165 -1.5037  1.6090
 4041SOL     OW13410   4.447   5.886   3.664 -0.0738  0.3954 -0.2752
 4041SOL    HW113411   4.479   5.944   3.595  2.4174 -2.6911 -1.9521
 4041SOL    HW213412   4.364   5.851   3.631 -0.2675  0.9884 -0.4254
 4042SOL     OW13413   2.841   7.009   6.363  0.2030 -0.3520  0.0168
 4042SOL    HW113414   2.806   6.921   6.380  0.3398 -0.5508 -0.6711
 4042SOL    HW213415   2.855   7.047   6.449  0.8491 -1.2873  0.3404
 4043SOL     OW13416   2.861   1.536   0.690  0.3277  0.1213 -0.4547
 4043SOL    HW113417   2.821   1.461   0.734 -0.7483  1.7950  1.6398
 4043SOL    HW213418   2.843   1.522   0.597 -1.6748 -1.1907  0.0632
 4044SOL     OW13419   4.184   7.987   4.707 -0.2893  0.8289  0.0303
 4044SOL    HW113420   4.117   8.018   4.646  1.2590  1.9375 -1.1940
 4044SOL    HW213421   4.250   7.946   4.651  0.1710 -0.0504  1.1791
 4045SOL     OW13422   6.386   4.971   5.491 -0.4294 -0.1028  0.0043
 4045SOL    HW113423   6.310   4.993   5.545 -0.9196 -0.3150 -0.5884
 4045SOL    HW213424   6.448   5.042   5.507  0.0740 -0.9182  2.0179
 4046SOL     OW13425   7.993   3.853   0.020 -0.7822 -0.6304 -0.3547
 4046SOL    HW113426   7.910   3.841   0.068 -0.4381 -0.5193  0.2808
 4046SOL    HW213427   7.998   3.948   0.006 -0.1624 -0.4839  0.7272
 4047SOL     OW13428   5.828   3.596   8.045 -0.0031  0.1496 -0.1955
 4047SOL    HW113429   5.755   3.655   8.062 -0.0701 -0.0284  0.1498
 4047SOL    HW213430   5.801   3.512   8.082  0.6732  0.2713  0.6383
 4048SOL     OW13431   2.780   8.115   5.818 -1.1133 -0.6228  0.0244
 4048SOL    HW113432   2.760   8.194   5.870 -1.2703 -0.9976  0.5454
 4048SOL    HW213433   2.831   8.147   5.744 -0.6057 -0.1190  0.5883
 4049SOL     OW13434   3.544   4.531   1.005  0.2707  0.3284  0.4561
 4049SOL    HW113435   3.497   4.448   1.001  2.1415 -0.9047  1.7808
 4049SOL    HW213436   3.483   4.592   1.047 -0.0571 -1.3226  2.5570
 4050SOL     OW13437   4.357   7.307   4.514 -0.3030  0.2810  0.4411
 4050SOL    HW113438   4.382   7.322   4.605 -3.2752 -0.0292  1.4167
 4050SOL    HW213439   4.335   7.394   4.481 -0.6781  0.2161  0.5155
 4051SOL     OW13440   2.777   0.866   3.853  0.3747 -0.1994 -0.2182
 4051SOL    HW113441   2.770   0.844   3.760 -2.3246 -1.2306  0.1374
 4051SOL    HW213442   2.868   0.844   3.875  1.1417  0.2288 -2.6130
 4052SOL     OW13443   0.236   5.306   1.462 -0.2764  0.3212 -0.0374
 4052SOL    HW113444   0.164   5.255   1.425 -0.7768  0.5775  0.5650
 4052SOL    HW213445   0.261   5.366   1.392 -0.5663  0.1390 -0.2981
 4053SOL     OW13446   2.566   6.616   4.451 -0.3130 -0.4731 -0.4861
 4053SOL    HW113447   2.634   6.617   4.383 -0.3002 -0.9080 -0.4813
 4053SOL    HW213448   2.486   6.643   4.406 -0.0237  0.6649 -0.3589
 4054SOL     OW13449   0.534   4.440   2.252 -0.3607 -0.0626  0.1111
 4054SOL    HW113450   0.598   4.382   2.292  0.9931  0.5468 -1.0712
 4054SOL    HW213451   0.552   4.433   2.158 -1.1184  1.1786 -0.1400
 4055SOL     OW13452   3.195   6.066   0.595 -0.4012 -0.1352  0.5304
 4055SOL    HW113453   3.101   6.063   0.582 -0.1897 -1.1461 -0.8863
 4055SOL    HW213454   3.210   6.017   0.676 -1.0662 -0.0241  0.7237
 4056SOL     OW13455   7.275   5.815   3.653 -0.5102  0.1760 -0.0853
 4056SOL    HW113456   7.324   5.742   3.693 -1.2744 -0.1254  0.3252
 4056SOL    HW213457   7.187   5.779   3.638 -0.4757  0.5457 -1.2910
 4057SOL     OW13458   5.337   5.540   1.196  0.1346  0.1998 -0.1365
 4057SOL    HW113459   5.368   5.531   1.287  0.9534  1.0762 -0.3100
 4057SOL    HW213460   5.330   5.450   1.164  3.2196 -0.0997 -0.2936
 4058SOL     OW13461   5.401   3.362   5.879  0.1845  0.1965 -0.3394
 4058SOL    HW113462   5.342   3.299   5.921  1.2435 -0.0158  0.9212
 4058SOL    HW213463   5.361   3.447   5.895  0.0132  0.0252  0.1633
 4059SOL     OW13464   5.922   7.638   5.116 -0.1477 -0.4682 -0.1843
 4059SOL    HW113465   5.861   7.712   5.122 -0.1947 -0.3662 -1.6555
 4059SOL    HW213466   5.903   7.585   5.194  0.0102  1.1410  0.9945
 4060SOL     OW13467   5.787   6.307   8.710  0.2094 -0.8040 -0.4273
 4060SOL    HW113468   5.746   6.300   8.624  0.0619 -0.2096 -0.4083
 4060SOL    HW213469   5.731   6.367   8.759  1.4837  0.6190 -0.6474
 4061SOL     OW13470   4.182   2.463   1.416  0.3075  0.2451 -0.1500
 4061SOL    HW113471   4.171   2.471   1.511  1.5147  1.6464 -0.0896
 4061SOL    HW213472   4.151   2.375   1.395 -0.0633 -0.0502  1.5343
 4062SOL     OW13473   4.899   2.981   0.169 -0.3877  0.0728 -0.3842
 4062SOL    HW113474   4.967   3.039   0.201  0.0646  0.2203 -1.5580
 4062SOL    HW213475   4.823   3.001   0.223  0.3649  0.2089  0.6571
 4063SOL     OW13476   5.914   1.216   3.448  0.4821  0.1601 -0.5448
 4063SOL    HW113477   5.965   1.283   3.403 -0.5796 -0.1645 -2.3416
 4063SOL    HW213478   5.830   1.258   3.466 -0.4963 -0.8387 -2.4260
 4064SOL     OW13479   2.438   6.129   5.093 -0.3097  1.0506 -0.1633
 4064SOL    HW113480   2.415   6.178   5.172  0.9633  1.0513  0.2246
 4064SOL    HW213481   2.415   6.188   5.021 -1.1637  1.1827  0.1983
 4065SOL     OW13482   7.205   1.020   5.351  0.2061  0.5618  0.2093
 4065SOL    HW113483   7.129   1.063   5.313  1.2221  0.8935 -1.5748
 4065SOL    HW213484   7.250   1.089   5.400  0.4679  0.9041 -0.5026
 4066SOL     OW13485   4.291   3.466   4.159  0.2934 -0.5018  0.1326
 4066SOL    HW113486   4.317   3.436   4.072  0.6861  1.7284 -0.5805
 4066SOL    HW213487   4.361   3.436   4.217  1.3270  0.1484 -0.7533
 4067SOL     OW13488   6.457   4.166   2.587 -0.5946 -0.3520  0.8710
 4067SOL    HW113489   6.521   4.181   2.517 -0.3445  0.1947  1.2061
 4067SOL    HW213490   6.383   4.123   2.544  0.1922 -1.4518  0.5573
 4068SOL     OW13491   4.761   0.100   5.035 -0.4986  0.3223 -0.0822
 4068SOL    HW113492   4.681   0.128   5.080 -0.5261 -1.0021  0.7438
 4068SOL    HW213493   4.821   0.076   5.105 -0.8873 -2.7581 -0.6724
 4069SOL     OW13494   1.531   1.595   0.037 -0.0237  0.0577  0.3963
 4069SOL    HW113495   1.600   1.529   0.036 -0.6793 -0.6314 -0.1578
 4069SOL    HW213496   1.514   1.614  -0.056 -1.0016 -0.2308  0.5111
 4070SOL     OW13497   0.496   1.774   2.050 -0.5080  0.7176 -0.4762
 4070SOL    HW113498   0.531   1.805   1.966 -0.5046 -0.1123 -0.7907
 4070SOL    HW213499   0.561   1.710   2.080 -2.0746 -1.4233 -1.4325
 4071SOL     OW13500   1.001   4.913   3.193 -0.1655 -0.1466  0.5188
 4071SOL    HW113501   0.983   4.990   3.247  0.7803 -0.7607  1.7716
 4071SOL    HW213502   1.066   4.943   3.129  1.0262 -0.1264  1.6852
 4072SOL     OW13503   6.408   6.058   4.743  0.2254  0.3349 -0.4934
 4072SOL    HW113504   6.442   5.985   4.692  1.9331 -0.4499  1.6370
 4072SOL    HW213505   6.431   6.136   4.692 -0.4229 -0.5141 -2.1377
 4073SOL     OW13506   2.460   0.851   7.910  0.2298  0.5983  0.0886
 4073SOL    HW113507   2.396   0.873   7.978  0.3704  2.1100 -0.2282
 4073SOL    HW213508   2.416   0.786   7.855 -1.1421  1.7749 -0.2618
 4074SOL     OW13509   7.529   3.235   3.960  0.2553  0.0927 -0.2123
 4074SOL    HW113510   7.440   3.232   3.924  0.3664  1.0098 -0.6005
 4074SOL    HW213511   7.580   3.179   3.901  0.6030  2.2225 -2.0570
 4075SOL     OW13512   4.531   8.492   6.816 -0.5600 -0.4287 -0.1225
 4075SOL    HW113513   4.596   8.444   6.868 -0.1646 -1.0153 -1.1226
 4075SOL    HW213514   4.583   8.553   6.763 -0.9252 -0.0891 -0.0910
 4076SOL     OW13515   4.005   0.052   2.654 -0.4569 -0.2449  0.3982
 4076SOL    HW113516   3.964   0.139   2.658 -0.2083  0.0421 -1.7084
 4076SOL    HW213517   4.089   0.064   2.698 -0.2169  0.7601 -0.2707
 4077SOL     OW13518   5.456   5.975   7.026  0.0694 -0.0051  0.5838
 4077SOL    HW113519   5.452   6.064   7.061 -0.7642 -0.3236  1.3370
 4077SOL    HW213520   5.373   5.935   7.053  0.7744 -1.2639  0.9537
 4078SOL     OW13521   1.310   8.455   6.622 -0.4252  0.8619 -0.4287
 4078SOL    HW113522   1.238   8.396   6.645  0.6001  0.3816  1.7588
 4078SOL    HW213523   1.273   8.543   6.631 -1.0974  0.6141 -0.6835
 4079SOL     OW13524   2.333   6.673   5.862 -0.0224 -0.4074 -0.2134
 4079SOL    HW113525   2.415   6.628   5.842 -0.1248 -1.0961  0.8245
 4079SOL    HW213526   2.285   6.672   5.780 -0.2837 -2.8123 -0.0989
 4080SOL     OW13527   5.022   4.037   6.193  0.0335  0.0321 -0.0616
 4080SOL    HW113528   5.110   4.066   6.216  0.7880 -1.2207 -1.2239
 4080SOL    HW213529   4.977   4.116   6.164  0.3316  0.9204  1.7266
 4081SOL     OW13530   2.597   7.915   0.836  0.1724 -0.4888  0.3213
 4081SOL    HW113531   2.589   7.951   0.925 -0.3107 -0.8276  0.4212
 4081SOL    HW213532   2.663   7.847   0.844  0.8132  0.1122  0.2143
 4082SOL     OW13533   6.136   1.801   1.727 -0.2643 -0.3577  0.2529
 4082SOL    HW113534   6.050   1.804   1.685  0.6421  3.5154 -1.8202
 4082SOL    HW213535   6.189   1.747   1.668  0.3144  2.8898 -2.4899
 4083SOL     OW13536   8.457   1.373   5.152 -0.0214  0.5633  0.3111
 4083SOL    HW113537   8.479   1.303   5.090 -1.7711 -0.8966  1.2297
 4083SOL    HW213538   8.440   1.449   5.097  0.1484 -0.2211 -0.8673
 4084SOL     OW13539   2.525   5.014   4.283 -0.6569  0.2354 -0.0293
 4084SOL    HW113540   2.593   5.073   4.251 -0.4687  0.0960  0.1123
 4084SOL    HW213541   2.487   4.976   4.204 -1.4126  1.2429 -0.1748
 4085SOL     OW13542   2.169   8.275   1.742  0.0271  0.1741  0.3633
 4085SOL    HW113543   2.105   8.341   1.716 -0.0418  0.6231  1.6015
 4085SOL    HW213544   2.243   8.325   1.777  1.9853 -0.2385 -2.8226
 4086SOL     OW13545   6.632   6.489   4.423  0.1827 -0.0433  0.4767
 4086SOL    HW113546   6.703   6.507   4.485  0.3889 -0.4018  0.3486
 4086SOL    HW213547   6.575   6.565   4.429 -0.3441 -0.5238  1.8745
 4087SOL     OW13548   7.419   5.396   2.727 -0.0451  0.4404 -0.4328
 4087SOL    HW113549   7.505   5.365   2.697  1.5008  1.4176  2.5981
 4087SOL    HW213550   7.357   5.338   2.684  2.2679 -1.7960 -1.0168
 4088SOL     OW13551   8.216   6.022   7.972 -0.7997 -0.4138  0.6387
 4088SOL    HW113552   8.244   6.098   8.023 -0.5574  0.0411 -0.1479
 4088SOL    HW213553   8.212   6.054   7.882  2.0384 -2.0292 -0.1819
 4089SOL     OW13554   0.784   8.033   5.289  0.0901  0.1016  0.2032
 4089SOL    HW113555   0.734   7.968   5.337  0.0101 -0.5824 -0.7603
 4089SOL    HW213556   0.805   7.990   5.206  0.1518  1.2614 -0.4066
 4090SOL     OW13557   2.228   7.156   4.529 -0.5943  0.4041 -0.2714
 4090SOL    HW113558   2.261   7.066   4.537  1.6027  1.2024  0.1605
 4090SOL    HW213559   2.219   7.169   4.434 -0.2228 -0.0169 -0.3687
 4091SOL     OW13560   3.132   2.467   0.852  0.3561 -0.3006 -0.2624
 4091SOL    HW113561   3.036   2.471   0.846 -0.0009 -1.7542  2.4315
 4091SOL    HW213562   3.154   2.379   0.822  0.9265  0.1621 -1.2463
 4092SOL     OW13563   5.479   5.618   5.857 -0.0397 -0.6748 -0.1306
 4092SOL    HW113564   5.564   5.650   5.827 -0.8844  1.2486 -0.6342
 4092SOL    HW213565   5.444   5.568   5.784 -0.5315  0.9384 -1.0402
 4093SOL     OW13566   0.200   7.313   4.280 -0.3344 -0.0084 -0.3295
 4093SOL    HW113567   0.285   7.302   4.237 -0.4845  1.4987 -1.0988
 4093SOL    HW213568   0.140   7.332   4.208 -0.8134  1.4933  0.4222
 4094SOL     OW13569   1.717   0.365   5.010 -0.0722  0.4534  0.0661
 4094SOL    HW113570   1.750   0.330   5.093 -0.2801  1.5632  0.6346
 4094SOL    HW213571   1.733   0.294   4.946  1.9889  0.3528  0.6118
 4095SOL     OW13572   1.877   1.576   2.099  0.5305 -0.0469  0.4139
 4095SOL    HW113573   1.971   1.597   2.091  0.4449  0.3047  0.2805
 4095SOL    HW213574   1.851   1.552   2.010  0.8106 -1.5473  0.7205
 4096SOL     OW13575   1.730   3.034   1.890  0.4711  0.1097 -0.1041
 4096SOL    HW113576   1.816   3.041   1.932  0.0737 -2.2727  1.2481
 4096SOL    HW213577   1.747   3.061   1.799  2.8130 -0.9217 -0.0635
 4097SOL     OW13578   2.916   1.895   3.622 -0.2264  0.2367  0.3678
 4097SOL    HW113579   2.959   1.905   3.707 -2.7585  2.5911  1.5231
 4097SOL    HW213580   2.823   1.890   3.642 -0.9111  0.5797 -2.2595
 4098SOL     OW13581   2.583   6.157   3.183 -0.0937  0.1710  0.1461
 4098SOL    HW113582   2.677   6.142   3.177 -0.4500 -2.7624  0.4249
 4098SOL    HW213583   2.544   6.085   3.133 -2.2048  1.4075 -0.1206
 4099SOL     OW13584   5.046   2.441   5.380 -0.4131 -0.0342  0.5225
 4099SOL    HW113585   5.109   2.374   5.355  1.9150  1.3937  2.0853
 4099SOL    HW213586   4.972   2.429   5.320  1.2201 -1.9633 -1.2652
 4100SOL     OW13587   5.804   1.730   3.267  0.0631 -0.1094  0.2935
 4100SOL    HW113588   5.855   1.767   3.195  0.0517  1.7054  1.1643
 4100SOL    HW213589   5.848   1.762   3.346 -1.0920 -0.3882  1.0728
 4101SOL     OW13590   3.540   8.165   0.920 -0.4646  0.2810  0.3869
 4101SOL    HW113591   3.541   8.077   0.957 -0.3390  0.0225 -0.2172
 4101SOL    HW213592   3.480   8.159   0.845 -1.1240  0.9228  0.8528
 4102SOL     OW13593   3.260   0.570   8.366 -0.0102 -0.3270  0.3867
 4102SOL    HW113594   3.344   0.528   8.386 -0.5475 -1.1184  1.0695
 4102SOL    HW213595   3.277   0.663   8.375  1.0266 -0.4164 -0.4144
 4103SOL     OW13596   2.647   4.499   3.743 -0.4627  0.3523 -0.1315
 4103SOL    HW113597   2.558   4.491   3.777 -0.6146 -0.1617 -0.6288
 4103SOL    HW213598   2.636   4.547   3.661 -0.0921  1.6695  0.5628
 4104SOL     OW13599   6.033   2.953   0.455 -0.6864 -0.0590  0.6489
 4104SOL    HW113600   5.950   2.930   0.414 -0.5966  1.3532 -0.4407
 4104SOL    HW213601   6.100   2.917   0.396 -0.5507  0.5445  0.4238
 4105SOL     OW13602   2.396   6.581   2.310 -0.0041  0.2293  0.9626
 4105SOL    HW113603   2.334   6.603   2.379 -3.3083  1.9456 -2.1752
 4105SOL    HW213604   2.438   6.665   2.288  1.5846 -0.4388  1.3095
 4106SOL     OW13605   5.620   6.182   0.668 -0.1940 -0.0811  0.0408
 4106SOL    HW113606   5.657   6.097   0.644 -0.7175 -0.1334 -0.6173
 4106SOL    HW213607   5.526   6.173   0.653 -0.7207 -0.3972  2.9989
 4107SOL     OW13608   5.454   5.466   5.395  0.1274 -0.0581  0.2198
 4107SOL    HW113609   5.393   5.430   5.331 -1.2576  0.0784  1.4354
 4107SOL    HW213610   5.538   5.424   5.374 -0.5823 -0.9971 -0.8476
 4108SOL     OW13611   2.648   8.360   0.335  0.2319 -0.2772  0.1343
 4108SOL    HW113612   2.666   8.451   0.315 -0.2635 -0.5255 -1.5993
 4108SOL    HW213613   2.730   8.314   0.315  0.3477 -0.2691  0.5878
 4109SOL     OW13614   4.670   4.510   1.732  0.3853  0.0371  0.4413
 4109SOL    HW113615   4.752   4.533   1.774  1.4222  0.0022 -1.4446
 4109SOL    HW213616   4.658   4.576   1.664 -0.5483 -0.6180 -0.0544
 4110SOL     OW13617   1.616   5.421   2.063  0.4370  0.2888 -0.3976
 4110SOL    HW113618   1.602   5.487   2.131  0.3790 -0.7667  0.6347
 4110SOL    HW213619   1.537   5.425   2.009 -0.9936 -1.0452  1.4922
 4111SOL     OW13620   0.338   6.398   5.217 -0.2782  0.0827 -0.0510
 4111SOL    HW113621   0.274   6.369   5.282  1.0551  1.4581  2.0236
 4111SOL    HW213622   0.423   6.370   5.253  0.5888  1.7985 -0.6516
 4112SOL     OW13623   1.053   3.165   5.877  0.3075  0.5395 -0.2364
 4112SOL    HW113624   1.046   3.102   5.949  0.4076  1.6693  0.7894
 4112SOL    HW213625   0.979   3.224   5.890  1.5159  2.0152  0.2019
 4113SOL     OW13626   0.548   8.409   6.652 -0.6013 -0.5340  0.6373
 4113SOL    HW113627   0.608   8.335   6.635 -1.1733 -0.5534 -1.6157
 4113SOL    HW213628   0.605   8.486   6.655 -0.1928 -0.8470  1.3011
 4114SOL     OW13629   5.653   3.461   1.406  0.2613  0.0258 -0.6658
 4114SOL    HW113630   5.626   3.466   1.314 -1.5053 -0.9397 -0.2584
 4114SOL    HW213631   5.677   3.369   1.419  1.9939  0.4712 -0.5095
 4115SOL     OW13632   5.523   3.348   2.287  0.1944  0.3002 -0.5554
 4115SOL    HW113633   5.460   3.320   2.222 -0.1264 -0.6110  0.1286
 4115SOL    HW213634   5.508   3.291   2.362  1.7661  0.1153 -0.3348
 4116SOL     OW13635   5.925   8.434   0.296  0.3580 -0.0410 -0.4432
 4116SOL    HW113636   5.997   8.397   0.347  0.2327 -0.7526 -0.7697
 4116SOL    HW213637   5.854   8.371   0.305 -1.0381  1.6986  1.7077
 4117SOL     OW13638   4.229   0.695   1.177 -0.5165  0.4374 -0.0885
 4117SOL    HW113639   4.208   0.601   1.177 -0.4527  0.4207 -0.5106
 4117SOL    HW213640   4.280   0.708   1.257 -1.0992  0.2440  0.3150
 4118SOL     OW13641   3.839   8.141   2.510  0.3490 -0.0837  0.3700
 4118SOL    HW113642   3.903   8.193   2.558  0.6483 -0.9709  0.9455
 4118SOL    HW213643   3.795   8.089   2.577  0.1356 -0.6570 -0.2044
 4119SOL     OW13644   4.583   7.714   1.158  0.0367  0.4878 -0.1652
 4119SOL    HW113645   4.652   7.727   1.093 -0.2022 -0.5177 -0.6431
 4119SOL    HW213646   4.532   7.795   1.155 -0.3482  0.2170 -1.7068
 4120SOL     OW13647   5.135   8.625   2.759  1.0362 -0.3742 -0.1966
 4120SOL    HW113648   5.202   8.582   2.811  0.9053 -0.2651  0.0646
 4120SOL    HW213649   5.101   8.556   2.702 -0.0301 -0.9522  1.0756
 4121SOL     OW13650   1.345   5.526   6.296  0.1948  0.0661 -0.4512
 4121SOL    HW113651   1.432   5.488   6.285 -0.2941 -0.9980 -0.8337
 4121SOL    HW213652   1.342   5.556   6.387  0.5568 -0.9601 -0.0927
 4122SOL     OW13653   1.366   0.407   3.517  0.0841  0.8029 -0.4103
 4122SOL    HW113654   1.377   0.481   3.576  0.8535  1.1458 -0.9703
 4122SOL    HW213655   1.455   0.379   3.496 -0.1997 -0.5693  0.1345
 4123SOL     OW13656   0.308   0.847   8.158  0.0321  0.2939  0.1654
 4123SOL    HW113657   0.354   0.888   8.231  1.6551  0.0706 -0.6849
 4123SOL    HW213658   0.297   0.756   8.185 -0.3800  0.4686  0.5895
 4124SOL     OW13659   7.740   4.932   7.924  1.3122 -0.2683  0.0503
 4124SOL    HW113660   7.691   4.863   7.879  2.3514 -0.7733 -0.3332
 4124SOL    HW213661   7.689   5.011   7.908  0.5849 -0.7855 -0.2816
 4125SOL     OW13662   4.456   8.487   2.270  0.1533  0.4189 -0.2136
 4125SOL    HW113663   4.488   8.540   2.343 -0.4671  1.1326 -0.4383
 4125SOL    HW213664   4.362   8.479   2.286  0.2198 -0.5338 -0.2450
 4126SOL     OW13665   7.653   6.802   4.493 -0.3169 -0.9396  0.7390
 4126SOL    HW113666   7.640   6.862   4.567  0.8688  0.3481 -0.0520
 4126SOL    HW213667   7.730   6.836   4.448 -0.4811 -2.2307 -0.5849
 4127SOL     OW13668   8.061   8.357   1.115  0.6549  0.0144  0.6743
 4127SOL    HW113669   8.147   8.340   1.154  0.0232 -0.7367  1.7736
 4127SOL    HW213670   8.061   8.305   1.035  1.5396  0.6951  0.2141
 4128SOL     OW13671   6.241   5.161   7.811  0.0415 -0.7557  0.2119
 4128SOL    HW113672   6.208   5.234   7.863  1.5031  1.7791 -2.1513
 4128SOL    HW213673   6.203   5.084   7.852 -4.6153  1.4814  0.7617
 4129SOL     OW13674   2.003   4.678   4.414  0.4611 -0.4221  0.4668
 4129SOL    HW113675   1.991   4.656   4.507  1.0327 -0.4962  0.5300
 4129SOL    HW213676   1.967   4.766   4.405 -2.0807 -1.4041  0.1679
 4130SOL     OW13677   1.638   6.897   0.078  0.8475  0.5213 -0.5913
 4130SOL    HW113678   1.726   6.886   0.116  0.4064  1.4080  0.7960
 4130SOL    HW213679   1.584   6.925   0.152 -0.9999 -1.5787 -1.0493
 4131SOL     OW13680   3.502   7.579   5.164 -0.1690  0.0606 -0.8204
 4131SOL    HW113681   3.531   7.517   5.231  2.6381  2.0670  0.0136
 4131SOL    HW213682   3.413   7.604   5.191 -0.1423 -1.2414  0.5709
 4132SOL     OW13683   1.205   0.520   3.858 -0.4758  0.2066 -0.2055
 4132SOL    HW113684   1.181   0.575   3.933  1.2089  0.3194  0.3057
 4132SOL    HW213685   1.122   0.493   3.820 -1.3563  1.6439  0.6132
 4133SOL     OW13686   8.384   6.500   6.429  0.0311  0.1047 -0.2452
 4133SOL    HW113687   8.439   6.484   6.505 -0.3342 -1.6645 -0.3045
 4133SOL    HW213688   8.297   6.518   6.465 -0.2317 -1.1237 -0.2170
 4134SOL     OW13689   8.267   7.363   1.545  0.6654  0.2475 -0.0135
 4134SOL    HW113690   8.235   7.284   1.587 -1.4290 -1.4893 -4.3091
 4134SOL    HW213691   8.360   7.367   1.568  0.3834 -2.2676  1.9364
 4135SOL     OW13692   2.687   3.670   4.992  0.0756 -0.4743 -0.0382
 4135SOL    HW113693   2.651   3.688   4.905  1.6666 -0.3032 -0.7001
 4135SOL    HW213694   2.773   3.712   4.992  0.7456 -1.7496  1.0715
 4136SOL     OW13695   6.211   3.609   3.073 -0.0324  0.5304 -0.0086
 4136SOL    HW113696   6.151   3.587   3.001  0.4490  0.5218 -0.4099
 4136SOL    HW213697   6.267   3.678   3.037 -0.9810  1.8704  0.9519
 4137SOL     OW13698   0.639   5.533   7.300  0.0677 -0.4684  0.7757
 4137SOL    HW113699   0.695   5.469   7.345  2.1593  1.4880  1.1396
 4137SOL    HW213700   0.698   5.576   7.238 -1.2048  1.2586  0.7194
 4138SOL     OW13701   8.667   5.416   5.188  0.2125 -0.2967  0.3373
 4138SOL    HW113702   8.676   5.366   5.106  0.1725  0.3255 -0.0567
 4138SOL    HW213703   8.732   5.485   5.181 -0.5279  0.4211  0.3266
 4139SOL     OW13704   1.987   5.082   7.253 -0.0126  0.4121  0.3844
 4139SOL    HW113705   1.988   5.089   7.157 -0.4029 -1.5829  0.1868
 4139SOL    HW213706   2.073   5.046   7.275  0.2537  1.2921  0.8658
 4140SOL     OW13707   1.007   2.758   3.667  0.0874 -0.2382  0.0766
 4140SOL    HW113708   0.915   2.744   3.644 -0.2912  1.3359  0.5077
 4140SOL    HW213709   1.023   2.702   3.743 -1.3717  1.5782  1.8225
 4141SOL     OW13710   1.827   8.584   5.230 -0.7585  0.4147  0.4212
 4141SOL    HW113711   1.817   8.628   5.315  0.0428  0.3388  0.5676
 4141SOL    HW213712   1.913   8.613   5.199 -1.1837  0.6878 -0.5144
 4142SOL     OW13713   7.900   4.534   2.992 -0.1908 -0.0915  0.5565
 4142SOL    HW113714   7.964   4.513   2.924 -0.6617  0.7551 -0.1723
 4142SOL    HW213715   7.869   4.449   3.023  0.9373 -0.5021  0.5878
 4143SOL     OW13716   3.880   6.359   4.199 -0.1227  0.5058  0.2714
 4143SOL    HW113717   3.786   6.377   4.192 -0.6671 -1.4522  1.6724
 4143SOL    HW213718   3.915   6.386   4.114 -2.4358 -1.1823 -1.3883
 4144SOL     OW13719   2.716   5.667   5.625 -0.3865  0.1799  0.1404
 4144SOL    HW113720   2.777   5.739   5.617 -0.8810  0.7308  1.1426
 4144SOL    HW213721   2.771   5.590   5.643 -0.0441  0.9565  2.7400
 4145SOL     OW13722   1.793   1.209   4.674 -0.4851  0.5462  0.2421
 4145SOL    HW113723   1.870   1.212   4.730  1.4219 -0.3653 -2.1320
 4145SOL    HW213724   1.785   1.116   4.650 -1.6177  0.8088 -0.4676
 4146SOL     OW13725   5.863   5.922   2.777 -0.4227 -0.1834 -0.2393
 4146SOL    HW113726   5.894   5.992   2.719 -0.9779  0.2593 -0.0113
 4146SOL    HW213727   5.821   5.968   2.850  1.2257 -0.6840  1.0974
 4147SOL     OW13728   5.090   5.880   2.627 -0.2820 -0.3797  0.3076
 4147SOL    HW113729   5.107   5.811   2.563 -1.1701 -0.2593 -0.0716
 4147SOL    HW213730   5.169   5.882   2.682  0.4933 -0.4769 -0.7772
 4148SOL     OW13731   4.769   7.566   4.729  0.4153 -0.6765 -0.6910
 4148SOL    HW113732   4.790   7.512   4.653 -0.4925  0.3059 -1.6564
 4148SOL    HW213733   4.806   7.652   4.709  0.0142 -0.3615 -0.1013
 4149SOL     OW13734   6.812   2.247   5.271  1.0411 -0.1038  0.0072
 4149SOL    HW113735   6.817   2.341   5.256  2.8446 -0.3160 -0.9447
 4149SOL    HW213736   6.903   2.217   5.269  0.5491 -1.7866  0.8936
 4150SOL     OW13737   4.154   1.628   4.472  0.1555 -0.2998 -0.1806
 4150SOL    HW113738   4.218   1.595   4.536  1.7971  1.9003 -0.5648
 4150SOL    HW213739   4.108   1.698   4.518  0.1302  0.1259 -0.8381
 4151SOL     OW13740   1.314   1.986   7.746 -0.1618 -0.1307 -0.2830
 4151SOL    HW113741   1.300   2.047   7.673  0.4704  0.7743  0.3332
 4151SOL    HW213742   1.248   2.011   7.811  1.1014  0.9871  0.6324
 4152SOL     OW13743   1.743   6.269   0.882 -0.1048 -0.0757 -0.1201
 4152SOL    HW113744   1.676   6.322   0.838 -1.0657 -1.8864 -0.9591
 4152SOL    HW213745   1.707   6.181   0.882  1.3033 -0.6948  1.5140
 4153SOL     OW13746   6.241   1.221   3.532  0.5240  0.1698  0.1667
 4153SOL    HW113747   6.298   1.180   3.466 -0.2486 -0.4317 -0.1369
 4153SOL    HW213748   6.211   1.302   3.490 -2.0470 -1.4211 -1.3426
 4154SOL     OW13749   7.680   1.364   3.845  0.0543 -0.4617 -0.0164
 4154SOL    HW113750   7.647   1.452   3.860 -0.3077 -0.5208 -0.4127
 4154SOL    HW213751   7.670   1.351   3.750 -0.7716 -1.2630  0.1692
 4155SOL     OW13752   0.675   0.226   8.584  0.2935  0.1027 -0.0123
 4155SOL    HW113753   0.604   0.275   8.543 -0.6070 -1.1220  0.0138
 4155SOL    HW213754   0.750   0.286   8.582 -0.4076  0.9929 -1.1315
 4156SOL     OW13755   0.269   2.479   7.649  0.2301 -0.0998 -0.5715
 4156SOL    HW113756   0.191   2.478   7.704 -0.0029  0.6754 -0.8726
 4156SOL    HW213757   0.324   2.409   7.683 -0.2581 -0.1413  0.1401
 4157SOL     OW13758   1.668   4.673   1.548  0.2330  0.2924 -0.3593
 4157SOL    HW113759   1.604   4.610   1.515 -0.7518  1.6154 -1.0559
 4157SOL    HW213760   1.683   4.646   1.639 -3.2522  1.3495  0.6998
 4158SOL     OW13761   1.482   1.414   7.733 -0.4262  0.1967 -0.2346
 4158SOL    HW113762   1.395   1.427   7.695 -0.2084  0.0004 -0.8195
 4158SOL    HW213763   1.466   1.378   7.820 -0.9492  1.0210  0.0144
 4159SOL     OW13764   3.435   6.965   8.011  0.1111 -0.1034 -0.8816
 4159SOL    HW113765   3.425   7.048   7.964 -2.5096 -1.2318 -2.5818
 4159SOL    HW213766   3.399   6.982   8.098  1.1850  0.9437 -0.6197
 4160SOL     OW13767   2.812   7.842   7.978  0.4959 -0.2507 -0.2583
 4160SOL    HW113768   2.865   7.921   7.984 -1.0520  0.8990 -1.0492
 4160SOL    HW213769   2.729   7.866   8.021  0.6454 -2.0746  1.1838
 4161SOL     OW13770   0.078   1.732   4.058  0.1068 -0.1084  0.2059
 4161SOL    HW113771   0.047   1.738   4.148  0.7349  0.6749  0.3774
 4161SOL    HW213772   0.003   1.698   4.009 -1.1930  2.0572  0.5504
 4162SOL     OW13773   4.100   2.352   4.940  0.3960  0.1544 -0.0405
 4162SOL    HW113774   4.060   2.415   4.880  0.0938  1.7320  1.7211
 4162SOL    HW213775   4.047   2.273   4.931 -0.2114  0.6653 -1.1530
 4163SOL     OW13776   4.692   1.506   7.596  0.1303 -0.2174 -0.1935
 4163SOL    HW113777   4.733   1.472   7.676 -0.1195 -0.5066 -0.1859
 4163SOL    HW213778   4.677   1.428   7.542  1.1463  0.0692 -0.9280
 4164SOL     OW13779   5.726   2.531   5.953  0.9229 -0.7388  0.2031
 4164SOL    HW113780   5.647   2.483   5.978 -1.4532  1.2812 -2.5279
 4164SOL    HW213781   5.793   2.504   6.015 -1.7479 -3.0844  2.3112
 4165SOL     OW13782   0.887   5.098   7.879  0.2614 -0.9254  0.0289
 4165SOL    HW113783   0.954   5.029   7.878  3.3248  1.8007 -0.4179
 4165SOL    HW213784   0.920   5.162   7.943 -2.0475  0.4980 -0.0886
 4166SOL     OW13785   3.184   2.165   4.597  0.5169 -0.1349  0.4466
 4166SOL    HW113786   3.171   2.256   4.571 -3.8930 -0.8076 -0.5733
 4166SOL    HW213787   3.135   2.157   4.679  0.9983 -1.5534  0.6257
 4167SOL     OW13788   6.626   1.240   8.136 -0.5193 -0.2956  0.2674
 4167SOL    HW113789   6.719   1.256   8.154  0.3294 -2.5013 -1.7520
 4167SOL    HW213790   6.598   1.180   8.205  0.2186 -1.4391 -0.4002
 4168SOL     OW13791   4.162   5.386   4.496  0.6058 -0.1323 -0.4598
 4168SOL    HW113792   4.258   5.389   4.499  0.5862 -0.1991  1.8770
 4168SOL    HW213793   4.134   5.450   4.562 -0.8962 -1.5065  0.3080
 4169SOL     OW13794   8.195   0.155   3.605  0.6705  0.5292  0.5481
 4169SOL    HW113795   8.212   0.133   3.513 -0.1891  0.2710  0.4503
 4169SOL    HW213796   8.109   0.196   3.605  0.2348 -0.3483  1.3684
 4170SOL     OW13797   0.202   1.368   2.669  0.2397 -0.2448  0.1855
 4170SOL    HW113798   0.170   1.281   2.694 -0.2489 -0.0957  0.0723
 4170SOL    HW213799   0.132   1.406   2.617  0.9624 -0.2750 -0.8328
 4171SOL     OW13800   0.782   7.308   5.528  0.1988  0.2729 -0.3207
 4171SOL    HW113801   0.840   7.244   5.569  0.0680  0.7708  0.6828
 4171SOL    HW213802   0.695   7.286   5.561  0.2421  1.3613  0.5845
 4172SOL     OW13803   7.543   7.600   5.425  0.2624  0.2912 -0.1558
 4172SOL    HW113804   7.513   7.518   5.465 -1.1522  0.6032 -0.5343
 4172SOL    HW213805   7.588   7.646   5.496 -1.3968  0.4188  0.8794
 4173SOL     OW13806   4.951   5.764   6.614  0.2173 -0.1119 -0.4434
 4173SOL    HW113807   5.015   5.697   6.593 -1.1419 -1.1553 -1.4568
 4173SOL    HW213808   4.880   5.717   6.658 -0.0579  0.9349  0.2682
 4174SOL     OW13809   8.203   1.155   1.414 -0.5613  0.4521 -0.5739
 4174SOL    HW113810   8.109   1.155   1.434 -0.2547 -0.8416  1.1208
 4174SOL    HW213811   8.207   1.151   1.319 -2.3013 -1.7322 -0.6544
 4175SOL     OW13812   0.395   2.334   7.275 -0.2022 -0.0465  0.1399
 4175SOL    HW113813   0.401   2.429   7.283 -0.8618 -0.0027  0.1907
 4175SOL    HW213814   0.342   2.320   7.196 -1.5983 -0.3318  1.0923
 4176SOL     OW13815   3.252   6.417   0.095 -0.0549  0.3528 -0.4573
 4176SOL    HW113816   3.177   6.377   0.139 -0.5175 -0.6483 -2.0832
 4176SOL    HW213817   3.294   6.471   0.163 -0.0543 -2.0022  1.5387
 4177SOL     OW13818   5.308   4.671   1.862  0.3333 -0.4753  0.4746
 4177SOL    HW113819   5.384   4.628   1.822  1.4623  0.5123  1.4880
 4177SOL    HW213820   5.301   4.632   1.949  1.5475  1.5215  1.5185
 4178SOL     OW13821   5.233   5.555   4.711 -0.0251  0.1402  0.3667
 4178SOL    HW113822   5.163   5.605   4.753 -0.3203  0.9674 -1.0337
 4178SOL    HW213823   5.270   5.616   4.647  0.1991 -1.1642 -0.7810
 4179SOL     OW13824   2.041   5.801   5.682 -0.4999 -0.0126 -0.6768
 4179SOL    HW113825   2.059   5.895   5.693 -0.7236 -0.2474  2.6048
 4179SOL    HW213826   2.123   5.765   5.648 -0.3678  1.3088 -1.8756
 4180SOL     OW13827   7.496   8.674   4.876  0.0206  0.2856 -0.0573
 4180SOL    HW113828   7.554   8.613   4.831  1.1787  1.1071  0.2754
 4180SOL    HW213829   7.408   8.646   4.851  0.4814 -1.7672  0.4164
 4181SOL     OW13830   0.524   3.622   3.871 -0.1829 -0.0491  0.4597
 4181SOL    HW113831   0.495   3.619   3.962  0.5076 -1.1461  0.6750
 4181SOL    HW213832   0.565   3.708   3.861  0.3694 -0.1889  1.4051
 4182SOL     OW13833   7.510   2.237   0.160  0.1529 -0.1491  0.1449
 4182SOL    HW113834   7.469   2.323   0.162 -0.2742 -0.3314 -0.5357
 4182SOL    HW213835   7.595   2.250   0.202  0.7162  0.9516 -1.2314
 4183SOL     OW13836   0.486   3.414   3.338  0.3225  0.6989  0.3927
 4183SOL    HW113837   0.475   3.509   3.341  0.9995  0.7662  0.9191
 4183SOL    HW213838   0.444   3.388   3.256  0.7624  1.5384 -0.1132
 4184SOL     OW13839   1.039   4.282   8.430  0.6484  0.9106  0.0358
 4184SOL    HW113840   1.045   4.353   8.365  2.5726  2.6120  1.9022
 4184SOL    HW213841   0.961   4.304   8.481  1.0291  1.5226  0.3742
 4185SOL     OW13842   3.588   6.975   3.237  0.2112  0.1216 -0.6727
 4185SOL    HW113843   3.676   6.962   3.204  0.4964 -0.5080  0.2857
 4185SOL    HW213844   3.536   6.905   3.197  0.2049  0.3120 -1.0022
 4186SOL     OW13845   1.161   1.190   4.791 -0.2765  0.4015 -0.4507
 4186SOL    HW113846   1.180   1.096   4.783 -0.4207  0.3991 -0.8127
 4186SOL    HW213847   1.246   1.232   4.783 -0.1279  0.2696  0.3815
 4187SOL     OW13848   7.016   3.234   7.936 -0.0098 -0.1148  0.1742
 4187SOL    HW113849   6.984   3.173   8.002 -0.5572 -1.3855 -1.2342
 4187SOL    HW213850   7.099   3.266   7.972 -2.1046  2.3679  3.3622
 4188SOL     OW13851   6.449   7.319   6.701 -0.2485  0.3010  0.2916
 4188SOL    HW113852   6.488   7.319   6.613 -0.8118 -0.6689  0.0361
 4188SOL    HW213853   6.358   7.344   6.686 -0.5495 -0.6617  0.5065
 4189SOL     OW13854   4.965   3.447   1.278  0.1386  0.1738 -0.3600
 4189SOL    HW113855   4.947   3.516   1.215 -0.8716  0.5871  0.3662
 4189SOL    HW213856   4.924   3.369   1.241  2.5928 -0.4910 -1.9627
 4190SOL     OW13857   4.892   1.851   4.584  0.1714  0.0396  0.1275
 4190SOL    HW113858   4.942   1.929   4.560  1.0971 -0.4372  0.4804
 4190SOL    HW213859   4.919   1.833   4.674 -1.2316  0.2286  0.6083
 4191SOL     OW13860   3.716   0.561   6.731  0.1279 -0.3402  0.2382
 4191SOL    HW113861   3.704   0.533   6.640  2.1765 -2.4695  0.5147
 4191SOL    HW213862   3.802   0.526   6.755  0.7587  2.2673  2.2631
 4192SOL     OW13863   0.215   2.268   4.334  0.0559  0.5093 -0.2055
 4192SOL    HW113864   0.143   2.272   4.397  0.1675  1.1629 -0.1131
 4192SOL    HW213865   0.197   2.190   4.282 -1.6906  1.5826 -1.3517
 4193SOL     OW13866   4.972   5.225   4.173  0.0207 -0.0115 -0.5244
 4193SOL    HW113867   4.914   5.149   4.184  1.0450 -0.4171  3.3890
 4193SOL    HW213868   4.917   5.300   4.194  0.5211 -0.3041  2.0712
 4194SOL     OW13869   4.339   0.048   3.548 -0.4873 -0.4856 -0.3614
 4194SOL    HW113870   4.302   0.113   3.488  1.9631  1.5598  0.1414
 4194SOL    HW213871   4.329  -0.036   3.503  0.1822  0.8009 -3.1308
 4195SOL     OW13872   3.206   7.601   1.182  0.2933 -0.1522 -1.3645
 4195SOL    HW113873   3.167   7.515   1.200 -1.7766  1.1430  0.9008
 4195SOL    HW213874   3.285   7.603   1.237 -0.1084 -0.3239 -0.7654
 4196SOL     OW13875   4.895   0.567   8.240 -0.4085  0.1131  0.1639
 4196SOL    HW113876   4.880   0.577   8.335  0.6918 -1.7289  0.5717
 4196SOL    HW213877   4.941   0.647   8.215 -1.8548  1.2283  0.8812
 4197SOL     OW13878   4.168   3.074   0.149  0.0358 -0.4681 -0.8209
 4197SOL    HW113879   4.196   2.983   0.160  1.9612  0.1214 -0.5182
 4197SOL    HW213880   4.243   3.126   0.178 -1.7832  1.2704  1.1028
 4198SOL     OW13881   5.739   3.130   1.718 -0.2082  0.7858  0.0258
 4198SOL    HW113882   5.782   3.175   1.645 -0.5169  0.1860 -0.5377
 4198SOL    HW213883   5.672   3.191   1.748  1.7507  2.2621  1.7041
 4199SOL     OW13884   5.648   3.310   3.290 -0.3488  0.1554 -0.2863
 4199SOL    HW113885   5.673   3.286   3.200  0.3532 -1.6787  0.3456
 4199SOL    HW213886   5.695   3.392   3.306  1.7374 -0.8729 -0.7142
 4200SOL     OW13887   7.131   1.632   1.167 -0.4315 -0.0968 -0.9621
 4200SOL    HW113888   7.132   1.537   1.157 -0.8246 -0.4705  1.7482
 4200SOL    HW213889   7.221   1.659   1.148  0.3174 -1.3688  0.5411
 4201SOL     OW13890   6.773   2.401   7.608  0.4104  0.1201  0.4032
 4201SOL    HW113891   6.757   2.419   7.516  1.0186 -0.4919  0.1726
 4201SOL    HW213892   6.768   2.487   7.650 -0.7223  0.2957 -0.0557
 4202SOL     OW13893   6.147   5.025   5.211  0.1877 -0.0344 -0.4917
 4202SOL    HW113894   6.065   4.995   5.252 -0.0679 -1.5503 -2.0160
 4202SOL    HW213895   6.118   5.079   5.137  0.5600 -0.5287 -1.0032
 4203SOL     OW13896   0.642   1.991   7.057  0.1972 -0.4578 -0.0411
 4203SOL    HW113897   0.557   2.015   7.021 -0.3161 -1.5292  0.4109
 4203SOL    HW213898   0.696   2.069   7.045 -1.4613  1.0322  1.5963
 4204SOL     OW13899   7.236   0.646   2.881  0.1581  0.1437 -0.5289
 4204SOL    HW113900   7.270   0.557   2.889 -1.3592 -0.3149  2.8752
 4204SOL    HW213901   7.300   0.700   2.929 -0.2436  0.4595 -0.3475
 4205SOL     OW13902   7.252   3.470   8.536  0.5988 -0.3677  0.2164
 4205SOL    HW113903   7.183   3.404   8.532 -0.5111  0.7743 -0.2403
 4205SOL    HW213904   7.241   3.511   8.622  0.4779  0.0493  0.0031
 4206SOL     OW13905   7.488   5.364   0.589  0.0546  0.1828  0.1751
 4206SOL    HW113906   7.521   5.440   0.638  0.9766 -0.6839  0.9377
 4206SOL    HW213907   7.563   5.332   0.540 -0.2486 -0.4319  0.1073
 4207SOL     OW13908   8.605   5.360   1.025  0.2461 -0.7265  0.6819
 4207SOL    HW113909   8.692   5.337   1.058  1.0114  0.6318 -0.2803
 4207SOL    HW213910   8.613   5.451   0.996 -0.6508 -1.4137 -2.1206
 4208SOL     OW13911   4.777   4.796   0.425 -0.0415 -0.3200  0.0584
 4208SOL    HW113912   4.702   4.762   0.474 -1.3784  0.8532 -1.0760
 4208SOL    HW213913   4.810   4.869   0.477 -0.0082 -0.5171  0.3142
 4209SOL     OW13914   8.056   1.918   8.122  0.1214  0.3800 -0.2965
 4209SOL    HW113915   8.008   1.992   8.083  1.4920  1.4885  0.0311
 4209SOL    HW213916   8.088   1.953   8.206  1.3116 -0.3817 -0.4177
 4210SOL     OW13917   1.090   8.707   1.761  0.3587  0.0059  0.2906
 4210SOL    HW113918   1.110   8.801   1.767 -0.4455  0.1761  0.5686
 4210SOL    HW213919   1.082   8.679   1.852  0.6964 -0.3603  0.2089
 4211SOL     OW13920   7.457   2.510   0.128  0.3991 -0.6556  0.1069
 4211SOL    HW113921   7.391   2.545   0.067 -0.4790 -0.0826  1.3480
 4211SOL    HW213922   7.476   2.583   0.187  1.0276 -1.2808  0.6941
 4212SOL     OW13923   5.889   8.276   2.911 -0.6644 -0.7946  0.0776
 4212SOL    HW113924   5.890   8.256   3.005 -0.4695 -1.7074 -0.1098
 4212SOL    HW213925   5.982   8.279   2.886 -0.7317 -1.5044 -0.2749
 4213SOL     OW13926   7.383   5.282   7.941 -0.2626 -0.4845  0.0368
 4213SOL    HW113927   7.303   5.237   7.968 -0.8847  0.3886 -0.2937
 4213SOL    HW213928   7.377   5.368   7.982 -0.7000  0.4735 -1.9469
 4214SOL     OW13929   7.504   8.316   4.485  0.0557 -0.1755  0.0931
 4214SOL    HW113930   7.512   8.364   4.567 -0.1120 -1.0386  0.6303
 4214SOL    HW213931   7.430   8.357   4.440 -0.0930  0.0633  0.5493
 4215SOL     OW13932   2.297   3.297   4.393  0.7415  0.6960  0.2204
 4215SOL    HW113933   2.202   3.311   4.400  0.3570 -2.0695  2.3312
 4215SOL    HW213934   2.335   3.362   4.453  0.1512  1.2905 -0.0284
 4216SOL     OW13935   7.198   8.702   4.292 -0.0757 -0.3241 -0.3284
 4216SOL    HW113936   7.140   8.633   4.259 -0.4627 -2.0033  3.3138
 4216SOL    HW213937   7.138   8.768   4.328  0.2633 -0.1624 -0.0496
 4217SOL     OW13938   8.015   5.606   7.629 -0.0088  0.0065 -0.0611
 4217SOL    HW113939   8.011   5.568   7.717  1.3944  0.8412  0.3819
 4217SOL    HW213940   8.090   5.564   7.588 -0.2041  0.1802 -0.6078
 4218SOL     OW13941   3.731   1.859   7.991  0.0601  0.0442 -0.1864
 4218SOL    HW113942   3.821   1.827   7.993  0.8192  2.1142  0.5058
 4218SOL    HW213943   3.738   1.953   8.007 -2.2179  0.2857 -0.3037
 4219SOL     OW13944   8.112   0.481   4.379 -0.3050  0.3433  0.0249
 4219SOL    HW113945   8.102   0.459   4.286  1.0502 -1.0749  0.1684
 4219SOL    HW213946   8.042   0.433   4.423  0.2290 -0.5534 -0.0814
 4220SOL     OW13947   7.435   1.745   3.827  0.6340  0.2105  0.6248
 4220SOL    HW113948   7.486   1.720   3.904  0.9359  0.8519  0.6465
 4220SOL    HW213949   7.404   1.834   3.847  5.4025  2.9543 -2.1111
 4221SOL     OW13950   4.486   5.693   4.482  0.0960 -0.1441  0.1824
 4221SOL    HW113951   4.410   5.687   4.424 -0.8266  1.5962  1.1035
 4221SOL    HW213952   4.453   5.669   4.568  0.6374  0.4047  0.5544
 4222SOL     OW13953   4.331   8.029   2.601  0.3654  0.0056 -0.9224
 4222SOL    HW113954   4.259   8.008   2.660  1.2887 -0.7458 -0.0109
 4222SOL    HW213955   4.408   7.989   2.642  1.5570  1.9291 -1.1280
 4223SOL     OW13956   4.346   4.736   3.521 -0.0063  0.3487  0.0893
 4223SOL    HW113957   4.441   4.723   3.533 -0.2352 -1.0925  0.5174
 4223SOL    HW213958   4.340   4.794   3.446  1.2551  1.5817  0.8830
 4224SOL     OW13959   5.325   0.824   8.151 -0.5216  0.1046  0.1567
 4224SOL    HW113960   5.380   0.809   8.227  0.3486 -0.0825 -0.4950
 4224SOL    HW213961   5.282   0.740   8.135 -0.5976  0.1061  0.3515
 4225SOL     OW13962   0.935   2.146   0.963  0.5834 -0.1458  0.3709
 4225SOL    HW113963   0.876   2.073   0.942  0.2113  0.3037 -0.1985
 4225SOL    HW213964   1.012   2.105   1.001  0.3714 -0.8374  0.0692
 4226SOL     OW13965   0.469   1.963   5.752  0.1464 -0.1065 -0.2068
 4226SOL    HW113966   0.411   1.892   5.723  0.7614  0.5400 -3.3888
 4226SOL    HW213967   0.412   2.023   5.800 -0.9082 -1.4359  0.2858
 4227SOL     OW13968   3.122   3.119   0.628 -0.0287  0.2569 -0.6005
 4227SOL    HW113969   3.139   3.112   0.534 -1.4216  0.8271 -0.9098
 4227SOL    HW213970   3.124   3.029   0.660  2.1343  0.1589 -0.8301
 4228SOL     OW13971   3.066   5.134   7.198  0.4891  0.0783 -0.3385
 4228SOL    HW113972   3.009   5.057   7.199 -0.2742  0.4604 -3.7640
 4228SOL    HW213973   3.120   5.124   7.277 -1.6852 -2.2855  0.9987
 4229SOL     OW13974   3.198   3.882   8.306  0.6046 -0.5371 -0.0777
 4229SOL    HW113975   3.117   3.883   8.256  0.6438  0.1637 -0.1404
 4229SOL    HW213976   3.181   3.938   8.381  0.9824 -0.4996 -0.0166
 4230SOL     OW13977   1.726   8.576   2.617  0.1389 -0.3170 -0.2673
 4230SOL    HW113978   1.780   8.501   2.591  1.1311  0.2059  0.2448
 4230SOL    HW213979   1.788   8.647   2.631 -0.6833  0.2970  0.3682
 4231SOL     OW13980   3.609   3.224   6.194  0.4143 -0.0414  0.3638
 4231SOL    HW113981   3.634   3.286   6.262  0.1224  0.4076  0.0669
 4231SOL    HW213982   3.561   3.276   6.130 -0.2929 -0.6733  0.3632
 4232SOL     OW13983   1.213   8.487   7.886 -0.0735  0.0512 -0.1373
 4232SOL    HW113984   1.184   8.569   7.846  0.7943  1.6088  2.1803
 4232SOL    HW213985   1.307   8.499   7.899  0.2354 -1.7003 -0.5426
 4233SOL     OW13986   6.598   7.981   2.006 -0.2711  0.1959  0.4384
 4233SOL    HW113987   6.557   7.913   1.953 -0.8581  0.8647 -0.0000
 4233SOL    HW213988   6.596   7.947   2.095 -1.5813  0.1012  0.3953
 4234SOL     OW13989   4.951   7.541   3.676 -0.2857  0.2635  0.7436
 4234SOL    HW113990   4.869   7.586   3.655 -0.8096 -0.0824  1.9473
 4234SOL    HW213991   4.923   7.454   3.704  0.6170 -0.3711 -0.2386
 4235SOL     OW13992   6.938   4.491   2.206  1.1364 -0.3985  0.6021
 4235SOL    HW113993   6.884   4.443   2.268 -0.4086  1.6449  0.9592
 4235SOL    HW213994   6.920   4.450   2.121 -2.5197  1.2639  0.3925
 4236SOL     OW13995   8.561   5.947   3.823  0.8156  0.0643  0.0358
 4236SOL    HW113996   8.489   5.884   3.813  1.0819 -0.1517 -0.5508
 4236SOL    HW213997   8.559   5.971   3.916  0.6145 -0.6948  0.2344
 4237SOL     OW13998   6.283   6.330   4.225 -0.0442 -0.0410  0.6065
 4237SOL    HW113999   6.289   6.265   4.295  1.0005  0.0734  0.6320
 4237SOL    HW214000   6.371   6.366   4.217 -0.2009  0.1030 -0.6287
 4238SOL     OW14001   3.655   2.783   1.916 -0.1198  0.3995 -0.3048
 4238SOL    HW114002   3.678   2.873   1.892 -0.3242  0.3205 -0.8106
 4238SOL    HW214003   3.638   2.739   1.832 -0.5771  0.0438 -0.0318
 4239SOL     OW14004   6.295   2.748   5.952 -0.6697 -0.2848  0.1458
 4239SOL    HW114005   6.390   2.759   5.956 -0.5162 -1.3059 -0.2990
 4239SOL    HW214006   6.260   2.813   6.013  0.2173  1.2860 -0.9456
 4240SOL     OW14007   8.676   5.547   6.905 -0.1553 -0.3359  0.3821
 4240SOL    HW114008   8.582   5.546   6.922 -0.0712 -0.1024  0.8649
 4240SOL    HW214009   8.709   5.621   6.956  0.5494 -1.3924  1.5035
 4241SOL     OW14010   1.837   1.493   6.561  0.1008  0.1737 -0.3260
 4241SOL    HW114011   1.801   1.568   6.515  0.4093  0.8402  0.4950
 4241SOL    HW214012   1.913   1.467   6.510 -0.3463  0.0362 -0.9375
 4242SOL     OW14013   5.831   0.781   5.135 -0.7001  0.3228 -0.1327
 4242SOL    HW114014   5.757   0.839   5.150 -0.0342  0.9388  0.9052
 4242SOL    HW214015   5.882   0.786   5.216  0.2650 -0.3930 -0.6756
 4243SOL     OW14016   3.978   6.981   4.930  0.2704  0.2529 -0.1873
 4243SOL    HW114017   3.930   7.025   5.000 -0.3566 -0.8398  0.0767
 4243SOL    HW214018   4.023   7.053   4.884 -1.8697  1.3752 -0.6812
 4244SOL     OW14019   3.503   0.623   6.921  0.0459 -0.4245 -0.1699
 4244SOL    HW114020   3.411   0.614   6.897 -0.3248  0.8053  0.7067
 4244SOL    HW214021   3.548   0.639   6.838 -0.4404 -1.5162 -0.6654
 4245SOL     OW14022   7.451   5.230   8.315 -0.4566  0.2061 -0.5151
 4245SOL    HW114023   7.360   5.258   8.323 -0.4639 -0.0885  0.7219
 4245SOL    HW214024   7.446   5.145   8.272 -1.0448 -1.0835  1.8997
 4246SOL     OW14025   7.992   4.272   8.657  0.2895  0.4872 -0.3356
 4246SOL    HW114026   7.953   4.332   8.721  2.2652  1.7117 -0.2000
 4246SOL    HW214027   8.018   4.196   8.709 -1.6917 -0.2819 -0.4049
 4247SOL     OW14028   7.325   0.673   6.832 -0.0853  0.4377  0.0548
 4247SOL    HW114029   7.376   0.605   6.788  0.0484 -0.5624  1.6673
 4247SOL    HW214030   7.235   0.639   6.831 -0.1421  0.5845  0.2438
 4248SOL     OW14031   1.472   2.018   1.670 -0.5197 -0.4941  0.6016
 4248SOL    HW114032   1.379   2.006   1.651 -0.6914 -0.7769  1.5723
 4248SOL    HW214033   1.484   2.113   1.670 -0.4288 -0.4721 -1.2078
 4249SOL     OW14034   3.319   8.174   6.867  0.1094  0.0188 -0.0460
 4249SOL    HW114035   3.387   8.210   6.810 -0.3196  1.5855  0.3806
 4249SOL    HW214036   3.243   8.161   6.810 -0.3247  1.5986  0.1420
 4250SOL     OW14037   6.696   8.307   7.678 -0.1464 -0.2539  0.0004
 4250SOL    HW114038   6.652   8.374   7.626 -0.4081  0.1636  0.7451
 4250SOL    HW214039   6.696   8.229   7.622 -0.3052  0.2220 -0.6677
 4251SOL     OW14040   5.830   7.358   6.955 -0.9825  0.7135 -0.3247
 4251SOL    HW114041   5.772   7.339   7.029 -0.8529  1.6714  0.0401
 4251SOL    HW214042   5.883   7.279   6.945 -1.0647  0.5365  0.5473
 4252SOL     OW14043   0.641   2.339   0.390 -0.7303  0.3262  0.3308
 4252SOL    HW114044   0.678   2.424   0.415 -0.8325 -0.1640  2.3275
 4252SOL    HW214045   0.717   2.283   0.376 -0.6521 -0.0347  2.0354
 4253SOL     OW14046   5.698   7.111   3.331  0.0813  0.0049  0.4201
 4253SOL    HW114047   5.732   7.034   3.377  0.8537 -0.4011 -0.7863
 4253SOL    HW214048   5.771   7.172   3.328 -0.8208  1.2780  2.2878
 4254SOL     OW14049   0.922   1.655   3.979  0.0899 -0.2222  0.0463
 4254SOL    HW114050   0.853   1.593   4.003 -0.6343 -0.3523 -2.1511
 4254SOL    HW214051   1.003   1.615   4.012 -0.7456 -0.4382  1.9866
 4255SOL     OW14052   4.757   7.044   2.353  0.2223  0.6186 -0.3218
 4255SOL    HW114053   4.803   7.113   2.306 -0.1174  0.4468 -0.9277
 4255SOL    HW214054   4.717   6.991   2.284  0.2216 -0.0027  0.1457
 4256SOL     OW14055   1.854   2.668   1.755 -0.5488 -0.2307 -0.1711
 4256SOL    HW114056   1.763   2.679   1.727 -0.9610  0.3311  1.2766
 4256SOL    HW214057   1.878   2.753   1.792  0.1130 -0.7616  0.6656
 4257SOL     OW14058   1.982   0.306   2.537  0.7208 -0.7027 -0.8185
 4257SOL    HW114059   1.900   0.343   2.570  1.8973  0.5759  0.8447
 4257SOL    HW214060   2.001   0.356   2.459  1.1506  0.7205  0.1698
 4258SOL     OW14061   2.653   7.559   6.920 -0.1250 -0.1170 -0.0249
 4258SOL    HW114062   2.582   7.549   6.857 -0.5322  0.6618  0.2970
 4258SOL    HW214063   2.609   7.569   7.004  0.3108  1.5054  0.0389
 4259SOL     OW14064   2.020   1.117   1.156 -0.5326  0.1104 -0.2153
 4259SOL    HW114065   2.048   1.049   1.216  0.2134  0.4142 -0.2035
 4259SOL    HW214066   2.015   1.074   1.071 -1.9618 -0.4130  0.1041
 4260SOL     OW14067   1.881   5.730   8.332  0.0291 -0.0012  0.0736
 4260SOL    HW114068   1.937   5.753   8.258 -0.7986  0.0124 -0.5610
 4260SOL    HW214069   1.859   5.638   8.318  0.2376 -0.1295  0.5551
 4261SOL     OW14070   6.428   3.036   1.530  0.4775 -0.1555 -0.3227
 4261SOL    HW114071   6.348   3.088   1.538  0.1335 -0.9356  2.6949
 4261SOL    HW214072   6.407   2.953   1.573  2.1964 -1.3224 -1.5927
 4262SOL     OW14073   1.552   4.284   2.120 -0.2137  0.4572  0.4107
 4262SOL    HW114074   1.596   4.315   2.200  0.1357 -2.5025  1.4799
 4262SOL    HW214075   1.617   4.228   2.078 -1.5176 -0.6317 -0.2027
 4263SOL     OW14076   1.384   2.694   0.513 -0.6269 -0.0692  0.7690
 4263SOL    HW114077   1.337   2.661   0.436 -1.5222 -0.1998  1.3547
 4263SOL    HW214078   1.415   2.781   0.487 -1.8265  0.3275  0.6011
 4264SOL     OW14079   1.960   0.641   5.689  0.5697  0.1530  1.2073
 4264SOL    HW114080   1.896   0.708   5.717  1.9834  2.4371 -0.6870
 4264SOL    HW214081   2.044   0.675   5.719  1.5518  0.2574 -1.4819
 4265SOL     OW14082   5.153   7.565   0.691  0.1498 -0.2995 -0.1965
 4265SOL    HW114083   5.214   7.548   0.763  0.1574 -0.3387 -0.2120
 4265SOL    HW214084   5.107   7.645   0.717  2.2560  1.4523 -1.5156
 4266SOL     OW14085   4.104   2.287   3.617 -0.4626  0.2346  0.0693
 4266SOL    HW114086   4.057   2.327   3.544 -0.9815 -1.3309 -0.5022
 4266SOL    HW214087   4.165   2.354   3.646 -0.7094  1.1274 -1.3675
 4267SOL     OW14088   7.909   6.214   5.762 -0.2110  0.0172  0.7904
 4267SOL    HW114089   7.859   6.170   5.694 -0.6653  1.1141  0.3863
 4267SOL    HW214090   7.965   6.276   5.715  0.4264 -0.1255  1.3416
 4268SOL     OW14091   4.751   8.544   3.286  0.3312  0.7769  0.2006
 4268SOL    HW114092   4.788   8.631   3.274  2.6097 -0.0830  0.4747
 4268SOL    HW214093   4.708   8.524   3.203  1.2876  1.4853 -0.4783
 4269SOL     OW14094   3.644   6.940   1.972  0.6219  0.1113  0.0884
 4269SOL    HW114095   3.631   7.022   2.019 -1.2204 -1.0824  1.8313
 4269SOL    HW214096   3.584   6.878   2.014  1.5572 -2.0124 -1.4933
 4270SOL     OW14097   6.777   6.489   7.680 -0.3777 -0.1459 -0.2678
 4270SOL    HW114098   6.770   6.481   7.775 -1.6032 -1.3554 -0.4300
 4270SOL    HW214099   6.871   6.497   7.663 -0.0724 -0.8666  0.9822
 4271SOL     OW14100   7.999   0.956   0.314  0.3933  0.2097  0.3948
 4271SOL    HW114101   8.037   0.868   0.325 -0.1110 -0.1202 -0.3610
 4271SOL    HW214102   7.928   0.943   0.251 -0.1314  1.0486  0.8004
 4272SOL     OW14103   5.220   0.593   5.405  0.2758  0.0969  0.1212
 4272SOL    HW114104   5.264   0.568   5.486  0.6496  0.0628 -0.0916
 4272SOL    HW214105   5.128   0.604   5.431  0.3318 -0.2366  0.4806
 4273SOL     OW14106   2.207   3.340   6.524  0.0795 -0.4089  0.2151
 4273SOL    HW114107   2.229   3.248   6.539 -3.1237 -1.8149 -2.4347
 4273SOL    HW214108   2.205   3.348   6.428 -0.1658  2.3127  0.3944
 4274SOL     OW14109   3.802   4.072   7.296 -0.3808  0.0250  0.4887
 4274SOL    HW114110   3.811   3.977   7.303 -0.2361  0.0624  0.8140
 4274SOL    HW214111   3.848   4.107   7.372 -0.6068  0.3477  0.4825
 4275SOL     OW14112   6.791   2.404   1.070 -0.0188 -0.5616  0.3453
 4275SOL    HW114113   6.764   2.378   1.158 -2.3529  2.2714  0.6404
 4275SOL    HW214114   6.713   2.392   1.016  0.4062  0.6722 -0.6009
 4276SOL     OW14115   5.260   4.909   3.651  0.2814 -0.3658  0.1461
 4276SOL    HW114116   5.322   4.866   3.593 -0.1421 -0.8818  0.0627
 4276SOL    HW214117   5.307   4.922   3.733  0.2320 -1.5369  0.3650
 4277SOL     OW14118   4.193   3.297   4.437  0.4659 -0.7918 -0.2449
 4277SOL    HW114119   4.142   3.275   4.514  0.9033 -0.7515  0.0620
 4277SOL    HW214120   4.140   3.267   4.363  0.8684 -2.5506  0.1384
 4278SOL     OW14121   5.197   1.248   6.825 -0.3478  0.4845  0.3806
 4278SOL    HW114122   5.263   1.306   6.862  1.6354 -1.7508  0.6048
 4278SOL    HW214123   5.200   1.266   6.731  0.6351  0.4178  0.3834
 4279SOL     OW14124   7.621   0.957   2.427 -0.6545 -0.3985 -0.1789
 4279SOL    HW114125   7.547   1.018   2.427 -0.0677  0.3603 -1.4535
 4279SOL    HW214126   7.698   1.013   2.416 -0.1147 -1.3695 -1.5503
 4280SOL     OW14127   4.197   3.965   1.170  0.4537  0.6367 -0.1988
 4280SOL    HW114128   4.102   3.972   1.156  0.5360 -1.2844 -2.2383
 4280SOL    HW214129   4.234   4.039   1.124  0.0324  0.5412 -0.6989
 4281SOL     OW14130   6.526   4.064   3.850  0.4954  0.1363 -0.9154
 4281SOL    HW114131   6.498   4.104   3.768  1.1788  0.8037 -0.8371
 4281SOL    HW214132   6.611   4.024   3.830  1.5540  1.8535 -0.1377
 4282SOL     OW14133   2.522   1.210   1.458  0.4908 -0.7614  0.1826
 4282SOL    HW114134   2.449   1.271   1.472  1.2441  0.1058  0.4724
 4282SOL    HW214135   2.538   1.215   1.364  0.4200 -0.6522  0.1752
 4283SOL     OW14136   8.509   7.405   1.277 -0.3247 -0.0938  0.1358
 4283SOL    HW114137   8.546   7.323   1.243 -0.2167 -0.4657  1.1209
 4283SOL    HW214138   8.509   7.394   1.372 -1.8358  0.3939  0.2231
 4284SOL     OW14139   8.126   7.895   4.605  0.2974  0.4776 -0.4795
 4284SOL    HW114140   8.179   7.869   4.680  2.7627  0.9224 -1.9423
 4284SOL    HW214141   8.036   7.893   4.637  1.1008 -0.9612  1.9777
 4285SOL     OW14142   4.471   0.190   8.244 -0.1068  0.5238 -0.2935
 4285SOL    HW114143   4.442   0.175   8.334 -1.4009 -3.3024 -1.1618
 4285SOL    HW214144   4.463   0.285   8.232 -1.8136  0.9474  2.9668
 4286SOL     OW14145   4.140   4.349   4.105 -0.3001 -0.1317  0.0689
 4286SOL    HW114146   4.214   4.399   4.071 -0.2739  0.2530  0.6825
 4286SOL    HW214147   4.167   4.257   4.095  1.3434 -0.0299  2.4787
 4287SOL     OW14148   3.100   3.171   1.562 -0.2020  0.0920  0.2861
 4287SOL    HW114149   3.031   3.109   1.541  1.9068 -1.8075 -1.5264
 4287SOL    HW214150   3.135   3.198   1.477  1.3816  0.8617  1.1341
 4288SOL     OW14151   2.072   7.316   1.868  0.1499  0.3328 -0.2002
 4288SOL    HW114152   2.091   7.285   1.956 -0.2619  1.6179  0.3600
 4288SOL    HW214153   2.126   7.394   1.857 -0.4285  0.6698 -0.7522
 4289SOL     OW14154   5.770   6.592   4.474 -0.2486 -0.4181 -0.1867
 4289SOL    HW114155   5.785   6.673   4.425 -2.3063 -0.3581 -0.8367
 4289SOL    HW214156   5.822   6.601   4.553  1.1728  0.6204 -1.1886
 4290SOL     OW14157   4.950   1.918   8.015  0.1703 -0.2109 -0.1452
 4290SOL    HW114158   4.993   1.951   7.935  1.1794  0.6825  0.7308
 4290SOL    HW214159   4.981   1.829   8.024  0.3062 -0.2109 -0.5773
 4291SOL     OW14160   5.614   6.978   0.372 -0.3556 -0.2556 -0.1792
 4291SOL    HW114161   5.637   6.907   0.311  0.2231 -1.0215  0.9024
 4291SOL    HW214162   5.521   6.964   0.391 -0.0072 -1.3726  0.8207
 4292SOL     OW14163   3.980   1.783   8.006 -0.1022  0.2148  0.4841
 4292SOL    HW114164   3.959   1.818   8.092  0.3984  2.5767 -0.2807
 4292SOL    HW214165   4.071   1.809   7.991 -0.2094 -0.0708 -0.7715
 4293SOL     OW14166   5.019   5.073   3.158 -0.0138 -0.0898 -0.2224
 4293SOL    HW114167   5.061   4.996   3.197  0.7587  0.0879 -0.6738
 4293SOL    HW214168   5.074   5.094   3.082  1.4950  2.5609  1.4211
 4294SOL     OW14169   6.657   2.913   6.664 -0.0042 -0.1248 -0.2743
 4294SOL    HW114170   6.731   2.892   6.607  0.0558 -0.3764 -0.1037
 4294SOL    HW214171   6.694   2.915   6.752 -0.1920 -0.1993 -0.1932
 4295SOL     OW14172   5.965   2.052   4.130 -0.0813  0.4210  0.1704
 4295SOL    HW114173   5.966   1.969   4.177 -0.7454  0.2323 -0.1305
 4295SOL    HW214174   5.964   2.118   4.198  0.1191  0.1741  0.4143
 4296SOL     OW14175   7.526   6.457   6.995  0.2128  0.0702 -0.5224
 4296SOL    HW114176   7.617   6.485   6.982 -0.4937  1.5132 -2.9030
 4296SOL    HW214177   7.474   6.533   6.970 -1.6863 -0.2254  2.1505
 4297SOL     OW14178   2.093   2.695   3.548  0.0073  0.9467 -0.9407
 4297SOL    HW114179   2.127   2.615   3.587 -1.2832  0.2826 -1.1221
 4297SOL    HW214180   2.087   2.757   3.621 -0.9105  0.2145 -0.3686
 4298SOL     OW14181   4.585   8.475   5.424  0.0601  0.8158 -0.0694
 4298SOL    HW114182   4.532   8.403   5.390  2.7586 -1.0131 -0.7421
 4298SOL    HW214183   4.616   8.444   5.509  0.5013  1.5575  0.0518
 4299SOL     OW14184   8.498   5.267   4.774  0.0659  0.3977 -0.5421
 4299SOL    HW114185   8.454   5.351   4.763  0.9125  0.8535 -0.5088
 4299SOL    HW214186   8.475   5.218   4.695 -0.8749  0.4400 -0.3142
 4300SOL     OW14187   5.202   8.228   2.378 -0.8519  0.6608 -0.3468
 4300SOL    HW114188   5.197   8.288   2.452 -0.5055 -0.0475  0.2580
 4300SOL    HW214189   5.254   8.274   2.313 -1.4071  1.4093 -0.2755
 4301SOL     OW14190   3.020   8.201   4.718 -0.3709 -0.2797 -0.0548
 4301SOL    HW114191   3.093   8.173   4.774  1.1307 -0.1413 -1.8664
 4301SOL    HW214192   2.953   8.134   4.732  0.2114 -0.6138  1.3781
 4302SOL     OW14193   8.362   0.789   5.462 -0.6081 -0.7643  0.0619
 4302SOL    HW114194   8.446   0.808   5.419 -0.9762 -0.7338 -0.6548
 4302SOL    HW214195   8.371   0.700   5.494 -0.7585 -1.2343 -1.1539
 4303SOL     OW14196   8.615   1.060   1.429  0.2915  0.0312 -0.4301
 4303SOL    HW114197   8.693   1.062   1.484  0.2993 -1.2280 -0.3731
 4303SOL    HW214198   8.564   1.137   1.456  1.4246  0.7790 -0.3669
 4304SOL     OW14199   6.181   0.328   8.225  0.5110  0.2177  0.3974
 4304SOL    HW114200   6.156   0.421   8.222 -0.5418 -0.0187  1.1649
 4304SOL    HW214201   6.172   0.304   8.317  0.9223 -0.6080  0.2289
 4305SOL     OW14202   0.749   5.966   0.162 -0.1008  0.2129  0.5887
 4305SOL    HW114203   0.802   5.922   0.095 -0.9819  0.9249 -0.6199
 4305SOL    HW214204   0.789   6.053   0.169 -1.3081  0.9089 -0.6480
 4306SOL     OW14205   4.275   6.396   1.253 -0.3076 -0.3290  0.2192
 4306SOL    HW114206   4.333   6.383   1.178  0.0081  0.2419  0.3547
 4306SOL    HW214207   4.322   6.458   1.309 -1.3837  0.7633 -0.0464
 4307SOL     OW14208   0.011   0.694   6.367  0.4608 -0.1817  0.0636
 4307SOL    HW114209  -0.081   0.698   6.393  0.7761  1.3592  1.1054
 4307SOL    HW214210   0.058   0.673   6.447  1.0162 -1.2375 -0.5212
 4308SOL     OW14211   0.738   2.940   0.906 -0.5938 -0.4630 -0.2192
 4308SOL    HW114212   0.695   2.910   0.986  1.6534 -1.0832  0.8255
 4308SOL    HW214213   0.737   2.864   0.848 -0.2077 -0.7298  0.1179
 4309SOL     OW14214   4.637   2.280   3.077 -0.4339 -0.0482  0.1362
 4309SOL    HW114215   4.654   2.224   3.001  0.1424 -1.0863  1.0057
 4309SOL    HW214216   4.602   2.361   3.039 -0.4265 -0.6412 -1.2136
 4310SOL     OW14217   8.674   4.712   5.343 -0.5770 -0.0231  0.1108
 4310SOL    HW114218   8.587   4.749   5.360 -0.4081  0.2809  0.3235
 4310SOL    HW214219   8.692   4.733   5.252 -1.6386 -1.9707 -0.5952
 4311SOL     OW14220   4.424   4.666   5.396 -0.0271  0.4541 -0.0017
 4311SOL    HW114221   4.347   4.702   5.352 -0.4550 -2.0087 -1.4835
 4311SOL    HW214222   4.397   4.657   5.487 -0.6064  1.8339 -0.0031
 4312SOL     OW14223   5.430   5.693   3.486 -0.0569 -0.4833  0.1672
 4312SOL    HW114224   5.499   5.697   3.419 -0.8664  1.6100 -0.6369
 4312SOL    HW214225   5.377   5.618   3.461 -0.5867  0.4927 -1.8987
 4313SOL     OW14226   5.741   1.627   6.506 -0.0035 -0.6255 -0.3112
 4313SOL    HW114227   5.733   1.639   6.601  0.0387  0.0775 -0.3960
 4313SOL    HW214228   5.655   1.653   6.472  0.4808  0.6398 -0.6074
 4314SOL     OW14229   6.585   1.631   3.771 -0.3991  0.6856  0.5174
 4314SOL    HW114230   6.599   1.655   3.863  1.7598 -1.1509  0.7558
 4314SOL    HW214231   6.634   1.696   3.721  0.5940  0.1829  0.8247
 4315SOL     OW14232   3.127   5.896   8.344 -0.2120  0.4266  0.0879
 4315SOL    HW114233   3.103   5.988   8.341  1.6903  1.0030  0.9163
 4315SOL    HW214234   3.094   5.859   8.262 -1.0414  1.8145 -0.2291
 4316SOL     OW14235   6.415   6.154   0.586 -0.0404 -0.1636 -0.1227
 4316SOL    HW114236   6.494   6.105   0.562  1.0023 -0.2252  2.9263
 4316SOL    HW214237   6.344   6.091   0.576  0.6564 -0.8980 -0.5554
 4317SOL     OW14238   6.399   0.803   5.691 -0.1016 -0.0684 -0.2284
 4317SOL    HW114239   6.455   0.754   5.751 -0.6908 -0.4009  0.0685
 4317SOL    HW214240   6.444   0.800   5.607 -0.4357 -1.7048 -0.3777
 4318SOL     OW14241   2.105   5.034   1.300  0.3371 -0.6259 -0.1543
 4318SOL    HW114242   2.029   5.044   1.359 -0.3601  2.6476 -1.3687
 4318SOL    HW214243   2.180   5.033   1.359 -0.3817  1.7641  0.9622
 4319SOL     OW14244   6.736   7.336   5.534  0.3177 -0.3890  0.2952
 4319SOL    HW114245   6.697   7.252   5.556 -0.4993  0.4172  2.2126
 4319SOL    HW214246   6.666   7.400   5.550  1.3174  0.7645  0.2287
 4320SOL     OW14247   2.250   1.693   3.332  0.6734  0.3354 -0.5462
 4320SOL    HW114248   2.186   1.740   3.278 -0.6943 -0.7364  0.0531
 4320SOL    HW214249   2.299   1.639   3.270  0.3696  0.4812 -0.9174
 4321SOL     OW14250   5.517   6.253   6.013 -0.4896 -0.0533  0.1728
 4321SOL    HW114251   5.513   6.209   5.928 -0.8653  0.1977  0.0586
 4321SOL    HW214252   5.588   6.317   6.004 -1.3715  0.8788 -0.3937
 4322SOL     OW14253   1.897   3.557   7.455 -0.2388 -0.2454 -0.1918
 4322SOL    HW114254   1.903   3.631   7.394 -3.2032  0.3645  0.1199
 4322SOL    HW214255   1.948   3.586   7.532  2.5716 -0.5599 -1.8018
 4323SOL     OW14256   6.331   0.254   1.989 -0.1484 -0.6771 -0.1912
 4323SOL    HW114257   6.380   0.332   2.015 -1.1530 -0.2053  0.3672
 4323SOL    HW214258   6.243   0.270   2.023 -1.0583 -0.8615 -2.3539
 4324SOL     OW14259   4.663   4.699   3.213 -0.1328  0.3074  0.0994
 4324SOL    HW114260   4.690   4.706   3.305 -1.0020  1.4688  0.2766
 4324SOL    HW214261   4.742   4.721   3.164  0.8020 -1.8632  0.5037
 4325SOL     OW14262   6.363   6.430   7.422 -0.3181  0.7991 -0.0611
 4325SOL    HW114263   6.284   6.382   7.448  0.5812  0.2296  1.8674
 4325SOL    HW214264   6.428   6.362   7.405  0.4064  1.2573  0.7464
 4326SOL     OW14265   1.920   0.225   2.133 -0.3398  0.4722  1.0182
 4326SOL    HW114266   1.844   0.253   2.081 -0.9309  0.7594  2.0094
 4326SOL    HW214267   1.886   0.155   2.190  0.2062  0.4087  1.2717
 4327SOL     OW14268   6.035   5.785   6.191 -0.0091  0.3540  0.4321
 4327SOL    HW114269   5.942   5.771   6.173 -0.2373  0.3678  1.5376
 4327SOL    HW214270   6.056   5.721   6.258  0.3098  1.5512  1.5198
 4328SOL     OW14271   1.973   0.973   7.493  0.7419  0.2518 -0.3354
 4328SOL    HW114272   1.985   0.895   7.546  0.2620  0.5665  0.2608
 4328SOL    HW214273   1.969   0.941   7.403 -0.5873 -0.5625 -0.0228
 4329SOL     OW14274   5.109   5.105   2.009 -0.0161  0.0363 -0.3348
 4329SOL    HW114275   5.066   5.148   1.935 -1.3261  0.8804  0.8627
 4329SOL    HW214276   5.036   5.069   2.060  0.9315 -1.7221 -0.1408
 4330SOL     OW14277   3.532   4.694   1.503 -0.0727 -0.0497 -0.4889
 4330SOL    HW114278   3.606   4.640   1.530 -0.8485 -0.2642  1.4497
 4330SOL    HW214279   3.466   4.680   1.572 -1.5411  0.8700 -1.6313
 4331SOL     OW14280   3.124   6.550   5.154  0.0803 -0.2599 -0.0585
 4331SOL    HW114281   3.199   6.574   5.209  0.4481 -1.5950  0.0765
 4331SOL    HW214282   3.064   6.504   5.213 -0.8854  0.8334 -0.1591
 4332SOL     OW14283   5.911   4.278   7.482 -0.2444 -0.0203  0.0686
 4332SOL    HW114284   5.950   4.361   7.509  1.0058  0.0503 -1.8023
 4332SOL    HW214285   5.830   4.302   7.437  0.0736  0.1971 -0.3972
 4333SOL     OW14286   2.361   3.057   1.680 -0.0023 -0.0042  0.2520
 4333SOL    HW114287   2.268   3.058   1.705  0.0650 -1.5798  0.6832
 4333SOL    HW214288   2.404   3.014   1.754  1.0883  0.7473  0.0635
 4334SOL     OW14289   6.475   0.684   4.838 -0.1755  0.4649 -0.1093
 4334SOL    HW114290   6.488   0.673   4.744  2.3492  0.9016  0.0963
 4334SOL    HW214291   6.443   0.773   4.849  0.5471  0.7890 -0.5320
 4335SOL     OW14292   4.283   6.238   0.673 -0.2300  0.0179 -0.4429
 4335SOL    HW114293   4.352   6.299   0.696  0.5016 -0.9170 -0.0947
 4335SOL    HW214294   4.315   6.193   0.595 -0.2320 -0.7267 -0.0261
 4336SOL     OW14295   6.477   8.080   5.160 -0.9545  0.4022 -0.4770
 4336SOL    HW114296   6.448   8.170   5.168 -0.2992  0.6793 -1.1277
 4336SOL    HW214297   6.491   8.067   5.066 -2.2489 -0.7619 -0.5420
 4337SOL     OW14298   3.168   0.063   1.103 -0.5044  0.4297 -0.3046
 4337SOL    HW114299   3.164   0.158   1.092  0.3403  0.4380 -0.5763
 4337SOL    HW214300   3.259   0.040   1.084 -1.1566 -0.6959 -2.3013
 4338SOL     OW14301   5.131   7.097   7.751  0.2838 -0.0324 -0.5987
 4338SOL    HW114302   5.151   7.191   7.760 -1.8203  0.7315 -2.8378
 4338SOL    HW214303   5.165   7.073   7.666  0.7425 -1.3291 -0.0704
 4339SOL     OW14304   8.697   2.884   3.616  0.3109 -0.4411 -0.3275
 4339SOL    HW114305   8.604   2.860   3.625  0.1117  0.3576 -0.2274
 4339SOL    HW214306   8.710   2.891   3.522  0.4069 -1.0497 -0.3678
 4340SOL     OW14307   0.602   3.276   5.309  0.0105 -0.1333 -0.2120
 4340SOL    HW114308   0.532   3.248   5.249  0.3554  0.2055 -0.7779
 4340SOL    HW214309   0.579   3.235   5.392 -1.6672  1.1238  0.0073
 4341SOL     OW14310   7.303   0.237   3.851  0.1307 -0.1484 -0.1880
 4341SOL    HW114311   7.283   0.153   3.893 -1.9223  0.4573  0.1508
 4341SOL    HW214312   7.289   0.221   3.758  0.1941 -0.2890 -0.1749
 4342SOL     OW14313   5.669   7.459   3.386 -0.5667  0.1365 -0.5206
 4342SOL    HW114314   5.749   7.408   3.373  0.0074  1.0225 -0.5395
 4342SOL    HW214315   5.605   7.395   3.418  0.3435 -0.4424  0.2051
 4343SOL     OW14316   0.687   6.998   3.864  0.5608 -0.0462  0.5647
 4343SOL    HW114317   0.611   6.957   3.905  0.7392 -1.0103 -0.0365
 4343SOL    HW214318   0.665   6.999   3.771  0.3331  1.7340  0.6107
 4344SOL     OW14319   7.691   1.250   1.840 -0.1958 -0.6322  0.2493
 4344SOL    HW114320   7.786   1.241   1.848 -0.1097 -0.2583 -0.3012
 4344SOL    HW214321   7.656   1.165   1.870  0.2763 -0.5732  0.9904
 4345SOL     OW14322   3.714   8.133   7.946  0.3439  0.1976  0.2479
 4345SOL    HW114323   3.786   8.074   7.968  0.4210  0.7873  1.7162
 4345SOL    HW214324   3.643   8.106   8.005 -0.5611 -0.2071 -0.9970
 4346SOL     OW14325   3.389   7.937   2.879 -0.0549  0.2775  0.6986
 4346SOL    HW114326   3.471   7.980   2.857  0.1920 -0.3387  0.3861
 4346SOL    HW214327   3.321   7.999   2.852  0.2934  0.5047  0.3354
 4347SOL     OW14328   7.554   1.019   1.639 -0.2007 -1.3121  0.3701
 4347SOL    HW114329   7.630   0.972   1.673 -0.4148 -2.3258 -0.4864
 4347SOL    HW214330   7.569   1.110   1.664  2.0630 -1.2058 -1.0450
 4348SOL     OW14331   1.826   4.423   4.904  0.4270  0.1330  0.5502
 4348SOL    HW114332   1.874   4.423   4.821  0.2873  1.2409  0.4553
 4348SOL    HW214333   1.746   4.374   4.885 -0.1480  1.3694 -0.3111
 4349SOL     OW14334   8.076   5.819   0.920  0.4028 -0.6554 -0.4895
 4349SOL    HW114335   8.124   5.899   0.942  0.2802  0.1676 -2.8755
 4349SOL    HW214336   7.985   5.847   0.912  0.1889 -1.2793 -0.2972
 4350SOL     OW14337   0.951   7.684   4.942 -0.1234  0.0734 -0.2154
 4350SOL    HW114338   1.035   7.725   4.920 -0.2748  0.3910 -0.2077
 4350SOL    HW214339   0.974   7.597   4.973  0.3489  0.7314  1.3871
 4351SOL     OW14340   4.574   2.540   7.198  0.1701 -0.1244  0.8395
 4351SOL    HW114341   4.668   2.526   7.207  0.0201 -2.2374 -0.3526
 4351SOL    HW214342   4.535   2.456   7.221 -1.1959 -0.3165 -1.8395
 4352SOL     OW14343   6.984   3.026   2.553  0.2226 -0.3854  0.1919
 4352SOL    HW114344   6.925   3.091   2.590  1.3330 -0.0494  1.4824
 4352SOL    HW214345   6.961   2.945   2.598  1.1876 -0.0983  1.2616
 4353SOL     OW14346   1.463   1.170   0.956 -0.1517  0.0921 -0.1884
 4353SOL    HW114347   1.392   1.108   0.971 -1.6386  0.9044 -3.0331
 4353SOL    HW214348   1.470   1.219   1.037 -4.2913  1.2718 -0.3157
 4354SOL     OW14349   6.020   0.353   5.277 -0.4536 -0.1622  0.5751
 4354SOL    HW114350   6.053   0.280   5.225 -0.3285  0.7395 -0.6713
 4354SOL    HW214351   5.938   0.321   5.315  0.0798 -1.2529  0.8452
 4355SOL     OW14352   4.205   7.599   5.303 -0.2052  0.8585 -0.1158
 4355SOL    HW114353   4.138   7.542   5.341 -0.6930  2.0319  0.8500
 4355SOL    HW214354   4.286   7.548   5.308 -1.3090 -1.6871 -3.6603
 4356SOL     OW14355   5.133   8.180   2.788  0.0947  0.5261  0.7847
 4356SOL    HW114356   5.111   8.093   2.822  0.5357 -0.0412 -0.3330
 4356SOL    HW214357   5.088   8.240   2.847 -0.3354 -0.4586  1.5002
 4357SOL     OW14358   8.472   4.785   4.471  0.2823  0.2424 -0.3314
 4357SOL    HW114359   8.441   4.873   4.490 -2.0983 -0.6509  0.3438
 4357SOL    HW214360   8.540   4.769   4.536 -1.6104  0.4319  1.8401
 4358SOL     OW14361   7.529   1.575   1.315  0.6244 -0.5799  0.5353
 4358SOL    HW114362   7.473   1.626   1.257 -1.1306 -0.1642  2.4896
 4358SOL    HW214363   7.541   1.491   1.269  1.0050  0.4392 -1.3085
 4359SOL     OW14364   2.273   3.791   3.552  0.5390  0.5480  0.6400
 4359SOL    HW114365   2.268   3.701   3.582  1.9577  0.8926  2.0528
 4359SOL    HW214366   2.182   3.821   3.549  0.0881 -0.8000  0.5114
 4360SOL     OW14367   1.008   8.433   4.681 -0.3345 -0.2904  0.2891
 4360SOL    HW114368   1.056   8.515   4.688  0.3599 -0.6697  0.0884
 4360SOL    HW214369   0.973   8.433   4.592 -0.6007 -0.0664  0.3951
 4361SOL     OW14370   6.559   0.697   0.166 -0.3653 -0.2520 -0.6238
 4361SOL    HW114371   6.636   0.646   0.141  0.2452  0.5627 -0.4411
 4361SOL    HW214372   6.529   0.738   0.085  1.1911  1.8163 -0.2509
 4362SOL     OW14373   8.123   6.705   6.891  0.1091  0.1638 -0.0470
 4362SOL    HW114374   8.137   6.649   6.967  1.6431  0.9709  0.3040
 4362SOL    HW214375   8.209   6.741   6.870 -0.6435  1.6525 -0.8354
 4363SOL     OW14376   1.376   2.683   3.055  0.1528  0.2095 -0.1273
 4363SOL    HW114377   1.442   2.616   3.035  0.0542  0.0756 -0.0120
 4363SOL    HW214378   1.399   2.714   3.143 -0.2824 -0.2589  0.1581
 4364SOL     OW14379   1.292   2.037   3.571  0.1337  0.2915 -0.3967
 4364SOL    HW114380   1.346   1.998   3.640  0.5712  1.2244 -0.2061
 4364SOL    HW214381   1.331   2.007   3.490  0.9173  0.9098 -0.2603
 4365SOL     OW14382   1.137   1.006   8.315 -0.1547  0.3930 -0.1013
 4365SOL    HW114383   1.145   1.035   8.224 -0.1824  2.4086  0.4923
 4365SOL    HW214384   1.225   1.014   8.351 -0.2954  0.3469  0.2572
 4366SOL     OW14385   4.493   4.990   6.775 -0.3309  0.7615  0.0290
 4366SOL    HW114386   4.477   5.046   6.698 -0.8937 -0.0163 -0.4318
 4366SOL    HW214387   4.485   5.050   6.849  2.1086  1.9491 -0.5533
 4367SOL     OW14388   8.509   8.555   7.609  0.3735  0.1651 -0.6379
 4367SOL    HW114389   8.574   8.488   7.588 -0.9828 -2.1571  1.8563
 4367SOL    HW214390   8.433   8.532   7.555  0.7560  1.3725 -1.7324
 4368SOL     OW14391   0.530   6.843   7.506  0.7397  0.4913  0.1485
 4368SOL    HW114392   0.517   6.879   7.418 -2.1477  0.4465  0.4503
 4368SOL    HW214393   0.565   6.915   7.557  0.1958  1.2411 -0.5120
 4369SOL     OW14394   1.893   7.248   2.198  0.0986  0.5775  0.1821
 4369SOL    HW114395   1.941   7.261   2.280  0.0761  1.1913  0.0977
 4369SOL    HW214396   1.961   7.223   2.135  0.1025  0.0012  0.4004
 4370SOL     OW14397   2.589   3.016   2.175  1.2710  0.3424  0.3632
 4370SOL    HW114398   2.525   3.075   2.214  0.6155  0.6577 -1.1512
 4370SOL    HW214399   2.659   3.073   2.144  0.3138  0.4572 -1.7353
 4371SOL     OW14400   2.742   5.392   6.629 -0.1115  0.5275  0.1507
 4371SOL    HW114401   2.748   5.446   6.708 -2.0760 -0.8885  1.3548
 4371SOL    HW214402   2.651   5.363   6.626  0.1767 -0.3548 -2.0591
 4372SOL     OW14403   8.509   7.098   0.387  0.0013 -0.3242 -0.3393
 4372SOL    HW114404   8.583   7.129   0.334  0.4603 -0.6725  0.0929
 4372SOL    HW214405   8.434   7.145   0.352  0.5225  0.4984 -0.3843
 4373SOL     OW14406   2.569   5.018   2.368 -0.1926 -0.2237  0.2998
 4373SOL    HW114407   2.532   4.944   2.418  1.2395 -1.5275 -0.4869
 4373SOL    HW214408   2.663   5.001   2.366 -0.1350 -0.0690 -2.5369
 4374SOL     OW14409   5.989   1.506   2.042 -0.3857  0.0263  0.5104
 4374SOL    HW114410   5.984   1.501   1.946 -3.0276 -1.1679  0.6105
 4374SOL    HW214411   5.899   1.525   2.069  0.1317 -0.5169  2.8118
 4375SOL     OW14412   1.033   1.809   4.613  0.0363 -0.5291  0.1158
 4375SOL    HW114413   1.019   1.747   4.684 -2.0712  0.2550  0.4556
 4375SOL    HW214414   0.989   1.889   4.642  0.0267  0.1358 -1.6264
 4376SOL     OW14415   7.344   5.549   5.717  0.1135  0.3561 -0.2985
 4376SOL    HW114416   7.336   5.644   5.708 -1.2411  0.4264  1.2165
 4376SOL    HW214417   7.281   5.526   5.786 -0.0291 -1.7258 -1.0664
 4377SOL     OW14418   7.495   5.759   0.806 -0.0261  0.0342 -0.4497
 4377SOL    HW114419   7.539   5.743   0.723  0.9909 -2.5002  0.4847
 4377SOL    HW214420   7.428   5.824   0.785  0.9511  0.3495 -2.9734
 4378SOL     OW14421   3.517   3.056   8.479 -0.2138 -0.1187 -0.3092
 4378SOL    HW114422   3.504   3.039   8.572  0.2810  0.8095 -0.0674
 4378SOL    HW214423   3.503   2.970   8.437 -4.0285  0.0750  0.2219
 4379SOL     OW14424   8.546   3.490   7.249  0.1970  0.2217 -0.0889
 4379SOL    HW114425   8.635   3.492   7.213 -0.2493  2.7525 -1.3059
 4379SOL    HW214426   8.501   3.561   7.203 -2.1529 -0.2946  1.2875
 4380SOL     OW14427   5.602   3.802   6.340 -0.3746  0.3981 -0.1422
 4380SOL    HW114428   5.509   3.797   6.317 -0.6362 -1.8548  1.0967
 4380SOL    HW214429   5.605   3.861   6.416 -0.4795  2.0421 -1.3683
 4381SOL     OW14430   5.198   8.170   8.624 -0.2276  0.9196  0.0966
 4381SOL    HW114431   5.181   8.264   8.623 -1.1865  0.7713  0.7031
 4381SOL    HW214432   5.118   8.132   8.660  0.2932 -0.0984  0.2152
 4382SOL     OW14433   5.127   2.245   4.694 -0.1346  0.0924  0.5229
 4382SOL    HW114434   5.118   2.339   4.677 -1.2306 -0.1800 -0.5147
 4382SOL    HW214435   5.209   2.221   4.652 -0.3892  0.3767 -0.1432
 4383SOL     OW14436   8.510   7.373   4.570  0.1117 -1.0340 -0.1806
 4383SOL    HW114437   8.588   7.318   4.577  0.2933 -1.1268 -2.3452
 4383SOL    HW214438   8.474   7.353   4.483 -0.7580  1.0351 -0.3436
 4384SOL     OW14439   1.330   7.009   8.655 -0.7169 -0.0553  0.1195
 4384SOL    HW114440   1.356   7.077   8.717  0.7399  0.3389 -0.8685
 4384SOL    HW214441   1.279   7.055   8.588 -0.3700 -0.0669 -0.1542
 4385SOL     OW14442   5.861   7.161   1.836 -0.1783 -0.1153 -0.5139
 4385SOL    HW114443   5.784   7.209   1.805 -0.8283 -1.0513 -0.3865
 4385SOL    HW214444   5.827   7.102   1.903  0.3796 -1.5913 -1.4851
 4386SOL     OW14445   2.532   4.551   2.629 -0.4050  0.2095  0.1322
 4386SOL    HW114446   2.551   4.600   2.549 -0.9730 -1.9137 -1.4110
 4386SOL    HW214447   2.575   4.466   2.616  0.8445  0.3250  2.8244
 4387SOL     OW14448   2.458   0.195   4.788 -0.3850  0.2868 -0.5056
 4387SOL    HW114449   2.423   0.253   4.856  0.4837  0.2420 -0.0008
 4387SOL    HW214450   2.489   0.254   4.720  1.6534  0.5251  0.5593
 4388SOL     OW14451   8.557   5.408   3.326  0.1107 -0.6005 -0.5946
 4388SOL    HW114452   8.524   5.318   3.328 -0.7477 -0.3986 -3.0586
 4388SOL    HW214453   8.479   5.462   3.339  0.3477 -0.1859 -0.8674
 4389SOL     OW14454   6.700   6.345   3.062 -0.0134 -0.1579 -0.7482
 4389SOL    HW114455   6.776   6.402   3.055 -0.3123  0.1337 -1.8376
 4389SOL    HW214456   6.627   6.398   3.031 -0.5768 -0.6104 -0.2256
 4390SOL     OW14457   0.474   2.212   3.380  0.0883 -0.4132  0.1106
 4390SOL    HW114458   0.503   2.213   3.289  1.2599 -0.8762  0.4667
 4390SOL    HW214459   0.488   2.301   3.411  0.4421 -0.4515  0.0630
 4391SOL     OW14460   2.466   7.509   0.553  0.2393  0.8838 -0.1654
 4391SOL    HW114461   2.527   7.435   0.548 -0.0499  0.6451 -0.2658
 4391SOL    HW214462   2.460   7.530   0.646  0.2026  0.6745 -0.1202
 4392SOL     OW14463   5.689   6.679   8.434 -0.2791  0.0538 -0.2708
 4392SOL    HW114464   5.625   6.744   8.404  2.1941  2.5448 -0.5375
 4392SOL    HW214465   5.731   6.649   8.354  0.8516  0.6571  0.0804
 4393SOL     OW14466   3.437   3.465   1.339  0.1080 -0.1824 -0.0894
 4393SOL    HW114467   3.422   3.559   1.352 -0.2728 -0.3211  0.4939
 4393SOL    HW214468   3.516   3.446   1.389  0.1139 -0.2024 -0.1061
 4394SOL     OW14469   2.274   2.580   8.174 -0.3575  0.2254 -0.5727
 4394SOL    HW114470   2.321   2.637   8.113  0.3839  0.8148  0.5236
 4394SOL    HW214471   2.267   2.631   8.255  2.0408 -1.8787  1.1106
 4395SOL     OW14472   3.676   7.121   0.003  0.1194  0.2930  0.8609
 4395SOL    HW114473   3.581   7.120  -0.007  0.2033 -1.4628 -0.1657
 4395SOL    HW214474   3.691   7.099   0.095 -0.4568  1.0214  1.1383
 4396SOL     OW14475   8.640   6.383   4.669 -0.0109 -0.3492  0.0424
 4396SOL    HW114476   8.610   6.300   4.633  0.2948 -0.2385 -0.4826
 4396SOL    HW214477   8.674   6.431   4.593 -1.4018  0.8071  0.1052
 4397SOL     OW14478   8.421   0.386   6.529  0.0921 -0.6164  0.3088
 4397SOL    HW114479   8.512   0.358   6.525  0.0439 -0.6446 -0.8788
 4397SOL    HW214480   8.412   0.425   6.617  1.8035  1.2312 -0.2482
 4398SOL     OW14481   3.327   0.496   7.276 -0.2097 -0.2954  0.0818
 4398SOL    HW114482   3.243   0.453   7.290  0.3539 -1.5046 -0.0687
 4398SOL    HW214483   3.305   0.583   7.242 -1.3914 -0.5096  0.2601
 4399SOL     OW14484   1.151   3.406   2.047  0.8938 -0.5916 -0.4927
 4399SOL    HW114485   1.217   3.383   2.112  1.0514  0.4456 -0.2642
 4399SOL    HW214486   1.181   3.490   2.012  0.4250 -0.7923 -1.3822
 4400SOL     OW14487   4.157   6.231   2.474 -0.0016 -0.1691  0.2610
 4400SOL    HW114488   4.168   6.266   2.385  3.7041  0.8502  0.9434
 4400SOL    HW214489   4.141   6.308   2.529 -2.4874 -0.8125  0.5739
 4401SOL     OW14490   1.334   4.158   1.348 -0.2070 -0.7384 -0.3087
 4401SOL    HW114491   1.337   4.063   1.357 -0.9844 -0.6158  1.6097
 4401SOL    HW214492   1.391   4.191   1.417  1.7048  0.2136 -2.2061
 4402SOL     OW14493   5.349   2.357   0.865 -0.1110  0.4173 -0.0114
 4402SOL    HW114494   5.273   2.303   0.887  0.5011 -0.6165 -0.3211
 4402SOL    HW214495   5.366   2.337   0.773  0.1568  1.1178 -0.1166
 4403SOL     OW14496   3.490   2.631   4.090 -0.4551  0.8831  0.2787
 4403SOL    HW114497   3.509   2.725   4.083 -0.4615  1.0194  1.7763
 4403SOL    HW214498   3.397   2.626   4.109  0.1098  0.8518  3.8352
 4404SOL     OW14499   8.660   1.962   8.317 -0.2509  0.4846 -0.0958
 4404SOL    HW114500   8.702   1.942   8.401 -2.4863 -2.3426  0.5113
 4404SOL    HW214501   8.699   2.045   8.290  3.1701 -0.2357  1.9635
 4405SOL     OW14502   5.598   4.507   4.011 -0.5991  0.3623 -0.1935
 4405SOL    HW114503   5.579   4.462   4.093 -1.9047  0.3196 -0.5115
 4405SOL    HW214504   5.555   4.592   4.019  0.7755  1.0900 -0.1228
 4406SOL     OW14505   6.762   0.928   8.345 -0.1432 -0.3409  0.3141
 4406SOL    HW114506   6.854   0.950   8.357 -0.7887  1.2579  3.4633
 4406SOL    HW214507   6.763   0.842   8.304  2.6818  0.3697 -1.3869
 4407SOL     OW14508   2.593   8.410   0.020  0.2214  0.5560 -0.1247
 4407SOL    HW114509   2.518   8.422  -0.040 -0.1318  1.4767  0.4709
 4407SOL    HW214510   2.663   8.377  -0.036 -0.5611 -0.1018 -0.7428
 4408SOL     OW14511   5.890   3.390   4.492 -0.3088 -0.1167 -0.2195
 4408SOL    HW114512   5.958   3.367   4.555  0.8356 -0.5711 -1.5801
 4408SOL    HW214513   5.908   3.336   4.415 -0.6933  1.5591 -1.5607
 4409SOL     OW14514   4.558   5.609   1.623 -0.1311  0.1145 -0.7239
 4409SOL    HW114515   4.477   5.612   1.573 -0.4161 -2.2371 -0.5252
 4409SOL    HW214516   4.554   5.526   1.670  0.7598  1.5733  2.1658
 4410SOL     OW14517   2.738   2.157   6.940 -0.7769  0.1355 -0.4857
 4410SOL    HW114518   2.734   2.149   6.845 -1.2296  0.9095 -0.5418
 4410SOL    HW214519   2.647   2.145   6.969 -0.4315 -1.6015 -0.0041
 4411SOL     OW14520   0.130   0.298   4.236  0.2380 -0.4777  0.1494
 4411SOL    HW114521   0.058   0.236   4.249  1.5553 -2.1249 -0.0151
 4411SOL    HW214522   0.189   0.281   4.309  0.9795  0.0833 -0.3152
 4412SOL     OW14523   1.825   5.666   6.335  0.1631  0.1917  0.5568
 4412SOL    HW114524   1.755   5.725   6.363  0.2307  0.1731  0.7675
 4412SOL    HW214525   1.906   5.713   6.356  0.2179  0.5977 -0.5045
 4413SOL     OW14526   2.435   5.811   6.665 -0.2233  0.3030  0.2459
 4413SOL    HW114527   2.465   5.902   6.668  2.2037 -0.4380  0.8741
 4413SOL    HW214528   2.453   5.782   6.575  0.1138  0.1321  0.3640
 4414SOL     OW14529   4.894   1.018   6.953 -0.0610 -0.0642 -0.7081
 4414SOL    HW114530   4.851   0.933   6.966 -1.1037  0.5844  0.2917
 4414SOL    HW214531   4.890   1.033   6.859  0.8019 -1.4454 -0.9851
 4415SOL     OW14532   4.325   7.358   7.080 -0.5264 -0.6322  0.1999
 4415SOL    HW114533   4.402   7.413   7.095 -0.5470 -0.5803  0.1137
 4415SOL    HW214534   4.352   7.271   7.109 -1.4524 -0.0276  3.2084
 4416SOL     OW14535   1.446   1.541   5.648  0.0370 -0.0607  0.5317
 4416SOL    HW114536   1.355   1.557   5.673 -0.4532 -0.4701 -0.8780
 4416SOL    HW214537   1.478   1.627   5.619 -0.1805 -0.0842  0.2144
 4417SOL     OW14538   6.301   0.543   0.691  0.1750 -0.1294 -0.0122
 4417SOL    HW114539   6.330   0.455   0.712 -2.0526 -0.2778  3.0981
 4417SOL    HW214540   6.224   0.531   0.636 -0.1030 -0.1491  0.3762
 4418SOL     OW14541   0.058   5.022   2.819  0.0753  0.1370 -0.3018
 4418SOL    HW114542   0.146   5.001   2.850  1.5604  2.8355 -2.2853
 4418SOL    HW214543   0.034   4.947   2.764  1.1089 -0.6682  0.3082
 4419SOL     OW14544   3.660   5.276   3.488 -0.4618 -0.4854  0.2460
 4419SOL    HW114545   3.731   5.337   3.468 -2.4373  1.9329  0.0973
 4419SOL    HW214546   3.625   5.306   3.572 -1.4813 -1.4364  0.1857
 4420SOL     OW14547   0.712   6.507   5.127 -0.3725  0.4410  0.0152
 4420SOL    HW114548   0.727   6.452   5.050  0.9060 -0.7163  1.0324
 4420SOL    HW214549   0.780   6.575   5.122 -0.6578  0.7129 -0.1787
 4421SOL     OW14550   8.232   3.968   4.758 -0.0231 -0.2763  0.3255
 4421SOL    HW114551   8.188   3.887   4.733 -3.2451  1.2030  0.7081
 4421SOL    HW214552   8.179   4.037   4.719  0.6156  1.7592  2.8093
 4422SOL     OW14553   1.929   2.633   7.972 -0.2903 -0.1057 -0.1197
 4422SOL    HW114554   1.951   2.711   8.024  0.3883  0.7986 -1.6956
 4422SOL    HW214555   1.987   2.565   8.005  0.6716  0.6589 -0.1677
 4423SOL     OW14556   3.814   0.273   6.353 -0.1101  0.4915 -0.1411
 4423SOL    HW114557   3.876   0.284   6.426  1.4150  1.3835 -1.5143
 4423SOL    HW214558   3.794   0.180   6.353  1.5534  0.0951  0.1167
 4424SOL     OW14559   8.253   0.077   6.052 -0.0886  0.1992  0.1205
 4424SOL    HW114560   8.263   0.168   6.077  2.1273 -0.0876  0.4767
 4424SOL    HW214561   8.203   0.037   6.124 -0.0862  0.8935  0.5130
 4425SOL     OW14562   7.067   5.778   0.064  0.0047 -0.0194 -0.1261
 4425SOL    HW114563   6.990   5.749   0.014  0.3182 -0.4810 -0.3528
 4425SOL    HW214564   7.138   5.722   0.032  0.6222  0.9817 -0.5414
 4426SOL     OW14565   5.289   4.249   2.799  0.4411  0.1131 -0.1591
 4426SOL    HW114566   5.369   4.196   2.798 -0.1688 -0.8675  0.6470
 4426SOL    HW214567   5.315   4.332   2.759  1.3367 -0.8985 -1.8087
 4427SOL     OW14568   0.196   5.674   4.387 -0.6086 -0.0883  0.3154
 4427SOL    HW114569   0.120   5.652   4.441 -1.0239  0.9982  0.1994
 4427SOL    HW214570   0.255   5.721   4.445  0.3560 -1.6069  0.6107
 4428SOL     OW14571   4.890   5.210   2.874  0.0774  0.1591  0.3680
 4428SOL    HW114572   4.809   5.208   2.823  0.0010  0.8189  0.4582
 4428SOL    HW214573   4.930   5.124   2.858  0.5340  0.6764 -1.5838
 4429SOL     OW14574   0.728   3.351   3.110  0.6625 -0.8350  0.2294
 4429SOL    HW114575   0.677   3.296   3.170  0.1346 -1.9309 -1.1593
 4429SOL    HW214576   0.735   3.435   3.155 -1.6903 -0.8869  0.8542
 4430SOL     OW14577   6.701   0.085   2.022 -0.2906 -0.2126 -0.4028
 4430SOL    HW114578   6.706  -0.009   2.008 -2.2121 -0.4247  0.0483
 4430SOL    HW214579   6.740   0.098   2.109 -0.7679 -0.7081 -0.1094
 4431SOL     OW14580   1.775   4.778   5.741 -0.0124 -0.2159  0.8004
 4431SOL    HW114581   1.838   4.723   5.695 -0.2581  1.1309 -1.2984
 4431SOL    HW214582   1.827   4.823   5.808  1.0424 -0.0052 -0.1270
 4432SOL     OW14583   0.905   4.603   0.154  0.1415 -0.6775  0.3370
 4432SOL    HW114584   0.840   4.582   0.087 -0.1604 -2.9800  1.2689
 4432SOL    HW214585   0.870   4.564   0.235  0.8675  1.3324  1.7111
 4433SOL     OW14586   7.831   3.666   1.139  0.5003 -0.3032  0.0383
 4433SOL    HW114587   7.761   3.693   1.080 -1.6556  0.5559  2.7516
 4433SOL    HW214588   7.912   3.695   1.096 -0.8685 -0.1001 -2.5945
 4434SOL     OW14589   8.615   4.854   6.978 -0.1268 -0.1855  0.2861
 4434SOL    HW114590   8.610   4.908   6.899 -2.9261  0.2166  0.6565
 4434SOL    HW214591   8.706   4.826   6.981  0.7110  1.9754 -1.6060
 4435SOL     OW14592   3.113   7.807   6.660 -0.4696 -0.4153 -0.0619
 4435SOL    HW114593   3.058   7.765   6.726  2.9407 -3.5010  1.2297
 4435SOL    HW214594   3.085   7.768   6.577 -2.4847  0.8411 -0.0351
 4436SOL     OW14595   7.485   4.049   6.446 -0.1821  0.1200 -0.1836
 4436SOL    HW114596   7.418   3.988   6.414  0.9074 -0.5884 -1.1776
 4436SOL    HW214597   7.568   4.004   6.431  0.8151  2.4814 -2.6320
 4437SOL     OW14598   3.196   0.429   2.491 -0.0142  0.1362 -0.0944
 4437SOL    HW114599   3.207   0.338   2.520  0.4393  0.2745  0.1744
 4437SOL    HW214600   3.143   0.470   2.559  0.2370  0.2121  0.0557
 4438SOL     OW14601   5.378   1.431   7.299  0.9853 -0.0545  0.7689
 4438SOL    HW114602   5.407   1.514   7.260 -2.7662  0.4785 -1.3550
 4438SOL    HW214603   5.306   1.456   7.357  0.1022 -1.7663  0.4674
 4439SOL     OW14604   3.973   5.385   0.771  1.2109  0.2193 -0.2378
 4439SOL    HW114605   3.915   5.391   0.846  1.1340  1.3900 -0.3768
 4439SOL    HW214606   3.916   5.396   0.695  1.4120 -0.0790 -0.4372
 4440SOL     OW14607   3.543   8.485   0.385 -0.1472  0.4829  0.1534
 4440SOL    HW114608   3.636   8.483   0.362 -0.5077 -0.8071 -1.4140
 4440SOL    HW214609   3.498   8.499   0.301 -1.3866  0.3136  0.7620
 4441SOL     OW14610   2.495   1.919   5.250 -0.0422  0.0819 -0.2401
 4441SOL    HW114611   2.511   1.824   5.249  2.1622  0.3693  0.8562
 4441SOL    HW214612   2.583   1.957   5.245 -0.9453  2.1073 -1.6001
 4442SOL     OW14613   7.284   4.452   1.325  0.3028  0.4687 -0.4017
 4442SOL    HW114614   7.207   4.487   1.369  0.6139 -1.3862  1.8419
 4442SOL    HW214615   7.351   4.519   1.338 -0.6050  1.6099 -1.4109
 4443SOL     OW14616   3.018   0.756   1.030 -0.3060  0.6768 -0.0508
 4443SOL    HW114617   3.097   0.702   1.035  0.4718  1.8584  0.7021
 4443SOL    HW214618   3.012   0.798   1.116 -1.0232  1.6186 -0.5487
 4444SOL     OW14619   6.098   3.293   3.670 -0.6740 -0.2742  0.3133
 4444SOL    HW114620   6.105   3.388   3.682 -0.3277 -0.5095  2.4725
 4444SOL    HW214621   6.004   3.277   3.663 -0.7518  0.1887  0.2563
 4445SOL     OW14622   0.376   3.884   2.265 -0.2768  0.4620 -0.2149
 4445SOL    HW114623   0.398   3.952   2.329  1.0991 -1.3493  1.3425
 4445SOL    HW214624   0.432   3.902   2.190  0.5500  0.6663  0.4422
 4446SOL     OW14625   8.563   1.269   5.957 -0.1555  0.8615 -0.1360
 4446SOL    HW114626   8.471   1.289   5.939  0.1191  2.9185  0.4022
 4446SOL    HW214627   8.570   1.274   6.053  0.0116 -1.9799  0.0750
 4447SOL     OW14628   7.302   0.641   5.958 -0.2081  0.5784 -0.0060
 4447SOL    HW114629   7.216   0.642   6.001  0.2818  0.5104  0.9957
 4447SOL    HW214630   7.336   0.553   5.977  1.0097  1.3325  1.5067
 4448SOL     OW14631   6.999   3.001   2.277 -0.7069  0.6593  0.1027
 4448SOL    HW114632   7.074   2.943   2.292 -0.6118  0.7682  0.0578
 4448SOL    HW214633   6.981   3.039   2.362  0.1917  1.7049 -0.1458
 4449SOL     OW14634   5.707   4.293   4.232 -0.1233  0.1351  0.4734
 4449SOL    HW114635   5.787   4.303   4.180 -0.2793 -0.0763  0.1937
 4449SOL    HW214636   5.727   4.222   4.293  0.6200  1.4017  1.7722
 4450SOL     OW14637   0.114   2.198   1.325  0.0358  0.1422  0.1725
 4450SOL    HW114638   0.164   2.269   1.364  0.2641 -0.7666  1.6132
 4450SOL    HW214639   0.029   2.237   1.304  0.0707  0.7754  1.1742
 4451SOL     OW14640   6.820   1.436   2.057  0.0826  0.5104  0.3088
 4451SOL    HW114641   6.789   1.346   2.073 -1.4466  0.9122 -0.2189
 4451SOL    HW214642   6.907   1.439   2.098 -0.4517 -0.7742  1.6448
 4452SOL     OW14643   6.574   3.792   3.738  0.0237  0.6826 -0.0754
 4452SOL    HW114644   6.660   3.757   3.761 -0.5272 -0.3845  0.4061
 4452SOL    HW214645   6.541   3.830   3.820 -0.9512 -1.0354  0.3662
 4453SOL     OW14646   1.051   8.702   3.267 -0.1833  0.3865  0.4343
 4453SOL    HW114647   0.988   8.769   3.242 -0.4001  0.8845  2.1767
 4453SOL    HW214648   0.997   8.626   3.290 -0.1013  0.4800  0.9473
 4454SOL     OW14649   8.026   7.711   5.052 -0.1068  0.4891 -0.5510
 4454SOL    HW114650   8.032   7.616   5.065 -0.9733  0.0838 -2.7641
 4454SOL    HW214651   7.938   7.734   5.081 -0.4222  0.3526 -1.3823
 4455SOL     OW14652   3.259   7.628   5.259  0.2046 -0.8611  0.2157
 4455SOL    HW114653   3.229   7.625   5.349 -0.9297  0.7821 -0.0715
 4455SOL    HW214654   3.184   7.596   5.208  0.0423  0.2859 -0.2859
 4456SOL     OW14655   7.602   6.484   4.143  0.4685  0.3711  0.0323
 4456SOL    HW114656   7.594   6.570   4.183 -1.3865  0.2291  0.0527
 4456SOL    HW214657   7.586   6.499   4.050  0.0627  0.0481  0.0470
 4457SOL     OW14658   6.305   6.753   0.508  0.0507 -0.2709 -0.9538
 4457SOL    HW114659   6.251   6.712   0.440  1.3592 -1.1537 -1.5008
 4457SOL    HW214660   6.383   6.697   0.513  0.2450  0.1181  0.8671
 4458SOL     OW14661   1.571   3.715   0.394 -0.6339  0.1285 -0.3607
 4458SOL    HW114662   1.623   3.791   0.367 -1.1640  0.9295  0.7439
 4458SOL    HW214663   1.631   3.641   0.391  0.4879  0.9637  0.5334
 4459SOL     OW14664   1.151   1.424   2.931 -0.2425 -0.5567 -0.2965
 4459SOL    HW114665   1.095   1.372   2.988  0.8416 -2.2418 -0.6852
 4459SOL    HW214666   1.093   1.457   2.863 -1.3459  0.5704  1.1162
 4460SOL     OW14667   6.886   8.495   8.606 -0.0361 -0.0553 -0.8485
 4460SOL    HW114668   6.801   8.450   8.600 -0.2091 -0.0170  0.7475
 4460SOL    HW214669   6.949   8.432   8.570 -0.8110  0.2437 -2.8314
 4461SOL     OW14670   0.235   2.402   8.427  0.3157 -0.2673  0.3655
 4461SOL    HW114671   0.245   2.487   8.469  0.5399 -0.3569  0.4953
 4461SOL    HW214672   0.236   2.339   8.499 -0.7150 -0.3163  0.3416
 4462SOL     OW14673   5.077   2.352   1.574  0.0616  0.1561 -0.3549
 4462SOL    HW114674   5.107   2.346   1.484  0.6166 -0.0314 -0.1574
 4462SOL    HW214675   5.118   2.278   1.618 -0.9017 -0.2667 -0.1451
 4463SOL     OW14676   8.669   2.270   6.069 -0.6093 -0.4128  0.6003
 4463SOL    HW114677   8.713   2.204   6.121 -0.8999 -2.2330 -1.3284
 4463SOL    HW214678   8.729   2.288   5.996 -0.7993  1.0183  0.7584
 4464SOL     OW14679   0.133   0.890   6.955  0.3800 -0.5621 -0.0996
 4464SOL    HW114680   0.202   0.913   7.018  0.8096  0.2941 -0.8686
 4464SOL    HW214681   0.126   0.966   6.898 -1.3362 -0.5596  0.0572
 4465SOL     OW14682   7.167   1.293   3.316 -0.4887  0.3214 -0.1325
 4465SOL    HW114683   7.198   1.364   3.372  0.4523  0.2800 -0.5877
 4465SOL    HW214684   7.196   1.213   3.361 -0.1282  0.2743 -0.4462
 4466SOL     OW14685   0.629   1.198   5.770  0.3611  0.4329  0.3944
 4466SOL    HW114686   0.675   1.150   5.701  0.8490  1.6629 -0.1570
 4466SOL    HW214687   0.698   1.236   5.824  0.0102  1.7224 -0.0333
 4467SOL     OW14688   4.919   1.052   0.424 -0.5610  0.1916  0.0687
 4467SOL    HW114689   4.872   1.124   0.382 -2.2845 -0.3990  0.8848
 4467SOL    HW214690   4.852   1.007   0.475  0.4939 -1.8883 -0.2793
 4468SOL     OW14691   1.993   4.349   6.368 -0.2173  0.7828  0.4685
 4468SOL    HW114692   2.062   4.319   6.309 -1.7369  2.0688 -2.1444
 4468SOL    HW214693   2.022   4.435   6.398 -0.3186  0.9858 -0.0089
 4469SOL     OW14694   8.133   0.792   3.578 -0.9057  0.4344  0.0336
 4469SOL    HW114695   8.122   0.697   3.572  0.9065  0.2017 -0.3312
 4469SOL    HW214696   8.061   0.828   3.526  0.3154 -0.8753 -2.7839
 4470SOL     OW14697   2.750   4.403   2.965 -0.0768  0.1889  0.6601
 4470SOL    HW114698   2.708   4.321   2.942 -0.3115  0.8056 -1.3225
 4470SOL    HW214699   2.798   4.384   3.045  0.5515 -2.1116 -0.1771
 4471SOL     OW14700   5.242   3.368   0.638  0.2887 -0.0409 -0.1614
 4471SOL    HW114701   5.292   3.286   0.642  0.9280  0.3484 -0.0574
 4471SOL    HW214702   5.197   3.372   0.722 -0.7428 -0.9019 -0.6583
 4472SOL     OW14703   8.226   5.269   3.228  0.0532 -0.2130  0.6987
 4472SOL    HW114704   8.194   5.317   3.151  0.1519  1.4764  1.6564
 4472SOL    HW214705   8.165   5.293   3.298 -0.4999 -2.3408  1.0188
 4473SOL     OW14706   0.789   1.496   0.958  0.4835  0.1336  0.8757
 4473SOL    HW114707   0.839   1.417   0.940  2.4659  1.6435 -0.6215
 4473SOL    HW214708   0.699   1.465   0.973  1.0294 -2.3015 -0.4607
 4474SOL     OW14709   1.799   7.782   7.887  0.8689  0.1594 -0.1005
 4474SOL    HW114710   1.831   7.842   7.820  0.4117 -3.0687 -3.5016
 4474SOL    HW214711   1.703   7.789   7.881  0.7899  1.0203  1.5036
 4475SOL     OW14712   7.694   5.533   2.166  0.0221 -0.3407  0.1085
 4475SOL    HW114713   7.714   5.480   2.243  2.2803 -0.8333 -0.7511
 4475SOL    HW214714   7.780   5.554   2.128 -1.0067 -0.6751 -2.6475
 4476SOL     OW14715   1.667   1.948   2.177  0.1610 -0.2428  0.2844
 4476SOL    HW114716   1.649   1.921   2.087  0.8697 -0.1446  0.1031
 4476SOL    HW214717   1.720   1.877   2.214  1.0935  0.3620  0.1550
 4477SOL     OW14718   1.833   2.069   3.264 -0.3129  0.0085 -0.0687
 4477SOL    HW114719   1.837   2.001   3.197 -1.1885  0.5021 -0.6484
 4477SOL    HW214720   1.925   2.094   3.278 -0.0972 -0.2070 -0.9923
 4478SOL     OW14721   4.121   5.146   7.716 -0.5635  0.3916  0.0937
 4478SOL    HW114722   4.043   5.099   7.687 -0.8251 -0.7857  2.5178
 4478SOL    HW214723   4.098   5.179   7.803 -0.1149  4.4339 -1.1214
 4479SOL     OW14724   7.449   3.636   2.182  0.3298  0.5237  0.2990
 4479SOL    HW114725   7.395   3.595   2.115  0.5932 -1.6674  1.3204
 4479SOL    HW214726   7.427   3.729   2.178 -1.4409  0.0960 -1.1543
 4480SOL     OW14727   0.624   6.778   4.766  0.0953 -0.6739 -0.0052
 4480SOL    HW114728   0.549   6.733   4.805 -0.4247 -0.1440 -0.3682
 4480SOL    HW214729   0.605   6.779   4.672  1.2205 -1.7369 -0.2557
 4481SOL     OW14730   1.227   0.382   0.429  1.1829 -0.7667  0.6001
 4481SOL    HW114731   1.165   0.334   0.483  1.7428 -1.7762  0.3599
 4481SOL    HW214732   1.209   0.474   0.448  0.1345 -1.0678  1.1037
 4482SOL     OW14733   4.259   0.804   6.374  0.1508  0.1333  0.0633
 4482SOL    HW114734   4.273   0.846   6.289 -0.9015 -0.6212 -0.5047
 4482SOL    HW214735   4.235   0.714   6.353  1.1618 -0.4387  1.2248
 4483SOL     OW14736   2.813   5.880   3.708  0.0002 -0.0068 -0.3889
 4483SOL    HW114737   2.815   5.888   3.613  0.2827 -0.2212 -0.4031
 4483SOL    HW214738   2.793   5.968   3.739  0.3252  0.1574 -0.6335
 4484SOL     OW14739   3.620   7.967   4.405 -0.0298 -0.1680  0.4044
 4484SOL    HW114740   3.541   7.972   4.351 -0.2714  0.4424  0.7970
 4484SOL    HW214741   3.691   7.954   4.342 -0.5494 -2.0179  0.1385
 4485SOL     OW14742   6.195   4.846   2.362  0.6442  0.0375  0.1161
 4485SOL    HW114743   6.186   4.901   2.284  0.7335  1.4090  1.0398
 4485SOL    HW214744   6.280   4.871   2.399 -0.2449  0.8378  1.7087
 4486SOL     OW14745   2.465   8.516   3.175 -0.6665  0.8445 -0.2881
 4486SOL    HW114746   2.419   8.437   3.205 -0.3245 -0.3252 -2.5714
 4486SOL    HW214747   2.422   8.539   3.093  3.0360 -0.7929 -3.0011
 4487SOL     OW14748   5.377   8.089   6.264 -0.0486  0.4125 -0.0292
 4487SOL    HW114749   5.397   8.107   6.172 -0.0938  0.4512 -0.0315
 4487SOL    HW214750   5.446   8.029   6.293 -0.7810 -0.6861 -0.4707
 4488SOL     OW14751   2.215   6.580   1.929 -0.3572  0.4264 -0.1331
 4488SOL    HW114752   2.175   6.602   1.844  0.4646 -0.1868 -0.6884
 4488SOL    HW214753   2.292   6.637   1.934 -0.0856  0.0504 -0.0547
 4489SOL     OW14754   4.073   3.083   6.904 -0.5229  0.7592  0.3051
 4489SOL    HW114755   4.160   3.120   6.892 -0.7732  1.8660  1.6976
 4489SOL    HW214756   4.059   3.031   6.825  1.7624 -0.2495  0.4894
 4490SOL     OW14757   4.778   3.659   1.876  0.1455  0.1563 -0.4576
 4490SOL    HW114758   4.743   3.600   1.943  2.0345  0.9784  1.3579
 4490SOL    HW214759   4.704   3.674   1.817 -1.0550 -2.1347  0.3314
 4491SOL     OW14760   2.818   7.069   8.596 -0.1034  0.2987  0.5437
 4491SOL    HW114761   2.758   7.142   8.580 -1.4177 -0.8174  0.0941
 4491SOL    HW214762   2.818   7.058   8.692 -0.5425  0.3914  0.5576
 4492SOL     OW14763   6.783   7.368   4.179  0.2990  0.5176 -0.2482
 4492SOL    HW114764   6.876   7.348   4.162  0.0350 -0.7238 -0.3230
 4492SOL    HW214765   6.748   7.394   4.094  0.3747  0.1386 -0.3950
 4493SOL     OW14766   1.871   0.407   1.501 -0.2641  0.3046 -0.1372
 4493SOL    HW114767   1.957   0.371   1.478 -0.1302  1.6252 -1.9398
 4493SOL    HW214768   1.811   0.334   1.487  0.4074 -0.2519 -0.1831
 4494SOL     OW14769   7.428   7.235   0.992  0.4909 -0.2934  0.2573
 4494SOL    HW114770   7.388   7.312   1.033 -0.3497 -1.0614  0.9337
 4494SOL    HW214771   7.379   7.224   0.911  0.6339 -0.0925  0.1441
 4495SOL     OW14772   3.561   2.152   0.058 -0.0335  0.0645 -0.2400
 4495SOL    HW114773   3.522   2.187   0.138  0.5032 -0.1395  0.1165
 4495SOL    HW214774   3.574   2.059   0.077  1.9447  0.4010  0.1879
 4496SOL     OW14775   8.516   1.843   5.827 -0.2861 -0.0892  0.1542
 4496SOL    HW114776   8.464   1.923   5.817 -1.7640 -1.0473 -0.2284
 4496SOL    HW214777   8.502   1.817   5.919 -0.3456 -0.2560  0.0989
 4497SOL     OW14778   7.033   3.055   4.907  0.3329 -0.5018  0.9584
 4497SOL    HW114779   7.089   3.071   4.982  1.2097 -0.6076  0.3356
 4497SOL    HW214780   7.058   2.969   4.875  0.5206 -0.1332  0.0740
 4498SOL     OW14781   3.961   6.030   0.911 -0.2435 -0.5797 -0.3299
 4498SOL    HW114782   3.892   6.064   0.969  0.1466  0.5804 -0.5176
 4498SOL    HW214783   4.035   6.089   0.925  0.4250 -1.2975 -0.7743
 4499SOL     OW14784   6.128   6.800   4.685  0.0716  0.2352 -0.2800
 4499SOL    HW114785   6.114   6.757   4.770  1.0505 -1.0977 -0.7614
 4499SOL    HW214786   6.177   6.880   4.706  2.6468 -1.3704  0.2320
 4500SOL     OW14787   0.363   3.972   0.909 -0.1361  0.1113 -0.1429
 4500SOL    HW114788   0.347   3.898   0.850  0.6817  0.4526 -0.8144
 4500SOL    HW214789   0.416   3.935   0.980 -1.5523 -0.4136  0.6642
 4501SOL     OW14790   4.087   8.342   5.149  1.0321  0.5204  0.1848
 4501SOL    HW114791   4.082   8.333   5.054  0.4009  1.5246  0.1091
 4501SOL    HW214792   4.050   8.260   5.183 -1.1425  1.1854 -0.4507
 4502SOL     OW14793   2.587   0.136   2.957 -0.4446  0.6209  0.1941
 4502SOL    HW114794   2.608   0.190   2.881 -2.7050  0.6327 -0.4969
 4502SOL    HW214795   2.636   0.055   2.943 -1.4328  0.2995 -1.7323
 4503SOL     OW14796   8.023   2.789   7.314 -0.0177 -0.1563  0.5010
 4503SOL    HW114797   8.015   2.778   7.409 -1.0898 -0.3042  0.4065
 4503SOL    HW214798   8.050   2.880   7.303  0.2074 -0.1642  0.9527
 4504SOL     OW14799   2.326   5.760   3.012  0.2517 -0.4180 -0.1137
 4504SOL    HW114800   2.330   5.789   3.103  0.5331 -0.9549  0.0489
 4504SOL    HW214801   2.362   5.834   2.962  0.5120 -0.2986  0.2478
 4505SOL     OW14802   1.553   4.362   5.829  0.0739 -0.0366  0.3796
 4505SOL    HW114803   1.581   4.453   5.817 -1.6153  0.4590 -0.0600
 4505SOL    HW214804   1.541   4.354   5.924  1.4366 -0.2017  0.5563
 4506SOL     OW14805   5.743   5.991   2.207 -0.3885 -0.5691 -0.3194
 4506SOL    HW114806   5.692   5.913   2.229 -0.2144 -0.2427  1.4090
 4506SOL    HW214807   5.755   6.036   2.291  3.0484 -0.8298 -0.5180
 4507SOL     OW14808   6.233   7.400   6.264 -0.1920 -0.3010  0.5831
 4507SOL    HW114809   6.201   7.356   6.343 -2.3396 -0.6642 -0.4108
 4507SOL    HW214810   6.187   7.356   6.193  0.0277  1.4552 -0.6997
 4508SOL     OW14811   1.154   8.293   1.140  0.4142 -0.0592 -0.1780
 4508SOL    HW114812   1.197   8.374   1.113 -2.4245  1.1535 -1.5073
 4508SOL    HW214813   1.160   8.236   1.064  0.6675 -0.3256  0.0405
 4509SOL     OW14814   3.551   6.677   6.046 -1.1450  0.3112 -0.0716
 4509SOL    HW114815   3.482   6.611   6.046 -0.0736 -0.8658  1.1605
 4509SOL    HW214816   3.546   6.717   6.132 -0.1617  0.0416  0.1220
 4510SOL     OW14817   4.116   7.405   6.295  0.2591 -0.6327 -0.2897
 4510SOL    HW114818   4.080   7.476   6.242  0.6938  0.0557  0.3124
 4510SOL    HW214819   4.204   7.434   6.317  0.8975 -1.9264 -1.0595
 4511SOL     OW14820   4.808   6.768   3.649 -0.2418 -0.2181  0.0446
 4511SOL    HW114821   4.791   6.851   3.694 -0.9884 -0.2738 -0.1145
 4511SOL    HW214822   4.771   6.780   3.561  1.3392 -0.0537 -0.6326
 4512SOL     OW14823   8.122   1.753   4.945  0.5549  0.1386 -0.6115
 4512SOL    HW114824   8.081   1.678   4.901 -1.3060 -0.5672  2.0803
 4512SOL    HW214825   8.110   1.826   4.884  1.0233 -1.3931 -2.6342
 4513SOL     OW14826   1.028   2.935   6.057  0.1889  0.5058  0.0015
 4513SOL    HW114827   1.022   2.858   6.000  0.4620  2.3015 -2.6184
 4513SOL    HW214828   1.104   2.918   6.112  1.0538 -0.5593 -1.4543
 4514SOL     OW14829   8.567   2.419   0.826 -0.0204  0.1251 -0.0174
 4514SOL    HW114830   8.541   2.472   0.902 -2.0537 -0.3957 -0.2735
 4514SOL    HW214831   8.585   2.332   0.863 -0.7215 -0.0513 -0.0739
 4515SOL     OW14832   4.717   4.538   7.860 -0.2589 -0.8222  0.0744
 4515SOL    HW114833   4.744   4.629   7.849  2.3295 -1.5315  0.0283
 4515SOL    HW214834   4.691   4.509   7.773 -1.6167 -0.0299  0.1817
 4516SOL     OW14835   6.134   1.083   2.803 -0.5875  0.6921 -0.4935
 4516SOL    HW114836   6.198   1.144   2.765 -0.1508  0.4901 -0.0996
 4516SOL    HW214837   6.174   1.054   2.885 -0.0557 -1.2985 -1.3718
 4517SOL     OW14838   3.241   2.892   7.548  0.0753  0.5244  0.6593
 4517SOL    HW114839   3.159   2.935   7.571  1.1813  1.9143  2.2116
 4517SOL    HW214840   3.246   2.900   7.452 -1.5051  0.5558  0.5628
 4518SOL     OW14841   7.291   2.605   5.198 -0.1238 -0.0879  0.2444
 4518SOL    HW114842   7.379   2.629   5.171 -0.4090  0.8604  0.1181
 4518SOL    HW214843   7.270   2.665   5.270 -0.0503 -1.3995  1.4018
 4519SOL     OW14844   1.827   4.960   6.687  0.3788 -0.4200 -0.1289
 4519SOL    HW114845   1.893   4.988   6.624 -0.1465  1.2076 -0.0069
 4519SOL    HW214846   1.765   5.033   6.691 -0.7536 -1.3821  0.6912
 4520SOL     OW14847   3.947   6.753   1.889  0.2067 -0.4255 -0.3321
 4520SOL    HW114848   3.923   6.661   1.893 -3.9667  0.4498 -0.7362
 4520SOL    HW214849   3.864   6.800   1.900  2.4636  3.4099  3.2445
 4521SOL     OW14850   5.161   6.177   2.141  0.0767 -0.0049 -0.7799
 4521SOL    HW114851   5.182   6.131   2.060 -0.0005 -3.1529  0.8267
 4521SOL    HW214852   5.240   6.169   2.195 -0.5722  0.1441  0.2344
 4522SOL     OW14853   4.829   3.639   4.764  0.4818 -0.2999  0.5310
 4522SOL    HW114854   4.742   3.644   4.804  1.0278  0.6964  1.6563
 4522SOL    HW214855   4.848   3.729   4.736  1.8816 -0.1107  1.9608
 4523SOL     OW14856   3.995   6.656   3.220  0.0380  0.1138  0.4317
 4523SOL    HW114857   4.076   6.701   3.244 -0.4210  0.2252  1.9268
 4523SOL    HW214858   4.024   6.579   3.171  1.0014  0.5701  0.2626
 4524SOL     OW14859   6.349   0.961   4.068  0.6649  0.1304 -0.2828
 4524SOL    HW114860   6.335   0.997   3.981 -2.3963 -1.1436 -0.4202
 4524SOL    HW214861   6.273   0.906   4.085  2.2217 -1.4617  2.3354
 4525SOL     OW14862   1.043   5.191   6.647 -0.3316  0.6215  1.1164
 4525SOL    HW114863   1.124   5.240   6.664  0.3025  0.9681 -2.1767
 4525SOL    HW214864   0.976   5.259   6.635 -0.8888  0.3774  2.6609
 4526SOL     OW14865   3.219   6.306   5.730 -0.2548  0.0489  0.1558
 4526SOL    HW114866   3.310   6.297   5.759 -0.2275  1.0975  0.4614
 4526SOL    HW214867   3.214   6.396   5.697 -0.9310 -0.3162 -0.7891
 4527SOL     OW14868   1.319   0.257   7.530 -0.3775 -0.7669 -0.9181
 4527SOL    HW114869   1.284   0.268   7.619 -0.3538 -1.1599 -0.8593
 4527SOL    HW214870   1.245   0.276   7.473 -0.1054  0.6172 -0.8480
 4528SOL     OW14871   7.504   4.814   6.049 -0.1162  0.0921 -0.0019
 4528SOL    HW114872   7.530   4.816   6.142 -0.2502  0.6476  0.0255
 4528SOL    HW214873   7.549   4.889   6.010  0.1050 -0.2637 -0.4342
 4529SOL     OW14874   4.388   2.180   1.500 -0.1538  0.4553 -0.5744
 4529SOL    HW114875   4.348   2.094   1.496  0.2660  0.3005 -2.9675
 4529SOL    HW214876   4.328   2.232   1.554 -1.2621 -0.8816 -0.4707
 4530SOL     OW14877   8.010   4.736   2.628 -0.2538 -0.2561 -0.3897
 4530SOL    HW114878   7.962   4.742   2.546  0.8694 -0.5185 -1.0805
 4530SOL    HW214879   8.096   4.775   2.609  0.3652 -1.2102  0.3741
 4531SOL     OW14880   0.548   0.598   0.718 -0.1599  0.7579 -0.0081
 4531SOL    HW114881   0.464   0.560   0.746 -0.2504  1.2994  0.4965
 4531SOL    HW214882   0.582   0.640   0.797  0.6548  0.4360 -0.1768
 4532SOL     OW14883   6.982   2.050   6.055 -0.2960 -0.5219 -0.0185
 4532SOL    HW114884   7.026   1.979   6.102  0.5019  0.1047  0.2033
 4532SOL    HW214885   6.894   2.054   6.094  0.7365  0.8178  2.3924
 4533SOL     OW14886   1.355   7.015   6.377 -0.4890 -0.2741 -0.0419
 4533SOL    HW114887   1.332   6.958   6.303 -0.3010  0.2581 -0.5152
 4533SOL    HW214888   1.301   7.093   6.365 -1.6520 -0.8216  1.2746
 4534SOL     OW14889   5.716   2.607   8.679  0.4790  0.3048  0.0666
 4534SOL    HW114890   5.746   2.517   8.694  1.4366  0.7124  0.6772
 4534SOL    HW214891   5.621   2.600   8.674  0.5347 -0.7242  0.2641
 4535SOL     OW14892   2.081   5.717   4.569  0.3304  0.3087  0.0162
 4535SOL    HW114893   2.026   5.683   4.640  0.0439 -0.2723 -0.4830
 4535SOL    HW214894   2.074   5.813   4.577  1.0459  0.2829  1.3475
 4536SOL     OW14895   5.490   7.956   3.184 -0.1988 -1.1630 -0.0863
 4536SOL    HW114896   5.448   7.973   3.100 -0.0695  0.0792  0.0822
 4536SOL    HW214897   5.426   7.984   3.249  0.6957  0.3458  0.1780
 4537SOL     OW14898   8.157   3.238   1.501  0.1388  0.0814 -0.4830
 4537SOL    HW114899   8.201   3.231   1.416  0.7026 -1.2026 -0.0990
 4537SOL    HW214900   8.117   3.153   1.516 -3.6023  1.5098 -1.3441
 4538SOL     OW14901   1.754   0.793   5.787 -0.3055 -0.1780  0.2429
 4538SOL    HW114902   1.726   0.883   5.768 -1.6032 -0.7950 -0.9041
 4538SOL    HW214903   1.673   0.742   5.788  0.5223 -1.5495 -0.3488
 4539SOL     OW14904   0.048   4.779   3.395 -0.2983 -0.0244 -0.5556
 4539SOL    HW114905   0.063   4.693   3.355  0.4573 -1.0788  1.8333
 4539SOL    HW214906  -0.044   4.779   3.420 -0.4103  0.0512 -0.9657
 4540SOL     OW14907   7.975   4.223   0.999 -0.2359  0.2995 -0.0430
 4540SOL    HW114908   7.911   4.293   1.009  2.0301  2.5074  0.0801
 4540SOL    HW214909   7.985   4.214   0.904  2.3718  3.2157 -0.2192
 4541SOL     OW14910   1.471   2.642   5.657  0.5347  0.2954 -0.4741
 4541SOL    HW114911   1.557   2.666   5.620 -0.4027  2.3579 -1.5221
 4541SOL    HW214912   1.418   2.618   5.581 -0.0024 -0.3682  0.0986
 4542SOL     OW14913   0.834   7.149   8.589  0.5491  0.1764  0.2505
 4542SOL    HW114914   0.929   7.160   8.581  0.8104 -1.6204  0.4997
 4542SOL    HW214915   0.813   7.078   8.528 -0.7023  0.7565 -0.0334
 4543SOL     OW14916   1.670   0.324   3.579 -0.3175 -0.6467  0.4749
 4543SOL    HW114917   1.660   0.304   3.672  1.4742  1.3477  1.1819
 4543SOL    HW214918   1.742   0.387   3.576  1.7093 -2.8545 -2.5893
 4544SOL     OW14919   8.144   3.162   0.735  0.0454  0.1876 -0.0177
 4544SOL    HW114920   8.054   3.167   0.703  0.3297 -1.2035 -1.1253
 4544SOL    HW214921   8.149   3.077   0.779  0.6162  0.5859  0.7070
 4545SOL     OW14922   5.162   6.785   8.149  0.2416 -0.3917 -0.4879
 4545SOL    HW114923   5.081   6.735   8.159  0.7413 -1.3175 -1.0108
 4545SOL    HW214924   5.231   6.726   8.176  0.7245  0.5619  0.4419
 4546SOL     OW14925   4.251   1.255   5.363 -0.0434  0.0030  0.2653
 4546SOL    HW114926   4.234   1.168   5.399  0.0543  0.1603  0.7007
 4546SOL    HW214927   4.206   1.315   5.423 -1.7585  0.1501 -1.0992
 4547SOL     OW14928   5.531   0.284   8.015 -0.3095 -0.0413 -0.0933
 4547SOL    HW114929   5.588   0.338   7.960  0.0276  0.4081  0.6730
 4547SOL    HW214930   5.483   0.347   8.068  0.7004 -0.4986  1.4123
 4548SOL     OW14931   5.363   0.452   0.305 -0.2687 -0.7230 -0.4048
 4548SOL    HW114932   5.406   0.372   0.274  0.6990  0.0507 -1.1428
 4548SOL    HW214933   5.270   0.431   0.306 -0.0546 -1.7572 -0.9184
 4549SOL     OW14934   2.221   4.018   4.459  0.0898 -0.2871 -0.4389
 4549SOL    HW114935   2.131   3.986   4.466 -0.2635  0.6990 -0.3932
 4549SOL    HW214936   2.241   4.011   4.366 -0.5134  0.7526 -0.6558
 4550SOL     OW14937   4.409   8.535   7.308 -0.0314 -0.7067 -0.4921
 4550SOL    HW114938   4.461   8.569   7.381  1.7701  2.2348 -2.9125
 4550SOL    HW214939   4.330   8.589   7.308 -0.2658 -1.0473 -0.4387
 4551SOL     OW14940   0.464   4.141   5.449 -0.1755  0.1447 -0.3821
 4551SOL    HW114941   0.470   4.047   5.431 -2.1349  0.3029 -2.3300
 4551SOL    HW214942   0.371   4.160   5.444  0.2382  2.3092 -0.6629
 4552SOL     OW14943   0.518   0.719   4.841  0.4833 -0.2473  0.1390
 4552SOL    HW114944   0.448   0.654   4.831  1.2015 -0.9223 -0.7349
 4552SOL    HW214945   0.586   0.674   4.891  0.0724  0.6116  1.5323
 4553SOL     OW14946   7.442   2.755   6.141 -0.2154  0.0288  0.1310
 4553SOL    HW114947   7.469   2.845   6.122  0.4522  0.2613  2.0130
 4553SOL    HW214948   7.468   2.740   6.231 -1.0667 -1.7965  0.1272
 4554SOL     OW14949   3.265   3.621   4.749  0.1976 -0.3700 -0.1383
 4554SOL    HW114950   3.297   3.711   4.751  0.0569 -0.3191  1.4157
 4554SOL    HW214951   3.235   3.608   4.659  1.2023  0.7709 -0.6757
 4555SOL     OW14952   2.696   0.516   2.775 -0.2665  0.4882 -0.6137
 4555SOL    HW114953   2.613   0.554   2.746 -0.2284 -1.4532 -3.7788
 4555SOL    HW214954   2.757   0.590   2.777 -1.5034  1.5429 -0.6818
 4556SOL     OW14955   4.033   8.188   6.925  0.1877  0.0317  0.0468
 4556SOL    HW114956   4.084   8.241   6.987 -0.6940 -0.1375  0.9401
 4556SOL    HW214957   4.030   8.241   6.845 -0.2149  1.0980  0.7495
 4557SOL     OW14958   6.290   2.380   5.086 -0.8319 -0.3618  0.0769
 4557SOL    HW114959   6.382   2.372   5.110 -0.1408  1.2564 -1.7951
 4557SOL    HW214960   6.276   2.310   5.022 -0.3233  0.5946 -1.1185
 4558SOL     OW14961   2.741   3.272   2.932  0.4474  0.0130 -0.2877
 4558SOL    HW114962   2.736   3.177   2.926  1.5622 -0.1882  1.3872
 4558SOL    HW214963   2.716   3.293   3.022 -1.3566  1.4760 -1.0622
 4559SOL     OW14964   1.387   0.498   1.898 -0.5723  0.1117  0.2970
 4559SOL    HW114965   1.480   0.505   1.878 -0.8838 -0.0891 -1.3150
 4559SOL    HW214966   1.378   0.539   1.984  1.1552 -0.7601  0.9427
 4560SOL     OW14967   8.274   2.915   4.655 -0.3833 -0.0596  0.4734
 4560SOL    HW114968   8.343   2.903   4.720  1.2991  1.4746 -0.9189
 4560SOL    HW214969   8.313   2.885   4.573 -0.9641  1.7519 -0.5330
 4561SOL     OW14970   4.126   1.282   8.331  0.1376  0.3549  0.4046
 4561SOL    HW114971   4.161   1.198   8.360 -0.8686  0.4245  1.9104
 4561SOL    HW214972   4.192   1.346   8.359 -0.1590  0.2752  1.3349
 4562SOL     OW14973   4.214   4.686   5.239 -0.0760 -0.0735  0.6333
 4562SOL    HW114974   4.167   4.768   5.258 -0.4315 -0.1443  0.1028
 4562SOL    HW214975   4.198   4.672   5.146 -0.8922 -1.2873  0.9315
 4563SOL     OW14976   0.867   8.583   0.402 -0.0893  0.2714 -0.4586
 4563SOL    HW114977   0.781   8.582   0.362  0.6252  0.4968 -2.0812
 4563SOL    HW214978   0.871   8.666   0.450 -0.8024  0.1913 -0.2514
 4564SOL     OW14979   1.390   1.323   5.511  0.3993 -0.2725  0.2420
 4564SOL    HW114980   1.461   1.264   5.536 -0.4591 -0.7863  1.6087
 4564SOL    HW214981   1.407   1.404   5.561  0.8462  0.1709 -0.6078
 4565SOL     OW14982   4.366   3.042   4.287 -0.2896  0.5640  0.2702
 4565SOL    HW114983   4.438   3.093   4.249  0.0134  0.8181  1.1633
 4565SOL    HW214984   4.408   2.988   4.354 -0.4789 -1.3979 -1.1114
 4566SOL     OW14985   3.376   6.952   3.894  0.0276  0.0167 -0.5817
 4566SOL    HW114986   3.425   6.915   3.821  0.4319  1.4370 -1.0727
 4566SOL    HW214987   3.286   6.958   3.862  0.1624  0.4340 -0.8924
 4567SOL     OW14988   2.868   4.345   3.190 -0.7375 -0.0113 -0.9278
 4567SOL    HW114989   2.935   4.278   3.177  0.0565  0.6598 -0.3765
 4567SOL    HW214990   2.849   4.342   3.284 -0.3895  0.8180 -0.8266
 4568SOL     OW14991   4.123   5.728   3.050 -0.6718 -0.3284 -0.1825
 4568SOL    HW114992   4.118   5.820   3.025 -0.0185 -1.0195 -3.2446
 4568SOL    HW214993   4.214   5.715   3.076 -0.8660 -0.0533  0.6716
 4569SOL     OW14994   1.527   2.270   2.002  0.3892 -0.5947 -0.0510
 4569SOL    HW114995   1.463   2.340   2.007  1.2853  0.2922 -0.5531
 4569SOL    HW214996   1.530   2.246   1.910  0.7080 -0.6863 -0.0196
 4570SOL     OW14997   1.120   4.465   8.223  0.2137  0.4305  0.5194
 4570SOL    HW114998   1.097   4.548   8.182  3.9567  0.2705 -2.4086
 4570SOL    HW214999   1.202   4.482   8.270  0.4205 -1.3389  0.8897
 4571SOL     OW15000   7.934   0.469   1.609  0.7429  0.4825  0.1751
 4571SOL    HW115001   7.886   0.395   1.647 -0.4104  1.2888  0.3418
 4571SOL    HW215002   8.009   0.429   1.565 -1.5465 -1.1794 -2.5859
 4572SOL     OW15003   3.679   4.722   5.552 -0.0450  0.4183 -0.0063
 4572SOL    HW115004   3.748   4.714   5.617 -0.4162 -1.2436  0.2349
 4572SOL    HW215005   3.613   4.658   5.579 -1.4300  1.5408 -0.5543
 4573SOL     OW15006   0.277   6.466   7.872 -0.2082  0.7006 -0.2186
 4573SOL    HW115007   0.370   6.457   7.849 -0.5755  0.8474 -1.9404
 4573SOL    HW215008   0.272   6.550   7.917  0.7292 -0.0796  1.4439
 4574SOL     OW15009   7.798   6.727   0.365 -0.1372 -0.2659 -0.1917
 4574SOL    HW115010   7.823   6.796   0.303  1.8203 -0.7215  0.0395
 4574SOL    HW215011   7.784   6.774   0.448 -0.1257  0.0130 -0.3461
 4575SOL     OW15012   0.798   2.988   3.218 -0.8688  0.5964  0.5569
 4575SOL    HW115013   0.744   3.044   3.275 -1.5826 -0.1298  0.6132
 4575SOL    HW215014   0.749   2.983   3.136 -0.4887  0.5806  0.3306
 4576SOL     OW15015   5.289   6.303   5.014  0.1669 -0.1863  0.3384
 4576SOL    HW115016   5.372   6.257   5.009  1.8796  2.7843 -1.7825
 4576SOL    HW215017   5.300   6.364   5.088 -0.4880 -0.3855  0.6078
 4577SOL     OW15018   0.341   6.238   1.607  0.2145  0.1182  0.2598
 4577SOL    HW115019   0.402   6.191   1.550  0.4680  0.3235  0.3602
 4577SOL    HW215020   0.381   6.232   1.694 -0.9126 -1.4898  0.7021
 4578SOL     OW15021   4.691   6.223   8.314 -0.3968 -0.4007  0.1403
 4578SOL    HW115022   4.779   6.210   8.349 -0.9095  0.3524  1.7987
 4578SOL    HW215023   4.684   6.318   8.301 -1.1877 -0.3694  0.6933
 4579SOL     OW15024   6.466   5.307   5.467 -0.1525  0.0866  0.0478
 4579SOL    HW115025   6.511   5.339   5.545  0.9330  0.6640 -0.7970
 4579SOL    HW215026   6.378   5.346   5.473  0.4034  1.3648  0.2270
 4580SOL     OW15027   2.215   5.642   0.093  0.4060  0.6206  0.0597
 4580SOL    HW115028   2.124   5.612   0.094  0.1242  0.7859 -3.8984
 4580SOL    HW215029   2.267   5.563   0.110 -0.4170  0.3788  1.6050
 4581SOL     OW15030   4.342   4.742   1.912 -0.1346  0.2169 -0.4927
 4581SOL    HW115031   4.340   4.837   1.916 -0.5299  0.2639 -1.5178
 4581SOL    HW215032   4.340   4.714   2.003 -1.6167  1.1599 -0.2081
 4582SOL     OW15033   3.009   3.362   7.008 -0.1053 -0.1532 -0.1956
 4582SOL    HW115034   2.968   3.308   6.940 -1.3351  1.6331 -0.9261
 4582SOL    HW215035   2.958   3.344   7.087  0.4024 -1.1153 -0.0682
 4583SOL     OW15036   4.492   4.165   7.073 -0.0318  0.4107 -0.2692
 4583SOL    HW115037   4.531   4.091   7.028  1.5861  0.9462  0.1876
 4583SOL    HW215038   4.400   4.140   7.086  0.0457 -0.7275 -1.7134
 4584SOL     OW15039   6.341   4.537   2.735 -0.2948  0.1060 -0.0706
 4584SOL    HW115040   6.297   4.508   2.816  0.0319  0.7844  0.3536
 4584SOL    HW215041   6.431   4.507   2.745  0.0395  1.2278  0.3585
 4585SOL     OW15042   6.265   4.407   8.469 -0.1616 -0.0513 -0.3168
 4585SOL    HW115043   6.279   4.325   8.516 -0.0897  0.6462  0.9326
 4585SOL    HW215044   6.349   4.452   8.473  0.2495 -0.5399 -2.3299
 4586SOL     OW15045   5.708   8.320   8.406 -0.3822 -0.0463 -0.0594
 4586SOL    HW115046   5.742   8.234   8.382 -0.1946 -0.4620  1.5636
 4586SOL    HW215047   5.621   8.324   8.365 -0.4628 -1.0856 -0.0048
 4587SOL     OW15048   2.687   0.409   0.724  0.2486 -0.4490 -0.1924
 4587SOL    HW115049   2.762   0.462   0.696 -0.3486 -0.1176 -1.1999
 4587SOL    HW215050   2.646   0.459   0.794 -1.5380  1.5442 -2.4945
 4588SOL     OW15051   8.052   7.018   5.789 -0.2805  0.7012  0.2861
 4588SOL    HW115052   8.142   7.031   5.820  0.0674  1.1148 -0.8667
 4588SOL    HW215053   7.998   7.043   5.864  0.5352  2.1749  0.4385
 4589SOL     OW15054   4.328   7.958   2.964 -0.1390 -0.0607 -0.1562
 4589SOL    HW115055   4.270   7.914   3.026 -0.7503 -1.2538 -1.5069
 4589SOL    HW215056   4.268   8.000   2.901  0.4624  0.4613 -0.3961
 4590SOL     OW15057   7.533   5.376   6.629  0.4700  0.2539 -0.0555
 4590SOL    HW115058   7.509   5.373   6.536  0.5078 -1.8560 -0.0361
 4590SOL    HW215059   7.582   5.457   6.638 -1.4666  1.6784 -1.3778
 4591SOL     OW15060   2.764   4.131   0.064  0.3693 -0.0743  0.0470
 4591SOL    HW115061   2.812   4.094   0.138  0.7781  0.3409 -0.0036
 4591SOL    HW215062   2.777   4.226   0.072  1.2330 -0.0702 -1.0887
 4592SOL     OW15063   1.917   7.168   4.186 -0.2469  0.2900  0.2234
 4592SOL    HW115064   1.829   7.132   4.200 -0.5970  1.7067  2.0415
 4592SOL    HW215065   1.901   7.255   4.149  0.4292  0.2123 -0.2644
 4593SOL     OW15066   5.169   8.414   0.856 -0.2042  0.3539 -0.1631
 4593SOL    HW115067   5.187   8.336   0.909 -0.3210  0.5081  0.1084
 4593SOL    HW215068   5.100   8.387   0.796 -0.2265  0.2405 -0.0866
 4594SOL     OW15069   0.811   2.012   1.203 -0.5937  0.1275  0.1230
 4594SOL    HW115070   0.805   1.930   1.253 -0.5321  0.0621  0.0243
 4594SOL    HW215071   0.902   2.014   1.173 -0.1128  1.0593  1.5377
 4595SOL     OW15072   6.442   3.737   4.668  0.6099 -0.1247  0.1217
 4595SOL    HW115073   6.417   3.802   4.733  0.0455 -0.4469  0.2442
 4595SOL    HW215074   6.493   3.785   4.603  0.4599  0.3709  0.3673
 4596SOL     OW15075   2.296   5.276   7.229  0.0826 -0.5105  0.3070
 4596SOL    HW115076   2.343   5.239   7.155 -0.4492  2.0982 -1.4571
 4596SOL    HW215077   2.365   5.318   7.282  0.1540  0.3260 -0.4265
 4597SOL     OW15078   3.474   6.786   1.534 -0.1873 -0.0869  0.3664
 4597SOL    HW115079   3.413   6.827   1.595  0.4373  0.3694  0.7026
 4597SOL    HW215080   3.420   6.757   1.461 -1.2936 -2.3966  1.9725
 4598SOL     OW15081   0.879   8.543   1.567  0.1702 -0.2210 -0.5034
 4598SOL    HW115082   0.806   8.485   1.548 -0.9366  0.8409  0.3165
 4598SOL    HW215083   0.923   8.503   1.642 -1.4421  0.6404  0.9973
 4599SOL     OW15084   0.320   4.118   2.933 -0.2642 -0.3289 -0.0116
 4599SOL    HW115085   0.296   4.039   2.982  0.7914 -0.3798  0.4618
 4599SOL    HW215086   0.314   4.189   2.997  0.0222 -0.2267 -0.0923
 4600SOL     OW15087   8.414   3.076   4.033 -0.6990 -0.5413 -0.3991
 4600SOL    HW115088   8.403   3.111   3.944 -1.7307  1.7975  0.5496
 4600SOL    HW215089   8.330   3.036   4.054 -0.9743  0.2371  0.0253
 4601SOL     OW15090   0.397   5.541   6.006 -0.0079  0.2691 -0.3532
 4601SOL    HW115091   0.433   5.602   6.070  0.5781  1.4145 -1.6997
 4601SOL    HW215092   0.348   5.597   5.945 -2.2240 -1.0036  0.1700
 4602SOL     OW15093   4.934   3.135   5.597  0.1856 -0.1073  0.0463
 4602SOL    HW115094   4.886   3.205   5.642 -1.0397 -0.4416 -0.6962
 4602SOL    HW215095   4.883   3.056   5.615 -1.3713 -0.0136 -3.2903
 4603SOL     OW15096   6.716   3.158   2.607 -0.6053  0.2178 -0.1907
 4603SOL    HW115097   6.693   3.067   2.587  1.3155 -0.4388  0.3487
 4603SOL    HW215098   6.634   3.206   2.596 -1.8344 -1.6710  0.1412
 4604SOL     OW15099   2.798   8.673   8.547  0.1295 -0.1285 -0.4426
 4604SOL    HW115100   2.829   8.641   8.631  0.1020  0.1973 -0.3070
 4604SOL    HW215101   2.756   8.756   8.567 -1.3311 -0.8119 -0.5397
 4605SOL     OW15102   5.019   8.531   7.831 -0.1057  0.3781 -0.1996
 4605SOL    HW115103   5.073   8.468   7.784  0.6236  1.3479 -0.6876
 4605SOL    HW215104   4.931   8.517   7.796  0.1996  0.2095 -0.9207
 4606SOL     OW15105   4.225   5.154   5.959  0.1933 -0.3721  0.1813
 4606SOL    HW115106   4.255   5.067   5.987 -1.7703 -0.2174  3.2814
 4606SOL    HW215107   4.155   5.135   5.896  0.6764 -0.9732 -0.1904
 4607SOL     OW15108   8.229   7.352   6.887 -1.0254 -0.2052  0.4479
 4607SOL    HW115109   8.163   7.375   6.823 -0.3081 -0.2248 -0.3163
 4607SOL    HW215110   8.251   7.435   6.930 -0.6186  0.0235 -0.1962
 4608SOL     OW15111   5.993   1.003   2.565 -0.1295  0.0612  0.4423
 4608SOL    HW115112   6.044   1.030   2.642  1.7575 -1.6459 -0.1231
 4608SOL    HW215113   6.039   0.926   2.532 -2.5385 -0.9370 -0.7670
 4609SOL     OW15114   0.167   7.664   4.897 -0.1919  0.0033 -0.3721
 4609SOL    HW115115   0.136   7.753   4.878 -0.5251  0.3795  1.7389
 4609SOL    HW215116   0.109   7.608   4.846 -0.3569  0.9562 -1.2825
 4610SOL     OW15117   5.424   3.982   2.390  0.1983  0.3658 -0.3272
 4610SOL    HW115118   5.376   4.062   2.407 -0.3610  0.3254 -1.5639
 4610SOL    HW215119   5.515   4.010   2.380  0.0946  0.7587 -0.1925
 4611SOL     OW15120   4.631   4.674   2.621 -0.3846 -0.3277  0.1264
 4611SOL    HW115121   4.632   4.769   2.610 -0.7528 -0.4579 -1.2926
 4611SOL    HW215122   4.702   4.643   2.564 -0.4551 -0.9246  0.3608
 4612SOL     OW15123   6.254   1.810   5.340 -0.1928  0.4606 -0.1402
 4612SOL    HW115124   6.315   1.764   5.398 -0.2508 -0.0608 -0.4878
 4612SOL    HW215125   6.309   1.874   5.294  0.0464  0.1901 -0.2394
 4613SOL     OW15126   5.106   8.593   7.322 -0.1657 -0.6869 -0.5160
 4613SOL    HW115127   5.020   8.567   7.289 -0.5501 -0.5717  0.3443
 4613SOL    HW215128   5.158   8.513   7.320 -0.6833 -1.0521  0.1159
 4614SOL     OW15129   8.507   5.366   8.574 -0.0216 -0.3943  0.4495
 4614SOL    HW115130   8.427   5.414   8.555 -0.0244  0.2684  2.0291
 4614SOL    HW215131   8.553   5.362   8.490 -0.9753  0.5746 -0.1411
 4615SOL     OW15132   0.783   6.733   5.366  0.1359  0.2823 -0.3348
 4615SOL    HW115133   0.806   6.728   5.273 -0.0884  0.3326 -0.3953
 4615SOL    HW215134   0.693   6.699   5.370  0.4191 -0.4675 -0.0235
 4616SOL     OW15135   4.597   2.574   7.521  0.4953 -0.1014  0.0790
 4616SOL    HW115136   4.588   2.502   7.459  0.7559 -0.7097  0.7317
 4616SOL    HW215137   4.690   2.578   7.541  0.3320 -0.3699  0.9488
 4617SOL     OW15138   3.319   5.302   5.667  0.5231 -0.3693  0.5144
 4617SOL    HW115139   3.406   5.267   5.648 -0.2051 -1.2242 -1.6289
 4617SOL    HW215140   3.336   5.388   5.705  2.3332  0.1220 -1.2037
 4618SOL     OW15141   0.467   5.293   5.853 -0.4191  0.2751  0.7346
 4618SOL    HW115142   0.520   5.236   5.909 -0.6632  1.4073  2.2093
 4618SOL    HW215143   0.461   5.375   5.903 -1.3398  1.0640 -0.6146
 4619SOL     OW15144   8.678   2.328   0.531 -0.0232  0.5157 -0.2134
 4619SOL    HW115145   8.583   2.336   0.545 -0.2960 -0.9893 -1.0398
 4619SOL    HW215146   8.686   2.285   0.446  1.3911 -0.3120  0.3109
 4620SOL     OW15147   4.332   7.583   8.507 -0.0483  0.3165  0.0628
 4620SOL    HW115148   4.330   7.657   8.567 -0.9707 -0.2727  0.7961
 4620SOL    HW215149   4.242   7.549   8.508 -0.4374  0.9713 -2.5521
 4621SOL     OW15150   6.086   6.857   8.080 -0.0203  0.3948 -0.1481
 4621SOL    HW115151   6.067   6.886   8.169  2.0708  1.1743  0.0956
 4621SOL    HW215152   6.058   6.930   8.025  0.7386  0.8652  0.0727
 4622SOL     OW15153   7.596   3.142   6.940  0.3179  0.0278 -0.1583
 4622SOL    HW115154   7.534   3.082   6.981  0.1147  0.3089 -0.0489
 4622SOL    HW215155   7.680   3.125   6.984 -0.3277  1.8390  1.9758
 4623SOL     OW15156   6.052   8.417   4.971  0.4926 -0.6908 -0.1828
 4623SOL    HW115157   6.075   8.340   4.919  1.5412 -0.2244 -0.4302
 4623SOL    HW215158   6.108   8.487   4.936 -0.9985  0.3866 -0.5029
 4624SOL     OW15159   2.777   4.840   6.793  0.3390 -0.0528 -0.1036
 4624SOL    HW115160   2.702   4.833   6.734  0.6285  0.0139 -0.4836
 4624SOL    HW215161   2.799   4.934   6.792  0.0459  0.0223  0.4817
 4625SOL     OW15162   8.409   6.127   0.624 -0.1338  0.6875  0.5132
 4625SOL    HW115163   8.335   6.154   0.678  0.4671 -0.4504  1.9439
 4625SOL    HW215164   8.386   6.040   0.593  0.1433  0.7714  0.0583
 4626SOL     OW15165   6.463   1.407   2.522 -0.0784  0.1830  0.0828
 4626SOL    HW115166   6.502   1.435   2.440 -1.5805  0.2335 -0.6554
 4626SOL    HW215167   6.444   1.314   2.510 -0.9931  0.3574  0.0521
 4627SOL     OW15168   4.621   8.060   7.893 -0.2682  0.2324 -0.0927
 4627SOL    HW115169   4.666   7.982   7.860 -0.1227  0.1708  0.2412
 4627SOL    HW215170   4.691   8.111   7.936 -0.9594 -1.2545  3.0575
 4628SOL     OW15171   2.431   3.845   2.289  0.0266  0.3472 -0.0122
 4628SOL    HW115172   2.361   3.855   2.225 -0.4840 -4.4835 -0.5372
 4628SOL    HW215173   2.501   3.800   2.242  0.7973 -0.7828  2.0879
 4629SOL     OW15174   7.938   1.507   7.328  0.1648 -0.1940  0.1040
 4629SOL    HW115175   7.908   1.464   7.249  0.3549 -0.9725  0.4412
 4629SOL    HW215176   8.034   1.505   7.321  0.1771  1.3432 -0.4818
 4630SOL     OW15177   1.698   8.300   7.917  0.1567  0.2001  0.5915
 4630SOL    HW115178   1.684   8.383   7.872 -1.7274 -0.3128  0.1291
 4630SOL    HW215179   1.701   8.323   8.010 -2.9767  0.6017  0.6859
 4631SOL     OW15180   2.950   3.946   7.501 -0.4402  0.1341 -0.1133
 4631SOL    HW115181   2.901   3.864   7.497 -0.2206  0.0385 -1.1330
 4631SOL    HW215182   3.034   3.925   7.458  0.2799  0.4449  1.0924
 4632SOL     OW15183   5.794   2.654   8.001  0.6788  0.1947 -0.1955
 4632SOL    HW115184   5.747   2.637   8.083  0.2404  1.1346 -0.2407
 4632SOL    HW215185   5.741   2.611   7.934  0.2020  0.7270 -0.1689
 4633SOL     OW15186   5.322   0.514   8.150 -0.3048 -0.0715  0.1947
 4633SOL    HW115187   5.366   0.513   8.235 -0.0441  1.3301  0.0968
 4633SOL    HW215188   5.388   0.548   8.089 -0.5646 -0.8476 -0.5409
 4634SOL     OW15189   4.953   2.452   3.863 -0.6745 -0.4640  0.0923
 4634SOL    HW115190   4.879   2.455   3.802  0.2040  1.6411 -1.0022
 4634SOL    HW215191   4.921   2.495   3.942 -0.8033 -0.0274 -0.1911
 4635SOL     OW15192   4.578   3.735   8.658 -0.2866  0.3025 -0.2125
 4635SOL    HW115193   4.517   3.692   8.599  0.9054 -0.7528 -0.7115
 4635SOL    HW215194   4.607   3.666   8.717 -0.7779  1.1471  1.0607
 4636SOL     OW15195   8.258   2.903   0.374  0.5436 -0.0617  0.5069
 4636SOL    HW115196   8.231   2.980   0.423 -1.7034  1.1910 -2.3815
 4636SOL    HW215197   8.352   2.913   0.363  0.9463  0.1714  3.3879
 4637SOL     OW15198   4.927   5.349   5.754 -0.1207 -0.5369 -0.0194
 4637SOL    HW115199   4.859   5.375   5.692 -0.7365 -0.5583  0.6340
 4637SOL    HW215200   4.930   5.421   5.818  1.5202  0.1918 -0.8445
 4638SOL     OW15201   5.603   8.310   4.279  0.3753 -0.2495 -0.4040
 4638SOL    HW115202   5.656   8.297   4.357 -0.3172 -1.3906 -0.1130
 4638SOL    HW215203   5.521   8.348   4.311 -0.7069 -2.5389 -0.2790
 4639SOL     OW15204   3.739   8.069   5.206  0.2734 -0.1245  0.3318
 4639SOL    HW115205   3.701   7.984   5.182 -0.0090  0.0152  0.2938
 4639SOL    HW215206   3.703   8.131   5.143  0.8518 -0.0539  0.0580
 4640SOL     OW15207   8.218   8.483   4.759 -0.5101 -0.2186 -0.2354
 4640SOL    HW115208   8.203   8.475   4.853 -0.7649 -1.4163 -0.3547
 4640SOL    HW215209   8.191   8.572   4.737 -2.9596 -0.7522  0.3880
 4641SOL     OW15210   6.003   0.122   7.924 -0.7074 -0.4747  0.4060
 4641SOL    HW115211   5.944   0.047   7.931  0.7811 -2.1103 -2.5213
 4641SOL    HW215212   6.077   0.100   7.981 -0.9124 -0.5539  0.6418
 4642SOL     OW15213   7.063   5.963   1.675 -0.2780  0.4666 -0.0940
 4642SOL    HW115214   7.000   5.893   1.691  0.0837  0.1193 -0.1504
 4642SOL    HW215215   7.129   5.952   1.744 -0.2353  0.7716 -0.0843
 4643SOL     OW15216   0.203   5.540   3.979  0.1010  0.2401  0.1618
 4643SOL    HW115217   0.279   5.493   4.013 -0.4951 -0.5826  0.4078
 4643SOL    HW215218   0.215   5.540   3.884  0.4419  0.1696  0.2053
 4644SOL     OW15219   3.908   7.473   2.251  0.6508 -0.3245 -0.1822
 4644SOL    HW115220   3.837   7.519   2.207  1.5831  1.8955  0.4506
 4644SOL    HW215221   3.984   7.531   2.241  1.5900 -1.1052  1.8172
 4645SOL     OW15222   1.299   8.330   8.266 -0.4456  0.4438 -0.0449
 4645SOL    HW115223   1.264   8.247   8.235  0.8692 -0.2347  0.1837
 4645SOL    HW215224   1.295   8.323   8.362 -1.7514  1.2964 -0.0212
 4646SOL     OW15225   1.425   6.470   6.083  0.6495 -0.0790  0.4095
 4646SOL    HW115226   1.475   6.551   6.082  0.8332 -0.1744  1.1509
 4646SOL    HW215227   1.449   6.428   6.165  1.3098 -1.3581 -0.4108
 4647SOL     OW15228   1.029   4.920   2.055 -0.3256 -0.5361  0.1319
 4647SOL    HW115229   0.957   4.972   2.091 -0.2389  1.3541 -2.1240
 4647SOL    HW215230   1.108   4.970   2.078  0.0181 -1.1559  0.3078
 4648SOL     OW15231   3.900   5.386   6.393 -0.1656  0.4310  0.4251
 4648SOL    HW115232   3.865   5.419   6.310 -0.6859  1.0179  0.8790
 4648SOL    HW215233   3.834   5.324   6.423  0.6161 -0.7526 -0.2199
 4649SOL     OW15234   4.130   7.624   3.312  0.0313  0.3926  0.5750
 4649SOL    HW115235   4.193   7.562   3.349 -0.1720 -1.2692 -1.7353
 4649SOL    HW215236   4.062   7.632   3.379 -0.2998 -2.4639  0.6786
 4650SOL     OW15237   1.327   2.339   0.915 -0.2120 -0.6384 -0.1227
 4650SOL    HW115238   1.354   2.410   0.974  0.1405 -1.3091  0.5396
 4650SOL    HW215239   1.376   2.356   0.834  0.9124 -0.8656  0.4835
 4651SOL     OW15240   7.245   6.611   6.366 -0.0708 -0.0870 -0.6890
 4651SOL    HW115241   7.217   6.534   6.316  0.5901 -0.3840 -0.6156
 4651SOL    HW215242   7.168   6.637   6.416 -0.5274 -0.2214 -1.3198
 4652SOL     OW15243   2.254   3.934   2.102 -0.3112  0.1458  0.0148
 4652SOL    HW115244   2.266   4.028   2.095 -0.1103  0.0927 -0.4011
 4652SOL    HW215245   2.173   3.923   2.152 -1.4789  0.5649 -1.6838
 4653SOL     OW15246   2.215   3.737   6.364  0.2117  0.0798  0.5397
 4653SOL    HW115247   2.251   3.704   6.446  0.4656 -1.9287 -0.3243
 4653SOL    HW215248   2.120   3.730   6.375  0.2488 -0.2970  0.6219
 4654SOL     OW15249   6.491   6.185   1.475 -0.1985  0.9699 -0.5058
 4654SOL    HW115250   6.545   6.164   1.398  2.2984  1.2146  1.0604
 4654SOL    HW215251   6.514   6.275   1.497 -0.4587  0.7384  0.8135
 4655SOL     OW15252   0.500   4.498   8.024 -0.1379  0.8640  0.1686
 4655SOL    HW115253   0.444   4.575   8.024 -1.2499  0.1507 -2.2447
 4655SOL    HW215254   0.561   4.513   7.951  0.7261  0.1964  0.7341
 4656SOL     OW15255   0.327   2.383   1.858  0.7452  0.3119  0.5284
 4656SOL    HW115256   0.315   2.478   1.852 -2.1786 -0.0579 -1.3729
 4656SOL    HW215257   0.265   2.355   1.925  0.0149 -0.4453 -0.4413
 4657SOL     OW15258   6.389   1.700   1.406  0.1798 -0.1794 -0.5517
 4657SOL    HW115259   6.476   1.702   1.447  0.4569 -0.1703 -1.1310
 4657SOL    HW215260   6.377   1.789   1.371  0.3733 -0.4603 -1.3541
 4658SOL     OW15261   2.349   8.529   2.920  0.2421 -0.7334 -0.1901
 4658SOL    HW115262   2.421   8.500   2.864  0.0520  0.0485 -0.8612
 4658SOL    HW215263   2.326   8.616   2.887 -0.3781 -0.5693  0.6250
 4659SOL     OW15264   2.715   0.833   2.674  0.0951  0.0386 -0.7839
 4659SOL    HW115265   2.647   0.774   2.704 -1.2485  1.9279  0.0404
 4659SOL    HW215266   2.679   0.921   2.685  2.0965  1.0688 -1.7241
 4660SOL     OW15267   1.473   6.475   0.344  0.0560  0.1309 -0.1363
 4660SOL    HW115268   1.497   6.463   0.252 -0.2341 -0.0182 -0.1938
 4660SOL    HW215269   1.549   6.518   0.383  0.6170 -0.7558 -0.2113
 4661SOL     OW15270   3.865   5.094   3.766  0.2607 -0.2399 -0.3356
 4661SOL    HW115271   3.959   5.095   3.784 -0.1378 -0.2121  2.0534
 4661SOL    HW215272   3.841   5.187   3.761 -0.2893 -0.0022  3.5571
 4662SOL     OW15273   0.406   2.959   6.165  0.0102 -0.0135  0.3327
 4662SOL    HW115274   0.330   3.012   6.141 -0.8087 -1.7714 -1.1349
 4662SOL    HW215275   0.421   2.980   6.257 -2.2751  0.3571  0.6739
 4663SOL     OW15276   0.160   2.937   2.968  0.3606 -0.2488  0.0538
 4663SOL    HW115277   0.092   2.945   2.901 -1.7057 -1.7447  1.8376
 4663SOL    HW215278   0.239   2.916   2.918 -0.3044  1.9834 -2.1388
 4664SOL     OW15279   2.668   6.459   2.917  0.0166 -0.2085 -0.1216
 4664SOL    HW115280   2.760   6.470   2.942  0.2500  0.6886 -1.2969
 4664SOL    HW215281   2.639   6.380   2.963  0.9764  0.2674  1.3581
 4665SOL     OW15282   7.003   2.220   4.426 -0.0641  0.3286  0.1697
 4665SOL    HW115283   6.964   2.190   4.344  0.1459  0.3259  0.0697
 4665SOL    HW215284   6.949   2.180   4.494 -0.2069  0.2873  0.0334
 4666SOL     OW15285   8.244   6.325   5.846  0.0353 -0.5999 -1.0812
 4666SOL    HW115286   8.207   6.242   5.874  0.4721 -0.3199  0.3985
 4666SOL    HW215287   8.172   6.388   5.857  0.0040 -0.6067 -1.2442
 4667SOL     OW15288   4.699   2.814   0.028  0.0857 -0.5062  0.1782
 4667SOL    HW115289   4.737   2.886   0.079  0.9326 -0.8101 -0.0023
 4667SOL    HW215290   4.651   2.857  -0.042 -0.6249 -0.0927  0.8957
 4668SOL     OW15291   2.149   7.003   0.843  0.0198 -0.5359  0.6831
 4668SOL    HW115292   2.084   7.061   0.882  0.7319  0.3096  0.6518
 4668SOL    HW215293   2.202   7.061   0.789 -0.7434 -1.6186 -1.3153
 4669SOL     OW15294   3.676   7.152   1.073  0.1272 -0.1931  0.5413
 4669SOL    HW115295   3.649   7.243   1.087 -0.6790 -0.1258 -1.1932
 4669SOL    HW215296   3.667   7.139   0.979  2.7120 -1.3301  0.3803
 4670SOL     OW15297   7.479   0.753   7.368  0.0466  0.5311  0.3547
 4670SOL    HW115298   7.512   0.710   7.289 -0.4262  2.5273 -1.0236
 4670SOL    HW215299   7.395   0.711   7.386 -0.5817  1.0591 -1.1701
 4671SOL     OW15300   5.740   5.620   5.331  0.7262 -0.2785 -0.2933
 4671SOL    HW115301   5.686   5.545   5.355  0.4376  0.1285  0.3555
 4671SOL    HW215302   5.679   5.694   5.330  1.4860  0.4365  1.8007
 4672SOL     OW15303   7.575   6.149   4.869  0.1150 -0.5136  0.2984
 4672SOL    HW115304   7.530   6.221   4.825 -0.8812 -1.5547 -0.4599
 4672SOL    HW215305   7.546   6.155   4.960 -0.2921 -0.1957  0.1511
 4673SOL     OW15306   0.807   8.437   0.124 -0.2188  0.2016 -0.2466
 4673SOL    HW115307   0.837   8.527   0.142  0.1136  0.5003 -2.0604
 4673SOL    HW215308   0.880   8.397   0.076 -0.6151 -0.8379  0.0041
 4674SOL     OW15309   2.731   3.906   2.686  0.0648 -0.1840  0.0813
 4674SOL    HW115310   2.783   3.959   2.626 -0.0532  0.5933  0.6556
 4674SOL    HW215311   2.789   3.833   2.709 -0.1399 -0.8883 -1.5103
 4675SOL     OW15312   7.790   6.539   5.847  0.2907 -0.4712 -0.1943
 4675SOL    HW115313   7.708   6.492   5.833  0.7981 -1.5978  0.4274
 4675SOL    HW215314   7.853   6.494   5.790  0.5928  0.0214 -0.2505
 4676SOL     OW15315   1.341   4.532   5.426 -0.1077  0.0629 -0.4429
 4676SOL    HW115316   1.431   4.541   5.455  0.0096 -1.9735 -0.0333
 4676SOL    HW215317   1.331   4.600   5.359  1.0937  1.6188  0.8500
 4677SOL     OW15318   4.206   1.288   3.798  0.5714 -0.2107  0.0681
 4677SOL    HW115319   4.215   1.264   3.705  1.3395  1.4498 -0.3239
 4677SOL    HW215320   4.253   1.219   3.845 -1.2795 -2.0345 -0.5945
 4678SOL     OW15321   6.586   3.520   0.901  0.1742 -0.3167  0.0416
 4678SOL    HW115322   6.532   3.458   0.950  1.2235 -0.4101  1.1375
 4678SOL    HW215323   6.674   3.508   0.937  1.2246 -1.1213 -2.5843
 4679SOL     OW15324   0.672   7.384   3.002  0.2442 -0.1588  0.1679
 4679SOL    HW115325   0.614   7.330   3.056 -0.9237  0.8935  0.0013
 4679SOL    HW215326   0.620   7.405   2.924  0.7694  0.9638  0.1018
 4680SOL     OW15327   6.272   4.158   8.581  0.3309  0.3922  0.2359
 4680SOL    HW115328   6.196   4.125   8.533  0.5625  1.5810 -1.0242
 4680SOL    HW215329   6.234   4.198   8.660 -0.1563 -0.6357  0.5449
 4681SOL     OW15330   3.500   5.268   0.756  0.3134  0.6305 -0.0980
 4681SOL    HW115331   3.466   5.333   0.694  0.6179 -1.1794 -2.2746
 4681SOL    HW215332   3.421   5.229   0.795  0.0720  0.4521 -0.7670
 4682SOL     OW15333   3.333   7.728   7.590 -0.1947 -0.2236 -0.1800
 4682SOL    HW115334   3.313   7.684   7.507  1.7011 -1.1703 -0.1799
 4682SOL    HW215335   3.276   7.685   7.653  0.7646 -1.9180 -0.4096
 4683SOL     OW15336   4.775   6.423   3.537 -0.1192 -0.1591 -0.4721
 4683SOL    HW115337   4.683   6.446   3.544 -0.4189 -1.3938 -0.1176
 4683SOL    HW215338   4.809   6.480   3.467 -1.3568 -0.3133 -1.2229
 4684SOL     OW15339   1.725   0.959   3.262  0.0464  0.7295  0.0529
 4684SOL    HW115340   1.643   1.009   3.268 -0.8735 -0.7369  0.1905
 4684SOL    HW215341   1.793   1.026   3.250 -1.0567  2.0448  0.7966
 4685SOL     OW15342   0.327   2.589   7.110 -0.1488 -0.1865 -0.4142
 4685SOL    HW115343   0.306   2.609   7.201 -1.1383 -1.4151 -0.3483
 4685SOL    HW215344   0.361   2.671   7.075 -1.9876  1.0033  0.4107
 4686SOL     OW15345   3.804   8.395   2.354  0.0639  0.0005  0.0590
 4686SOL    HW115346   3.784   8.333   2.424  1.8350 -0.4196  0.2390
 4686SOL    HW215347   3.741   8.466   2.366  0.5689  0.1353  2.3371
 4687SOL     OW15348   1.262   3.821   2.563  0.4259 -0.8764 -0.2523
 4687SOL    HW115349   1.315   3.786   2.491 -1.3570 -0.9900 -1.5954
 4687SOL    HW215350   1.215   3.895   2.523 -2.7003 -2.6323 -0.0661
 4688SOL     OW15351   1.867   7.512   4.979  0.1962 -0.1079 -0.6874
 4688SOL    HW115352   1.861   7.443   4.912 -0.3630  0.9221 -1.7311
 4688SOL    HW215353   1.847   7.593   4.932 -0.0278  0.6721  0.7062
 4689SOL     OW15354   0.330   1.419   5.087 -0.5275  0.5276  0.0042
 4689SOL    HW115355   0.242   1.450   5.065 -1.8574 -2.5244  0.3794
 4689SOL    HW215356   0.321   1.382   5.175  0.3660 -2.1407 -0.9029
 4690SOL     OW15357   3.940   4.412   1.884 -0.2354 -1.0137 -0.1793
 4690SOL    HW115358   3.873   4.405   1.816  0.6996 -2.3497 -1.0002
 4690SOL    HW215359   4.011   4.357   1.854  1.2409  0.3193  0.7015
 4691SOL     OW15360   1.925   4.697   1.808  0.0307 -0.2028 -0.0471
 4691SOL    HW115361   1.941   4.751   1.730  1.5920 -0.3408  0.1425
 4691SOL    HW215362   1.865   4.629   1.778 -0.6150  0.6301 -0.7221
 4692SOL     OW15363   6.386   8.018   0.377  0.1868 -0.0133 -0.4440
 4692SOL    HW115364   6.303   8.040   0.418 -0.0264  0.5955 -1.1759
 4692SOL    HW215365   6.394   7.923   0.387 -0.7408 -0.1163 -0.6378
 4693SOL     OW15366   1.633   5.801   6.096 -0.2805 -0.4389  0.2738
 4693SOL    HW115367   1.718   5.843   6.108 -0.8563  0.9614 -0.4045
 4693SOL    HW215368   1.642   5.751   6.015 -0.1693 -0.0979  0.0716
 4694SOL     OW15369   4.687   1.301   2.142 -0.3920 -0.5594  0.2867
 4694SOL    HW115370   4.694   1.359   2.218 -1.2378 -0.5934  0.3923
 4694SOL    HW215371   4.639   1.225   2.174  0.4482 -1.2009  0.0656
 4695SOL     OW15372   1.430   2.754   3.304 -0.7004  0.1420 -0.2490
 4695SOL    HW115373   1.483   2.699   3.361 -0.3454  0.9008  0.1762
 4695SOL    HW215374   1.361   2.789   3.361 -1.1587 -0.1629 -0.6035
 4696SOL     OW15375   2.012   0.299   7.532 -0.0946 -0.4012 -0.3912
 4696SOL    HW115376   1.928   0.300   7.578  0.3886 -0.4438  0.4938
 4696SOL    HW215377   2.018   0.385   7.490  0.3787  0.4061  1.2857
 4697SOL     OW15378   1.287   4.879   8.091 -0.0132  0.2570 -0.0250
 4697SOL    HW115379   1.358   4.821   8.063 -1.3797 -1.4926  0.0044
 4697SOL    HW215380   1.247   4.909   8.009  0.3881  0.7929 -0.0305
 4698SOL     OW15381   2.840   7.299   1.947  0.3928 -0.2322 -0.6920
 4698SOL    HW115382   2.849   7.216   1.993 -0.6007 -0.2222 -0.4518
 4698SOL    HW215383   2.897   7.291   1.871  1.4924 -0.5397  0.1238
 4699SOL     OW15384   7.821   4.850   5.186  0.0327  0.3123  0.0822
 4699SOL    HW115385   7.782   4.771   5.224 -0.2763  0.9595  1.1533
 4699SOL    HW215386   7.788   4.852   5.097  0.7202 -1.2187 -0.2464
 4700SOL     OW15387   3.219   4.193   5.866 -0.5834  0.0303 -0.4664
 4700SOL    HW115388   3.227   4.288   5.865 -0.6428  0.0391 -0.2826
 4700SOL    HW215389   3.234   4.166   5.776  0.6639  0.1130 -0.3037
 4701SOL     OW15390   0.292   5.359   5.042 -0.3887 -0.6186 -0.0412
 4701SOL    HW115391   0.344   5.380   5.120  0.7098 -2.4547 -0.2142
 4701SOL    HW215392   0.201   5.364   5.072  0.0173 -1.7028  1.5088
 4702SOL     OW15393   3.606   7.006   0.636  0.3374 -0.0752  0.3861
 4702SOL    HW115394   3.593   7.093   0.674 -0.4978 -0.7743  1.7804
 4702SOL    HW215395   3.645   6.955   0.707  2.7269 -0.3548 -1.0329
 4703SOL     OW15396   7.378   6.058   5.901 -0.1338 -0.0696  0.0698
 4703SOL    HW115397   7.376   6.060   5.806 -2.2606  0.7787  0.0983
 4703SOL    HW215398   7.444   6.123   5.925 -1.6679  1.9064 -0.8162
 4704SOL     OW15399   3.211   3.025   4.529  0.5124  0.2932  0.3200
 4704SOL    HW115400   3.295   3.031   4.574 -0.3290 -2.5741  2.5175
 4704SOL    HW215401   3.147   3.055   4.593 -0.4185 -0.5526 -0.1849
 4705SOL     OW15402   6.429   8.467   1.365  0.3110  0.5179 -0.5082
 4705SOL    HW115403   6.356   8.419   1.404  0.5363 -0.5795 -1.4043
 4705SOL    HW215404   6.390   8.549   1.335 -0.4821  0.0894 -0.6769
 4706SOL     OW15405   0.007   0.892   3.237  0.0685 -0.2650 -0.8928
 4706SOL    HW115406  -0.035   0.831   3.297 -1.0476 -0.3622 -1.7361
 4706SOL    HW215407   0.100   0.869   3.241  0.0732 -0.0956  0.9572
 4707SOL     OW15408   8.134   5.321   4.296 -0.7450  0.4188 -0.2126
 4707SOL    HW115409   8.041   5.311   4.274  0.1468  1.2396 -5.8512
 4707SOL    HW215410   8.149   5.416   4.293  0.2002  0.3653  1.5981
 4708SOL     OW15411   8.273   1.342   5.907 -0.7059  0.5995 -0.1323
 4708SOL    HW115412   8.233   1.346   5.820 -1.0638 -1.0754 -0.0693
 4708SOL    HW215413   8.200   1.330   5.967 -0.2283 -3.0040 -0.0527
 4709SOL     OW15414   4.290   6.420   4.165 -0.7199 -0.0282  0.0080
 4709SOL    HW115415   4.225   6.479   4.203 -1.6458 -0.9774 -0.0520
 4709SOL    HW215416   4.252   6.394   4.081 -0.4080 -0.8333  0.1090
 4710SOL     OW15417   2.255   7.221   6.556  0.0222  0.1127  0.5036
 4710SOL    HW115418   2.219   7.132   6.552 -0.0150  0.0224  2.2118
 4710SOL    HW215419   2.281   7.240   6.466 -1.5658 -0.9506 -0.2246
 4711SOL     OW15420   6.770   0.348   6.072  0.1628 -0.5153  0.3521
 4711SOL    HW115421   6.784   0.278   6.135  1.9009 -0.8808 -0.3771
 4711SOL    HW215422   6.855   0.357   6.027 -0.5023  0.9404 -0.6828
 4712SOL     OW15423   1.477   4.654   0.104  0.5459  0.1818  0.4300
 4712SOL    HW115424   1.480   4.656   0.199 -1.2435 -0.8654  0.5368
 4712SOL    HW215425   1.512   4.569   0.080  1.2206  0.5355  0.1159
 4713SOL     OW15426   1.250   4.315   2.018  0.2513 -0.0145  0.3266
 4713SOL    HW115427   1.208   4.337   1.935 -0.0482  0.6722  0.6558
 4713SOL    HW215428   1.337   4.355   2.013  0.2828 -0.0872  0.2897
 4714SOL     OW15429   0.393   4.476   6.948 -0.6688  0.0005 -0.6898
 4714SOL    HW115430   0.377   4.467   7.042  0.7979 -2.6514 -0.6139
 4714SOL    HW215431   0.342   4.406   6.908 -0.5756  0.5514 -1.8017
 4715SOL     OW15432   6.177   3.667   4.627  0.0640 -0.4271  0.1054
 4715SOL    HW115433   6.130   3.626   4.700  0.7503  0.7411  1.2363
 4715SOL    HW215434   6.257   3.702   4.666 -0.3062  1.6376 -0.8789
 4716SOL     OW15435   7.128   2.447   7.977 -0.2269 -0.4770 -0.1877
 4716SOL    HW115436   7.190   2.426   7.908  0.9298 -1.1348  1.0094
 4716SOL    HW215437   7.068   2.510   7.937 -0.0519 -1.4037 -1.9959
 4717SOL     OW15438   6.077   6.090   1.217 -0.3115 -0.2326 -0.1697
 4717SOL    HW115439   6.139   6.085   1.290 -0.9805 -0.6409  0.3799
 4717SOL    HW215440   5.994   6.060   1.254 -1.0668  1.1714 -0.6451
 4718SOL     OW15441   6.638   3.723   6.167 -0.3212 -0.3834  0.2284
 4718SOL    HW115442   6.662   3.815   6.169  1.1652 -0.7630  1.4224
 4718SOL    HW215443   6.588   3.713   6.086 -1.5043  1.6893  0.6224
 4719SOL     OW15444   5.131   7.485   3.409  0.0038  0.0846 -0.2760
 4719SOL    HW115445   5.184   7.520   3.338  2.1861 -0.9410  0.7448
 4719SOL    HW215446   5.146   7.544   3.482  0.0418 -0.4170  0.1297
 4720SOL     OW15447   4.517   7.016   7.694 -0.0775 -0.1450 -0.5611
 4720SOL    HW115448   4.607   7.023   7.727  0.2146  2.2081 -1.6158
 4720SOL    HW215449   4.497   6.923   7.696  2.2885 -0.6955 -0.0391
 4721SOL     OW15450   5.382   6.996   5.230  0.2061  0.5220 -1.0874
 4721SOL    HW115451   5.417   7.036   5.309 -1.8264 -0.9099  0.6598
 4721SOL    HW215452   5.404   7.058   5.160 -0.3618  3.2821  0.9897
 4722SOL     OW15453   7.395   5.693   4.120 -0.3638  0.3589 -0.1230
 4722SOL    HW115454   7.410   5.740   4.202 -1.2514  0.3674  0.0448
 4722SOL    HW215455   7.477   5.647   4.104 -0.3678 -0.1064  1.0804
 4723SOL     OW15456   3.289   1.806   0.449 -0.4762  0.3150  0.3108
 4723SOL    HW115457   3.283   1.867   0.523  2.3678  0.8491  0.2236
 4723SOL    HW215458   3.350   1.739   0.479  1.1760  0.8425 -1.7086
 4724SOL     OW15459   3.317   4.850   2.564  0.6198  0.7011  0.1681
 4724SOL    HW115460   3.244   4.796   2.592  1.6812 -0.1391  1.4191
 4724SOL    HW215461   3.280   4.938   2.557 -0.6635  0.1761  0.0421
 4725SOL     OW15462   0.596   7.668   1.396  0.3054 -0.3050  0.2876
 4725SOL    HW115463   0.602   7.763   1.382  1.1687 -0.1619  1.4718
 4725SOL    HW215464   0.574   7.659   1.488  3.1786 -1.2604  0.9972
 4726SOL     OW15465   1.483   5.321   6.052  0.3738  0.1128  0.0371
 4726SOL    HW115466   1.523   5.251   6.000 -1.7974 -0.9167 -0.3366
 4726SOL    HW215467   1.527   5.400   6.022  1.2632 -0.8113 -1.2301
 4727SOL     OW15468   3.243   3.103   2.230 -0.0990  0.5594 -0.3003
 4727SOL    HW115469   3.281   3.023   2.264  0.1577  0.1276 -1.5563
 4727SOL    HW215470   3.288   3.173   2.277 -0.0591 -0.0145  0.5329
 4728SOL     OW15471   5.938   3.897   6.425  0.0936 -0.3682 -0.0682
 4728SOL    HW115472   5.982   3.816   6.395 -0.2098 -0.6656  0.2873
 4728SOL    HW215473   5.925   3.884   6.518 -2.2348 -1.0027 -0.4250
 4729SOL     OW15474   1.001   3.288   6.672 -0.2656 -0.1247  0.0271
 4729SOL    HW115475   1.052   3.286   6.752 -0.6573 -1.5243  0.2715
 4729SOL    HW215476   0.910   3.284   6.701 -0.3835 -2.1824 -0.4795
 4730SOL     OW15477   4.208   3.799   1.428 -0.3917  0.1757 -0.6596
 4730SOL    HW115478   4.197   3.786   1.334 -0.9315  0.8280 -0.6957
 4730SOL    HW215479   4.119   3.801   1.463 -0.2117 -3.7141  0.4253
 4731SOL     OW15480   3.273   5.084   0.863 -0.1334  0.0909  0.1677
 4731SOL    HW115481   3.180   5.066   0.874 -0.1779 -0.6533 -1.2142
 4731SOL    HW215482   3.297   5.039   0.782  1.5090 -0.0290  0.6821
 4732SOL     OW15483   0.474   5.611   3.597  0.0299  0.4755 -0.0422
 4732SOL    HW115484   0.398   5.560   3.623  0.0809  0.2222 -0.3853
 4732SOL    HW215485   0.457   5.635   3.506 -1.5718  3.8797  0.9627
 4733SOL     OW15486   4.030   8.057   5.653  0.1263  0.8917  0.2574
 4733SOL    HW115487   4.043   8.131   5.593  1.0459 -0.0724 -0.7704
 4733SOL    HW215488   4.108   8.004   5.643 -1.2029 -1.0765 -0.2716
 4734SOL     OW15489   0.529   6.088   1.463  0.0030  0.8362 -0.0622
 4734SOL    HW115490   0.581   6.008   1.474 -0.1362  0.6594 -0.6612
 4734SOL    HW215491   0.594   6.157   1.447  0.1475  0.9195  0.8170
 4735SOL     OW15492   4.541   3.636   6.713 -0.5365  0.3412 -0.2877
 4735SOL    HW115493   4.608   3.607   6.775 -3.0087  0.1709  2.5469
 4735SOL    HW215494   4.473   3.569   6.718 -1.6440  1.2848 -1.7907
 4736SOL     OW15495   3.091   7.085   0.341 -0.3581  0.3594 -0.0120
 4736SOL    HW115496   3.183   7.084   0.315  0.1700 -0.1059  1.7590
 4736SOL    HW215497   3.091   7.050   0.430 -2.2833  0.1410 -0.0656
 4737SOL     OW15498   1.276   6.370   6.476  0.2503  0.5668 -0.1109
 4737SOL    HW115499   1.218   6.294   6.469  1.6831 -0.7833  1.6403
 4737SOL    HW215500   1.218   6.445   6.488 -1.1473 -0.5106  0.0038
 4738SOL     OW15501   3.374   1.630   7.669  0.0402  0.1954 -0.4017
 4738SOL    HW115502   3.327   1.546   7.669  0.0790  0.1716 -0.7978
 4738SOL    HW215503   3.392   1.648   7.576  0.9408  0.1295 -0.2533
 4739SOL     OW15504   6.738   4.986   8.278 -0.1337  0.7419 -0.0052
 4739SOL    HW115505   6.670   4.997   8.344  1.6570  1.7705  1.7937
 4739SOL    HW215506   6.729   4.896   8.249 -0.7759  0.1229  1.9510
 4740SOL     OW15507   5.060   0.212   8.551  0.3483 -0.1511  0.4425
 4740SOL    HW115508   4.994   0.241   8.614  0.5426 -0.1091  0.6299
 4740SOL    HW215509   5.046   0.267   8.474 -0.1543 -0.4816  0.2959
 4741SOL     OW15510   6.705   4.303   7.362  0.4278 -0.0269  0.9630
 4741SOL    HW115511   6.658   4.250   7.297  0.2748  1.9233 -0.5918
 4741SOL    HW215512   6.791   4.319   7.322  0.8215  0.1120  1.8421
 4742SOL     OW15513   5.718   4.794   4.181 -0.4647  0.2586  0.2444
 4742SOL    HW115514   5.657   4.785   4.108  0.0476 -2.9048  0.0656
 4742SOL    HW215515   5.740   4.887   4.183 -0.2495  0.4578 -3.8444
 4743SOL     OW15516   6.036   4.085   0.644 -0.5991  0.2636  0.4091
 4743SOL    HW115517   6.026   4.096   0.738  0.3523 -3.1322  1.0336
 4743SOL    HW215518   5.946   4.077   0.611 -0.8871  0.1194  1.2233
 4744SOL     OW15519   2.469   0.254   5.606 -0.1246 -0.1403  0.4999
 4744SOL    HW115520   2.432   0.314   5.670  0.6741 -1.1986  2.0008
 4744SOL    HW215521   2.420   0.172   5.619  0.3156 -0.4859  0.0203
 4745SOL     OW15522   0.940   6.380   6.509  0.4687 -0.3343  0.2866
 4745SOL    HW115523   0.983   6.465   6.522  1.2079 -0.8331  1.2796
 4745SOL    HW215524   0.919   6.350   6.598 -0.0439 -1.0531 -0.0692
 4746SOL     OW15525   3.254   3.055   0.396  0.1933 -0.3358  0.0832
 4746SOL    HW115526   3.343   3.032   0.426  0.1109 -1.3507 -0.4040
 4746SOL    HW215527   3.238   2.997   0.322 -0.4833  0.5737 -0.5022
 4747SOL     OW15528   7.219   4.090   6.040  0.2339 -0.1837 -0.2877
 4747SOL    HW115529   7.184   4.009   6.003  0.3708 -0.5625  0.4074
 4747SOL    HW215530   7.298   4.108   5.989  0.8230 -1.0903  0.2891
 4748SOL     OW15531   5.464   6.143   1.429 -0.7075 -1.0372 -0.7675
 4748SOL    HW115532   5.527   6.098   1.485 -0.0117  1.0398  0.2451
 4748SOL    HW215533   5.380   6.133   1.474 -0.1029  0.8891  0.9418
 4749SOL     OW15534   2.406   4.978   0.302  0.2161 -0.0709 -0.8096
 4749SOL    HW115535   2.420   4.922   0.379  0.3762 -0.4292 -1.0988
 4749SOL    HW215536   2.354   5.051   0.335  0.5355 -0.0721 -0.2932
 4750SOL     OW15537   6.886   7.578   4.391  0.3537  0.4443  0.3635
 4750SOL    HW115538   6.880   7.484   4.404 -1.2717  0.5830  0.7359
 4750SOL    HW215539   6.879   7.590   4.296 -0.0794  0.2430  0.3721
 4751SOL     OW15540   1.664   0.258   8.078 -0.5909  0.2082  0.3901
 4751SOL    HW115541   1.615   0.252   7.996 -2.0111  1.6529  1.0786
 4751SOL    HW215542   1.607   0.216   8.143 -0.5750  1.1802  1.0548
 4752SOL     OW15543   6.900   8.441   7.516  0.0750 -0.1700  0.1020
 4752SOL    HW115544   6.824   8.388   7.543 -0.7663  0.9178 -0.0696
 4752SOL    HW215545   6.889   8.524   7.562  1.9317 -0.4691  1.1822
 4753SOL     OW15546   0.954   4.300   7.881 -0.2898  0.3162 -0.3262
 4753SOL    HW115547   0.914   4.218   7.909 -0.3051 -0.0658 -1.3902
 4753SOL    HW215548   1.048   4.282   7.880 -0.0643  1.1387  1.9429
 4754SOL     OW15549   3.108   6.478   5.427  0.2399  0.0321  0.7561
 4754SOL    HW115550   3.113   6.522   5.512  0.3030 -0.9372  1.2654
 4754SOL    HW215551   3.024   6.433   5.427  0.2704 -0.0359  0.3346
 4755SOL     OW15552   5.271   3.340   6.578  0.3721 -0.1989  0.4066
 4755SOL    HW115553   5.237   3.359   6.491  0.7433  0.0663  0.3167
 4755SOL    HW215554   5.194   3.342   6.635  0.4077  1.9113  0.4642
 4756SOL     OW15555   5.529   1.072   4.233  0.6230  0.3463 -0.5411
 4756SOL    HW115556   5.590   1.074   4.307 -1.6662  1.1581  1.4358
 4756SOL    HW215557   5.472   0.998   4.251 -0.5569  1.1217 -0.9507
 4757SOL     OW15558   2.822   5.258   4.781 -0.5535 -0.4504 -0.1314
 4757SOL    HW115559   2.808   5.235   4.689 -2.6390 -0.0996  0.0603
 4757SOL    HW215560   2.890   5.326   4.778  0.1302 -1.1520 -1.3162
 4758SOL     OW15561   3.889   1.043   8.424  0.2302 -0.2200 -0.1994
 4758SOL    HW115562   3.941   1.105   8.474 -0.8914  0.4820  0.1327
 4758SOL    HW215563   3.847   1.096   8.356 -0.1533 -0.7377 -0.3738
 4759SOL     OW15564   2.682   5.692   6.234  0.5471 -0.1976  0.1154
 4759SOL    HW115565   2.694   5.712   6.141 -1.3569  1.1035  0.1026
 4759SOL    HW215566   2.711   5.601   6.243  2.2153  0.1241 -1.4156
 4760SOL     OW15567   5.970   3.669   0.851 -0.0213 -0.5069 -0.1552
 4760SOL    HW115568   5.981   3.625   0.767  0.3446  0.3019 -0.5496
 4760SOL    HW215569   5.889   3.633   0.887 -1.2251  0.4921 -1.7320
 4761SOL     OW15570   6.044   7.136   7.229 -0.5749 -0.1907 -0.2473
 4761SOL    HW115571   6.115   7.083   7.191 -0.7860 -0.9143  0.3350
 4761SOL    HW215572   6.003   7.078   7.293  0.1232  1.1896  1.5161
 4762SOL     OW15573   3.065   4.634   7.730 -0.1157 -0.1730  0.3087
 4762SOL    HW115574   3.129   4.564   7.740  0.5539  0.1398 -1.3490
 4762SOL    HW215575   2.997   4.597   7.672 -1.2724 -0.3762  1.7426
 4763SOL     OW15576   6.236   4.093   7.736  0.5390  0.4957  0.0360
 4763SOL    HW115577   6.289   4.050   7.668  0.9035  0.7678  0.1419
 4763SOL    HW215578   6.253   4.186   7.724 -0.5042  0.6388 -0.3994
 4764SOL     OW15579   2.998   8.599   6.202  0.0815  0.4961 -0.6477
 4764SOL    HW115580   2.974   8.690   6.217 -1.4982 -0.2679  1.9995
 4764SOL    HW215581   2.923   8.562   6.155  0.6610  0.4755 -1.5967
 4765SOL     OW15582   5.985   4.216   2.216 -0.1541  0.3739 -0.5934
 4765SOL    HW115583   5.922   4.145   2.226 -0.6431  0.9472  0.6203
 4765SOL    HW215584   5.938   4.294   2.245  0.8970  0.9205 -0.3013
 4766SOL     OW15585   7.389   6.506   6.572  0.3961 -0.0788  0.1177
 4766SOL    HW115586   7.379   6.533   6.481  1.0349  0.2658  0.1419
 4766SOL    HW215587   7.303   6.519   6.611  0.0487 -0.4779 -0.4975
 4767SOL     OW15588   2.472   1.758   3.451  0.0303  0.0131 -0.0454
 4767SOL    HW115589   2.393   1.711   3.427  0.4817 -0.3720 -0.8003
 4767SOL    HW215590   2.495   1.723   3.538 -0.3362 -0.2505 -0.0532
 4768SOL     OW15591   3.167   3.987   4.150  0.6789  0.4655 -1.2198
 4768SOL    HW115592   3.117   4.068   4.147  0.2749  0.3532  0.6935
 4768SOL    HW215593   3.206   3.979   4.063  0.3601  2.4633 -1.6001
 4769SOL     OW15594   5.624   2.951   2.322 -0.4591  0.4254  0.3700
 4769SOL    HW115595   5.628   2.991   2.235  0.0942 -0.3423  0.0331
 4769SOL    HW215596   5.715   2.945   2.350 -0.6483  0.8368  1.0842
 4770SOL     OW15597   1.070   7.633   2.324 -0.0709 -0.3235  0.0512
 4770SOL    HW115598   1.156   7.593   2.329  0.0912 -0.0353 -0.3466
 4770SOL    HW215599   1.081   7.708   2.264 -0.7341 -0.6509 -0.5101
 4771SOL     OW15600   8.409   0.822   3.648  0.1075 -0.7847  0.7730
 4771SOL    HW115601   8.403   0.740   3.696 -0.6822 -1.2583 -0.1053
 4771SOL    HW215602   8.321   0.836   3.612  0.5025 -0.1105  0.0274
 4772SOL     OW15603   5.323   7.563   8.093 -0.8830 -0.1829 -0.3747
 4772SOL    HW115604   5.365   7.485   8.129 -1.9332 -0.0603  1.2473
 4772SOL    HW215605   5.230   7.540   8.087 -0.9793  0.4280 -1.3539
 4773SOL     OW15606   0.637   5.370   6.107 -0.0714 -0.4597  0.2133
 4773SOL    HW115607   0.590   5.419   6.039  2.8803  1.6216 -0.5067
 4773SOL    HW215608   0.598   5.401   6.189 -1.8266 -0.9643 -0.3836
 4774SOL     OW15609   4.206   2.758   1.847  0.3626 -0.2422  0.2359
 4774SOL    HW115610   4.119   2.780   1.813  0.0860 -1.0220  0.4127
 4774SOL    HW215611   4.239   2.690   1.788  1.0937  0.4441 -0.1629
 4775SOL     OW15612   6.261   8.130   3.571  0.7484 -0.2903 -0.4028
 4775SOL    HW115613   6.346   8.092   3.592  0.0535 -2.3302 -1.0548
 4775SOL    HW215614   6.252   8.118   3.476 -0.1463  0.1246 -0.3801
 4776SOL     OW15615   1.931   0.245   6.593 -0.0787  0.4540  0.2838
 4776SOL    HW115616   1.883   0.319   6.628 -1.2209  0.8133 -1.8596
 4776SOL    HW215617   2.020   0.279   6.578  0.4101  0.3197  2.5194
 4777SOL     OW15618   5.844   3.986   2.237 -0.5467 -0.0445 -0.0970
 4777SOL    HW115619   5.922   3.934   2.257  0.6639  1.3015 -1.0698
 4777SOL    HW215620   5.795   3.934   2.173  0.9234  0.2030 -1.4851
 4778SOL     OW15621   7.978   1.932   1.700  0.1550 -0.1190  0.2475
 4778SOL    HW115622   7.972   1.837   1.713  1.1191 -0.1357  0.6277
 4778SOL    HW215623   8.064   1.956   1.733  0.0495  0.8512 -0.1332
 4779SOL     OW15624   7.686   4.269   3.451  0.4439  0.7691  0.6337
 4779SOL    HW115625   7.666   4.351   3.497  0.7616 -0.5733  3.3922
 4779SOL    HW215626   7.781   4.271   3.439  0.3241  1.2648 -0.3371
 4780SOL     OW15627   6.212   8.664   1.978  0.0870 -0.0059 -0.5757
 4780SOL    HW115628   6.149   8.709   1.922 -1.2685  0.9940  1.6265
 4780SOL    HW215629   6.250   8.733   2.032  0.8463 -1.0018  0.2038
 4781SOL     OW15630   5.291   4.636   0.804  0.2121  0.0364  0.1313
 4781SOL    HW115631   5.356   4.583   0.757  1.0998 -0.5167  1.8655
 4781SOL    HW215632   5.221   4.650   0.741  1.4706 -0.3886 -1.4278
 4782SOL     OW15633   1.007   4.001   4.893  0.0565  0.3770 -0.3727
 4782SOL    HW115634   0.976   4.000   4.984  2.3562 -0.3729  0.4614
 4782SOL    HW215635   1.080   4.062   4.893  1.7706 -1.5590 -1.0625
 4783SOL     OW15636   8.564   8.209   6.095 -0.3441  0.8484 -0.0436
 4783SOL    HW115637   8.579   8.281   6.034 -1.2105  1.2297  0.1742
 4783SOL    HW215638   8.556   8.132   6.039 -1.1685  1.1972 -0.4316
 4784SOL     OW15639   1.639   5.680   7.599 -0.2547  0.4601  0.3117
 4784SOL    HW115640   1.704   5.638   7.655  1.2579  1.5244 -0.5755
 4784SOL    HW215641   1.679   5.763   7.573 -1.5527  0.7054 -1.0897
 4785SOL     OW15642   6.370   4.848   1.575  0.5125  0.1951 -0.1706
 4785SOL    HW115643   6.376   4.759   1.540 -0.7700  0.5182 -1.2913
 4785SOL    HW215644   6.390   4.839   1.668 -0.5133 -1.4262 -0.0738
 4786SOL     OW15645   0.732   1.989   0.819 -0.2602 -0.2604  0.3257
 4786SOL    HW115646   0.741   1.945   0.735  1.2340 -0.6009  0.6211
 4786SOL    HW215647   0.705   2.078   0.797  0.2350 -0.3109 -0.5391
 4787SOL     OW15648   2.733   1.257   5.819  0.0794 -0.2786  0.5251
 4787SOL    HW115649   2.781   1.340   5.810  0.4804 -0.5810 -0.3296
 4787SOL    HW215650   2.801   1.190   5.811 -0.6391 -0.8089 -3.0647
 4788SOL     OW15651   0.344   0.630   3.076  0.0426  0.3062  0.8950
 4788SOL    HW115652   0.287   0.553   3.069  0.3957  0.0275  1.0701
 4788SOL    HW215653   0.339   0.671   2.989 -0.1224  0.0693  0.7903
 4789SOL     OW15654   4.247   2.163   1.246 -0.0738  0.1919  0.1973
 4789SOL    HW115655   4.323   2.221   1.245  0.0347  0.0859  1.2936
 4789SOL    HW215656   4.174   2.220   1.223  0.3119  0.3026 -0.8318
 4790SOL     OW15657   8.475   3.346   5.809 -0.2839 -0.0311  0.2602
 4790SOL    HW115658   8.382   3.325   5.798 -0.3317  0.0722  0.4625
 4790SOL    HW215659   8.476   3.440   5.827 -0.1557 -0.0752  0.4817
 4791SOL     OW15660   3.912   1.009   4.232 -0.3307 -0.2851  0.1670
 4791SOL    HW115661   3.847   1.040   4.170 -0.5069  0.1391  0.5570
 4791SOL    HW215662   3.867   0.943   4.284  0.1934 -1.5979 -1.0019
 4792SOL     OW15663   1.974   1.641   0.022  0.4206  0.0636  0.3465
 4792SOL    HW115664   1.986   1.590  -0.059 -0.0405  0.1363  0.2280
 4792SOL    HW215665   1.905   1.704   0.000 -0.3374 -0.4962  1.0582
 4793SOL     OW15666   6.410   7.882   5.343  0.2281  0.3852 -0.5371
 4793SOL    HW115667   6.489   7.835   5.369 -0.5828 -1.0244 -0.5431
 4793SOL    HW215668   6.440   7.946   5.278  1.3536 -0.1738 -0.5773
 4794SOL     OW15669   2.074   2.567   3.879  0.4944 -0.1395  0.2559
 4794SOL    HW115670   2.159   2.547   3.840  0.6604  0.2100  0.4376
 4794SOL    HW215671   2.088   2.649   3.927  0.0071  0.0205  0.1300
 4795SOL     OW15672   4.996   0.524   5.916  0.0804 -0.0079 -0.6204
 4795SOL    HW115673   4.952   0.603   5.885 -0.6566  1.0163  2.6576
 4795SOL    HW215674   5.086   0.552   5.932  0.1776 -0.2235 -0.7880
 4796SOL     OW15675   8.435   0.834   0.164  0.1000 -0.3567 -0.3688
 4796SOL    HW115676   8.454   0.787   0.246 -0.5915 -1.0576 -0.5992
 4796SOL    HW215677   8.358   0.887   0.185  1.2539  1.2287  0.0853
 4797SOL     OW15678   3.244   6.696   3.315 -0.1857  0.0107  0.2533
 4797SOL    HW115679   3.237   6.607   3.279 -1.9539  0.2978 -0.2127
 4797SOL    HW215680   3.327   6.696   3.362 -0.5864 -2.2100  1.0988
 4798SOL     OW15681   7.708   6.620   6.350  0.1688  0.0795  0.2072
 4798SOL    HW115682   7.621   6.646   6.319 -0.4545 -0.9499  1.0301
 4798SOL    HW215683   7.730   6.544   6.297  0.1742 -0.2028  0.6139
 4799SOL     OW15684   6.432   2.246   1.198 -0.0477  0.3584 -0.4233
 4799SOL    HW115685   6.360   2.295   1.236  2.8197  2.8704  2.3723
 4799SOL    HW215686   6.450   2.176   1.262  0.4468  0.2222 -0.7023
 4800SOL     OW15687   1.698   8.113   6.119  0.8547  0.6520  0.2969
 4800SOL    HW115688   1.749   8.184   6.082  0.5872  1.1548  0.8597
 4800SOL    HW215689   1.634   8.091   6.051  1.1557  0.7193 -0.0088
 4801SOL     OW15690   6.853   0.703   5.876  1.0091  0.4245  0.2490
 4801SOL    HW115691   6.923   0.737   5.819  1.3049  1.1322  1.0089
 4801SOL    HW215692   6.836   0.615   5.842  1.4318  0.6842 -0.7000
 4802SOL     OW15693   7.366   1.363   2.681  0.4072 -0.6811 -0.1606
 4802SOL    HW115694   7.321   1.287   2.644 -0.4749 -0.4700  0.4471
 4802SOL    HW215695   7.296   1.425   2.701  1.0851  0.1455 -0.3022
 4803SOL     OW15696   0.934   0.165   7.553  0.0138 -0.1415 -0.0050
 4803SOL    HW115697   0.914   0.192   7.642  0.7195  0.3697  0.0087
 4803SOL    HW215698   0.960   0.246   7.508  2.5217 -0.7966  0.1385
 4804SOL     OW15699   7.742   5.066   5.698  0.5316 -0.0560 -0.1386
 4804SOL    HW115700   7.725   5.042   5.789  0.2207  0.5252 -0.0396
 4804SOL    HW215701   7.764   5.159   5.701 -0.7800  0.2934 -0.7969
 4805SOL     OW15702   5.496   6.598   1.114 -0.2191  0.0359 -0.0825
 4805SOL    HW115703   5.582   6.613   1.154  0.8817 -1.2114 -1.8198
 4805SOL    HW215704   5.482   6.504   1.123 -0.6986 -0.0039 -1.1274
 4806SOL     OW15705   0.491   8.208   2.586  0.4337 -0.6992 -0.3139
 4806SOL    HW115706   0.469   8.144   2.518  2.3820 -0.4525 -1.2382
 4806SOL    HW215707   0.449   8.289   2.558  1.1460 -0.6238 -1.1837
 4807SOL     OW15708   2.070   6.466   2.785 -0.4511  0.4562 -0.1399
 4807SOL    HW115709   2.111   6.540   2.741  0.1064 -0.1480 -0.6389
 4807SOL    HW215710   2.079   6.486   2.878 -0.0743  0.8863 -0.2648
 4808SOL     OW15711   5.022   7.401   7.051  0.2731  0.1287  0.2890
 4808SOL    HW115712   4.959   7.384   7.121  0.1043 -0.1187  0.0785
 4808SOL    HW215713   4.982   7.469   6.998 -0.2125 -0.6198 -0.3340
 4809SOL     OW15714   4.105   4.889   6.161  0.0269  0.2089  0.2138
 4809SOL    HW115715   4.148   4.910   6.243 -1.0566  1.7930  0.4362
 4809SOL    HW215716   4.175   4.883   6.097  1.1175 -3.0364  1.5308
 4810SOL     OW15717   4.979   8.712   0.214 -0.1744  0.7852  0.1123
 4810SOL    HW115718   5.060   8.670   0.186 -0.4631  0.0972  0.2944
 4810SOL    HW215719   5.007   8.796   0.250  0.3832  0.8640 -0.4845
 4811SOL     OW15720   2.401   4.326   7.616 -0.0178  0.5712  0.4054
 4811SOL    HW115721   2.484   4.360   7.583 -0.3410  2.0635  1.0483
 4811SOL    HW215722   2.342   4.331   7.540  0.3338  0.0137  0.0928
 4812SOL     OW15723   5.434   3.302   0.344 -0.3097  0.4830 -0.0135
 4812SOL    HW115724   5.401   3.383   0.306  0.5479  0.4166 -0.9490
 4812SOL    HW215725   5.527   3.301   0.323 -0.3784 -0.9260 -0.4010
 4813SOL     OW15726   5.973   3.652   7.668 -0.0630  0.1313  0.1456
 4813SOL    HW115727   6.042   3.620   7.610  1.5965  0.6395  1.7452
 4813SOL    HW215728   5.995   3.743   7.684 -0.7215  0.1190  1.2369
 4814SOL     OW15729   0.611   5.121   6.015 -0.2111 -0.0563  0.2791
 4814SOL    HW115730   0.643   5.202   6.053  0.5391 -0.1595 -0.1218
 4814SOL    HW215731   0.687   5.063   6.014  0.2807  0.4597 -2.8261
 4815SOL     OW15732   0.431   7.934   8.443  0.4065 -0.7427  0.1425
 4815SOL    HW115733   0.349   7.980   8.423 -0.1485 -1.9205 -0.3793
 4815SOL    HW215734   0.495   7.972   8.383 -0.0785 -0.7638 -0.3927
 4816SOL     OW15735   0.977   8.568   8.600  0.1882  0.2810  0.0076
 4816SOL    HW115736   0.893   8.588   8.560  0.3648 -0.1316 -0.5915
 4816SOL    HW215737   0.991   8.638   8.664 -2.2151 -1.4220  2.6646
 4817SOL     OW15738   7.789   4.800   5.990 -0.1399 -0.0866 -0.4259
 4817SOL    HW115739   7.754   4.717   5.959  1.8851 -0.9821 -0.4463
 4817SOL    HW215740   7.839   4.778   6.069  0.6079  1.0658 -0.5447
 4818SOL     OW15741   3.636   6.928   7.504  0.0739  0.2834 -0.0601
 4818SOL    HW115742   3.677   6.848   7.537 -0.3308 -0.6899 -1.8027
 4818SOL    HW215743   3.708   6.978   7.467  0.1852  0.2369  0.0915
 4819SOL     OW15744   3.971   4.882   4.905 -0.4917 -0.2626  0.0699
 4819SOL    HW115745   3.927   4.959   4.870  1.7054  1.9980  1.9466
 4819SOL    HW215746   3.900   4.822   4.928 -2.2275  0.5278 -2.7141
 4820SOL     OW15747   2.594   6.772   3.950 -0.2033  0.2696 -0.2741
 4820SOL    HW115748   2.675   6.734   3.917  0.3769  0.8511  0.4627
 4820SOL    HW215749   2.532   6.699   3.953  0.7279 -0.4882  0.5967
 4821SOL     OW15750   4.944   5.692   4.350  0.1073  0.3126 -0.1257
 4821SOL    HW115751   4.879   5.621   4.348  2.7468 -2.5075  2.4277
 4821SOL    HW215752   4.912   5.756   4.287 -2.9454 -2.7695 -2.0734
 4822SOL     OW15753   1.043   7.442   5.045  0.4181  0.1593 -0.2732
 4822SOL    HW115754   0.972   7.384   5.019 -0.2138  0.4099  0.8084
 4822SOL    HW215755   1.115   7.384   5.070 -0.1619 -0.1757  0.6712
 4823SOL     OW15756   5.309   0.333   6.764  0.2223  0.8306 -0.2243
 4823SOL    HW115757   5.325   0.422   6.733  0.6942  0.8030 -0.0613
 4823SOL    HW215758   5.224   0.309   6.725  0.6731  0.8914 -1.2843
 4824SOL     OW15759   5.708   0.744   3.516 -0.8932  0.1702  0.1808
 4824SOL    HW115760   5.744   0.828   3.486  1.3147 -0.1495  1.6494
 4824SOL    HW215761   5.667   0.765   3.600 -0.8442 -0.0948  0.2716
 4825SOL     OW15762   3.103   7.302   0.689  0.1875 -0.1115 -0.2990
 4825SOL    HW115763   3.120   7.224   0.637 -0.7900 -0.2506 -0.4316
 4825SOL    HW215764   3.008   7.314   0.683  0.4615  1.9572 -1.5592
 4826SOL     OW15765   3.588   6.344   7.628  0.6240  1.1681 -0.0755
 4826SOL    HW115766   3.600   6.429   7.668 -1.2421  0.9793  0.9915
 4826SOL    HW215767   3.493   6.334   7.620  0.7745 -0.9284  0.1177
 4827SOL     OW15768   6.590   0.719   7.156  0.0915 -0.3039  0.0918
 4827SOL    HW115769   6.623   0.720   7.067  1.4202 -1.6169  0.5185
 4827SOL    HW215770   6.639   0.788   7.201 -1.9094  1.6541 -0.5662
 4828SOL     OW15771   3.609   7.721   8.117 -0.1687 -0.8731  0.1419
 4828SOL    HW115772   3.682   7.690   8.064  1.2302  0.5276  1.1490
 4828SOL    HW215773   3.534   7.670   8.087  0.6831 -0.6108 -2.6618
 4829SOL     OW15774   3.954   1.676   3.180  0.5797 -0.1125 -0.2956
 4829SOL    HW115775   3.997   1.613   3.122  0.3637  0.8056 -1.4828
 4829SOL    HW215776   3.987   1.761   3.151 -1.7945  0.6121 -1.0841
 4830SOL     OW15777   1.363   7.173   7.409 -0.1037 -0.0171  0.9883
 4830SOL    HW115778   1.402   7.254   7.443  0.1896  0.0558  0.4878
 4830SOL    HW215779   1.434   7.131   7.360 -0.4305 -0.2762  0.7381
 4831SOL     OW15780   5.826   2.982   4.189  0.2822 -0.2113 -0.4562
 4831SOL    HW115781   5.774   3.004   4.112  1.8435  0.3751 -1.3951
 4831SOL    HW215782   5.879   2.907   4.162  0.6570 -0.1742  0.1451
 4832SOL     OW15783   7.509   2.413   2.241 -0.7658 -0.5296 -0.8249
 4832SOL    HW115784   7.580   2.470   2.209 -0.5369 -0.4943 -0.2568
 4832SOL    HW215785   7.527   2.403   2.334 -0.9474 -1.3293 -0.8717
 4833SOL     OW15786   4.836   0.205   2.668 -0.2167  0.0189 -0.4002
 4833SOL    HW115787   4.842   0.127   2.613  0.9648 -1.1262  1.2595
 4833SOL    HW215788   4.755   0.193   2.717  0.2032 -0.4266  0.1982
 4834SOL     OW15789   5.934   0.855   6.193  0.1664 -0.3663  0.4267
 4834SOL    HW115790   5.859   0.888   6.144 -0.3374 -0.5870  1.0402
 4834SOL    HW215791   5.898   0.786   6.249  0.8183 -0.4562  0.7433
 4835SOL     OW15792   5.656   1.800   5.641 -0.7257  0.2542  0.2980
 4835SOL    HW115793   5.613   1.719   5.669  0.5658 -0.6189 -0.1342
 4835SOL    HW215794   5.698   1.833   5.720  1.9400 -1.5928 -0.1721
 4836SOL     OW15795   4.618   1.689   0.351 -0.9029  0.0971 -0.4056
 4836SOL    HW115796   4.685   1.722   0.292  0.1853 -1.1974  0.0602
 4836SOL    HW215797   4.624   1.745   0.429  1.6982 -1.7267  0.8466
 4837SOL     OW15798   5.124   5.505   2.237 -0.2758 -0.6033  0.4036
 4837SOL    HW115799   5.035   5.471   2.228 -0.1398 -0.5382 -1.8465
 4837SOL    HW215800   5.179   5.442   2.190  0.6577  0.0894  0.5385
 4838SOL     OW15801   4.795   2.413   3.579  0.0620  0.0138 -0.3696
 4838SOL    HW115802   4.757   2.377   3.499  1.0276 -2.3471  0.1660
 4838SOL    HW215803   4.822   2.502   3.554 -2.3656  0.4366 -1.7719
 4839SOL     OW15804   2.118   1.024   6.517 -0.2641 -0.8326  0.2695
 4839SOL    HW115805   2.070   0.977   6.448  0.4174 -0.6501 -0.3391
 4839SOL    HW215806   2.072   1.001   6.598 -1.3749 -0.6758 -0.2908
 4840SOL     OW15807   8.465   1.770   0.735 -0.1180  0.0397 -0.2212
 4840SOL    HW115808   8.451   1.677   0.755 -2.0098  0.1195 -1.0271
 4840SOL    HW215809   8.432   1.781   0.646 -1.0941  1.7515  0.3107
 4841SOL     OW15810   6.970   4.892   5.351 -0.2874  0.0400  0.5330
 4841SOL    HW115811   6.878   4.916   5.339 -0.1103  1.1366  1.2191
 4841SOL    HW215812   6.972   4.845   5.434 -0.1143  0.8123  0.9809
 4842SOL     OW15813   4.513   4.934   2.195  0.3056 -0.1811 -0.1319
 4842SOL    HW115814   4.580   4.871   2.219  1.0495  1.2238  1.7481
 4842SOL    HW215815   4.562   5.015   2.179 -0.6565  0.0716 -2.0225
 4843SOL     OW15816   2.945   0.636   4.520 -0.1031 -0.0254 -0.1838
 4843SOL    HW115817   2.984   0.716   4.557  2.3344 -1.6469  1.0082
 4843SOL    HW215818   2.883   0.608   4.587 -0.1205  0.2467 -0.0815
 4844SOL     OW15819   4.154   3.755   6.656 -0.0461 -0.7694 -0.1166
 4844SOL    HW115820   4.083   3.804   6.616  1.4539  0.0786 -1.9019
 4844SOL    HW215821   4.172   3.683   6.596  0.4885 -1.0610  0.3764
 4845SOL     OW15822   4.581   3.271   0.019 -0.1471 -0.8738 -0.2248
 4845SOL    HW115823   4.572   3.268  -0.076  0.3566  0.9249 -0.3675
 4845SOL    HW215824   4.539   3.191   0.050 -0.8994 -1.1662 -1.9118
 4846SOL     OW15825   0.468   0.627   2.180 -0.0602 -0.2154  0.7763
 4846SOL    HW115826   0.482   0.714   2.216 -0.8807 -0.9410  3.0556
 4846SOL    HW215827   0.527   0.621   2.105 -1.5073  3.0254 -0.7986
 4847SOL     OW15828   1.457   8.094   3.835  0.3674  0.8240  1.1700
 4847SOL    HW115829   1.550   8.076   3.848  0.7443  0.3044 -1.7018
 4847SOL    HW215830   1.454   8.187   3.813  0.3752  0.5758  0.0814
 4848SOL     OW15831   6.729   7.929   7.951  0.5254 -0.3510 -0.0045
 4848SOL    HW115832   6.732   8.012   7.999  2.1176  0.2567 -1.0575
 4848SOL    HW215833   6.637   7.916   7.931  0.2287  1.0927  0.3232
 4849SOL     OW15834   3.580   3.242   1.832 -0.1482 -0.0918 -0.4849
 4849SOL    HW115835   3.544   3.326   1.802 -0.9526  0.0786  0.8663
 4849SOL    HW215836   3.566   3.243   1.926  4.6556  0.5944  0.4834
 4850SOL     OW15837   7.678   8.016   8.042 -0.2785  0.0792 -0.5071
 4850SOL    HW115838   7.763   7.981   8.068  0.0682  0.8966 -0.5116
 4850SOL    HW215839   7.653   8.074   8.114 -0.3634  0.6123 -0.9567
 4851SOL     OW15840   8.338   0.212   1.411  0.4646 -0.3568  0.5206
 4851SOL    HW115841   8.432   0.228   1.402  0.7417 -1.6886  0.7988
 4851SOL    HW215842   8.329   0.117   1.406 -1.0189 -0.1891 -0.7317
 4852SOL     OW15843   4.269   5.677   8.283 -0.2513  0.2153 -0.3754
 4852SOL    HW115844   4.187   5.718   8.310 -0.2811 -0.3746  0.4405
 4852SOL    HW215845   4.285   5.609   8.348  0.5683 -0.0857 -0.8771
 4853SOL     OW15846   6.666   6.702   6.480 -0.2554  0.4622 -0.2134
 4853SOL    HW115847   6.719   6.659   6.412 -1.4573  1.9366 -2.2097
 4853SOL    HW215848   6.596   6.639   6.498  0.0065  0.1015 -0.4257
 4854SOL     OW15849   8.659   6.194   1.900 -0.3397  0.0549 -0.1592
 4854SOL    HW115850   8.646   6.100   1.910  1.5321 -0.2723 -0.4128
 4854SOL    HW215851   8.608   6.218   1.822 -1.1784 -0.6474  0.1644
 4855SOL     OW15852   8.340   5.368   1.124  0.5473  0.2129 -0.5668
 4855SOL    HW115853   8.331   5.449   1.074  0.1425 -0.0424 -0.9164
 4855SOL    HW215854   8.421   5.328   1.091 -0.0010 -0.2245 -1.4330
 4856SOL     OW15855   4.122   2.922   4.362  0.5669 -0.3297  0.2954
 4856SOL    HW115856   4.154   2.832   4.365 -0.4053 -0.6680  1.0373
 4856SOL    HW215857   4.187   2.968   4.308  0.1643 -1.8298 -1.5876
 4857SOL     OW15858   8.697   3.262   5.965  0.1183 -0.5781 -0.0025
 4857SOL    HW115859   8.629   3.290   5.904 -0.7168 -1.9506  0.2740
 4857SOL    HW215860   8.699   3.331   6.031  1.1457  1.0146 -1.5910
 4858SOL     OW15861   1.194   6.873   5.444 -0.3091  0.2397 -0.0120
 4858SOL    HW115862   1.202   6.778   5.444 -0.0643  0.2181  1.7238
 4858SOL    HW215863   1.283   6.904   5.462 -0.4604  0.7773 -0.1911
 4859SOL     OW15864   5.560   2.592   0.806 -0.1282 -0.2562 -0.1007
 4859SOL    HW115865   5.576   2.527   0.874  0.1198  0.2220  0.3043
 4859SOL    HW215866   5.583   2.547   0.724  1.3140 -0.2631  0.2798
 4860SOL     OW15867   3.761   6.440   2.672  0.3272  0.3033 -0.4405
 4860SOL    HW115868   3.754   6.346   2.655 -1.7230  0.2589  0.3022
 4860SOL    HW215869   3.838   6.448   2.728 -0.5451 -1.2033  1.0674
 4861SOL     OW15870   5.396   3.445   3.606 -0.1671 -0.4478 -0.6660
 4861SOL    HW115871   5.488   3.453   3.580  0.5769 -0.7899  1.6926
 4861SOL    HW215872   5.359   3.532   3.590  0.7422 -0.1006 -0.9397
 4862SOL     OW15873   7.297   3.245   1.126  0.2466 -0.4388  0.4952
 4862SOL    HW115874   7.335   3.164   1.161  0.4990  0.0972  1.5158
 4862SOL    HW215875   7.253   3.218   1.046 -0.4297 -1.7516  1.2713
 4863SOL     OW15876   3.411   2.055   6.083 -0.1595  0.3168  0.0201
 4863SOL    HW115877   3.462   2.136   6.090  1.0635 -0.5526  2.1101
 4863SOL    HW215878   3.477   1.986   6.076 -1.1399 -0.6186 -0.1874
 4864SOL     OW15879   3.516   3.278   6.758 -0.3664  0.4242 -0.0415
 4864SOL    HW115880   3.500   3.283   6.852 -1.2443  2.2157 -0.2542
 4864SOL    HW215881   3.431   3.253   6.721 -0.2563  0.6423 -0.4424
 4865SOL     OW15882   2.059   1.735   3.124  0.5179 -0.3239 -0.4335
 4865SOL    HW115883   1.984   1.772   3.079  0.2465  0.0930  0.3389
 4865SOL    HW215884   2.126   1.726   3.057  0.2078  0.5246 -0.8640
 4866SOL     OW15885   5.305   0.023   4.539  0.0646  0.0970  0.1503
 4866SOL    HW115886   5.223  -0.021   4.513  1.6078 -2.9424  0.0233
 4866SOL    HW215887   5.333  -0.023   4.618  0.8682  2.2090  1.1664
 4867SOL     OW15888   2.551   3.941   4.970 -0.1497  0.2902 -0.3301
 4867SOL    HW115889   2.457   3.931   4.983  0.0994 -3.5142 -0.2387
 4867SOL    HW215890   2.564   3.926   4.876  0.5247 -2.2431  0.1021
 4868SOL     OW15891   8.401   6.314   7.323 -0.3162  0.0734 -0.0240
 4868SOL    HW115892   8.411   6.351   7.236  0.7499  0.5264  0.2799
 4868SOL    HW215893   8.407   6.219   7.310  0.1594  0.1538 -0.4020
 4869SOL     OW15894   3.994   7.942   5.984 -0.1951  0.1162 -0.1602
 4869SOL    HW115895   3.909   7.958   5.942 -0.0646  0.4616 -0.2993
 4869SOL    HW215896   4.012   7.849   5.966 -1.0732 -0.2635  0.8635
 4870SOL     OW15897   7.513   2.681   4.263 -0.4908 -0.1889 -0.2697
 4870SOL    HW115898   7.595   2.712   4.302  0.4644 -0.8364 -1.6678
 4870SOL    HW215899   7.449   2.749   4.284  1.3081  2.3980 -2.4461
 4871SOL     OW15900   5.053   2.367   7.080  0.3302  0.3688  0.4727
 4871SOL    HW115901   5.129   2.404   7.035  0.2790 -1.7867 -1.5708
 4871SOL    HW215902   4.981   2.375   7.017 -0.8721  1.2030  1.8840
 4872SOL     OW15903   7.056   2.482   4.508  0.8703 -0.0808 -0.4576
 4872SOL    HW115904   7.020   2.421   4.443  1.0899  0.4306 -1.0586
 4872SOL    HW215905   7.082   2.425   4.581 -1.2141 -0.4852  0.0664
 4873SOL     OW15906   8.449   5.604   7.229 -0.0161  0.0550  0.8455
 4873SOL    HW115907   8.512   5.539   7.260  1.5971  0.6615 -0.9831
 4873SOL    HW215908   8.395   5.622   7.306  2.3236 -0.1627  2.6910
 4874SOL     OW15909   6.339   3.056   2.202 -0.2191  0.7445 -0.2736
 4874SOL    HW115910   6.378   3.042   2.116 -2.6268  1.1318 -1.5217
 4874SOL    HW215911   6.380   3.137   2.234  1.1628  0.2540 -0.7379
 4875SOL     OW15912   2.736   8.573   1.577  0.0822 -0.4932 -0.1601
 4875SOL    HW115913   2.710   8.641   1.639 -1.1832 -1.8418  0.8530
 4875SOL    HW215914   2.830   8.589   1.563 -0.1328  1.3227  0.1839
 4876SOL     OW15915   5.745   0.465   5.090 -0.2701 -0.0134  0.5986
 4876SOL    HW115916   5.834   0.498   5.103  0.0023 -0.6194  0.3652
 4876SOL    HW215917   5.725   0.417   5.171 -0.1158 -0.4497  0.3815
 4877SOL     OW15918   1.292   0.773   6.170  0.6072  0.1291  0.2135
 4877SOL    HW115919   1.315   0.757   6.079  1.9223  0.5043  0.4569
 4877SOL    HW215920   1.367   0.738   6.220  0.3438  0.7732  1.0904
 4878SOL     OW15921   1.770   5.808   7.020  0.3841  0.3150 -0.0953
 4878SOL    HW115922   1.791   5.745   7.089  0.6592 -0.2637 -0.7009
 4878SOL    HW215923   1.822   5.886   7.042  0.4795  0.1331  0.3339
 4879SOL     OW15924   3.853   4.920   2.065 -0.3956  0.1304  0.6083
 4879SOL    HW115925   3.910   4.843   2.067  1.2052  1.1392 -1.6218
 4879SOL    HW215926   3.768   4.886   2.036  0.8906 -0.6176 -2.7659
 4880SOL     OW15927   4.570   0.266   2.487  0.2029  0.0456  0.1413
 4880SOL    HW115928   4.653   0.305   2.459 -0.3635  1.9183  0.8950
 4880SOL    HW215929   4.536   0.223   2.409  1.1620  0.5682 -0.5864
 4881SOL     OW15930   2.239   3.611   0.430 -0.3677  0.7969  0.3007
 4881SOL    HW115931   2.217   3.658   0.510 -0.3728  0.4829  0.4882
 4881SOL    HW215932   2.217   3.671   0.359 -0.3022  1.1024  0.5370
 4882SOL     OW15933   0.831   4.087   2.695 -0.0678  0.1920  0.2777
 4882SOL    HW115934   0.900   4.146   2.664  0.8939 -1.0324  0.0028
 4882SOL    HW215935   0.766   4.087   2.625 -0.1532  1.0241  0.3475
 4883SOL     OW15936   1.388   6.108   0.643 -0.1846 -0.1581 -0.3358
 4883SOL    HW115937   1.328   6.035   0.627 -0.9501  0.2728  0.5490
 4883SOL    HW215938   1.451   6.073   0.707  0.7420 -0.7179 -1.5096
 4884SOL     OW15939   0.506   7.710   1.651  0.0789  0.0309  0.2354
 4884SOL    HW115940   0.516   7.794   1.696 -0.9335  0.0243  0.4981
 4884SOL    HW215941   0.488   7.647   1.721  0.2433 -0.2954 -0.0143
 4885SOL     OW15942   0.441   2.279   6.138 -0.4343  0.2963 -0.2874
 4885SOL    HW115943   0.368   2.340   6.147  0.2975  0.9470  2.0463
 4885SOL    HW215944   0.437   2.225   6.217 -1.2121 -2.9926 -2.3567
 4886SOL     OW15945   6.233   5.174   5.652 -0.0503  0.7091  0.1859
 4886SOL    HW115946   6.237   5.196   5.745 -3.0078  0.0145  0.5952
 4886SOL    HW215947   6.240   5.258   5.607  0.9789  1.1012  1.0463
 4887SOL     OW15948   6.143   6.518   0.707 -0.0036 -0.1957  0.2767
 4887SOL    HW115949   6.200   6.485   0.638 -1.2162 -0.6513 -0.5387
 4887SOL    HW215950   6.056   6.521   0.667 -0.3550  1.6751  1.1008
 4888SOL     OW15951   3.932   8.204   1.152  0.5289 -0.2212  0.0441
 4888SOL    HW115952   4.007   8.252   1.188  1.2584 -0.8391 -0.6074
 4888SOL    HW215953   3.961   8.113   1.152 -0.8321 -0.6933  1.2610
 4889SOL     OW15954   2.296   0.028   8.226 -0.3406  0.0326 -0.1098
 4889SOL    HW115955   2.277   0.121   8.243 -0.5063 -0.3580  2.2522
 4889SOL    HW215956   2.212  -0.009   8.198 -0.8323  0.1984  1.0640
 4890SOL     OW15957   1.354   2.759   6.408 -0.0160  0.5205 -0.5752
 4890SOL    HW115958   1.337   2.777   6.315 -2.1780 -1.9145 -0.7869
 4890SOL    HW215959   1.274   2.788   6.452  1.4539  2.7274  0.7534
 4891SOL     OW15960   2.981   5.642   6.866 -0.2566 -0.3667 -0.2444
 4891SOL    HW115961   3.047   5.665   6.931  0.0527 -0.1107 -0.6451
 4891SOL    HW215962   3.019   5.570   6.816  1.5919  2.3320 -3.1959
 4892SOL     OW15963   1.184   0.970   4.059  0.1359  0.0429  0.0797
 4892SOL    HW115964   1.230   0.968   4.143  1.4949  1.9126 -0.5486
 4892SOL    HW215965   1.127   1.046   4.064  2.8689  2.4203 -1.8766
 4893SOL     OW15966   2.436   5.469   4.482  0.4964  0.2768 -0.2687
 4893SOL    HW115967   2.531   5.465   4.469  0.4395  1.0993 -1.0445
 4893SOL    HW215968   2.414   5.561   4.470 -0.2955  0.2349  0.7269
 4894SOL     OW15969   3.828   3.725   0.229 -0.2466  0.2381  0.7655
 4894SOL    HW115970   3.769   3.757   0.298  0.5471 -1.8799  2.5558
 4894SOL    HW215971   3.911   3.769   0.247 -0.6517  1.5643 -0.4264
 4895SOL     OW15972   2.034   2.628   2.927 -0.0969 -0.3434  0.1708
 4895SOL    HW115973   2.043   2.720   2.952 -2.5541  0.2714 -0.9679
 4895SOL    HW215974   2.003   2.585   3.006  0.1247 -0.0143  0.4431
 4896SOL     OW15975   6.813   3.333   6.154  0.5385 -0.1368 -0.1155
 4896SOL    HW115976   6.789   3.355   6.244  0.9552 -1.0305  0.2194
 4896SOL    HW215977   6.866   3.407   6.125  1.1017 -0.2319  0.6601
 4897SOL     OW15978   2.201   3.391   0.880  0.4807 -0.7809 -0.1994
 4897SOL    HW115979   2.158   3.472   0.856  1.1008 -0.2471  0.4531
 4897SOL    HW215980   2.155   3.360   0.958 -0.9910 -2.0804 -1.5017
 4898SOL     OW15981   5.858   0.383   8.357  0.2987 -0.1286 -0.1134
 4898SOL    HW115982   5.828   0.310   8.410  2.4048 -0.6022  0.5155
 4898SOL    HW215983   5.906   0.439   8.418  1.1081  0.3249 -1.1361
 4899SOL     OW15984   3.175   6.412   2.976 -0.7691  0.4944 -0.1627
 4899SOL    HW115985   3.254   6.361   2.960 -0.6594  0.4062  0.6062
 4899SOL    HW215986   3.184   6.490   2.921  1.1365  1.8202  1.8563
 4900SOL     OW15987   2.608   7.054   2.785 -0.0323  0.5851 -0.6444
 4900SOL    HW115988   2.634   7.140   2.818  3.5199  1.0563 -3.8798
 4900SOL    HW215989   2.627   6.994   2.857  0.3950  2.1813  0.6463
 4901SOL     OW15990   8.567   3.704   3.233 -0.0106  0.7727 -0.6187
 4901SOL    HW115991   8.637   3.672   3.175  0.9949  2.1821 -0.2168
 4901SOL    HW215992   8.491   3.712   3.175 -0.6096 -2.9837 -0.6323
 4902SOL     OW15993   4.325   1.234   7.714 -0.0035 -0.5457  0.1679
 4902SOL    HW115994   4.388   1.212   7.783 -1.5839 -1.1017  1.5206
 4902SOL    HW215995   4.335   1.329   7.702  0.5401 -0.4952  0.9392
 4903SOL     OW15996   0.115   1.297   2.394  0.2672 -0.4078  0.4882
 4903SOL    HW115997   0.190   1.248   2.427 -0.1978 -1.5338 -0.0537
 4903SOL    HW215998   0.078   1.241   2.326 -1.5278 -0.2599  1.2836
 4904SOL     OW15999   0.579   7.090   4.352 -0.3991 -0.3022 -0.1107
 4904SOL    HW116000   0.499   7.038   4.360  0.7861 -2.3603 -1.0229
 4904SOL    HW216001   0.581   7.142   4.432 -1.6698 -1.6329  0.8453
 4905SOL     OW16002   5.269   1.644   7.860  0.1086 -0.0234 -0.4608
 4905SOL    HW116003   5.260   1.560   7.814  0.1064 -0.8795  1.0231
 4905SOL    HW216004   5.185   1.688   7.846 -0.7759 -1.2784  0.5746
 4906SOL     OW16005   5.850   5.453   5.116 -0.0715 -0.1059 -0.0865
 4906SOL    HW116006   5.821   5.364   5.097 -1.7392  0.4597 -0.3710
 4906SOL    HW216007   5.802   5.477   5.195 -1.3742  1.2993 -1.2542
 4907SOL     OW16008   5.665   2.146   7.591  0.8019  0.7287  0.3984
 4907SOL    HW116009   5.628   2.231   7.565  0.0412  0.2041 -0.2888
 4907SOL    HW216010   5.606   2.082   7.551  0.9010 -0.1218  1.5938
 4908SOL     OW16011   2.123   6.191   2.875  0.5077  0.0366 -0.4714
 4908SOL    HW116012   2.130   6.280   2.839  0.9071  0.5593  0.8309
 4908SOL    HW216013   2.214   6.161   2.882  0.5369  0.4087  1.1486
 4909SOL     OW16014   5.199   6.945   0.189 -0.0457 -0.5094 -0.2745
 4909SOL    HW116015   5.226   6.987   0.271  0.2463 -0.6262 -0.3089
 4909SOL    HW216016   5.194   6.852   0.210  2.6875 -0.9257 -1.0327
 4910SOL     OW16017   3.232   6.011   0.276  0.1734 -0.4803 -0.2007
 4910SOL    HW116018   3.157   5.970   0.233  0.9673 -1.9803 -0.2363
 4910SOL    HW216019   3.204   6.023   0.367 -0.4639 -0.0789 -0.4483
 4911SOL     OW16020   7.879   7.418   2.373  0.8146 -0.0219 -0.4661
 4911SOL    HW116021   7.890   7.401   2.279 -1.4930 -0.5678 -0.7055
 4911SOL    HW216022   7.929   7.347   2.415  0.8153 -0.5385 -1.2972
 4912SOL     OW16023   1.250   2.926   1.972 -0.1137  0.7030  0.0754
 4912SOL    HW116024   1.274   2.995   1.910  0.4449 -0.1534 -0.6922
 4912SOL    HW216025   1.173   2.884   1.932 -0.4671  0.8922  0.5511
 4913SOL     OW16026   6.534   5.217   1.869  0.3516  0.4325  0.2071
 4913SOL    HW116027   6.585   5.228   1.789  1.5610 -0.3342  0.8281
 4913SOL    HW216028   6.527   5.122   1.880 -0.1462  0.5297  0.8027
 4914SOL     OW16029   2.311   6.988   3.339  0.3096  0.1851 -0.4584
 4914SOL    HW116030   2.351   6.984   3.252  0.3464 -0.9038 -0.4043
 4914SOL    HW216031   2.289   6.897   3.360 -1.7154  0.6697 -0.2554
 4915SOL     OW16032   8.005   7.745   6.741 -0.4323  0.4254  0.4879
 4915SOL    HW116033   8.049   7.785   6.666  0.2615 -1.9391 -0.4332
 4915SOL    HW216034   7.917   7.783   6.740  0.1997  1.9501 -0.2563
 4916SOL     OW16035   3.733   6.837   8.396  0.8824  0.2710  0.4397
 4916SOL    HW116036   3.789   6.914   8.407  0.1636  1.1508 -1.6624
 4916SOL    HW216037   3.749   6.785   8.475  0.1998  3.3111  2.7966
 4917SOL     OW16038   2.688   2.648   3.443  0.0326 -0.4347  0.1581
 4917SOL    HW116039   2.704   2.564   3.399  0.1082  0.8024 -2.2894
 4917SOL    HW216040   2.708   2.714   3.378  1.3970  1.6012  2.4786
 4918SOL     OW16041   1.526   0.490   6.594 -0.0811 -0.4562 -0.3586
 4918SOL    HW116042   1.579   0.503   6.673  1.6635  0.5660 -1.6291
 4918SOL    HW216043   1.480   0.574   6.583 -0.2836 -0.5795 -0.4492
 4919SOL     OW16044   5.112   2.319   8.110  0.5691  0.4947  0.2057
 4919SOL    HW116045   5.112   2.333   8.015 -1.8245  1.3376  0.2580
 4919SOL    HW216046   5.096   2.406   8.147  0.5600  0.0297  1.3333
 4920SOL     OW16047   4.449   6.766   3.925 -0.0150 -0.1969 -0.2633
 4920SOL    HW116048   4.355   6.769   3.942 -0.1172 -0.2699 -0.7923
 4920SOL    HW216049   4.486   6.836   3.980 -0.5908  0.9818 -1.3269
 4921SOL     OW16050   6.334   5.979   3.353  0.3120  0.5782 -0.1588
 4921SOL    HW116051   6.385   5.897   3.349 -1.1826 -0.3579 -1.2840
 4921SOL    HW216052   6.400   6.048   3.344  1.4972 -0.5454 -0.5046
 4922SOL     OW16053   6.076   5.991   3.996  0.5849  0.0597  0.0348
 4922SOL    HW116054   6.151   6.014   4.050  0.3096  0.7561  0.1301
 4922SOL    HW216055   6.008   6.055   4.020  0.3620  0.2029 -0.9184
 4923SOL     OW16056   1.543   7.322   2.592 -0.2248 -0.0866  0.3239
 4923SOL    HW116057   1.522   7.410   2.560 -0.2125 -0.3284 -0.3855
 4923SOL    HW216058   1.555   7.270   2.512 -1.5166 -1.0459  0.7051
 4924SOL     OW16059   7.931   2.237   1.173 -0.0851 -0.6782  0.1018
 4924SOL    HW116060   7.981   2.219   1.094  0.8675 -2.1889  1.0086
 4924SOL    HW216061   7.891   2.153   1.197 -0.8563 -0.1078  0.8941
 4925SOL     OW16062   1.601   0.151   2.615  0.6448 -0.0717 -0.3971
 4925SOL    HW116063   1.589   0.065   2.656 -0.9310  0.7428  1.0011
 4925SOL    HW216064   1.666   0.194   2.670  1.6645 -0.4654 -1.2813
 4926SOL     OW16065   6.636   0.183   4.725  0.0645 -0.0817 -0.0693
 4926SOL    HW116066   6.676   0.142   4.648 -0.3061  0.0689 -0.3446
 4926SOL    HW216067   6.710   0.205   4.782  0.3211 -0.4408 -0.2596
 4927SOL     OW16068   3.240   6.551   7.684  0.1890 -0.0644 -0.2758
 4927SOL    HW116069   3.183   6.597   7.745 -1.3497 -1.4688 -0.5793
 4927SOL    HW216070   3.261   6.616   7.617 -1.6892  0.3182 -0.5457
 4928SOL     OW16071   5.135   4.901   2.408 -0.4835 -0.6600  0.2122
 4928SOL    HW116072   5.059   4.914   2.351 -1.0525  0.4433  1.1968
 4928SOL    HW216073   5.139   4.979   2.462  0.7210 -1.1863  0.9267
 4929SOL     OW16074   4.237   2.450   7.319 -0.1796 -0.0246  0.4234
 4929SOL    HW116075   4.158   2.409   7.354  0.8116 -0.8933  1.7401
 4929SOL    HW216076   4.286   2.478   7.397  0.5992  0.9455 -0.3758
 4930SOL     OW16077   1.905   4.730   2.287 -0.1439  0.0573  0.7050
 4930SOL    HW116078   1.822   4.697   2.323  0.6334 -1.1755  1.4248
 4930SOL    HW216079   1.901   4.708   2.194 -1.2913  1.4505  0.3775
 4931SOL     OW16080   3.534   0.486   4.464 -0.0852  0.2194 -0.0517
 4931SOL    HW116081   3.500   0.442   4.387 -0.8999 -0.3329  0.6025
 4931SOL    HW216082   3.479   0.564   4.474  0.2195  0.4554 -0.2043
 4932SOL     OW16083   2.671   8.128   0.008  0.0727 -0.4058  0.1263
 4932SOL    HW116084   2.585   8.122  -0.034  0.1027  0.1764 -0.0368
 4932SOL    HW216085   2.725   8.065  -0.038 -0.3598 -1.0286  0.4630
 4933SOL     OW16086   2.508   5.424   6.264 -0.0315  0.2279  0.3636
 4933SOL    HW116087   2.602   5.434   6.248 -0.0458  0.3699  0.3742
 4933SOL    HW216088   2.487   5.490   6.329 -0.6742  2.0492 -1.5936
 4934SOL     OW16089   7.496   2.880   2.371  0.0507  0.5125 -0.2241
 4934SOL    HW116090   7.427   2.837   2.320 -0.0520  1.7150 -1.1209
 4934SOL    HW216091   7.577   2.837   2.342 -0.3000 -1.3766  1.3127
 4935SOL     OW16092   8.711   7.747   1.906  0.0131 -0.0387  0.4830
 4935SOL    HW116093   8.674   7.816   1.961  2.2423 -0.4235  2.6259
 4935SOL    HW216094   8.693   7.666   1.955  1.3765 -0.4727  0.3011
 4936SOL     OW16095   1.578   5.743   0.978 -0.9089  0.5854  0.2306
 4936SOL    HW116096   1.546   5.654   0.963 -1.2243  0.3938  1.8602
 4936SOL    HW216097   1.671   5.739   0.956 -0.4249 -0.7280  2.1972
 4937SOL     OW16098   2.555   8.363   3.922  0.2907  0.4333 -0.4584
 4937SOL    HW116099   2.559   8.452   3.957 -1.5646  1.1564 -1.9210
 4937SOL    HW216100   2.633   8.320   3.957  0.4084  2.1312  1.5913
 4938SOL     OW16101   0.130   3.230   3.532  0.3805 -0.0812 -0.0831
 4938SOL    HW116102   0.097   3.227   3.622 -0.9153 -1.2484 -0.5522
 4938SOL    HW216103   0.217   3.269   3.539  0.6488 -0.9107  1.7827
 4939SOL     OW16104   2.236   3.457   7.333 -0.2575  0.3279  0.3777
 4939SOL    HW116105   2.301   3.418   7.391  0.1366 -0.6035 -0.6602
 4939SOL    HW216106   2.287   3.504   7.267 -0.6595  0.2670  0.0166
 4940SOL     OW16107   7.778   3.449   3.506 -0.1998  0.2919  0.4565
 4940SOL    HW116108   7.832   3.441   3.428  0.1768  1.7242  0.5397
 4940SOL    HW216109   7.723   3.526   3.490 -1.2080 -0.2966  0.9759
 4941SOL     OW16110   1.535   4.920   2.354 -0.7279 -0.1015  0.1819
 4941SOL    HW116111   1.585   4.938   2.434  0.3381  1.6395 -0.8238
 4941SOL    HW216112   1.538   5.002   2.305 -1.4197 -1.1127 -1.6234
 4942SOL     OW16113   6.042   4.191   0.907 -0.0371  0.0633 -0.2394
 4942SOL    HW116114   6.057   4.114   0.962  0.2978 -0.0852 -0.5356
 4942SOL    HW216115   6.130   4.226   0.892 -0.1151  0.0286 -0.7902
 4943SOL     OW16116   4.630   0.897   7.822 -0.2825 -0.5278  0.3295
 4943SOL    HW116117   4.714   0.941   7.830 -0.7802  0.2042  2.0063
 4943SOL    HW216118   4.571   0.964   7.787 -0.2916 -0.8871 -0.3550
 4944SOL     OW16119   4.930   3.795   8.436 -0.0708 -0.1650  0.1017
 4944SOL    HW116120   4.899   3.840   8.358  0.2890 -1.2551 -0.7012
 4944SOL    HW216121   4.881   3.712   8.436  0.4393 -0.4698  0.6398
 4945SOL     OW16122   3.741   6.571   3.321 -0.5900 -0.8970 -0.3417
 4945SOL    HW116123   3.701   6.555   3.235 -0.3456  2.0857 -1.1238
 4945SOL    HW216124   3.832   6.591   3.302 -0.6432  0.2841  0.5318
 4946SOL     OW16125   2.530   7.180   7.372  0.0674 -0.3560 -0.3189
 4946SOL    HW116126   2.515   7.139   7.287 -0.0347  0.4096 -0.6790
 4946SOL    HW216127   2.442   7.208   7.400  0.2264  0.2650 -0.4227
 4947SOL     OW16128   0.994   0.386   0.003  0.1363  0.0266 -0.3499
 4947SOL    HW116129   1.088   0.400  -0.008  0.4057 -1.1307  0.2911
 4947SOL    HW216130   0.966   0.455   0.064  1.3832 -1.8833  2.6223
 4948SOL     OW16131   0.975   7.390   7.214 -0.5459  0.3115  0.1014
 4948SOL    HW116132   0.911   7.405   7.145  1.1241 -1.1736 -1.8961
 4948SOL    HW216133   0.998   7.298   7.206  0.3145  0.2964  2.1533
 4949SOL     OW16134   7.679   7.819   0.586 -0.2629 -0.2528  0.1986
 4949SOL    HW116135   7.764   7.854   0.561 -0.1574 -0.6701 -0.0462
 4949SOL    HW216136   7.685   7.725   0.565  1.0294 -1.4339  4.7143
 4950SOL     OW16137   3.793   1.823   3.373  0.7162  0.7457  0.3571
 4950SOL    HW116138   3.872   1.816   3.319  0.1313  0.2472 -0.4583
 4950SOL    HW216139   3.721   1.812   3.311 -0.0146  1.6206  1.0197
 4951SOL     OW16140   7.699   2.064   4.879  0.3171 -0.5016 -0.1299
 4951SOL    HW116141   7.715   2.099   4.966  0.8846 -1.5868  0.2272
 4951SOL    HW216142   7.606   2.082   4.863  1.0322  3.1239 -0.9393
 4952SOL     OW16143   4.203   7.017   4.100 -0.4986 -0.9067 -0.1276
 4952SOL    HW116144   4.207   6.967   4.018  0.0563 -3.6783  1.4891
 4952SOL    HW216145   4.109   7.026   4.117 -0.6086 -1.9160 -0.1551
 4953SOL     OW16146   0.455   6.204   1.161  0.1874 -0.4639 -0.1264
 4953SOL    HW116147   0.443   6.236   1.251 -0.6795  0.8514 -0.6871
 4953SOL    HW216148   0.539   6.158   1.164 -0.2495 -1.2415  1.5623
 4954SOL     OW16149   5.208   5.042   5.965 -0.0067 -0.3209  0.3617
 4954SOL    HW116150   5.192   5.049   5.871  0.2897 -2.3955  0.1098
 4954SOL    HW216151   5.125   5.069   6.005 -0.0871  0.7238 -0.4676
 4955SOL     OW16152   2.898   2.918   2.124 -0.1308 -0.1397  0.2092
 4955SOL    HW116153   2.849   2.838   2.107  0.1968 -0.1349 -0.7858
 4955SOL    HW216154   2.981   2.906   2.077  0.2381  0.4560  0.6879
 4956SOL     OW16155   1.583   1.573   1.648 -0.5380  0.7846  0.0579
 4956SOL    HW116156   1.620   1.656   1.618  0.3233  0.4362  0.1175
 4956SOL    HW216157   1.599   1.512   1.576 -1.7874  0.8205 -0.2707
 4957SOL     OW16158   0.816   4.068   6.760  0.4233  0.4997  0.0703
 4957SOL    HW116159   0.833   4.129   6.832 -2.0666  0.8288  0.4466
 4957SOL    HW216160   0.818   3.981   6.800  1.6116  0.4652 -0.0132
 4958SOL     OW16161   6.903   5.532   5.604 -0.6656  0.3843 -0.0026
 4958SOL    HW116162   6.959   5.454   5.600  0.3196  0.9102  2.0568
 4958SOL    HW216163   6.963   5.604   5.625 -1.9952  1.0711  1.6685
 4959SOL     OW16164   8.080   5.902   8.510  0.2735  0.5047  0.1780
 4959SOL    HW116165   8.044   5.947   8.587 -2.3451  0.0905 -0.7060
 4959SOL    HW216166   8.152   5.958   8.481  0.6256  1.2215  2.2920
 4960SOL     OW16167   0.715   2.796   6.468 -0.0248 -0.3578  0.5907
 4960SOL    HW116168   0.767   2.844   6.404 -1.5345  0.2065 -0.2641
 4960SOL    HW216169   0.760   2.712   6.477  1.4913  0.3996  0.5409
 4961SOL     OW16170   4.442   0.685   3.379 -0.4496 -0.5052 -0.7573
 4961SOL    HW116171   4.373   0.619   3.366 -1.2775 -0.1451  1.3900
 4961SOL    HW216172   4.402   0.751   3.436  1.1014  0.6791 -0.9717
 4962SOL     OW16173   2.990   0.255   3.794  0.3325 -0.1773  0.7098
 4962SOL    HW116174   2.945   0.337   3.810  0.5777  0.4238 -1.3377
 4962SOL    HW216175   3.055   0.276   3.727  0.6883 -1.9433  0.4492
 4963SOL     OW16176   1.923   8.144   3.435  0.3263 -0.4432  0.5115
 4963SOL    HW116177   1.901   8.052   3.453  0.7143 -0.3082  1.7524
 4963SOL    HW216178   1.919   8.186   3.520 -1.8844  1.1636 -0.2858
 4964SOL     OW16179   3.895   1.011   7.716 -0.2116  0.0287  0.1805
 4964SOL    HW116180   3.972   0.966   7.749  0.3832  1.1294  0.3682
 4964SOL    HW216181   3.832   0.942   7.697  0.6230 -0.8498  0.5423
 4965SOL     OW16182   1.244   4.891   0.911  0.6585 -0.1396  0.0735
 4965SOL    HW116183   1.331   4.913   0.877  0.6022 -0.4128 -0.2548
 4965SOL    HW216184   1.230   4.954   0.982  0.3901  1.0680 -1.0225
 4966SOL     OW16185   0.049   2.677   0.612  0.1608  0.0669  0.1677
 4966SOL    HW116186  -0.038   2.640   0.626 -0.1388  0.8184  0.3358
 4966SOL    HW216187   0.033   2.763   0.572  0.8687 -0.2708 -0.8725
 4967SOL     OW16188   6.524   6.431   4.174  0.1189  0.0682 -0.3353
 4967SOL    HW116189   6.535   6.509   4.119 -0.8673  1.2179  1.0379
 4967SOL    HW216190   6.568   6.453   4.256  1.7563 -1.7074 -0.6464
 4968SOL     OW16191   7.268   2.940   8.522 -0.0229 -0.4656  0.4607
 4968SOL    HW116192   7.361   2.917   8.525 -0.1159 -0.8168  0.6479
 4968SOL    HW216193   7.252   2.963   8.430 -0.4662 -3.4862 -0.3312
 4969SOL     OW16194   7.356   4.076   8.701  0.3085  0.0989  0.2908
 4969SOL    HW116195   7.337   3.983   8.697  1.0600 -0.0575  0.2624
 4969SOL    HW216196   7.284   4.113   8.753  0.0542 -0.5018  0.3716
 4970SOL     OW16197   6.348   0.310   7.402  0.3411 -0.4976  0.2121
 4970SOL    HW116198   6.254   0.320   7.385  0.6046 -1.2483 -2.2500
 4970SOL    HW216199   6.389   0.380   7.352  1.1056 -0.1497  1.3024
 4971SOL     OW16200   4.117   4.356   6.082  0.0893 -0.1702 -0.1072
 4971SOL    HW116201   4.198   4.401   6.105 -0.3270 -0.1602  1.4488
 4971SOL    HW216202   4.129   4.266   6.114 -0.8005  0.0408  0.8810
 4972SOL     OW16203   2.834   2.659   0.473  0.1799 -0.0977  0.0910
 4972SOL    HW116204   2.910   2.607   0.499  0.9693  0.7624 -0.4362
 4972SOL    HW216205   2.827   2.726   0.540  0.1219  0.0483 -0.0597
 4973SOL     OW16206   5.153   2.683   0.975  0.1497  0.7669 -0.2070
 4973SOL    HW116207   5.184   2.668   1.064  1.4014  0.7028 -0.6387
 4973SOL    HW216208   5.208   2.754   0.941 -1.9437  2.5175 -0.1267
 4974SOL     OW16209   7.349   8.411   1.549  0.1997 -0.6256 -0.3563
 4974SOL    HW116210   7.376   8.460   1.471  2.9260  2.2588  2.1325
 4974SOL    HW216211   7.255   8.399   1.538 -0.1536  2.7130 -2.5222
 4975SOL     OW16212   6.291   5.373   2.497 -0.8446 -0.0797  0.5510
 4975SOL    HW116213   6.269   5.432   2.425 -0.7608 -1.2172 -0.4200
 4975SOL    HW216214   6.263   5.287   2.468  1.3659 -0.9655  0.8469
 4976SOL     OW16215   3.188   3.921   8.705 -0.4661 -0.2213  0.1962
 4976SOL    HW116216   3.204   3.945   8.614 -2.6077 -3.5010 -1.2575
 4976SOL    HW216217   3.265   3.952   8.752  1.3674  0.4674 -2.9570
 4977SOL     OW16218   4.584   2.315   1.925 -0.0209 -0.2548 -0.0386
 4977SOL    HW116219   4.650   2.376   1.959 -0.4389 -0.4730  1.2247
 4977SOL    HW216220   4.501   2.358   1.944 -0.3023 -0.9817  0.4160
 4978SOL     OW16221   6.803   3.081   5.821  0.5709  0.0003  0.0020
 4978SOL    HW116222   6.814   3.172   5.791  1.9914  0.1249  0.8374
 4978SOL    HW216223   6.836   3.081   5.911  0.5096 -1.3305  0.0407
 4979SOL     OW16224   0.179   0.199   0.664  0.2868 -0.1736 -0.9998
 4979SOL    HW116225   0.140   0.191   0.577 -1.7654  2.2628 -0.4105
 4979SOL    HW216226   0.123   0.146   0.721  0.3206  0.0072 -0.7995
 4980SOL     OW16227   2.914   4.116   2.845 -0.2246 -0.0567  0.3151
 4980SOL    HW116228   2.821   4.105   2.864 -0.0542  0.7618  1.7557
 4980SOL    HW216229   2.927   4.070   2.762 -2.4190  1.9197 -1.2726
 4981SOL     OW16230   7.514   1.490   3.038 -0.2693 -0.1751  0.7705
 4981SOL    HW116231   7.518   1.395   3.026 -2.3528 -0.1380 -0.8051
 4981SOL    HW216232   7.591   1.523   2.993 -1.4352 -0.9501 -2.0184
 4982SOL     OW16233   3.487   4.942   0.512  0.0264 -0.5881  0.5143
 4982SOL    HW116234   3.443   4.893   0.443 -1.5945  1.1609  0.2051
 4982SOL    HW216235   3.539   5.008   0.466  0.9383 -0.9934  0.9409
 4983SOL     OW16236   1.704   3.820   7.044 -0.9466  0.4865  0.3465
 4983SOL    HW116237   1.670   3.880   6.978 -0.4045 -0.4317 -0.8049
 4983SOL    HW216238   1.658   3.844   7.125 -0.2344  2.8909  0.1002
 4984SOL     OW16239   5.193   8.036   4.821 -0.0444  0.2418  0.0496
 4984SOL    HW116240   5.280   8.049   4.858  0.7093  1.1464 -1.8546
 4984SOL    HW216241   5.133   8.071   4.886  1.0300 -0.0863  1.2560
 4985SOL     OW16242   3.284   0.716   2.482  0.0505 -0.0834  0.3251
 4985SOL    HW116243   3.237   0.764   2.414 -1.0916  0.9214  1.7491
 4985SOL    HW216244   3.252   0.626   2.474 -2.9223  0.7177  1.7835
 4986SOL     OW16245   4.416   8.590   1.282  0.4783 -0.4169  0.8843
 4986SOL    HW116246   4.491   8.579   1.225  0.1732  0.4106  0.2985
 4986SOL    HW216247   4.453   8.594   1.370  1.0843 -0.3314  0.6303
 4987SOL     OW16248   6.400   8.487   2.494 -0.8454  0.3267 -0.7591
 4987SOL    HW116249   6.339   8.490   2.567 -2.0210  1.0792 -1.7380
 4987SOL    HW216250   6.481   8.524   2.529 -0.4867 -1.8228  0.9099
 4988SOL     OW16251   0.499   3.898   7.573  0.0618  0.2275  0.8468
 4988SOL    HW116252   0.438   3.954   7.622 -0.6128  0.1211  0.1509
 4988SOL    HW216253   0.579   3.951   7.567 -0.4027  0.9262  0.6268
 4989SOL     OW16254   2.114   5.551   6.752  0.3187 -0.3608 -0.1643
 4989SOL    HW116255   2.101   5.620   6.817 -0.5993 -0.7246  0.0702
 4989SOL    HW216256   2.131   5.472   6.805 -1.2818 -0.8330 -0.2957
 4990SOL     OW16257   5.840   7.609   7.253 -0.4297  0.4681  0.4451
 4990SOL    HW116258   5.777   7.562   7.308 -0.0055 -0.1890  0.3769
 4990SOL    HW216259   5.894   7.658   7.315 -1.8722  2.1786  0.4420
 4991SOL     OW16260   3.321   6.322   4.045  0.1951  0.7705  0.3696
 4991SOL    HW116261   3.269   6.282   4.114 -0.3017 -0.4872 -0.6854
 4991SOL    HW216262   3.322   6.416   4.066 -2.0714  0.7733  0.7116
 4992SOL     OW16263   7.221   1.217   4.068  0.1021 -0.1385  0.4946
 4992SOL    HW116264   7.142   1.236   4.117  0.9011  0.9119  1.4460
 4992SOL    HW216265   7.207   1.259   3.982 -0.4763 -0.2014  0.5573
 4993SOL     OW16266   1.555   6.211   1.197 -0.7718 -0.0902  0.1030
 4993SOL    HW116267   1.556   6.302   1.167  0.0375  0.1090  0.7210
 4993SOL    HW216268   1.625   6.206   1.262 -2.0552 -0.6963  1.4718
 4994SOL     OW16269   5.594   6.207   3.795  0.2944 -0.1356  0.1152
 4994SOL    HW116270   5.657   6.275   3.822  0.0287  0.0685  0.2309
 4994SOL    HW216271   5.611   6.194   3.702 -1.4606  2.0640 -0.6038
 4995SOL     OW16272   6.367   2.029   4.068 -0.0989  0.3796  0.8577
 4995SOL    HW116273   6.376   1.978   3.988  0.6685  0.3513  0.9569
 4995SOL    HW216274   6.456   2.050   4.094 -0.2763 -0.4283  2.2210
 4996SOL     OW16275   5.796   2.647   2.467  0.2898  0.2607 -0.3509
 4996SOL    HW116276   5.729   2.593   2.510  0.3104 -0.1790 -0.8666
 4996SOL    HW216277   5.774   2.643   2.374  1.7510 -0.9261 -0.6861
 4997SOL     OW16278   1.259   0.011   6.634 -0.1370 -0.5880 -0.0590
 4997SOL    HW116279   1.328   0.061   6.678 -0.3498  2.1001 -2.5368
 4997SOL    HW216280   1.234   0.064   6.559 -3.2446 -2.6211 -0.6556
 4998SOL     OW16281   4.724   0.783   4.489  0.4602 -0.8435  0.3260
 4998SOL    HW116282   4.721   0.815   4.579  0.7978 -0.8189  0.3317
 4998SOL    HW216283   4.704   0.859   4.435 -0.1811 -0.9584  0.3961
 4999SOL     OW16284   3.372   6.949   0.496  0.6501 -0.4249  0.3773
 4999SOL    HW116285   3.448   6.972   0.550 -0.5460  1.4040  1.3818
 4999SOL    HW216286   3.361   7.023   0.437 -0.8485 -0.2149  0.8641
 5000SOL     OW16287   6.505   0.017   8.026 -0.2468  0.6297  0.1913
 5000SOL    HW116288   6.552  -0.005   8.107  0.3657 -1.9884 -0.7547
 5000SOL    HW216289   6.575   0.025   7.961 -0.8980 -0.3770 -0.6537
 5001SOL     OW16290   2.400   4.473   5.617 -0.0955 -0.3459 -0.2101
 5001SOL    HW116291   2.440   4.388   5.599  0.1676 -0.3743  0.4657
 5001SOL    HW216292   2.372   4.505   5.532  1.8970 -0.0376 -0.7963
 5002SOL     OW16293   4.858   7.552   7.630  0.0722  0.3982  0.3986
 5002SOL    HW116294   4.900   7.502   7.560 -0.1275  0.3075  0.3431
 5002SOL    HW216295   4.809   7.621   7.585  1.9281  1.8944  0.5455
 5003SOL     OW16296   4.835   7.197   5.690  0.1722 -0.4517  0.4141
 5003SOL    HW116297   4.827   7.285   5.727  0.5959 -0.2858  0.1229
 5003SOL    HW216298   4.912   7.202   5.634 -0.2104 -0.8110 -0.1603
 5004SOL     OW16299   0.311   1.550   6.046 -0.5182  0.3419  0.6245
 5004SOL    HW116300   0.298   1.643   6.066 -1.6542  0.4243 -0.3553
 5004SOL    HW216301   0.291   1.543   5.953  2.9742 -0.3163 -0.1852
 5005SOL     OW16302   0.688   5.572   5.720 -0.1536 -0.0227 -0.0752
 5005SOL    HW116303   0.634   5.634   5.670  0.5980  0.2461 -0.5710
 5005SOL    HW216304   0.649   5.487   5.701 -0.3968  0.1663 -0.4503
 5006SOL     OW16305   0.402   4.915   2.713 -0.4575  0.6949  0.1648
 5006SOL    HW116306   0.385   4.938   2.804 -0.4005 -1.1020  0.6827
 5006SOL    HW216307   0.471   4.975   2.685  1.2805 -0.2425  2.1143
 5007SOL     OW16308   4.279   7.244   0.224 -0.2488 -0.1419  0.5234
 5007SOL    HW116309   4.309   7.177   0.285 -1.3088 -0.3806  0.8072
 5007SOL    HW216310   4.358   7.273   0.179  0.0175 -3.2199 -1.2609
 5008SOL     OW16311   1.724   0.433   7.474  0.7290 -0.2593 -0.3406
 5008SOL    HW116312   1.707   0.500   7.408 -1.9992  0.9300  1.3701
 5008SOL    HW216313   1.700   0.350   7.431 -0.5883  0.4351 -1.0231
 5009SOL     OW16314   1.865   3.369   5.390  0.1000  0.0912  0.5641
 5009SOL    HW116315   1.909   3.292   5.427  0.4618  1.1903  2.5016
 5009SOL    HW216316   1.781   3.372   5.435  0.2490  1.0583  0.7811
 5010SOL     OW16317   1.963   0.624   2.893 -0.4106 -0.2536  0.0886
 5010SOL    HW116318   1.996   0.660   2.975  0.9126 -0.2087 -0.4324
 5010SOL    HW216319   1.945   0.701   2.839 -0.0445 -0.3111 -0.1167
 5011SOL     OW16320   3.197   8.676   5.562 -0.1411 -0.7099  0.6941
 5011SOL    HW116321   3.237   8.593   5.536  1.0297 -0.0578  0.2962
 5011SOL    HW216322   3.208   8.680   5.657  0.9710 -0.4648  0.5784
 5012SOL     OW16323   5.573   7.033   7.323  0.4805  0.4027 -0.3859
 5012SOL    HW116324   5.600   7.123   7.342 -0.6630  0.8840 -0.8986
 5012SOL    HW216325   5.487   7.043   7.282  0.7374 -0.8826 -1.2793
 5013SOL     OW16326   4.032   8.292   2.177 -0.2258 -0.1857  0.4896
 5013SOL    HW116327   4.114   8.251   2.151 -0.8135 -0.5924 -0.8130
 5013SOL    HW216328   3.972   8.219   2.193 -0.3922  0.1114  1.2659
 5014SOL     OW16329   8.011   5.793   0.246 -0.1480 -0.0420  0.1699
 5014SOL    HW116330   8.097   5.829   0.221 -0.1834 -1.4390 -2.2875
 5014SOL    HW216331   7.948   5.853   0.207 -0.2500 -0.3070 -0.0746
 5015SOL     OW16332   6.612   1.301   6.797 -0.0412  0.4942 -0.9200
 5015SOL    HW116333   6.629   1.227   6.855 -0.9859 -0.8546 -2.2791
 5015SOL    HW216334   6.600   1.376   6.856  3.2895  0.1601  0.4259
 5016SOL     OW16335   6.336   6.274   2.873 -1.2344 -0.4459  0.1220
 5016SOL    HW116336   6.272   6.211   2.908 -0.2545 -0.4845  1.9612
 5016SOL    HW216337   6.343   6.341   2.941 -0.2988  0.2555 -0.6398
 5017SOL     OW16338   3.957   6.859   3.661 -0.1393  0.4645  0.5955
 5017SOL    HW116339   3.896   6.896   3.597  0.1767 -1.1635 -0.7135
 5017SOL    HW216340   3.902   6.838   3.736 -0.8763  0.6307  0.1133
 5018SOL     OW16341   5.928   2.473   0.533  0.3027 -0.5540 -0.3978
 5018SOL    HW116342   5.895   2.560   0.555  0.3147  0.0073 -2.3995
 5018SOL    HW216343   6.023   2.485   0.522  0.5300 -1.1551  0.7421
 5019SOL     OW16344   4.648   4.135   8.038 -0.3627 -0.0350 -0.2909
 5019SOL    HW116345   4.623   4.214   7.991 -0.8537 -0.0858 -0.1148
 5019SOL    HW216346   4.572   4.113   8.092 -0.5681 -1.0973 -0.9729
 5020SOL     OW16347   2.178   8.542   0.735 -0.4889  0.2857  0.3664
 5020SOL    HW116348   2.249   8.606   0.739  0.3727 -0.4732 -1.5022
 5020SOL    HW216349   2.204   8.473   0.795  0.5405 -0.1168 -0.5042
 5021SOL     OW16350   0.608   7.141   6.788  0.1370 -0.2796 -0.3691
 5021SOL    HW116351   0.699   7.165   6.768 -0.4693  1.6095 -0.9911
 5021SOL    HW216352   0.558   7.168   6.711 -1.0906 -0.4679  0.3393
 5022SOL     OW16353   7.119   0.215   6.501 -0.4998  0.5454  0.0095
 5022SOL    HW116354   7.157   0.170   6.576  0.2699  1.7919  0.4072
 5022SOL    HW216355   7.194   0.236   6.445 -0.8502  1.2131 -0.2224
 5023SOL     OW16356   0.575   2.298   5.694 -0.0272 -1.0820 -0.1696
 5023SOL    HW116357   0.513   2.250   5.750  0.1354 -0.1050  0.8797
 5023SOL    HW216358   0.629   2.229   5.655  0.8159 -1.7723  2.0151
 5024SOL     OW16359   3.678   2.540   8.646 -0.0342  0.0506 -0.0642
 5024SOL    HW116360   3.595   2.521   8.603 -0.2885 -0.0146  0.4411
 5024SOL    HW216361   3.697   2.631   8.624 -0.5840  0.2762  0.3686
 5025SOL     OW16362   0.091   2.743   0.085 -0.0589  0.7401  0.5762
 5025SOL    HW116363   0.043   2.780   0.160 -0.4379  0.1870  0.6219
 5025SOL    HW216364   0.156   2.685   0.125 -0.5366  0.1212  0.4797
 5026SOL     OW16365   0.562   6.663   6.926 -0.0631 -0.1849 -0.2056
 5026SOL    HW116366   0.517   6.597   6.874  0.6782  0.8456 -2.2850
 5026SOL    HW216367   0.504   6.679   7.000 -2.4464 -0.0088 -1.9719
 5027SOL     OW16368   8.183   6.979   4.489  0.3043 -0.1449  0.3715
 5027SOL    HW116369   8.211   6.915   4.555  0.4821 -0.3624  0.0897
 5027SOL    HW216370   8.254   7.043   4.487  0.7792 -0.6732 -0.3126
 5028SOL     OW16371   3.311   1.504   1.029 -0.5161 -0.0204 -0.1549
 5028SOL    HW116372   3.383   1.443   1.010 -0.1173 -0.1347  1.5942
 5028SOL    HW216373   3.306   1.506   1.124 -1.7775  1.2493 -0.2232
 5029SOL     OW16374   1.017   7.363   8.016  0.2219 -0.3780  0.1983
 5029SOL    HW116375   1.065   7.281   8.009 -0.7798 -1.1655  1.8259
 5029SOL    HW216376   0.926   7.339   7.999  0.2210  0.9237 -1.9788
 5030SOL     OW16377   5.298   2.247   8.565 -0.3507  0.2305 -0.2050
 5030SOL    HW116378   5.204   2.242   8.546 -0.0601  0.7869 -2.0166
 5030SOL    HW216379   5.326   2.329   8.523  1.0992 -0.4047 -0.5268
 5031SOL     OW16380   2.540   0.261   2.454 -0.6393 -0.7518  0.0938
 5031SOL    HW116381   2.450   0.235   2.475 -0.4886 -2.1202 -0.8644
 5031SOL    HW216382   2.531   0.322   2.381 -0.7726 -1.2703 -0.3291
 5032SOL     OW16383   0.638   6.834   2.040  0.5936  0.4100 -0.2383
 5032SOL    HW116384   0.646   6.827   1.945  1.2544 -2.9027 -0.0554
 5032SOL    HW216385   0.729   6.829   2.072  0.3219  0.7767  0.6293
 5033SOL     OW16386   3.344   8.437   5.495 -0.3184  0.2277 -0.0259
 5033SOL    HW116387   3.333   8.343   5.508  0.1496  0.2392  0.4709
 5033SOL    HW216388   3.437   8.448   5.475  0.3236  0.8717  2.8466
 5034SOL     OW16389   0.478   8.432   2.003  0.4374 -0.0199 -0.2866
 5034SOL    HW116390   0.386   8.411   1.989  0.1201  2.0061 -1.5236
 5034SOL    HW216391   0.498   8.397   2.090 -1.2879 -1.1026 -0.2942
 5035SOL     OW16392   0.766   6.618   1.865 -0.2895 -0.6081  0.1303
 5035SOL    HW116393   0.814   6.571   1.933 -0.2743 -0.8749 -0.0649
 5035SOL    HW216394   0.681   6.574   1.861 -0.7898  0.2293  0.8903
 5036SOL     OW16395   7.123   1.097   8.101 -0.1479  0.1034  0.3191
 5036SOL    HW116396   7.126   1.003   8.087  0.4267  0.3942 -1.9092
 5036SOL    HW216397   7.030   1.120   8.098 -0.3586 -0.4763  1.7734
 5037SOL     OW16398   8.603   6.564   7.002  0.1084 -0.1602 -0.2244
 5037SOL    HW116399   8.541   6.493   6.983 -0.7682  0.7094 -0.6928
 5037SOL    HW216400   8.642   6.540   7.086 -0.0137 -1.3048 -0.4801
 5038SOL     OW16401   2.825   6.938   2.532 -0.0603  0.1066 -0.2811
 5038SOL    HW116402   2.796   7.029   2.524  3.3233  1.3539  0.2403
 5038SOL    HW216403   2.902   6.941   2.589  0.3594 -3.0656 -0.4722
 5039SOL     OW16404   5.280   4.464   7.212  0.1666  0.1850  0.0668
 5039SOL    HW116405   5.370   4.460   7.180  0.9281  0.3534  2.0472
 5039SOL    HW216406   5.240   4.382   7.184  1.4553 -0.6501  0.5891
 5040SOL     OW16407   8.027   4.987   4.265 -0.7525 -0.8839 -0.2635
 5040SOL    HW116408   7.936   5.007   4.284 -0.7372 -1.9830  1.1097
 5040SOL    HW216409   8.030   4.892   4.257 -0.3254 -0.7260 -3.8096
 5041SOL     OW16410   8.375   5.502   4.722 -0.3467  0.5850  0.0342
 5041SOL    HW116411   8.436   5.575   4.734  1.0349 -0.3946 -0.7807
 5041SOL    HW216412   8.305   5.538   4.668 -0.7797  1.8539  1.3526
 5042SOL     OW16413   8.325   6.352   1.554  0.0793 -0.0667 -0.0253
 5042SOL    HW116414   8.350   6.261   1.567  1.1550 -0.0587 -1.7624
 5042SOL    HW216415   8.288   6.379   1.638  1.6651 -1.4846  1.2017
 5043SOL     OW16416   6.908   5.354   2.426  0.1176 -0.3246  0.2299
 5043SOL    HW116417   6.937   5.440   2.397  0.0934 -0.3452  0.1447
 5043SOL    HW216418   6.963   5.292   2.378  0.4877 -0.3483  0.6682
 5044SOL     OW16419   4.939   2.670   8.475 -0.0283 -0.0795 -0.0936
 5044SOL    HW116420   4.902   2.758   8.482  1.5852  0.6955 -0.9440
 5044SOL    HW216421   5.032   2.684   8.458 -0.0771 -1.9149 -2.3393
 5045SOL     OW16422   5.254   2.062   7.984 -0.6482  0.3341 -0.2350
 5045SOL    HW116423   5.319   2.132   7.994 -1.0983  0.8062 -0.5200
 5045SOL    HW216424   5.219   2.050   8.072  0.8706 -0.9880  0.2370
 5046SOL     OW16425   7.558   6.338   5.783  0.1935 -0.0393  0.1792
 5046SOL    HW116426   7.516   6.423   5.797  3.8710  2.3247 -1.4906
 5046SOL    HW216427   7.502   6.295   5.718 -0.9225  1.8195 -0.1924
 5047SOL     OW16428   4.968   6.192   8.346  0.9684 -0.2204  0.2167
 5047SOL    HW116429   4.971   6.242   8.428  0.4220  1.6146 -0.8409
 5047SOL    HW216430   5.036   6.230   8.291  1.2239 -1.3340 -0.2653
 5048SOL     OW16431   4.498   7.237   0.713 -0.1424  0.2900  0.7868
 5048SOL    HW116432   4.490   7.146   0.683 -2.5830  0.5627  0.4043
 5048SOL    HW216433   4.560   7.276   0.652  0.7448 -1.0356  0.7936
 5049SOL     OW16434   0.573   8.153   7.865 -0.5309 -0.1034 -0.1680
 5049SOL    HW116435   0.649   8.198   7.827 -0.1888  0.6061  1.3098
 5049SOL    HW216436   0.611   8.078   7.912 -0.8961 -0.5793 -0.6120
 5050SOL     OW16437   6.982   6.507   2.794  0.1249  0.0071 -0.4019
 5050SOL    HW116438   6.934   6.491   2.713 -0.4584 -2.2900  0.3036
 5050SOL    HW216439   7.069   6.470   2.778  0.7487  1.5437 -0.6945
 5051SOL     OW16440   0.631   3.039   4.158 -0.4261 -0.0675  0.0922
 5051SOL    HW116441   0.608   3.122   4.116  0.5314  0.1075 -0.1104
 5051SOL    HW216442   0.613   2.973   4.092  1.6321  0.2562 -0.8776
 5052SOL     OW16443   0.489   2.209   4.401  0.2001  0.2671 -0.6240
 5052SOL    HW116444   0.406   2.233   4.358  0.0144  3.2193  1.0622
 5052SOL    HW216445   0.466   2.135   4.457 -0.2439 -1.6523 -3.1427
 5053SOL     OW16446   2.512   3.485   6.260 -0.3862 -0.7538  0.4577
 5053SOL    HW116447   2.557   3.565   6.286 -0.0052 -0.6531 -0.4410
 5053SOL    HW216448   2.526   3.425   6.333 -0.1016 -0.2179  0.8530
 5054SOL     OW16449   5.471   2.130   6.903  0.2721 -0.5351 -0.3082
 5054SOL    HW116450   5.514   2.215   6.909  0.4807 -0.5888 -0.9474
 5054SOL    HW216451   5.496   2.096   6.816  0.1328 -1.2116 -0.0936
 5055SOL     OW16452   1.771   6.338   8.091  0.4064 -0.0314  0.3844
 5055SOL    HW116453   1.699   6.399   8.079  0.1158 -0.4483 -0.0254
 5055SOL    HW216454   1.729   6.253   8.104  0.8324 -0.3493 -0.3005
 5056SOL     OW16455   0.765   0.689   5.029 -0.5365 -0.5064  0.4521
 5056SOL    HW116456   0.828   0.705   5.098 -0.4603  0.6575  0.1333
 5056SOL    HW216457   0.805   0.621   4.975 -0.1686 -0.7337  1.0098
 5057SOL     OW16458   8.011   0.943   6.071  0.0780 -0.3224  0.3819
 5057SOL    HW116459   8.073   1.002   6.028  1.7551 -2.4234 -0.2775
 5057SOL    HW216460   8.047   0.930   6.159  0.7887 -1.8082 -0.1120
 5058SOL     OW16461   7.797   3.639   8.524  0.1918  0.3947 -0.2390
 5058SOL    HW116462   7.751   3.622   8.607 -0.6457  1.4822 -0.4516
 5058SOL    HW216463   7.737   3.606   8.457  0.4416  0.3726 -0.4508
 5059SOL     OW16464   2.036   1.160   1.973  0.5241 -0.4956  0.2887
 5059SOL    HW116465   2.098   1.232   1.964 -0.4428  0.3508  0.0967
 5059SOL    HW216466   2.030   1.145   2.067 -1.2474  1.5522  0.6071
 5060SOL     OW16467   0.765   8.699   8.505 -0.4395  0.3687  0.7952
 5060SOL    HW116468   0.744   8.783   8.546  0.9359  0.6120  1.0377
 5060SOL    HW216469   0.679   8.662   8.482 -1.0310  2.5228 -0.7283
 5061SOL     OW16470   1.472   0.770   5.624  0.1464 -0.2437  0.1913
 5061SOL    HW116471   1.454   0.691   5.573 -0.2025 -0.4389  0.6080
 5061SOL    HW216472   1.485   0.738   5.714 -1.7696  0.3262  0.7202
 5062SOL     OW16473   5.183   8.313   7.374  0.0911 -0.2972 -0.3335
 5062SOL    HW116474   5.191   8.221   7.400  1.0456  0.1554  1.0821
 5062SOL    HW216475   5.223   8.317   7.288  0.6222 -1.0928 -0.1366
 5063SOL     OW16476   0.048   0.993   8.368 -0.1256  0.5425 -0.1748
 5063SOL    HW116477  -0.022   1.014   8.430 -0.3514  0.5812 -0.4385
 5063SOL    HW216478   0.068   0.901   8.386  0.1871  0.7009  0.3181
 5064SOL     OW16479   2.363   3.077   7.612 -0.3086 -0.1102 -0.0925
 5064SOL    HW116480   2.416   3.075   7.532  0.1431 -1.1699  0.2178
 5064SOL    HW216481   2.400   3.148   7.664  1.1161 -1.1137  0.3094
 5065SOL     OW16482   8.229   6.430   7.788 -0.0362  0.3906 -0.0360
 5065SOL    HW116483   8.199   6.410   7.699  0.5161 -0.5237 -0.0369
 5065SOL    HW216484   8.324   6.417   7.784 -0.0805 -0.2976  0.8279
 5066SOL     OW16485   5.998   6.598   8.348  0.2281  0.1775  0.4841
 5066SOL    HW116486   5.976   6.589   8.255  1.1892  1.5148  0.0813
 5066SOL    HW216487   6.039   6.515   8.372  2.0715  0.5984 -0.9531
 5067SOL     OW16488   6.548   2.295   2.816 -0.5158  0.3263 -0.0077
 5067SOL    HW116489   6.637   2.281   2.783 -0.4219 -0.8860  0.6896
 5067SOL    HW216490   6.559   2.306   2.911 -1.2457 -1.8248  0.3819
 5068SOL     OW16491   3.788   0.870   3.140 -0.1235 -0.3375  0.8445
 5068SOL    HW116492   3.768   0.796   3.198 -0.2796 -0.0142  1.2029
 5068SOL    HW216493   3.873   0.901   3.169  0.9558 -1.6914 -0.6596
 5069SOL     OW16494   5.793   1.524   8.515  0.6869 -0.0585 -0.2699
 5069SOL    HW116495   5.754   1.451   8.563 -2.5216  0.3672 -1.9922
 5069SOL    HW216496   5.804   1.593   8.581 -1.0368 -0.4114  0.4431
 5070SOL     OW16497   8.527   2.811   2.745  0.5830 -0.1992 -0.1169
 5070SOL    HW116498   8.606   2.768   2.778 -0.4031 -0.9214  1.4402
 5070SOL    HW216499   8.494   2.752   2.677  1.5657  0.3043 -1.0592
 5071SOL     OW16500   7.731   2.084   1.442  0.0045  0.1848  0.1073
 5071SOL    HW116501   7.731   2.009   1.383  0.8752 -0.2633  0.6481
 5071SOL    HW216502   7.736   2.046   1.530 -0.8476  0.8457  0.4555
 5072SOL     OW16503   0.903   4.903   5.251  0.2964  0.3608 -0.8271
 5072SOL    HW116504   0.853   4.848   5.312  0.8017  0.5468 -0.2354
 5072SOL    HW216505   0.946   4.841   5.192  2.3875 -0.0332  0.9948
 5073SOL     OW16506   0.094   4.366   7.163 -0.0082  0.0447  0.3702
 5073SOL    HW116507   0.085   4.461   7.168  1.8125  0.3127 -0.5405
 5073SOL    HW216508   0.013   4.332   7.200 -0.3785  1.9370  1.4101
 5074SOL     OW16509   1.446   6.027   7.131 -0.0626  0.2763  0.2568
 5074SOL    HW116510   1.375   5.967   7.153 -0.8500  0.7514 -0.9362
 5074SOL    HW216511   1.497   6.034   7.212 -1.1888 -0.3015  1.0414
 5075SOL     OW16512   5.092   4.436   5.104 -0.8977  0.2346  0.0571
 5075SOL    HW116513   5.031   4.367   5.129 -1.4664  0.3055 -1.0628
 5075SOL    HW216514   5.093   4.434   5.008  0.7016  0.3869  0.0479
 5076SOL     OW16515   2.683   5.467   7.961  0.6098  0.0486  0.0627
 5076SOL    HW116516   2.682   5.499   7.871  0.6805  1.8305  0.6682
 5076SOL    HW216517   2.753   5.516   8.003  0.2667 -0.4201  1.2140
 5077SOL     OW16518   8.633   3.327   5.483  0.5466  0.2037  0.0389
 5077SOL    HW116519   8.713   3.277   5.464  0.3453  0.0545 -0.4340
 5077SOL    HW216520   8.574   3.305   5.411  0.2769  0.7387  0.0926
 5078SOL     OW16521   8.548   1.061   3.536  1.0072  0.2826 -0.2011
 5078SOL    HW116522   8.503   0.987   3.578 -1.2441  1.2662 -0.7100
 5078SOL    HW216523   8.573   1.118   3.609 -2.4118  1.7205  0.0524
 5079SOL     OW16524   1.553   1.887   1.923  0.1601  0.0894 -0.4667
 5079SOL    HW116525   1.464   1.920   1.936 -0.6207 -0.8935 -2.8493
 5079SOL    HW216526   1.591   1.946   1.858  0.2135 -1.1566 -1.6114
 5080SOL     OW16527   1.812   8.663   7.874 -0.3240  0.4537 -0.2476
 5080SOL    HW116528   1.814   8.585   7.929  0.6471  0.8587  0.3273
 5080SOL    HW216529   1.904   8.679   7.851 -0.6493  0.6159 -1.5366
 5081SOL     OW16530   0.877   6.684   4.759 -0.1983 -0.0955 -0.6619
 5081SOL    HW116531   0.792   6.719   4.786 -0.0204 -0.5068  0.4996
 5081SOL    HW216532   0.914   6.751   4.703 -1.9210 -0.5515 -2.4642
 5082SOL     OW16533   2.195   1.917   2.666  0.3052  0.4262 -0.0866
 5082SOL    HW116534   2.167   2.008   2.678 -0.3226  0.1144  0.9244
 5082SOL    HW216535   2.121   1.875   2.622  0.2502  0.2080  0.2141
 5083SOL     OW16536   3.583   8.592   4.772 -0.2178  0.7209  0.2579
 5083SOL    HW116537   3.513   8.537   4.807  0.4086  0.6377  1.4416
 5083SOL    HW216538   3.663   8.541   4.785  0.2896  1.5910  0.7104
 5084SOL     OW16539   4.901   0.023   3.658 -0.3943  0.3085 -0.1932
 5084SOL    HW116540   4.937   0.084   3.593 -0.3839  0.2420 -0.2500
 5084SOL    HW216541   4.964   0.025   3.730  0.2080 -0.5105 -0.6840
 5085SOL     OW16542   2.809   4.360   6.172 -0.2178 -0.2041  0.4519
 5085SOL    HW116543   2.779   4.372   6.262  1.2826 -2.6559  1.3797
 5085SOL    HW216544   2.899   4.395   6.173 -0.0069 -0.7296  0.0618
 5086SOL     OW16545   2.843   6.734   1.284 -0.3310 -0.3266  0.2308
 5086SOL    HW116546   2.751   6.711   1.295 -0.1957 -0.6821  0.6169
 5086SOL    HW216547   2.844   6.795   1.209 -0.7708 -1.0209 -0.3471
 5087SOL     OW16548   1.669   8.706   0.229  0.4727  0.1337 -0.1867
 5087SOL    HW116549   1.670   8.795   0.193  0.8518 -0.0687 -0.6891
 5087SOL    HW216550   1.610   8.711   0.304 -0.0138  0.6581 -0.6009
 5088SOL     OW16551   4.039   6.274   7.026 -0.2566  0.3771  0.2849
 5088SOL    HW116552   3.980   6.303   7.095  0.4867  1.1031  0.6298
 5088SOL    HW216553   4.122   6.317   7.045 -0.4731  1.9815 -2.0169
 5089SOL     OW16554   3.586   1.175   0.350 -0.8179 -0.4041 -0.7819
 5089SOL    HW116555   3.533   1.248   0.382  0.3957 -0.1888  0.8772
 5089SOL    HW216556   3.670   1.214   0.328 -0.8446 -0.9748 -1.9429
 5090SOL     OW16557   7.327   2.134   7.797 -0.3321 -0.2679 -0.0126
 5090SOL    HW116558   7.394   2.145   7.730 -1.2749 -1.4025 -1.1995
 5090SOL    HW216559   7.293   2.222   7.812  1.1402  0.2703  0.3466
 5091SOL     OW16560   5.998   6.379   4.563  0.0440 -0.3586  0.0330
 5091SOL    HW116561   6.038   6.460   4.530 -1.1104 -0.2139 -1.0806
 5091SOL    HW216562   6.035   6.369   4.651  0.5502  1.1415  0.0285
 5092SOL     OW16563   3.566   6.456   0.422  0.4334  0.5249 -0.3341
 5092SOL    HW116564   3.644   6.429   0.471  0.1596  0.8937  0.3238
 5092SOL    HW216565   3.554   6.548   0.447 -0.8909  0.1442  0.5004
 5093SOL     OW16566   8.401   3.260   3.005 -0.1698  0.1426  0.1944
 5093SOL    HW116567   8.441   3.273   2.919 -0.4905  0.7559  0.1348
 5093SOL    HW216568   8.354   3.177   2.997 -1.4737  0.9367 -0.7168
 5094SOL     OW16569   2.321   2.793   6.060  0.3416 -0.3981  0.5490
 5094SOL    HW116570   2.365   2.735   6.122 -0.4329 -0.5994  0.9335
 5094SOL    HW216571   2.307   2.739   5.983 -0.9748 -0.9658  1.1480
 5095SOL     OW16572   2.864   6.212   2.957 -0.3509 -0.0227 -0.6459
 5095SOL    HW116573   2.871   6.118   2.942 -0.6914 -0.1252 -0.1852
 5095SOL    HW216574   2.912   6.227   3.039 -0.1833  0.2269 -0.7871
 5096SOL     OW16575   2.014   5.145   1.761 -0.2247 -0.2041  0.2499
 5096SOL    HW116576   2.023   5.139   1.856 -0.2859 -1.4745  0.1927
 5096SOL    HW216577   1.923   5.118   1.745 -0.3370  0.4013 -0.1372
 5097SOL     OW16578   2.568   1.768   5.881  0.4690  0.3994 -0.2189
 5097SOL    HW116579   2.579   1.814   5.965 -3.5442  0.5670  0.4109
 5097SOL    HW216580   2.602   1.680   5.898 -2.1873 -0.3040  2.5249
 5098SOL     OW16581   6.004   2.897   8.237  0.0114  0.4346  0.0554
 5098SOL    HW116582   5.982   2.804   8.246  0.6583  0.0889 -1.5978
 5098SOL    HW216583   6.100   2.897   8.229  0.5278  1.6245  4.0532
 5099SOL     OW16584   3.561   4.504   3.959 -0.6092  1.0362 -0.0378
 5099SOL    HW116585   3.493   4.553   4.005 -0.9674  0.2713  0.2748
 5099SOL    HW216586   3.643   4.541   3.989 -0.7612 -0.4804  2.5002
 5100SOL     OW16587   4.230   7.741   4.785  0.2714  0.4224 -0.1489
 5100SOL    HW116588   4.217   7.832   4.758  0.3140  0.7826  0.9587
 5100SOL    HW216589   4.312   7.743   4.835 -0.5106  0.0886  1.1878
 5101SOL     OW16590   0.989   8.655   5.673 -0.3148  0.2832  0.5800
 5101SOL    HW116591   0.972   8.580   5.730  0.4428  0.6728  1.3408
 5101SOL    HW216592   0.996   8.730   5.733  1.2646  0.5820  0.0848
 5102SOL     OW16593   2.154   2.472   4.379 -0.3747 -0.3814  0.2361
 5102SOL    HW116594   2.075   2.517   4.408  0.3365 -0.0347  1.7773
 5102SOL    HW216595   2.206   2.539   4.336 -1.0213 -0.6734 -1.0269
 5103SOL     OW16596   8.466   7.341   2.595  0.0603 -0.0257  0.0031
 5103SOL    HW116597   8.452   7.346   2.689  1.0038  0.6346  0.1195
 5103SOL    HW216598   8.516   7.260   2.582  1.2367  0.6566  0.2413
 5104SOL     OW16599   2.287   8.261   4.275 -0.3335  0.3014  0.6663
 5104SOL    HW116600   2.294   8.196   4.204 -1.1427 -1.0368  1.7537
 5104SOL    HW216601   2.253   8.211   4.349  0.7495  1.6099  2.0936
 5105SOL     OW16602   6.292   3.525   2.223  0.4581 -0.6514  0.7368
 5105SOL    HW116603   6.316   3.568   2.305  0.8219 -0.9387  0.7875
 5105SOL    HW216604   6.358   3.553   2.160  0.6332 -1.0399  0.7422
 5106SOL     OW16605   2.977   0.618   7.029 -0.1425 -0.1140 -0.3073
 5106SOL    HW116606   2.914   0.548   7.016  0.1092 -0.1861 -1.2623
 5106SOL    HW216607   2.957   0.654   7.115  0.7346 -2.3733  0.9386
 5107SOL     OW16608   3.400   3.407   2.025 -0.0506 -0.1161 -0.0835
 5107SOL    HW116609   3.310   3.375   2.029 -0.1564  0.2746  0.8410
 5107SOL    HW216610   3.453   3.334   2.057  0.1813 -1.0547 -2.3884
 5108SOL     OW16611   3.502   8.548   8.031 -0.1706  0.1967  0.7025
 5108SOL    HW116612   3.449   8.485   8.080  1.0219 -0.2712  1.4154
 5108SOL    HW216613   3.467   8.634   8.057 -0.3352 -0.0898  1.4579
 5109SOL     OW16614   7.851   4.640   3.352 -0.0103  0.4086  0.4711
 5109SOL    HW116615   7.909   4.587   3.408 -0.3717 -0.9990 -0.4205
 5109SOL    HW216616   7.898   4.645   3.268 -0.6644  0.2296  0.0931
 5110SOL     OW16617   1.381   4.924   7.765 -0.1225  0.7851 -0.5992
 5110SOL    HW116618   1.436   4.895   7.692  1.0946 -0.5547  0.7918
 5110SOL    HW216619   1.418   4.881   7.842 -1.3610  2.1665  0.8364
 5111SOL     OW16620   6.168   6.956   1.396  0.3378 -0.4617 -0.3034
 5111SOL    HW116621   6.208   6.889   1.451  1.1490  0.3735  0.1657
 5111SOL    HW216622   6.211   7.038   1.423  0.8529 -0.0281 -2.2399
 5112SOL     OW16623   8.412   8.164   8.305 -0.2939 -0.4275 -0.1701
 5112SOL    HW116624   8.473   8.108   8.256 -0.1168  0.0644 -0.5103
 5112SOL    HW216625   8.468   8.213   8.366  0.0964  2.2772 -2.5369
 5113SOL     OW16626   4.265   4.586   4.232  0.1697  0.2113  0.7282
 5113SOL    HW116627   4.185   4.589   4.180  0.7311 -2.8172 -0.5057
 5113SOL    HW216628   4.331   4.630   4.178 -0.0313  0.2049  0.4804
 5114SOL     OW16629   3.376   5.874   5.507  0.2199  0.0816  0.2324
 5114SOL    HW116630   3.420   5.951   5.469 -0.4292  0.4553  0.2265
 5114SOL    HW216631   3.359   5.818   5.431 -2.5731  1.5603 -0.3669
 5115SOL     OW16632   6.085   4.740   2.893  0.0093  0.3943 -0.2358
 5115SOL    HW116633   6.165   4.703   2.932  0.4266  1.8958  0.3808
 5115SOL    HW216634   6.076   4.826   2.934 -1.7908  0.3591 -0.5036
 5116SOL     OW16635   8.653   7.488   8.449  0.2628 -0.1556 -0.4281
 5116SOL    HW116636   8.704   7.413   8.481  0.0609 -0.1346 -0.0471
 5116SOL    HW216637   8.576   7.490   8.506  1.3197  1.6579  1.0312
 5117SOL     OW16638   8.412   7.120   4.395  0.1787  0.0519 -0.1441
 5117SOL    HW116639   8.481   7.063   4.359 -0.2717  0.4689 -1.7218
 5117SOL    HW216640   8.409   7.195   4.336  0.3815  1.5009  1.5967
 5118SOL     OW16641   0.056   0.594   2.875 -0.1396 -0.6310  0.0428
 5118SOL    HW116642   0.134   0.645   2.851 -0.1721 -0.9438 -0.7546
 5118SOL    HW216643  -0.004   0.607   2.803 -0.7318 -0.6185  0.5301
 5119SOL     OW16644   4.158   2.807   0.785  0.6264 -0.3657  0.3490
 5119SOL    HW116645   4.106   2.873   0.739 -0.6096 -1.8074 -0.4191
 5119SOL    HW216646   4.240   2.852   0.806 -0.1883  1.4255 -0.0633
 5120SOL     OW16647   3.677   8.332   3.619  0.0476 -0.2583  0.0910
 5120SOL    HW116648   3.711   8.276   3.689  0.6167 -0.6354 -0.4750
 5120SOL    HW216649   3.641   8.408   3.665  1.5044  0.0817  0.7389
 5121SOL     OW16650   4.314   4.549   2.115  0.1023  0.3776 -0.4067
 5121SOL    HW116651   4.288   4.474   2.062 -0.3736 -0.1704  0.5811
 5121SOL    HW216652   4.265   4.539   2.196  1.6961  0.5660  0.6121
 5122SOL     OW16653   8.641   6.990   0.583 -0.2742 -0.5793  0.3227
 5122SOL    HW116654   8.572   6.989   0.650 -0.4996 -0.3186  0.0982
 5122SOL    HW216655   8.600   7.031   0.507  0.9331  2.2698  1.0695
 5123SOL     OW16656   8.388   4.763   8.368 -0.7961  0.1356  0.5478
 5123SOL    HW116657   8.405   4.821   8.442 -0.1535  0.4540  0.1518
 5123SOL    HW216658   8.352   4.819   8.300  1.8172  0.5374 -0.6223
 5124SOL     OW16659   3.456   0.219   7.748 -0.0125 -0.1756  0.4591
 5124SOL    HW116660   3.545   0.185   7.740  0.2885  0.7286 -0.3214
 5124SOL    HW216661   3.463   0.311   7.720 -1.0562  0.1150  1.0812
 5125SOL     OW16662   5.035   7.117   0.064  0.2917 -0.0089 -0.3907
 5125SOL    HW116663   5.070   7.206   0.074  0.5043  0.1000 -1.8029
 5125SOL    HW216664   5.102   7.061   0.104 -0.5606  0.5147  1.9238
 5126SOL     OW16665   0.767   1.554   3.210  0.1735 -0.1820 -0.3627
 5126SOL    HW116666   0.807   1.524   3.292  0.7637 -0.1147 -0.6248
 5126SOL    HW216667   0.841   1.575   3.153 -0.2324  0.3617 -0.7018
 5127SOL     OW16668   3.031   3.772   5.287 -0.1571 -0.0852 -0.1760
 5127SOL    HW116669   2.986   3.827   5.351 -0.3022  1.4556 -1.5248
 5127SOL    HW216670   3.032   3.824   5.207  0.1549 -1.8736 -1.4086
 5128SOL     OW16671   5.593   4.521   2.749 -0.0615 -0.5305  0.1833
 5128SOL    HW116672   5.593   4.495   2.841 -0.4777  0.9391  0.6298
 5128SOL    HW216673   5.611   4.615   2.750 -0.7963 -0.3405 -1.1791
 5129SOL     OW16674   3.236   1.176   5.714 -0.1993  0.1533 -0.4134
 5129SOL    HW116675   3.305   1.110   5.701 -0.6938 -0.3281 -0.6131
 5129SOL    HW216676   3.182   1.170   5.635 -1.1899 -0.3419  0.2916
 5130SOL     OW16677   0.372   8.680   0.420  0.6553 -0.1146 -0.3021
 5130SOL    HW116678   0.319   8.667   0.341  0.6383  0.3170 -0.3636
 5130SOL    HW216679   0.324   8.634   0.489  1.2280 -1.4465 -0.7550
 5131SOL     OW16680   6.434   7.720   5.806  0.2842 -0.2794 -0.0373
 5131SOL    HW116681   6.486   7.642   5.824  0.8562 -0.0442 -0.6245
 5131SOL    HW216682   6.494   7.793   5.822 -0.1896  0.0354  0.3272
 5132SOL     OW16683   4.251   7.162   8.393 -0.1391 -0.0511  0.0686
 5132SOL    HW116684   4.314   7.196   8.330  0.9915 -1.6786  0.2462
 5132SOL    HW216685   4.269   7.210   8.474  0.4231 -0.0224 -0.0671
 5133SOL     OW16686   3.190   4.006   0.337 -0.1684  0.1433  0.3987
 5133SOL    HW116687   3.114   3.979   0.390  0.0793 -0.0279  0.6683
 5133SOL    HW216688   3.247   3.930   0.336  0.3382  0.5089  0.8012
 5134SOL     OW16689   6.148   4.015   1.968 -0.4245  0.1180  0.2393
 5134SOL    HW116690   6.231   4.036   2.010 -0.6847  1.1066  0.2803
 5134SOL    HW216691   6.087   4.002   2.041 -0.3867 -0.2851  0.2022
 5135SOL     OW16692   1.815   0.312   8.347  0.0116  0.3407  0.4205
 5135SOL    HW116693   1.740   0.273   8.391  0.6028 -1.3428 -0.0007
 5135SOL    HW216694   1.803   0.290   8.255  0.6350  0.7382  0.2387
 5136SOL     OW16695   6.272   5.912   8.361  0.4993  0.6020 -0.4398
 5136SOL    HW116696   6.235   5.823   8.358  2.5858 -0.3131 -0.4972
 5136SOL    HW216697   6.201   5.966   8.396 -1.6617 -0.6255 -2.6206
 5137SOL     OW16698   3.433   2.000   8.153 -0.4970  0.4913  0.4473
 5137SOL    HW116699   3.443   1.907   8.131  0.2482  0.6455  0.0951
 5137SOL    HW216700   3.490   2.013   8.229  0.5331  0.9538 -0.3697
 5138SOL     OW16701   0.520   4.684   2.854 -0.0704  0.4851  0.0264
 5138SOL    HW116702   0.452   4.750   2.842  0.6704  2.3481  4.2368
 5138SOL    HW216703   0.602   4.734   2.855  1.4469 -1.5533 -3.7158
 5139SOL     OW16704   2.776   6.271   0.853 -0.2013 -0.5021  0.0578
 5139SOL    HW116705   2.684   6.297   0.862 -0.8818 -2.4888 -0.5807
 5139SOL    HW216706   2.774   6.175   0.859  1.7116 -0.6422 -0.9001
 5140SOL     OW16707   7.050   1.853   6.230  0.3167  0.2423 -0.1787
 5140SOL    HW116708   7.119   1.790   6.254  0.8112 -0.4051 -3.0083
 5140SOL    HW216709   6.972   1.822   6.276  1.6221  0.4613  2.3716
 5141SOL     OW16710   7.770   5.756   8.603  0.4191  0.3700  0.5501
 5141SOL    HW116711   7.710   5.716   8.539 -0.4818  0.2013  1.4790
 5141SOL    HW216712   7.856   5.724   8.578 -0.0555 -0.5681  0.0713
 5142SOL     OW16713   0.757   2.071   2.085  0.6875 -0.1964 -0.8694
 5142SOL    HW116714   0.726   2.123   2.159  0.2753 -0.9866 -0.4743
 5142SOL    HW216715   0.852   2.084   2.085  0.5032  1.3248 -1.3900
 5143SOL     OW16716   3.879   4.895   8.630  0.0478 -0.1172 -0.3342
 5143SOL    HW116717   3.786   4.884   8.608 -0.5844  0.9904  1.5808
 5143SOL    HW216718   3.899   4.820   8.687  0.0881  0.0961 -0.0665
 5144SOL     OW16719   7.577   5.835   8.053 -0.3194  0.1233  0.4345
 5144SOL    HW116720   7.656   5.888   8.040 -0.1714 -0.3937 -0.9768
 5144SOL    HW216721   7.556   5.845   8.145  3.9208 -3.1289  2.1041
 5145SOL     OW16722   0.700   5.634   3.740  0.0020  0.2204  0.3925
 5145SOL    HW116723   0.691   5.589   3.824  0.3542 -2.2020 -0.7785
 5145SOL    HW216724   0.610   5.644   3.709 -0.1117  0.8471  0.9040
 5146SOL     OW16725   0.528   4.224   8.016 -0.4431  0.5443  0.4293
 5146SOL    HW116726   0.598   4.162   7.993  0.2837  1.4467  0.1486
 5146SOL    HW216727   0.531   4.290   7.948 -2.4810 -0.0824 -0.3382
 5147SOL     OW16728   3.922   7.976   6.245 -0.2364 -0.3817 -0.3954
 5147SOL    HW116729   3.881   7.890   6.256  0.3459 -0.6637 -0.4114
 5147SOL    HW216730   3.949   7.978   6.153 -1.8993  0.5610 -0.9180
 5148SOL     OW16731   5.031   1.436   0.496  0.0896  0.1080  0.1711
 5148SOL    HW116732   4.945   1.397   0.477 -0.7353  1.0422  1.7394
 5148SOL    HW216733   5.077   1.434   0.412 -1.5791 -0.1426 -0.8006
 5149SOL     OW16734   0.756   7.842   7.456 -0.0835 -0.2827  0.4106
 5149SOL    HW116735   0.702   7.917   7.432  1.8542  0.6032 -1.5339
 5149SOL    HW216736   0.737   7.776   7.389  1.7082  0.3393 -0.7928
 5150SOL     OW16737   7.257   0.860   7.070  0.3208 -0.9569  0.0054
 5150SOL    HW116738   7.308   0.938   7.051  0.7089 -1.0633  0.5987
 5150SOL    HW216739   7.259   0.810   6.988  3.3411 -2.1697  0.7120
 5151SOL     OW16740   8.225   6.281   4.063 -0.4753 -0.1934  0.6723
 5151SOL    HW116741   8.168   6.245   4.130 -0.6978  1.4217  1.3881
 5151SOL    HW216742   8.257   6.363   4.100 -0.3430  0.5766 -1.0549
 5152SOL     OW16743   1.991   6.822   4.488 -0.4892  0.2001 -0.7184
 5152SOL    HW116744   1.917   6.768   4.460 -2.2128  1.4386  1.1601
 5152SOL    HW216745   1.959   6.912   4.482  0.2187  0.6985  1.7352
 5153SOL     OW16746   3.252   7.051   7.550  0.0468  0.3908  0.5132
 5153SOL    HW116747   3.328   7.093   7.591 -0.0370 -0.3752  1.4782
 5153SOL    HW216748   3.179   7.076   7.606 -0.1450 -0.2793  0.5650
 5154SOL     OW16749   5.240   1.167   7.244 -0.4201  0.0563 -0.3101
 5154SOL    HW116750   5.271   1.257   7.242 -0.8448  0.2052 -2.4519
 5154SOL    HW216751   5.305   1.118   7.194 -0.1709 -0.8550  0.8754
 5155SOL     OW16752   0.527   0.996   6.383  0.5665 -0.2755 -0.3671
 5155SOL    HW116753   0.556   1.065   6.323  0.3426 -1.2276 -1.6183
 5155SOL    HW216754   0.557   0.914   6.342  1.6854 -0.8929  1.5651
 5156SOL     OW16755   4.973   1.256   5.232  0.1884  0.5467 -0.7978
 5156SOL    HW116756   5.012   1.323   5.288  0.4473  0.9813 -1.4944
 5156SOL    HW216757   4.930   1.196   5.294 -0.2499  1.4688 -0.1748
 5157SOL     OW16758   8.511   5.126   7.577 -0.0524  0.4730 -0.2891
 5157SOL    HW116759   8.582   5.062   7.580  0.1719  0.6790 -1.0862
 5157SOL    HW216760   8.479   5.129   7.667  0.9334  0.3598  0.0812
 5158SOL     OW16761   6.889   6.803   3.223 -0.4947 -0.0326  0.0267
 5158SOL    HW116762   6.887   6.718   3.179 -0.7910 -0.3242  0.5968
 5158SOL    HW216763   6.968   6.846   3.188 -0.0883 -0.7256  0.0726
 5159SOL     OW16764   4.077   7.468   6.802  0.2459 -0.5454  0.1123
 5159SOL    HW116765   3.999   7.453   6.749  0.9772 -2.0182 -0.5909
 5159SOL    HW216766   4.114   7.381   6.815  2.3322  0.2218 -0.4139
 5160SOL     OW16767   4.032   0.777   5.506 -0.0056 -0.3060 -0.2262
 5160SOL    HW116768   4.022   0.738   5.592  0.0595  1.6473  0.7303
 5160SOL    HW216769   3.943   0.789   5.474 -0.0278 -3.5434 -1.7301
 5161SOL     OW16770   5.146   2.526   4.644 -0.3329 -0.1140  0.1690
 5161SOL    HW116771   5.186   2.613   4.633  1.7473 -0.8076  1.5008
 5161SOL    HW216772   5.153   2.486   4.557 -1.9646  1.2435 -0.6481
 5162SOL     OW16773   8.587   2.574   3.465  0.0788 -0.0676 -0.1426
 5162SOL    HW116774   8.524   2.596   3.397 -1.4558 -0.3983  1.1151
 5162SOL    HW216775   8.673   2.588   3.424 -0.7861 -0.0663 -2.0506
 5163SOL     OW16776   4.668   5.697   2.201 -0.3067  0.0772  0.0419
 5163SOL    HW116777   4.574   5.696   2.219 -0.3885 -1.5640 -0.2821
 5163SOL    HW216778   4.703   5.625   2.253  0.3819 -0.8441 -1.6256
 5164SOL     OW16779   1.672   7.819   1.330  0.1874  0.2561 -0.3006
 5164SOL    HW116780   1.629   7.741   1.366 -0.6447  1.0489  0.5013
 5164SOL    HW216781   1.756   7.824   1.375 -0.0533  0.1903  0.1632
 5165SOL     OW16782   5.124   5.482   3.971 -0.3161 -0.2080  0.1613
 5165SOL    HW116783   5.049   5.487   4.030 -1.0832  0.1944 -0.8246
 5165SOL    HW216784   5.086   5.461   3.886  0.9405 -2.8900  0.1555
 5166SOL     OW16785   5.429   6.256   0.040 -0.0940  0.0020  0.6770
 5166SOL    HW116786   5.425   6.162   0.056  0.4999 -0.0538  0.5300
 5166SOL    HW216787   5.368   6.270  -0.033 -0.2280 -0.2627  0.7369
 5167SOL     OW16788   5.027   1.060   2.118  0.0434  0.0947  0.5542
 5167SOL    HW116789   4.960   1.110   2.072  0.2669  1.5203  1.7050
 5167SOL    HW216790   4.984   0.977   2.141 -1.2822  0.8980  1.0953
 5168SOL     OW16791   7.615   6.244   4.477  0.0010  0.2085 -0.1773
 5168SOL    HW116792   7.589   6.321   4.528  1.6195  0.9900 -0.4588
 5168SOL    HW216793   7.563   6.249   4.397 -1.1148  0.0594  0.5108
 5169SOL     OW16794   5.091   0.003   3.872 -0.1484  0.1000  0.0037
 5169SOL    HW116795   5.037   0.040   3.943 -1.2608 -0.7133 -0.3835
 5169SOL    HW216796   5.090  -0.091   3.889  1.5215  0.0957  0.2099
 5170SOL     OW16797   3.641   4.167   5.150 -0.5425  0.1576  0.2722
 5170SOL    HW116798   3.587   4.089   5.163  0.3026 -0.2713  1.3153
 5170SOL    HW216799   3.582   4.231   5.111 -1.2629 -0.9834 -0.5702
 5171SOL     OW16800   3.533   5.546   7.550  0.1101 -0.1373 -0.0920
 5171SOL    HW116801   3.502   5.469   7.502 -1.7311  1.1168 -1.0311
 5171SOL    HW216802   3.610   5.575   7.501 -0.2449 -0.3449 -0.7892
 5172SOL     OW16803   1.681   1.067   6.338 -0.2624 -0.4489 -0.0095
 5172SOL    HW116804   1.772   1.038   6.343 -0.4905 -1.1296  0.3095
 5172SOL    HW216805   1.660   1.063   6.245  0.7628  2.0840 -0.4384
 5173SOL     OW16806   6.580   7.239   3.336  0.2404 -0.0197 -0.2178
 5173SOL    HW116807   6.590   7.253   3.430  0.4663  0.1958 -0.2743
 5173SOL    HW216808   6.607   7.148   3.323 -0.5293 -0.2949  0.0366
 5174SOL     OW16809   6.953   8.169   0.104  0.3297  0.1214 -0.0277
 5174SOL    HW116810   6.894   8.244   0.100  0.1970 -0.0261 -1.1667
 5174SOL    HW216811   7.017   8.186   0.035  1.1186 -0.1386  0.6351
 5175SOL     OW16812   7.261   4.610   3.490 -0.1648  0.0326  0.0109
 5175SOL    HW116813   7.321   4.657   3.431 -0.5975 -0.5844 -0.9475
 5175SOL    HW216814   7.179   4.660   3.486  0.4331  1.2685  1.8451
 5176SOL     OW16815   0.974   3.827   2.650  0.1553  0.5112 -0.0946
 5176SOL    HW116816   0.926   3.909   2.650 -0.3859  0.2053  0.9617
 5176SOL    HW216817   1.066   3.853   2.653 -0.0414  1.1021  2.4596
 5177SOL     OW16818   6.897   5.232   8.481 -0.4827 -0.0745 -0.6921
 5177SOL    HW116819   6.940   5.154   8.445  0.1189  0.5346 -1.3452
 5177SOL    HW216820   6.815   5.239   8.432 -0.0737  0.2568 -1.3433
 5178SOL     OW16821   4.420   2.765   7.213  0.4736  0.2402 -0.8216
 5178SOL    HW116822   4.327   2.760   7.236  0.7657  1.4797  0.8495
 5178SOL    HW216823   4.457   2.682   7.243  0.2002  0.4632  0.1703
 5179SOL     OW16824   7.204   5.264   4.607 -0.3434  0.1998  0.0746
 5179SOL    HW116825   7.296   5.242   4.620 -0.4120  0.3020  0.7310
 5179SOL    HW216826   7.156   5.203   4.663 -0.6908 -0.0022 -0.4333
 5180SOL     OW16827   8.279   5.139   5.492 -0.3182 -0.2500  0.0696
 5180SOL    HW116828   8.215   5.096   5.435 -0.5528  0.8196 -0.5033
 5180SOL    HW216829   8.232   5.151   5.575 -0.3338 -0.8454  0.1534
 5181SOL     OW16830   4.812   5.758   3.981  0.5675 -0.1222 -0.1343
 5181SOL    HW116831   4.875   5.807   3.928  0.8020 -0.4534 -0.1642
 5181SOL    HW216832   4.796   5.814   4.058  1.1389 -0.1776  0.0274
 5182SOL     OW16833   2.668   6.056   7.735  0.0711  0.4000 -0.2343
 5182SOL    HW116834   2.708   6.139   7.711 -0.2633  1.2887  2.0860
 5182SOL    HW216835   2.647   6.064   7.828 -0.7106 -1.9870 -0.1187
 5183SOL     OW16836   1.727   0.074   2.370 -0.1694 -0.0169  0.1566
 5183SOL    HW116837   1.693   0.065   2.459 -3.3097 -1.5433 -1.0384
 5183SOL    HW216838   1.822   0.065   2.380 -0.1293  2.1672  3.5334
 5184SOL     OW16839   5.328   4.134   3.280  0.6240 -0.3093  0.2006
 5184SOL    HW116840   5.392   4.133   3.351  0.3139  1.6136  0.5888
 5184SOL    HW216841   5.243   4.137   3.325  0.3955  0.0942 -0.2415
 5185SOL     OW16842   5.580   6.256   6.534  0.3317 -0.1155  0.1562
 5185SOL    HW116843   5.498   6.207   6.529  0.0636  0.4756 -2.2589
 5185SOL    HW216844   5.552   6.347   6.543  0.7554  0.0185  0.1179
 5186SOL     OW16845   7.111   6.267   1.025  0.6882  0.4847 -0.2292
 5186SOL    HW116846   7.189   6.251   0.972  1.0373 -0.6623  0.6126
 5186SOL    HW216847   7.055   6.321   0.969  1.9676  1.1290 -0.9357
 5187SOL     OW16848   2.439   2.513   0.382 -0.1201 -0.1705 -0.5401
 5187SOL    HW116849   2.409   2.506   0.291 -1.9988  0.4012  0.0044
 5187SOL    HW216850   2.532   2.488   0.378 -0.4458 -1.2823 -2.4227
 5188SOL     OW16851   8.311   7.173   4.741 -0.0573 -0.1102 -0.6157
 5188SOL    HW116852   8.346   7.261   4.724  1.8948 -0.7977 -0.4376
 5188SOL    HW216853   8.383   7.114   4.720 -1.6214 -1.7689 -1.6025
 5189SOL     OW16854   3.527   3.595   6.419 -0.1965  0.1606 -0.3444
 5189SOL    HW116855   3.490   3.630   6.338 -0.6623 -0.4401 -0.3907
 5189SOL    HW216856   3.613   3.637   6.425  0.2885 -0.5586 -1.6931
 5190SOL     OW16857   4.511   7.285   5.683 -0.1231  0.2728  0.0788
 5190SOL    HW116858   4.435   7.333   5.650 -0.0434 -0.2089 -0.8718
 5190SOL    HW216859   4.518   7.210   5.623  0.2748 -0.4319  0.9960
 5191SOL     OW16860   4.171   3.919   3.420 -0.5405 -0.0334  0.3781
 5191SOL    HW116861   4.183   3.976   3.344 -0.0131  0.4385  0.8088
 5191SOL    HW216862   4.259   3.888   3.441 -0.8181 -0.9978  0.1648
 5192SOL     OW16863   2.390   4.891   2.623 -0.1770 -0.5136 -0.2578
 5192SOL    HW116864   2.322   4.955   2.603  0.3701 -0.5458 -2.4952
 5192SOL    HW216865   2.466   4.944   2.648 -0.6967 -0.4510  1.3041
 5193SOL     OW16866   3.225   7.439   3.536 -0.1644  0.1076 -0.1220
 5193SOL    HW116867   3.298   7.490   3.502  0.0365  0.0884  0.2762
 5193SOL    HW216868   3.168   7.503   3.578 -0.1658  0.0685 -0.0650
 5194SOL     OW16869   3.067   2.491   2.585  0.3308  0.7456  0.0634
 5194SOL    HW116870   3.017   2.531   2.657 -0.0123 -0.9945  0.8385
 5194SOL    HW216871   3.003   2.482   2.514  0.2346  0.9155  0.1265
 5195SOL     OW16872   7.861   7.686   2.424 -0.2457 -0.3046  0.1299
 5195SOL    HW116873   7.940   7.656   2.469 -0.9242  0.2632  1.7984
 5195SOL    HW216874   7.884   7.773   2.391 -0.0684 -0.2476  0.3937
 5196SOL     OW16875   0.101   5.556   5.557  0.2058 -0.0850  0.4981
 5196SOL    HW116876   0.147   5.634   5.526  1.2167 -1.0793 -0.6180
 5196SOL    HW216877   0.157   5.483   5.529 -1.7904 -1.3263 -0.4310
 5197SOL     OW16878   2.671   6.324   4.923  0.2388  0.4208  0.7156
 5197SOL    HW116879   2.610   6.322   4.850 -0.0770 -0.3050  0.9891
 5197SOL    HW216880   2.707   6.413   4.922 -0.0344  0.5295 -0.0884
 5198SOL     OW16881   7.347   5.828   7.860 -1.1905  0.1016 -0.3536
 5198SOL    HW116882   7.404   5.840   7.936 -1.2344 -1.7539  0.0198
 5198SOL    HW216883   7.260   5.855   7.891 -0.7933  1.6562 -0.5177
 5199SOL     OW16884   7.836   3.274   2.582 -0.0261  0.1171 -0.0438
 5199SOL    HW116885   7.774   3.204   2.606 -1.8748  1.4175 -0.7696
 5199SOL    HW216886   7.921   3.231   2.581 -0.7975 -1.6127  1.6909
 5200SOL     OW16887   5.458   7.984   2.324  0.5026 -0.2480 -0.0461
 5200SOL    HW116888   5.542   8.029   2.320  0.3526 -0.0082 -0.5792
 5200SOL    HW216889   5.415   8.006   2.241  0.4580 -1.4483 -0.3533
 5201SOL     OW16890   7.496   6.255   4.190  0.3659 -0.4957  0.2526
 5201SOL    HW116891   7.541   6.338   4.178  0.1733 -0.3888  0.2770
 5201SOL    HW216892   7.405   6.273   4.168  0.1354 -0.4646  1.1954
 5202SOL     OW16893   7.963   1.438   5.585 -0.0218  0.6358 -0.1861
 5202SOL    HW116894   7.875   1.473   5.573 -0.4494  0.2675  1.5583
 5202SOL    HW216895   8.016   1.514   5.608 -0.5708  0.4495  1.8282
 5203SOL     OW16896   8.070   0.478   2.076 -0.1463 -0.0071  0.2666
 5203SOL    HW116897   8.136   0.410   2.085  0.9472  1.0136  0.1812
 5203SOL    HW216898   7.998   0.449   2.132  0.1189 -1.4206 -0.0896
 5204SOL     OW16899   0.866   3.875   2.370  0.0741  0.0116  0.0361
 5204SOL    HW116900   0.793   3.935   2.384  0.9740  0.7541  1.7727
 5204SOL    HW216901   0.838   3.793   2.410 -0.4937 -0.2584 -0.8812
 5205SOL     OW16902   2.277   5.230   1.857  0.1002 -0.2169 -0.2279
 5205SOL    HW116903   2.236   5.161   1.909 -0.0511  0.1321  0.1246
 5205SOL    HW216904   2.260   5.310   1.907  2.7616 -0.2511  0.8980
 5206SOL     OW16905   5.540   5.274   1.794  0.3869  0.3696  0.0491
 5206SOL    HW116906   5.532   5.233   1.881 -0.8502  0.6462  0.0825
 5206SOL    HW216907   5.536   5.201   1.733 -0.3459  0.3037  0.1679
 5207SOL     OW16908   7.260   1.986   3.244  0.0489  0.1765  0.2029
 5207SOL    HW116909   7.352   1.960   3.243  0.1657  0.5655 -0.9533
 5207SOL    HW216910   7.225   1.956   3.160 -1.0287 -0.4415  0.8400
 5208SOL     OW16911   7.819   4.367   7.908  0.3477 -0.4115 -0.0943
 5208SOL    HW116912   7.853   4.381   7.996  0.0532 -2.0168  0.3210
 5208SOL    HW216913   7.778   4.280   7.912  1.1753 -0.9585 -2.0663
 5209SOL     OW16914   2.782   0.070   7.122 -0.3621  0.3720 -0.1444
 5209SOL    HW116915   2.723   0.119   7.065 -2.3277  0.8803  2.1387
 5209SOL    HW216916   2.802  -0.010   7.073 -1.0642  1.2516 -1.9530
 5210SOL     OW16917   1.266   4.455   5.845 -0.5328 -0.0714  0.0637
 5210SOL    HW116918   1.327   4.408   5.788  0.5274  0.9600  0.3074
 5210SOL    HW216919   1.314   4.533   5.872 -1.4401  0.0491  1.4405
 5211SOL     OW16920   3.315   4.492   6.205 -0.1413  0.7481 -0.2453
 5211SOL    HW116921   3.376   4.562   6.227 -0.4305  0.7997  0.4216
 5211SOL    HW216922   3.358   4.444   6.134 -0.0074  1.6741 -0.7935
 5212SOL     OW16923   2.265   6.936   4.058 -0.1878 -0.3562 -0.1706
 5212SOL    HW116924   2.346   6.959   4.012  0.2797 -2.2806 -0.3807
 5212SOL    HW216925   2.195   6.963   3.999  0.2289  1.9159  0.2827
 5213SOL     OW16926   8.542   0.370   5.242 -0.3588  0.2050 -0.0003
 5213SOL    HW116927   8.595   0.437   5.199  0.6611 -1.5008 -1.5086
 5213SOL    HW216928   8.454   0.384   5.206 -0.2995  1.0883  0.1606
 5214SOL     OW16929   8.040   0.304   5.794  0.0547  0.2393 -0.3099
 5214SOL    HW116930   8.127   0.338   5.774  1.8073 -2.3754  2.2183
 5214SOL    HW216931   8.028   0.231   5.733 -0.1190  0.2326 -0.2696
 5215SOL     OW16932   7.964   6.336   0.509  0.2132 -0.2254 -0.0389
 5215SOL    HW116933   7.967   6.246   0.477 -1.3261 -0.8113  1.3126
 5215SOL    HW216934   7.917   6.384   0.440  0.0681 -0.6937 -0.2751
 5216SOL     OW16935   1.647   4.554   4.455  0.2113  0.1320 -0.2373
 5216SOL    HW116936   1.555   4.556   4.429 -0.2664  0.7759  1.3670
 5216SOL    HW216937   1.654   4.479   4.513  0.2149  1.1756  1.1652
 5217SOL     OW16938   3.530   7.990   5.568  0.3658  0.9590 -0.1527
 5217SOL    HW116939   3.488   7.912   5.532 -0.5614  0.8465  1.1419
 5217SOL    HW216940   3.623   7.967   5.573  0.1244  0.0015  0.0741
 5218SOL     OW16941   5.366   8.598   5.819 -0.3177  0.5130  0.1132
 5218SOL    HW116942   5.312   8.519   5.816 -0.0925  0.2262  2.2271
 5218SOL    HW216943   5.308   8.667   5.785 -1.0819 -0.2773 -0.2224
 5219SOL     OW16944   3.914   2.065   7.397 -0.5028  0.3188  0.0389
 5219SOL    HW116945   3.828   2.103   7.417 -0.0070  2.0222 -0.8812
 5219SOL    HW216946   3.918   2.064   7.301 -0.5503 -2.3313 -0.0314
 5220SOL     OW16947   5.771   8.217   1.441 -0.3893  0.0008  0.1062
 5220SOL    HW116948   5.864   8.201   1.459 -0.0116 -0.3771 -1.9000
 5220SOL    HW216949   5.726   8.185   1.519  1.1949  1.1883  1.6062
 5221SOL     OW16950   4.087   2.961   4.870  0.5856 -0.2144 -0.0682
 5221SOL    HW116951   4.005   3.008   4.888  0.3657 -0.5012 -0.3016
 5221SOL    HW216952   4.097   2.967   4.775 -0.0373 -1.5813 -0.2500
 5222SOL     OW16953   5.107   3.943   8.205 -0.4109 -0.1301 -0.2239
 5222SOL    HW116954   5.075   4.033   8.206 -0.4280 -0.1445  0.5526
 5222SOL    HW216955   5.030   3.891   8.182 -0.2221  0.1152 -1.4902
 5223SOL     OW16956   0.531   5.339   1.353  0.2237 -0.5186  0.3640
 5223SOL    HW116957   0.460   5.276   1.352  0.2412 -0.5926  1.6613
 5223SOL    HW216958   0.545   5.362   1.261 -2.1800  0.3145  0.1302
 5224SOL     OW16959   1.938   6.825   2.845 -0.0559 -0.0926 -0.6067
 5224SOL    HW116960   1.977   6.899   2.891 -0.4563 -0.4684  0.3435
 5224SOL    HW216961   1.999   6.807   2.773  0.5830  0.4786 -0.2172
 5225SOL     OW16962   0.923   8.476   3.318 -0.3478  0.2789  0.4487
 5225SOL    HW116963   0.834   8.501   3.342 -0.3466 -0.3483  1.1373
 5225SOL    HW216964   0.926   8.381   3.331  0.5424  0.3530  0.8846
 5226SOL     OW16965   8.026   3.009   1.592 -0.0628 -0.1036 -0.1796
 5226SOL    HW116966   8.057   2.962   1.669 -2.1410 -1.0515  0.1336
 5226SOL    HW216967   7.934   2.984   1.583 -0.0043  0.3154 -2.7267
 5227SOL     OW16968   4.798   3.481   5.480  0.1111 -0.4688  0.1327
 5227SOL    HW116969   4.779   3.557   5.535  0.0150 -0.1991 -0.2648
 5227SOL    HW216970   4.761   3.406   5.527  0.6110 -0.3333  0.7517
 5228SOL     OW16971   7.318   1.606   1.515  0.1360 -0.0729 -0.2518
 5228SOL    HW116972   7.336   1.694   1.546  0.7954  0.0445 -0.9469
 5228SOL    HW216973   7.381   1.591   1.444 -1.0433 -0.4759 -1.2588
 5229SOL     OW16974   0.564   5.932   0.872  0.3416 -0.1536  0.1676
 5229SOL    HW116975   0.635   5.978   0.827 -0.7378  2.8254  1.2808
 5229SOL    HW216976   0.579   5.839   0.851  2.9893  0.5799 -1.7692
 5230SOL     OW16977   5.726   4.677   4.508 -0.1837 -0.2405  0.0062
 5230SOL    HW116978   5.758   4.590   4.534 -1.3473 -1.3944 -2.1520
 5230SOL    HW216979   5.805   4.727   4.489  0.5836 -0.2598  2.7146
 5231SOL     OW16980   6.338   1.146   7.659  0.4851 -0.2055  0.3973
 5231SOL    HW116981   6.267   1.178   7.603  2.0538 -2.1743 -3.0520
 5231SOL    HW216982   6.418   1.177   7.616  1.7904 -1.3334  1.9261
 5232SOL     OW16983   0.016   8.393   1.791  0.5345  0.0602 -0.0883
 5232SOL    HW116984   0.043   8.374   1.702  0.4598  0.1493 -0.1309
 5232SOL    HW216985  -0.037   8.473   1.783 -1.5124 -1.2326 -0.3152
 5233SOL     OW16986   2.213   8.542   3.834 -0.2167  0.0329 -0.0094
 5233SOL    HW116987   2.245   8.622   3.876 -2.2585  1.1357 -0.4018
 5233SOL    HW216988   2.167   8.574   3.756 -0.1598 -1.6323 -0.7540
 5234SOL     OW16989   2.731   8.281   1.837 -0.0985 -0.3492 -0.0279
 5234SOL    HW116990   2.718   8.234   1.920  0.3770 -0.9381 -0.2747
 5234SOL    HW216991   2.643   8.305   1.809 -0.3678 -1.1512  0.0846
 5235SOL     OW16992   2.709   6.032   2.486 -0.6028  0.8691  0.4195
 5235SOL    HW116993   2.793   5.992   2.508 -0.5111  1.2530  0.7941
 5235SOL    HW216994   2.727   6.085   2.409  0.2061  3.1706  2.0627
 5236SOL     OW16995   0.707   1.508   7.071 -0.3027  0.4165  0.0054
 5236SOL    HW116996   0.669   1.421   7.065 -0.0172  0.3252 -0.4924
 5236SOL    HW216997   0.636   1.563   7.106  0.0918 -0.3905  2.2502
 5237SOL     OW16998   4.669   4.219   3.612  0.2307 -0.1272  0.2334
 5237SOL    HW116999   4.757   4.181   3.600  1.0736  2.0020 -0.9159
 5237SOL    HW217000   4.672   4.301   3.563 -2.1504  0.4373  0.9165
 5238SOL     OW17001   3.728   7.353   6.900  0.2040 -0.6995 -0.1592
 5238SOL    HW117002   3.767   7.347   6.987 -0.5978 -1.8556  0.1551
 5238SOL    HW217003   3.758   7.274   6.855 -0.2776 -0.6704 -0.5424
 5239SOL     OW17004   1.591   1.713   5.476 -0.1948 -0.1655  0.3471
 5239SOL    HW117005   1.648   1.777   5.519  1.7007 -0.4593 -1.5671
 5239SOL    HW217006   1.639   1.630   5.482 -0.4713 -0.4691 -1.1058
 5240SOL     OW17007   5.809   4.922   6.474 -0.8268 -0.2696 -0.3377
 5240SOL    HW117008   5.898   4.887   6.472 -0.4269  0.4528  1.8763
 5240SOL    HW217009   5.778   4.904   6.563 -2.8151 -0.2662 -0.9702
 5241SOL     OW17010   3.437   5.416   1.210  0.3276  0.5263  0.6225
 5241SOL    HW117011   3.504   5.400   1.276  0.5927  1.2449  0.5386
 5241SOL    HW217012   3.412   5.329   1.179  0.8377  0.2304  1.0339
 5242SOL     OW17013   1.802   2.433   8.603  0.5466  0.7067 -0.2438
 5242SOL    HW117014   1.826   2.472   8.519  0.0763  0.8288 -0.3234
 5242SOL    HW217015   1.874   2.374   8.623 -0.5708 -1.4287 -2.0690
 5243SOL     OW17016   3.873   0.211   6.859 -0.0604  0.1622  0.2540
 5243SOL    HW117017   3.878   0.268   6.782  0.0586  0.6027  0.5849
 5243SOL    HW217018   3.863   0.123   6.823  0.7052  0.2872 -0.2765
 5244SOL     OW17019   1.445   0.544   8.244  0.2527 -0.5114 -0.1661
 5244SOL    HW117020   1.506   0.597   8.296  0.0294  1.1050 -1.4830
 5244SOL    HW217021   1.399   0.490   8.309 -0.3633  1.7457  1.3922
 5245SOL     OW17022   4.757   6.352   0.586  0.3871  0.1740  0.5871
 5245SOL    HW117023   4.664   6.374   0.578  0.4372  0.2478  0.1805
 5245SOL    HW217024   4.786   6.398   0.664 -0.4585 -1.6755  2.0506
 5246SOL     OW17025   5.014   8.416   4.322  0.2105 -0.4060  0.3719
 5246SOL    HW117026   5.016   8.360   4.400  1.7622 -0.7415  0.1384
 5246SOL    HW217027   4.991   8.357   4.250  3.4602 -1.2404 -0.1496
 5247SOL     OW17028   6.224   0.561   7.539 -0.3041 -0.1711  0.0771
 5247SOL    HW117029   6.317   0.577   7.519  0.3223 -2.7490  0.4892
 5247SOL    HW217030   6.224   0.539   7.633 -1.4120  0.2400  0.1813
 5248SOL     OW17031   2.632   0.872   2.331  0.3729  0.1167 -0.2757
 5248SOL    HW117032   2.540   0.866   2.355  0.6746  1.2673  1.2746
 5248SOL    HW217033   2.679   0.833   2.404  1.1351 -1.7291 -1.6364
 5249SOL     OW17034   6.038   3.090   5.995  0.0628 -0.5424 -0.1232
 5249SOL    HW117035   6.081   3.029   6.056 -0.5515  0.3495  1.2638
 5249SOL    HW217036   5.947   3.092   6.024 -0.1494  0.2328 -0.8073
 5250SOL     OW17037   7.946   6.003   3.545 -0.1733 -0.2932 -0.4344
 5250SOL    HW117038   8.041   5.993   3.534  0.0822 -0.8647  1.7739
 5250SOL    HW217039   7.932   6.097   3.541  0.8229 -0.0318  1.2127
 5251SOL     OW17040   0.127   2.952   7.221  0.2106  0.1387 -0.2451
 5251SOL    HW117041   0.106   3.014   7.150 -2.5601  1.3205  1.4547
 5251SOL    HW217042   0.165   3.007   7.289 -0.8397 -0.2594  0.6857
 5252SOL     OW17043   0.696   4.593   3.770 -0.0536 -0.1900 -0.0532
 5252SOL    HW117044   0.682   4.549   3.687 -1.2184  1.0247 -0.5279
 5252SOL    HW217045   0.768   4.545   3.811 -0.4485 -1.7179 -1.0877
 5253SOL     OW17046   1.057   2.138   8.189  0.0614 -0.3599 -0.4868
 5253SOL    HW117047   1.058   2.175   8.100 -0.2806 -1.4741 -0.9752
 5253SOL    HW217048   1.014   2.053   8.179  0.7537 -0.8590  0.6118
 5254SOL     OW17049   2.620   4.602   2.377  0.1141  0.5563 -0.4959
 5254SOL    HW117050   2.696   4.657   2.397  0.1157  0.6270 -0.6901
 5254SOL    HW217051   2.598   4.624   2.286  0.5150 -0.2295 -0.7932
 5255SOL     OW17052   4.172   4.487   8.381 -0.2392  0.3006 -0.1525
 5255SOL    HW117053   4.193   4.455   8.293 -0.4363  1.4580 -0.6417
 5255SOL    HW217054   4.245   4.456   8.435  0.4336  0.4768 -0.9368
 5256SOL     OW17055   8.342   4.924   3.127  0.4254 -0.2693  0.4884
 5256SOL    HW117056   8.290   4.907   3.206  1.0859  0.3237  1.0716
 5256SOL    HW217057   8.277   4.938   3.058 -0.1820  0.1028  1.1216
 5257SOL     OW17058   6.527   7.760   6.439 -0.1519  0.4699  0.3411
 5257SOL    HW117059   6.453   7.769   6.500  0.7823 -1.4045  1.8408
 5257SOL    HW217060   6.602   7.792   6.488  0.7173 -1.5850  0.4428
 5258SOL     OW17061   3.160   6.704   7.222 -0.4271  0.1322  0.5367
 5258SOL    HW117062   3.163   6.754   7.140 -2.6056  1.9747  1.4505
 5258SOL    HW217063   3.205   6.761   7.286  2.6275 -1.9496  0.4315
 5259SOL     OW17064   3.293   4.372   0.703 -0.4703  0.2022  0.0185
 5259SOL    HW117065   3.320   4.351   0.792  0.0115 -0.9556 -0.3831
 5259SOL    HW217066   3.331   4.303   0.649 -0.6206  0.9676 -1.1130
 5260SOL     OW17067   2.827   4.388   0.120 -0.2094  0.0315  0.0526
 5260SOL    HW117068   2.857   4.425   0.203 -0.9671  2.9193 -0.8580
 5260SOL    HW217069   2.888   4.421   0.054 -0.9447 -0.3403 -0.8394
 5261SOL     OW17070   3.744   7.364   6.123 -0.3421  0.0057 -0.7184
 5261SOL    HW117071   3.776   7.350   6.033  0.4512  0.4026 -0.5055
 5261SOL    HW217072   3.706   7.451   6.121 -0.4897 -0.0591 -0.7156
 5262SOL     OW17073   2.757   0.047   4.582 -0.0058 -0.2122 -0.7677
 5262SOL    HW117074   2.691  -0.004   4.629  0.2022  0.5288  0.3843
 5262SOL    HW217075   2.783  -0.009   4.509  0.1425 -1.7179  0.3862
 5263SOL     OW17076   4.384   7.413   6.744  0.8065  0.1693 -0.1610
 5263SOL    HW117077   4.322   7.341   6.748  1.0438 -0.0347 -0.1541
 5263SOL    HW217078   4.417   7.422   6.834  0.9999  0.0920 -0.2246
 5264SOL     OW17079   8.610   4.911   5.668  0.2612  0.8184 -0.0180
 5264SOL    HW117080   8.579   4.984   5.614 -0.7553  0.7068  0.3891
 5264SOL    HW217081   8.546   4.842   5.653  0.5775  0.4069  0.4986
 5265SOL     OW17082   7.490   6.825   8.489  0.3761  0.0159  0.0780
 5265SOL    HW117083   7.425   6.891   8.515 -0.6248 -1.0794  0.4670
 5265SOL    HW217084   7.572   6.856   8.527 -0.0511  1.0492  0.2081
 5266SOL     OW17085   5.781   0.892   4.370 -0.2750 -0.9211 -0.6011
 5266SOL    HW117086   5.717   0.900   4.442  0.3585 -1.1220 -0.0065
 5266SOL    HW217087   5.861   0.930   4.405 -0.3677  0.4227 -1.7710
 5267SOL     OW17088   7.001   1.274   4.220 -0.6654  0.0880 -0.3047
 5267SOL    HW117089   6.943   1.303   4.149  0.6014  2.3031 -0.5236
 5267SOL    HW217090   6.994   1.343   4.286  1.8192  0.5270 -0.4112
 5268SOL     OW17091   4.404   5.385   3.180  0.2326 -0.2068 -0.0354
 5268SOL    HW117092   4.310   5.394   3.192  0.1580 -0.6151 -0.2912
 5268SOL    HW217093   4.434   5.473   3.153 -0.4626 -0.6238 -2.3973
 5269SOL     OW17094   3.722   4.693   0.657 -0.1115 -0.0480  0.2011
 5269SOL    HW117095   3.636   4.730   0.676 -0.8610 -2.1611  1.2705
 5269SOL    HW217096   3.783   4.744   0.710 -1.0946 -0.2454  1.5819
 5270SOL     OW17097   4.463   3.408   3.243 -0.2725  0.2011 -0.6358
 5270SOL    HW117098   4.518   3.463   3.299 -1.3395  1.6894 -0.9807
 5270SOL    HW217099   4.502   3.418   3.156  0.3939 -0.7764 -0.4609
 5271SOL     OW17100   2.953   5.863   8.118 -0.5292  0.1715 -0.8078
 5271SOL    HW117101   2.990   5.798   8.057 -0.0812  0.9307 -1.3532
 5271SOL    HW217102   2.869   5.825   8.144  0.2009 -1.1335 -0.2783
 5272SOL     OW17103   2.752   4.355   7.036  0.1055 -0.0241 -0.3815
 5272SOL    HW117104   2.743   4.285   7.100  1.2504 -0.1094 -0.2872
 5272SOL    HW217105   2.707   4.430   7.075 -0.0028 -0.3363  0.1022
 5273SOL     OW17106   3.591   0.790   2.461  0.1113 -0.1506 -0.3120
 5273SOL    HW117107   3.524   0.743   2.412  0.1552  0.0074 -0.5233
 5273SOL    HW217108   3.636   0.721   2.511 -1.1422 -0.0959  0.9717
 5274SOL     OW17109   1.055   4.197   7.261 -0.2085 -0.1399 -0.2969
 5274SOL    HW117110   1.032   4.132   7.327  0.1746  0.4981  0.4723
 5274SOL    HW217111   0.975   4.247   7.247  0.2356  1.0593  1.2205
 5275SOL     OW17112   0.084   4.679   8.568  0.4092 -0.5873 -0.1525
 5275SOL    HW117113   0.005   4.631   8.544  0.1328  0.4497 -1.4006
 5275SOL    HW217114   0.154   4.635   8.520  0.2250 -0.0546 -0.9231
 5276SOL     OW17115   7.038   7.697   5.165 -0.0441  0.4895  0.6846
 5276SOL    HW117116   6.968   7.744   5.119 -0.1237  0.2569  0.5692
 5276SOL    HW217117   7.112   7.699   5.105 -1.4274 -3.7537 -1.5306
 5277SOL     OW17118   2.900   4.903   7.238 -0.1627  0.0661 -0.3380
 5277SOL    HW117119   2.938   4.827   7.194  0.1666  0.2701 -0.4094
 5277SOL    HW217120   2.889   4.875   7.328  0.4211  0.0937 -0.2516
 5278SOL     OW17121   0.454   4.058   4.089 -0.4403 -0.1845 -0.1635
 5278SOL    HW117122   0.361   4.074   4.102 -0.0328  1.6038  0.8832
 5278SOL    HW217123   0.497   4.130   4.134  1.5025 -1.6662  0.5006
 5279SOL     OW17124   8.334   2.865   8.549 -0.4118 -0.3296  0.0533
 5279SOL    HW117125   8.420   2.854   8.589 -0.8168 -1.7247  0.6049
 5279SOL    HW217126   8.330   2.957   8.524  1.3014 -0.2846 -0.1483
 5280SOL     OW17127   2.597   0.651   7.554  0.2433  0.6855  0.4673
 5280SOL    HW117128   2.623   0.621   7.467  1.5950 -0.6727  1.2962
 5280SOL    HW217129   2.664   0.715   7.578  0.1451  0.6974  0.7093
 5281SOL     OW17130   0.375   1.315   4.831  0.6310  0.0130 -0.0263
 5281SOL    HW117131   0.347   1.313   4.922  0.7390 -2.0847  0.0174
 5281SOL    HW217132   0.331   1.239   4.791  1.1163  0.5009 -1.5529
 5282SOL     OW17133   7.026   2.028   6.982 -0.4644  0.2107  0.4733
 5282SOL    HW117134   7.000   1.936   6.985  0.5399 -0.2516 -2.0871
 5282SOL    HW217135   7.066   2.044   7.067 -0.2104 -1.8777  0.8083
 5283SOL     OW17136   0.744   7.513   3.968  0.4874  0.1599 -0.1903
 5283SOL    HW117137   0.838   7.499   3.971  0.5922  0.9508  0.9804
 5283SOL    HW217138   0.707   7.440   4.017  0.4857 -0.1552 -0.6580
 5284SOL     OW17139   0.423   6.442   0.383  0.0081  0.0828 -0.3335
 5284SOL    HW117140   0.398   6.479   0.298  0.6800  1.1652 -0.0769
 5284SOL    HW217141   0.371   6.491   0.447 -0.6981 -0.9148 -0.1166
 5285SOL     OW17142   2.791   2.354   6.483  0.0214  0.2377  0.1124
 5285SOL    HW117143   2.784   2.359   6.387  1.1077  0.9408  0.0531
 5285SOL    HW217144   2.885   2.351   6.500 -0.1190  1.3488  1.2153
 5286SOL     OW17145   0.823   4.230   0.585  0.1404 -0.2771 -0.1357
 5286SOL    HW117146   0.752   4.209   0.645  0.3632 -0.5874  0.0215
 5286SOL    HW217147   0.901   4.234   0.641  0.0757  1.2058 -0.1148
 5287SOL     OW17148   3.361   6.711   1.310  0.3192 -0.2409  0.3860
 5287SOL    HW117149   3.360   6.791   1.258  1.4407  0.1451  0.9217
 5287SOL    HW217150   3.269   6.687   1.320 -0.2320  2.2591  2.1442
 5288SOL     OW17151   1.704   4.592   7.902  0.2664 -0.6511 -0.3358
 5288SOL    HW117152   1.765   4.623   7.969 -1.1625  1.9293 -0.0872
 5288SOL    HW217153   1.721   4.649   7.827 -1.0206 -0.6930 -0.6725
 5289SOL     OW17154   0.714   1.894   0.560 -0.1910  0.0145  0.3276
 5289SOL    HW117155   0.726   1.961   0.493 -1.1349 -0.7069 -0.6160
 5289SOL    HW217156   0.647   1.836   0.523 -1.4134  0.0865  2.2861
 5290SOL     OW17157   0.243   0.791   1.750  0.2288  0.3789 -0.3235
 5290SOL    HW117158   0.162   0.763   1.792  0.1620  2.4191  1.0156
 5290SOL    HW217159   0.297   0.712   1.749 -0.3169 -0.1254  2.3355
 5291SOL     OW17160   6.255   5.279   2.039 -0.0856  0.1315 -0.2137
 5291SOL    HW117161   6.199   5.356   2.033  1.1256  1.1835  1.1983
 5291SOL    HW217162   6.213   5.214   1.982 -1.8706  1.3661 -0.3860
 5292SOL     OW17163   7.546   1.578   7.014 -0.1626 -0.3487  0.1246
 5292SOL    HW117164   7.523   1.522   6.940 -0.4552 -1.2799  0.8998
 5292SOL    HW217165   7.526   1.667   6.984 -0.3962 -0.7262 -0.8610
 5293SOL     OW17166   7.449   6.094   7.099  0.2957  0.0946  0.6475
 5293SOL    HW117167   7.531   6.055   7.067  0.0951 -1.9562  2.4223
 5293SOL    HW217168   7.477   6.150   7.172  0.0508 -2.2836  2.6981
 5294SOL     OW17169   1.227   1.636   1.132 -0.0935  0.2174  0.1150
 5294SOL    HW117170   1.317   1.634   1.101  0.3276 -1.1869  1.2988
 5294SOL    HW217171   1.175   1.650   1.053  1.1356  0.8609 -0.6103
 5295SOL     OW17172   6.107   1.231   7.506 -0.7456  0.3636 -0.0835
 5295SOL    HW117173   6.086   1.138   7.516 -2.5661  0.6256 -1.0399
 5295SOL    HW217174   6.057   1.275   7.575  1.5115  0.5583  1.5654
 5296SOL     OW17175   3.672   4.085   8.220  0.0877 -0.3396  0.0327
 5296SOL    HW117176   3.580   4.070   8.241  0.4339 -0.0507  1.8930
 5296SOL    HW217177   3.675   4.175   8.189 -0.4189 -0.7376 -1.2452
 5297SOL     OW17178   4.007   1.843   1.563  0.2684 -0.9174 -0.1035
 5297SOL    HW117179   3.917   1.814   1.548  0.6133 -2.0349 -0.0305
 5297SOL    HW217180   4.029   1.812   1.650  0.1994  0.7420  0.5419
 5298SOL     OW17181   3.314   7.787   5.524 -0.0470  0.9351 -0.0249
 5298SOL    HW117182   3.332   7.695   5.505 -0.9742  0.5558  0.8631
 5298SOL    HW217183   3.291   7.825   5.439  0.7432  0.4503 -0.4663
 5299SOL     OW17184   6.589   2.143   8.572  0.5427  0.7186  1.0053
 5299SOL    HW117185   6.588   2.122   8.479  1.0834  3.3172  0.3253
 5299SOL    HW217186   6.516   2.204   8.584  1.1026  1.2269  2.0470
 5300SOL     OW17187   6.045   2.987   5.213 -0.1494  0.2116  0.4894
 5300SOL    HW117188   6.133   2.950   5.225 -0.1405 -0.1420 -0.5320
 5300SOL    HW217189   5.989   2.912   5.198 -0.5658  0.4623  0.7796
 5301SOL     OW17190   4.938   3.922   5.679  0.1585  0.9747 -0.1229
 5301SOL    HW117191   4.974   3.939   5.766  0.7152 -1.2144  0.1243
 5301SOL    HW217192   5.001   3.863   5.638 -0.7210  0.9831 -1.5618
 5302SOL     OW17193   6.767   0.648   3.612 -0.1856  0.1639  0.0724
 5302SOL    HW117194   6.732   0.704   3.681  1.5865 -0.0605  1.2077
 5302SOL    HW217195   6.824   0.705   3.561  1.6628 -0.5186  1.2604
 5303SOL     OW17196   3.686   4.393   6.851 -0.1742 -0.3537  0.0316
 5303SOL    HW117197   3.674   4.326   6.918  1.5073 -1.3484 -0.6024
 5303SOL    HW217198   3.625   4.370   6.781 -2.2314  0.9170  1.3138
 5304SOL     OW17199   7.890   3.877   7.626  0.6057 -0.2549 -0.1452
 5304SOL    HW117200   7.836   3.839   7.556  0.7049 -1.7374  0.5322
 5304SOL    HW217201   7.974   3.833   7.617  1.7524  1.9995 -1.1534
 5305SOL     OW17202   7.596   8.235   7.443  0.3806 -0.2421 -0.2532
 5305SOL    HW117203   7.630   8.159   7.490  1.0249  0.5400  0.5918
 5305SOL    HW217204   7.674   8.285   7.419  0.0087 -0.2129 -1.4596
 5306SOL     OW17205   8.656   8.564   4.859  0.2017 -0.5115  0.4844
 5306SOL    HW117206   8.686   8.474   4.875 -0.2913 -0.1905  3.9804
 5306SOL    HW217207   8.709   8.617   4.918 -1.0697  1.2324  0.1216
 5307SOL     OW17208   3.243   2.317   7.027  0.7662 -0.4087 -0.0136
 5307SOL    HW117209   3.158   2.287   7.058 -0.9313  2.6234 -1.3644
 5307SOL    HW217210   3.242   2.299   6.933  1.6097 -0.2565 -0.0597
 5308SOL     OW17211   2.139   0.034   1.009 -0.0302  0.7298  0.4735
 5308SOL    HW117212   2.207   0.055   1.072  0.0100  2.6328 -0.1608
 5308SOL    HW217213   2.182   0.040   0.924 -0.1886 -1.3724  0.1693
 5309SOL     OW17214   4.214   7.052   5.524 -0.1930 -0.2851 -0.5075
 5309SOL    HW117215   4.299   7.050   5.568  0.0996 -1.3573 -1.0826
 5309SOL    HW217216   4.151   7.027   5.591  0.3488 -2.8385 -0.8419
 5310SOL     OW17217   7.162   3.413   6.636 -0.6469 -0.3606 -0.4360
 5310SOL    HW117218   7.179   3.482   6.572  1.7937 -1.0555 -0.6597
 5310SOL    HW217219   7.152   3.333   6.583  0.0810 -0.7236 -0.0477
 5311SOL     OW17220   1.102   7.195   6.249 -0.7120  0.5674  0.3259
 5311SOL    HW117221   1.060   7.247   6.181  0.1793  0.4467 -0.3412
 5311SOL    HW217222   1.097   7.105   6.216  0.6206  0.6232 -0.0872
 5312SOL     OW17223   1.738   2.609   7.775 -0.0860 -0.3437  0.6654
 5312SOL    HW117224   1.799   2.615   7.849 -2.0338  0.3559  2.3012
 5312SOL    HW217225   1.692   2.692   7.775  0.0877 -0.2060 -1.5980
 5313SOL     OW17226   3.474   3.725   4.153 -0.5521  0.1140  0.3857
 5313SOL    HW117227   3.482   3.715   4.059  0.2187  0.0387  0.4577
 5313SOL    HW217228   3.499   3.816   4.170  0.3231 -0.1717  0.6314
 5314SOL     OW17229   4.822   2.583   4.425 -0.0294 -0.0715 -0.0160
 5314SOL    HW117230   4.839   2.675   4.409  0.6439 -0.4447 -1.5923
 5314SOL    HW217231   4.829   2.574   4.520 -2.2898  1.8862  0.4377
 5315SOL     OW17232   6.347   4.069   1.177  0.0709  0.3474  0.1268
 5315SOL    HW117233   6.419   4.132   1.176  1.4410 -1.0476  1.9371
 5315SOL    HW217234   6.378   3.996   1.123 -0.7225  0.4418 -0.4707
 5316SOL     OW17235   8.591   0.604   7.192  0.2112  0.3469  0.5884
 5316SOL    HW117236   8.623   0.671   7.131  0.4525  0.4576  0.8345
 5316SOL    HW217237   8.544   0.653   7.259  1.7919  0.4451  1.6722
 5317SOL     OW17238   7.594   2.488   4.106 -0.3015 -0.1926 -0.8048
 5317SOL    HW117239   7.563   2.561   4.159  0.1898 -0.9629  0.6047
 5317SOL    HW217240   7.606   2.417   4.168  2.1878 -0.5764 -1.5973
 5318SOL     OW17241   3.344   3.449   0.708 -0.3746  0.2770 -0.4123
 5318SOL    HW117242   3.326   3.380   0.771  1.4981  0.4939  0.4354
 5318SOL    HW217243   3.296   3.525   0.740 -0.7060 -0.0441 -0.1414
 5319SOL     OW17244   7.659   5.894   4.878  0.0207 -0.6839 -0.0194
 5319SOL    HW117245   7.613   5.927   4.955  2.4265 -0.0486  1.2265
 5319SOL    HW217246   7.646   5.962   4.812 -1.6724 -1.0234 -0.0802
 5320SOL     OW17247   1.992   6.778   0.778  0.3754  0.5370  0.5569
 5320SOL    HW117248   2.023   6.695   0.814  0.9888  0.2151 -0.6635
 5320SOL    HW217249   2.059   6.841   0.803  1.3452  0.1130 -0.8533
 5321SOL     OW17250   0.787   6.385   1.158  0.5617  0.0746  0.3881
 5321SOL    HW117251   0.830   6.309   1.120 -0.9330 -0.8371  0.4264
 5321SOL    HW217252   0.751   6.433   1.083  0.9050  0.3670  0.4088
 5322SOL     OW17253   3.011   6.185   3.433 -0.2753  0.0234 -0.6839
 5322SOL    HW117254   2.943   6.122   3.408 -0.1888 -0.3098 -0.1044
 5322SOL    HW217255   3.010   6.251   3.363 -0.7628 -0.3136 -1.0002
 5323SOL     OW17256   3.819   7.812   8.403 -0.3811 -0.3252  0.2166
 5323SOL    HW117257   3.881   7.849   8.466  0.8076 -0.2170 -0.9499
 5323SOL    HW217258   3.842   7.720   8.398  0.3417 -0.1102 -0.8903
 5324SOL     OW17259   7.952   4.391   8.441  0.1464  0.2639 -0.5106
 5324SOL    HW117260   8.026   4.452   8.449  0.6960 -0.3689 -0.6859
 5324SOL    HW217261   7.962   4.332   8.516 -0.7574  0.7741  0.0293
 5325SOL     OW17262   8.244   0.379   6.105  0.2479 -0.1676  0.8258
 5325SOL    HW117263   8.241   0.392   6.010  1.1861 -2.1827  0.4584
 5325SOL    HW217264   8.214   0.462   6.142 -0.3238  0.5998 -1.2259
 5326SOL     OW17265   5.828   8.616   6.456  0.2699  0.4122  0.2130
 5326SOL    HW117266   5.751   8.566   6.431 -0.9435  2.5193 -0.5470
 5326SOL    HW217267   5.899   8.552   6.458 -1.3068 -1.4382  0.0873
 5327SOL     OW17268   0.161   6.691   4.644 -0.4455  0.1218  0.1231
 5327SOL    HW117269   0.140   6.724   4.731 -1.4979  0.5703 -0.2871
 5327SOL    HW217270   0.196   6.603   4.659  1.6043  1.0381  1.1803
 5328SOL     OW17271   5.529   7.408   5.363  0.5622  0.5344 -0.4816
 5328SOL    HW117272   5.441   7.419   5.328  0.9006  2.1227 -0.8926
 5328SOL    HW217273   5.535   7.314   5.383 -1.0922  0.3437 -0.7394
 5329SOL     OW17274   3.749   4.153   1.159 -0.1154 -0.7374  0.5219
 5329SOL    HW117275   3.807   4.124   1.229  1.2804  1.6445  0.4465
 5329SOL    HW217276   3.674   4.191   1.204 -0.9566 -2.4149  0.6266
 5330SOL     OW17277   7.880   4.626   7.091 -0.1267  0.3195  0.1656
 5330SOL    HW117278   7.817   4.556   7.105  1.8165 -2.2702 -2.6105
 5330SOL    HW217279   7.854   4.695   7.151 -3.1393 -2.1455  1.9675
 5331SOL     OW17280   5.173   3.859   6.797 -0.0585 -0.2112  0.6080
 5331SOL    HW117281   5.256   3.833   6.836 -0.1035  0.4324  1.1562
 5331SOL    HW217282   5.199   3.914   6.722  0.0078  0.3900  1.0692
 5332SOL     OW17283   8.239   5.736   7.911  0.2535 -0.0191  0.0463
 5332SOL    HW117284   8.300   5.732   7.985 -1.5153  0.1612  1.5691
 5332SOL    HW217285   8.224   5.830   7.897  0.4163 -0.0580 -0.4190
 5333SOL     OW17286   1.512   3.773   2.082 -0.6209 -0.4057 -0.3684
 5333SOL    HW117287   1.521   3.858   2.126 -0.1168 -0.3714 -0.5354
 5333SOL    HW217288   1.592   3.726   2.105 -0.6383 -0.6193 -0.7466
 5334SOL     OW17289   6.630   3.216   0.541  0.1212  0.6364 -0.1503
 5334SOL    HW117290   6.586   3.220   0.456 -0.4857 -0.4433  0.1050
 5334SOL    HW217291   6.599   3.294   0.587  1.0647  1.6685 -1.1825
 5335SOL     OW17292   4.414   4.096   5.192 -0.1464  0.0928  0.1493
 5335SOL    HW117293   4.342   4.156   5.212 -0.1690 -0.5440  2.1415
 5335SOL    HW217294   4.490   4.153   5.180 -0.5589  0.6352  0.0833
 5336SOL     OW17295   5.479   2.473   3.949 -0.1297  0.5096 -0.1326
 5336SOL    HW117296   5.406   2.523   3.985  0.4786  1.0623  0.3777
 5336SOL    HW217297   5.550   2.537   3.941  1.2396 -0.5582  2.2176
 5337SOL     OW17298   7.299   1.354   4.553 -0.6269 -0.0859  0.6646
 5337SOL    HW117299   7.324   1.369   4.462  0.5573 -1.2651  0.7472
 5337SOL    HW217300   7.336   1.268   4.573 -1.5850 -0.2113  2.0145
 5338SOL     OW17301   3.907   3.708   1.455 -0.0015 -0.3307  0.2419
 5338SOL    HW117302   3.869   3.723   1.368  0.0750 -1.0468  0.0800
 5338SOL    HW217303   3.919   3.614   1.460  1.4984 -0.1613  0.3983
 5339SOL     OW17304   3.753   7.925   4.190 -0.1673 -0.8369 -0.0790
 5339SOL    HW117305   3.733   7.840   4.152  0.2428 -1.2769  0.6587
 5339SOL    HW217306   3.817   7.964   4.130 -0.8968 -0.7295 -0.7994
 5340SOL     OW17307   7.415   4.477   2.322 -0.2703  0.0285 -0.0865
 5340SOL    HW117308   7.326   4.478   2.288 -0.3707 -2.0655  0.0050
 5340SOL    HW217309   7.431   4.386   2.347  2.6450 -0.1407 -2.0641
 5341SOL     OW17310   7.900   2.621   0.781 -0.1339 -0.1895  0.0043
 5341SOL    HW117311   7.981   2.657   0.745 -0.0795  0.2101  0.5270
 5341SOL    HW217312   7.897   2.532   0.747  0.4242 -0.1455 -0.1734
 5342SOL     OW17313   6.119   2.362   2.555 -0.0678  0.2003 -0.0964
 5342SOL    HW117314   6.170   2.324   2.627  0.0499  0.4897 -0.0213
 5342SOL    HW217315   6.050   2.299   2.538  0.2480 -0.1439 -0.1181
 5343SOL     OW17316   8.190   3.345   8.379  0.4168  0.3357 -0.4529
 5343SOL    HW117317   8.212   3.419   8.321  1.6868 -0.9888 -1.7544
 5343SOL    HW217318   8.113   3.375   8.427  1.0042  2.5904 -0.7664
 5344SOL     OW17319   3.132   0.811   5.513 -0.3561  0.4524  0.2184
 5344SOL    HW117320   3.130   0.907   5.504 -0.1997  0.2808 -2.4681
 5344SOL    HW217321   3.041   0.786   5.528 -0.4638  0.9784  0.4661
 5345SOL     OW17322   1.602   5.207   3.632 -0.6455  0.7218  0.5294
 5345SOL    HW117323   1.562   5.286   3.596  0.6549  1.3813  0.4910
 5345SOL    HW217324   1.695   5.215   3.611 -0.1597  0.1613  2.3019
 5346SOL     OW17325   7.919   7.259   3.399  0.7355 -0.3051  0.1540
 5346SOL    HW117326   7.912   7.272   3.304  3.9147 -0.5203 -0.2039
 5346SOL    HW217327   7.849   7.197   3.420  0.2078 -0.5713 -2.1179
 5347SOL     OW17328   1.972   7.512   3.888 -0.3253 -0.6552  0.0897
 5347SOL    HW117329   2.005   7.595   3.923  0.9461 -1.5580  1.1917
 5347SOL    HW217330   1.961   7.528   3.794 -0.5642  0.8763  0.3453
 5348SOL     OW17331   0.328   1.731   5.716 -0.1879  0.6670 -0.5574
 5348SOL    HW117332   0.286   1.707   5.633 -2.0927  1.5325  0.1155
 5348SOL    HW217333   0.307   1.658   5.775  1.6184 -0.2115 -0.9186
 5349SOL     OW17334   8.479   7.847   4.378 -0.6763  0.2826  0.5899
 5349SOL    HW117335   8.532   7.847   4.298 -0.7318 -0.0835  0.5498
 5349SOL    HW217336   8.392   7.820   4.349 -0.7757  0.4628  0.7235
 5350SOL     OW17337   2.196   5.024   6.196  0.1574  0.2868 -0.0437
 5350SOL    HW117338   2.159   4.961   6.258  1.6236  0.6635  1.2972
 5350SOL    HW217339   2.167   5.109   6.230  0.2724  0.4631 -0.3840
 5351SOL     OW17340   7.116   3.815   7.228 -0.1702 -0.5753  0.0075
 5351SOL    HW117341   7.044   3.840   7.286  0.6067  0.3643  0.6129
 5351SOL    HW217342   7.092   3.853   7.143 -0.1683  0.1811  0.3295
 5352SOL     OW17343   6.676   4.785   0.872  0.0880  0.5861  0.5426
 5352SOL    HW117344   6.771   4.792   0.876  0.0840  0.9484  0.1543
 5352SOL    HW217345   6.660   4.728   0.797 -0.0059  0.8563  0.3540
 5353SOL     OW17346   8.369   6.516   5.036 -0.1740 -0.2951  0.7863
 5353SOL    HW117347   8.331   6.429   5.020 -1.2738  0.5372 -1.7157
 5353SOL    HW217348   8.461   6.506   5.012 -0.3797 -0.6972  0.1241
 5354SOL     OW17349   5.009   5.462   1.505  0.1148  0.0389  0.2342
 5354SOL    HW117350   4.990   5.540   1.453 -0.8790 -0.5773 -0.3533
 5354SOL    HW217351   5.036   5.496   1.590  0.3696  1.0348 -0.2340
 5355SOL     OW17352   1.292   3.253   4.389 -0.1514 -0.0385  0.0655
 5355SOL    HW117353   1.366   3.281   4.443 -1.4108  2.6795  0.5360
 5355SOL    HW217354   1.226   3.222   4.451 -1.3306  2.4313  0.1458
 5356SOL     OW17355   0.819   6.807   1.067  0.2489  0.0600  0.1189
 5356SOL    HW117356   0.757   6.755   1.016  0.3755  0.6374 -0.6459
 5356SOL    HW217357   0.869   6.856   1.001  0.6099  0.6109  0.7878
 5357SOL     OW17358   1.670   4.538   3.991  0.3850  0.4124 -0.0490
 5357SOL    HW117359   1.628   4.608   4.041  2.1397  1.5525 -0.0680
 5357SOL    HW217360   1.762   4.564   3.987  0.8036 -1.1247 -1.4155
 5358SOL     OW17361   8.009   8.509   2.975 -0.3355 -0.6328 -0.2227
 5358SOL    HW117362   8.069   8.489   3.047  1.6009  0.7171 -1.3633
 5358SOL    HW217363   8.064   8.506   2.897 -1.4625  1.8647 -1.1949
 5359SOL     OW17364   5.950   5.061   7.339  0.3482 -0.4986 -0.5188
 5359SOL    HW117365   5.960   5.075   7.433  2.6394  0.1014 -0.7824
 5359SOL    HW217366   6.023   5.003   7.316 -0.3326 -0.8531 -1.8810
 5360SOL     OW17367   3.036   8.680   3.880  0.1359  0.1427  0.4764
 5360SOL    HW117368   3.058   8.772   3.869  1.5312 -0.0465  1.4201
 5360SOL    HW217369   3.117   8.633   3.861 -0.1218 -0.7805  1.5012
 5361SOL     OW17370   2.334   6.933   7.933 -0.4708  0.0325 -0.3030
 5361SOL    HW117371   2.378   6.927   7.848  1.6389 -0.0492  0.7172
 5361SOL    HW217372   2.364   7.017   7.969  0.1765 -0.7747  1.1142
 5362SOL     OW17373   4.046   7.552   0.794 -0.1729 -0.2538 -0.3463
 5362SOL    HW117374   4.116   7.510   0.745  3.3136  3.4120  0.9368
 5362SOL    HW217375   4.032   7.636   0.750 -0.0347  1.2718  2.2845
 5363SOL     OW17376   2.506   7.729   1.111 -0.5022 -0.0962  0.5244
 5363SOL    HW117377   2.434   7.742   1.171  1.1202 -1.5087  2.9558
 5363SOL    HW217378   2.583   7.761   1.158  0.4692  2.0659 -2.2591
 5364SOL     OW17379   0.413   1.290   8.512 -0.2524  0.1953 -0.0905
 5364SOL    HW117380   0.322   1.262   8.514 -0.0250 -0.5681  1.1334
 5364SOL    HW217381   0.409   1.385   8.499 -1.1997  0.0986 -0.5315
 5365SOL     OW17382   5.097   6.801   2.762 -0.3735 -0.0070  0.0100
 5365SOL    HW117383   5.156   6.833   2.694  0.8037 -1.0257  0.5015
 5365SOL    HW217384   5.151   6.795   2.840 -1.3049 -0.3401  0.6530
 5366SOL     OW17385   6.652   1.724   1.541 -0.3774 -0.0988 -0.1736
 5366SOL    HW117386   6.734   1.690   1.576 -1.2897 -1.2994  0.9241
 5366SOL    HW217387   6.607   1.761   1.617 -1.3113 -0.4362 -0.5478
 5367SOL     OW17388   0.227   5.805   6.042 -0.3598  0.5594  0.3543
 5367SOL    HW117389   0.277   5.796   5.961 -2.4721 -0.8588 -0.8903
 5367SOL    HW217390   0.278   5.867   6.095  2.8736 -1.0198 -0.6219
 5368SOL     OW17391   2.640   0.591   1.708 -0.2554 -0.1721  0.4125
 5368SOL    HW117392   2.705   0.527   1.738  0.4228  0.6624  0.8056
 5368SOL    HW217393   2.573   0.590   1.776 -0.2647 -0.4852  0.4001
 5369SOL     OW17394   8.123   7.983   6.457 -0.4240  0.1220  1.0350
 5369SOL    HW117395   8.159   8.070   6.477 -0.8525 -0.0362  2.5991
 5369SOL    HW217396   8.199   7.932   6.428  0.3318  0.2698  2.6721
 5370SOL     OW17397   8.220   1.180   2.837 -0.1618 -0.8507 -0.1448
 5370SOL    HW117398   8.178   1.265   2.841 -1.2635 -1.3486 -0.7788
 5370SOL    HW217399   8.311   1.199   2.812 -0.1388  0.1917  0.7053
 5371SOL     OW17400   4.158   5.856   5.360 -0.1990  0.6948 -0.4525
 5371SOL    HW117401   4.225   5.860   5.429  0.7318 -1.2813 -1.1594
 5371SOL    HW217402   4.080   5.821   5.403  1.0927 -2.9738 -0.7455
 5372SOL     OW17403   1.713   0.825   1.381  0.0097  0.6309  0.0422
 5372SOL    HW117404   1.780   0.830   1.313  1.0338  0.1422  0.9856
 5372SOL    HW217405   1.637   0.869   1.342  0.7694  0.9520 -1.1593
 5373SOL     OW17406   4.169   7.239   2.486  0.2538 -0.7617 -0.0344
 5373SOL    HW117407   4.172   7.149   2.454 -0.9982  0.1818 -3.1847
 5373SOL    HW217408   4.230   7.286   2.430 -2.1482  1.0406 -1.3194
 5374SOL     OW17409   4.466   3.740   3.375  0.5066  0.6616  0.3127
 5374SOL    HW117410   4.394   3.683   3.350  1.1031  0.1034 -0.1600
 5374SOL    HW217411   4.498   3.776   3.292  0.0486  1.7994  0.6160
 5375SOL     OW17412   4.911   5.925   8.227  0.4138  0.1392 -0.0409
 5375SOL    HW117413   4.980   5.858   8.228 -1.1149 -1.5107  0.6425
 5375SOL    HW217414   4.942   5.992   8.289  1.4971 -0.4349  0.0704
 5376SOL     OW17415   7.231   4.976   5.152 -0.4062 -0.0562 -0.4207
 5376SOL    HW117416   7.244   5.056   5.102  0.9141  0.0739  0.0976
 5376SOL    HW217417   7.143   4.985   5.189 -0.3686  1.0287 -0.5798
 5377SOL     OW17418   4.634   6.567   4.695 -0.2050  0.4258  0.0357
 5377SOL    HW117419   4.620   6.472   4.697 -0.3372  0.4556  0.7235
 5377SOL    HW217420   4.558   6.602   4.649 -1.1995  0.3676  1.5705
 5378SOL     OW17421   6.672   8.468   1.917 -0.0630 -0.0255 -0.3349
 5378SOL    HW117422   6.762   8.452   1.944 -0.0479 -0.3023 -0.5454
 5378SOL    HW217423   6.633   8.381   1.909 -0.0850  0.0487 -1.1394
 5379SOL     OW17424   5.911   8.092   1.706  0.3471 -0.1435 -0.2687
 5379SOL    HW117425   5.976   8.051   1.763  0.1410 -0.6739 -0.4031
 5379SOL    HW217426   5.961   8.123   1.631  1.1151  3.2541  1.4872
 5380SOL     OW17427   0.053   0.274   6.847 -0.2096  0.2263 -0.0928
 5380SOL    HW117428   0.131   0.271   6.792 -0.0568  0.2269  0.1230
 5380SOL    HW217429   0.074   0.338   6.916 -0.4494  0.3266 -0.1102
 5381SOL     OW17430   7.222   0.567   4.807 -0.0786 -0.0683 -0.0043
 5381SOL    HW117431   7.272   0.648   4.808 -0.3381  0.1337  1.9586
 5381SOL    HW217432   7.278   0.503   4.763  0.6590  0.8663 -0.4324
 5382SOL     OW17433   0.764   8.058   6.170  0.3589  0.0368  0.4923
 5382SOL    HW117434   0.794   7.972   6.139  0.1609 -0.0433  0.5171
 5382SOL    HW217435   0.669   8.048   6.179  0.1473  0.6500 -0.7659
 5383SOL     OW17436   2.273   3.786   5.906 -0.4019  0.8061  0.2051
 5383SOL    HW117437   2.188   3.806   5.945  0.2049  1.8261  1.0317
 5383SOL    HW217438   2.280   3.847   5.832 -1.3214 -0.7737 -1.2866
 5384SOL     OW17439   7.494   6.596   2.995  0.0855  0.4936 -0.1551
 5384SOL    HW117440   7.516   6.658   2.925  0.5394 -0.6427 -1.0590
 5384SOL    HW217441   7.571   6.598   3.052 -0.4623  1.7415  0.5731
 5385SOL     OW17442   0.281   7.730   6.603  0.2234  0.3147  0.1428
 5385SOL    HW117443   0.284   7.692   6.691 -1.2226  0.3218  0.2222
 5385SOL    HW217444   0.199   7.780   6.601 -0.6068 -1.0038 -1.7180
 5386SOL     OW17445   0.546   0.988   8.040 -0.6171 -0.0637 -0.2439
 5386SOL    HW117446   0.462   0.942   8.034 -0.3289 -0.7608  0.6995
 5386SOL    HW217447   0.546   1.026   8.128  1.6068 -3.3932  1.4581
 5387SOL     OW17448   2.774   0.137   3.399 -0.0297  0.3421  0.0874
 5387SOL    HW117449   2.814   0.092   3.473 -0.1438 -1.6900 -1.0075
 5387SOL    HW217450   2.705   0.079   3.369 -0.3553  1.3641 -1.2795
 5388SOL     OW17451   8.660   0.188   7.256 -0.0334 -0.2266  0.3552
 5388SOL    HW117452   8.705   0.252   7.200  1.2920 -1.1196  0.3594
 5388SOL    HW217453   8.569   0.189   7.225 -0.0719  1.6944  0.4081
 5389SOL     OW17454   0.389   1.620   1.553  0.4343 -0.1370 -0.0629
 5389SOL    HW117455   0.362   1.545   1.500 -2.0903  0.8658 -0.3200
 5389SOL    HW217456   0.451   1.668   1.497 -0.6220 -0.1846 -1.3318
 5390SOL     OW17457   2.988   0.566   1.939  0.1594 -0.3341 -0.2560
 5390SOL    HW117458   2.924   0.526   1.880 -1.4664 -0.4453  1.5096
 5390SOL    HW217459   3.015   0.495   1.997 -2.7118  0.8896  2.8767
 5391SOL     OW17460   1.083   0.156   5.896 -0.2165  1.1334  0.1644
 5391SOL    HW117461   1.039   0.129   5.977 -0.6012 -2.3607 -1.0324
 5391SOL    HW217462   1.167   0.110   5.899 -1.4905 -1.7926 -2.6882
 5392SOL     OW17463   2.266   0.968   0.728 -0.5639 -0.3257  0.0575
 5392SOL    HW117464   2.255   0.953   0.634  0.5108  0.6216 -0.2398
 5392SOL    HW217465   2.335   0.908   0.754 -0.0990  0.1780  0.0042
 5393SOL     OW17466   8.630   0.653   1.382 -0.4938 -0.3675  0.4223
 5393SOL    HW117467   8.581   0.570   1.384 -0.3990 -0.4575  3.3419
 5393SOL    HW217468   8.576   0.714   1.432 -0.8283  1.5928 -2.1401
 5394SOL     OW17469   6.808   6.266   0.512 -0.5048 -0.2351  0.7827
 5394SOL    HW117470   6.882   6.326   0.501  0.4163 -1.5812 -0.8575
 5394SOL    HW217471   6.731   6.317   0.486  0.0548  0.6594  0.8360
 5395SOL     OW17472   7.489   8.654   2.286 -0.1319 -0.0524  0.0220
 5395SOL    HW117473   7.397   8.676   2.270 -1.0486 -2.4106  1.5602
 5395SOL    HW217474   7.498   8.659   2.381  0.2273 -3.4908  0.2616
 5396SOL     OW17475   7.626   1.336   3.544 -0.3314 -0.2618 -0.0155
 5396SOL    HW117476   7.576   1.411   3.574  0.8764  0.3889  0.4563
 5396SOL    HW217477   7.648   1.356   3.453  0.6389  0.3458  0.3337
 5397SOL     OW17478   6.038   7.536   7.607  0.0796  0.2256 -0.7061
 5397SOL    HW117479   6.102   7.557   7.674  0.4147 -0.1236 -0.9096
 5397SOL    HW217480   6.041   7.610   7.546 -0.7894  0.9185  0.0624
 5398SOL     OW17481   5.837   7.474   5.341 -0.2451 -0.0415 -0.6326
 5398SOL    HW117482   5.859   7.527   5.418  0.2616  0.5681 -1.1910
 5398SOL    HW217483   5.742   7.481   5.334 -0.1051  1.6711 -1.3052
 5399SOL     OW17484   7.577   7.266   8.368 -0.2425 -0.2421  0.2332
 5399SOL    HW117485   7.661   7.268   8.414 -0.5332 -0.2641  0.7696
 5399SOL    HW217486   7.601   7.256   8.276  0.3730  0.7523  0.2694
 5400SOL     OW17487   2.399   3.629   3.031  0.3199  0.1602 -0.7289
 5400SOL    HW117488   2.427   3.704   2.978 -0.3003  0.5705 -0.4833
 5400SOL    HW217489   2.440   3.642   3.116  1.2018 -0.4252 -1.0561
 5401SOL     OW17490   8.064   0.913   4.666  0.4171 -0.5269 -0.1717
 5401SOL    HW117491   8.108   0.863   4.598  0.4984  1.0805 -1.3588
 5401SOL    HW217492   8.007   0.973   4.619  2.5100  2.6043  0.9410
 5402SOL     OW17493   8.417   4.545   7.160 -0.2863 -0.4376 -0.2354
 5402SOL    HW117494   8.367   4.528   7.240  1.3147 -4.5465  0.1054
 5402SOL    HW217495   8.508   4.549   7.190  0.2019 -0.3873 -1.6762
 5403SOL     OW17496   0.959   1.137   2.448 -0.3228 -0.3700  0.2867
 5403SOL    HW117497   1.027   1.153   2.513 -1.1518  1.9152  0.6844
 5403SOL    HW217498   0.941   1.224   2.411 -1.6324 -1.2310 -1.2120
 5404SOL     OW17499   4.190   7.829   7.165  0.4304  0.0479  0.0752
 5404SOL    HW117500   4.163   7.870   7.247  0.1068  1.4618 -0.6890
 5404SOL    HW217501   4.140   7.748   7.161 -1.5981  1.2183  0.0662
 5405SOL     OW17502   5.387   4.931   2.525 -0.2532 -0.0890  0.5805
 5405SOL    HW117503   5.380   5.026   2.534  1.0578  0.2694 -1.5428
 5405SOL    HW217504   5.301   4.903   2.496 -0.5319  0.5050  0.8212
 5406SOL     OW17505   3.811   7.623   6.002 -0.2682 -0.3255 -0.8967
 5406SOL    HW117506   3.757   7.700   5.986 -2.7298 -1.8486 -0.4039
 5406SOL    HW217507   3.811   7.575   5.919 -0.5960 -0.8616 -0.5931
 5407SOL     OW17508   3.215   4.856   3.307 -0.2213  0.2162  0.0325
 5407SOL    HW117509   3.272   4.835   3.233 -1.8941 -0.5458 -1.1110
 5407SOL    HW217510   3.250   4.806   3.380 -1.3651 -3.0819 -1.4766
 5408SOL     OW17511   2.330   2.122   5.291  0.0413  0.4435 -0.5216
 5408SOL    HW117512   2.403   2.060   5.293 -0.0656  0.3473  0.8285
 5408SOL    HW217513   2.254   2.069   5.268  0.4081  0.5954 -2.2466
 5409SOL     OW17514   2.502   5.270   0.467  0.4527  0.0719  0.2215
 5409SOL    HW117515   2.574   5.208   0.478  0.9575  0.5820 -0.1786
 5409SOL    HW217516   2.458   5.272   0.552 -1.1339 -2.7528 -0.4017
 5410SOL     OW17517   3.906   1.993   5.815  0.3130 -0.2215 -0.3959
 5410SOL    HW117518   3.923   1.983   5.908 -0.2360 -0.3897 -0.3124
 5410SOL    HW217519   3.823   2.040   5.810  0.8298  0.6623 -0.8021
 5411SOL     OW17520   8.099   6.202   4.299 -0.0273 -0.8647  0.0987
 5411SOL    HW117521   8.147   6.221   4.379  1.6576  0.5913 -1.1915
 5411SOL    HW217522   8.009   6.188   4.329 -0.2745  3.2542  1.9719
 5412SOL     OW17523   8.518   3.416   2.224  0.1039 -0.1948 -0.2688
 5412SOL    HW117524   8.599   3.369   2.199 -0.2176 -0.1298 -1.4847
 5412SOL    HW217525   8.531   3.505   2.193 -0.5812 -0.2691 -0.7756
 5413SOL     OW17526   0.691   0.370   6.130 -0.5152 -0.3054 -0.5588
 5413SOL    HW117527   0.716   0.309   6.061 -0.5252  0.4021 -1.2021
 5413SOL    HW217528   0.619   0.327   6.176 -0.7281 -0.6393 -1.1988
 5414SOL     OW17529   6.068   8.649   2.506  0.2235 -1.0993  0.1053
 5414SOL    HW117530   6.062   8.664   2.411 -0.4327  1.6472  0.4911
 5414SOL    HW217531   6.150   8.692   2.531 -0.0301 -1.0857  0.9119
 5415SOL     OW17532   2.238   5.769   6.055 -0.4854 -0.1722 -0.0456
 5415SOL    HW117533   2.215   5.862   6.062  0.6072  0.0232  1.6037
 5415SOL    HW217534   2.327   5.769   6.022 -0.7714 -0.6882 -0.8400
 5416SOL     OW17535   4.032   7.539   4.053  0.8459 -0.2438  1.0030
 5416SOL    HW117536   3.994   7.610   4.002  1.4986  1.1871  2.4164
 5416SOL    HW217537   4.053   7.472   3.988 -0.0625  0.7090 -0.3410
 5417SOL     OW17538   0.834   8.169   8.231  0.0475 -0.5387  0.1175
 5417SOL    HW117539   0.804   8.180   8.141  0.9592 -1.1901 -0.2830
 5417SOL    HW217540   0.896   8.241   8.244 -0.6703  0.0200  0.4967
 5418SOL     OW17541   7.277   1.050   6.228  0.0820  0.1990 -0.1886
 5418SOL    HW117542   7.228   0.975   6.262 -0.3424  1.0179  1.0418
 5418SOL    HW217543   7.211   1.114   6.205  0.4339  0.1262 -1.4861
 5419SOL     OW17544   2.720   1.646   3.390  0.0638 -0.1443  0.3326
 5419SOL    HW117545   2.650   1.702   3.423 -0.6849 -1.7924  1.7180
 5419SOL    HW217546   2.675   1.583   3.333  0.6409 -0.3549  0.0967
 5420SOL     OW17547   6.910   4.480   8.062 -0.8768 -0.0323  0.4538
 5420SOL    HW117548   6.820   4.468   8.092 -1.2721 -1.6313 -1.1504
 5420SOL    HW217549   6.901   4.525   7.978 -0.0859  0.8368  0.8230
 5421SOL     OW17550   8.320   2.404   8.443 -0.5998 -0.7498  0.0860
 5421SOL    HW117551   8.299   2.419   8.536 -0.0529 -1.1283  0.2709
 5421SOL    HW217552   8.403   2.449   8.430 -0.7435 -0.5858 -0.2576
 5422SOL     OW17553   4.099   1.120   7.420 -0.2904  0.5853  0.1145
 5422SOL    HW117554   4.101   1.208   7.457  0.6263  1.2540 -1.4293
 5422SOL    HW217555   4.185   1.083   7.440 -0.0907  0.6448 -0.5990
 5423SOL     OW17556   2.402   5.962   2.811 -0.0906 -0.2323 -0.0466
 5423SOL    HW117557   2.420   6.054   2.791  0.2179  0.2847  2.2853
 5423SOL    HW217558   2.349   5.931   2.738  1.6105  1.1533 -1.9913
 5424SOL     OW17559   0.527   1.260   2.143 -0.0191 -0.6387 -0.2779
 5424SOL    HW117560   0.487   1.195   2.202 -1.1646  0.0982 -0.2211
 5424SOL    HW217561   0.456   1.286   2.084  0.2506  1.0034  0.0821
 5425SOL     OW17562   1.264   6.284   1.190 -0.1257  0.1726  0.5803
 5425SOL    HW117563   1.341   6.250   1.236 -0.6225  0.7486  1.8865
 5425SOL    HW217564   1.300   6.334   1.116  0.6497 -2.7873 -1.2378
 5426SOL     OW17565   1.109   2.245   1.544  0.0976  0.3766  0.1430
 5426SOL    HW117566   1.123   2.305   1.470 -0.2914 -2.7938 -2.7586
 5426SOL    HW217567   1.023   2.207   1.528  0.2776 -0.8979  1.8931
 5427SOL     OW17568   6.691   7.205   4.714  0.4256 -0.3239  0.1549
 5427SOL    HW117569   6.693   7.289   4.761  0.4755  0.0749 -0.5494
 5427SOL    HW217570   6.614   7.160   4.749  0.2377  0.1357  0.3426
 5428SOL     OW17571   1.394   1.451   6.359 -0.5916 -0.3961 -0.4207
 5428SOL    HW117572   1.424   1.519   6.420 -1.3907 -1.1642  0.8562
 5428SOL    HW217573   1.472   1.399   6.342 -0.4001 -0.2961  0.1192
 5429SOL     OW17574   1.528   0.245   4.308 -0.2479  0.1890  0.9068
 5429SOL    HW117575   1.620   0.226   4.324  0.0416 -0.1326 -0.8761
 5429SOL    HW217576   1.527   0.331   4.266 -0.8034  0.3550  1.2365
 5430SOL     OW17577   4.200   5.929   2.243 -0.1885  0.2791 -0.0259
 5430SOL    HW117578   4.226   6.003   2.297  1.4493 -1.6271  1.9660
 5430SOL    HW217579   4.282   5.894   2.209 -0.7116 -1.8149  0.7477
 5431SOL     OW17580   3.474   2.473   7.010 -0.6121  0.2351  0.7624
 5431SOL    HW117581   3.406   2.410   7.032 -0.1006  0.2553  2.5760
 5431SOL    HW217582   3.426   2.554   6.989 -1.1738 -0.0165  1.0620
 5432SOL     OW17583   5.967   1.279   0.718 -0.1323 -0.5024  0.1098
 5432SOL    HW117584   5.995   1.190   0.700 -0.1419 -0.8425  1.6470
 5432SOL    HW217585   5.960   1.284   0.813  1.6072  1.6681  0.2118
 5433SOL     OW17586   3.137   3.180   7.558 -0.1865  0.1235  0.0437
 5433SOL    HW117587   3.071   3.215   7.498 -0.2216  1.3321  0.7556
 5433SOL    HW217588   3.209   3.242   7.554 -0.0207  0.0062  0.9515
 5434SOL     OW17589   0.022   1.122   2.218  0.1142 -0.1766  0.6266
 5434SOL    HW117590  -0.067   1.096   2.242  0.5781 -0.9846  1.5369
 5434SOL    HW217591   0.058   1.044   2.175  0.8434 -0.3681  1.5453
 5435SOL     OW17592   7.567   3.664   5.851  0.6300  0.3675 -0.0213
 5435SOL    HW117593   7.662   3.673   5.839  0.6591 -0.4089 -0.4753
 5435SOL    HW217594   7.534   3.753   5.847  1.2310  0.5692 -1.0111
 5436SOL     OW17595   4.080   2.825   3.525 -0.0110  0.3357 -0.3545
 5436SOL    HW117596   3.994   2.846   3.489  0.1461  0.0798 -0.8853
 5436SOL    HW217597   4.092   2.888   3.596 -1.1812 -0.4349  0.5622
 5437SOL     OW17598   5.617   6.642   3.182  0.3748 -0.2256  0.1906
 5437SOL    HW117599   5.560   6.718   3.190 -0.3933 -0.7686  0.0942
 5437SOL    HW217600   5.603   6.610   3.093  0.1916 -0.8374  0.4257
 5438SOL     OW17601   7.953   7.493   1.221  0.3714  0.5430 -0.0722
 5438SOL    HW117602   7.875   7.466   1.269  0.6519  2.5383  1.6436
 5438SOL    HW217603   7.994   7.411   1.195 -2.2193 -0.5856 -1.0144
 5439SOL     OW17604   3.473   0.260   0.010 -0.2774 -0.1871  0.3892
 5439SOL    HW117605   3.395   0.286  -0.039 -0.7725 -2.5495 -0.2214
 5439SOL    HW217606   3.487   0.330   0.073 -2.0898  0.9423 -0.4007
 5440SOL     OW17607   5.572   8.468   6.287  0.9123 -0.0450  0.2562
 5440SOL    HW117608   5.512   8.406   6.329  0.8369 -0.4734 -0.4560
 5440SOL    HW217609   5.515   8.525   6.235  1.0644 -0.0457  0.0879
 5441SOL     OW17610   1.419   0.735   6.635  0.3241 -0.0212  0.0912
 5441SOL    HW117611   1.441   0.797   6.566 -0.9686  0.6629  0.2710
 5441SOL    HW217612   1.461   0.770   6.714  1.3889 -0.5442 -0.2155
 5442SOL     OW17613   7.719   0.285   8.426  0.2327  0.0633 -0.5727
 5442SOL    HW117614   7.633   0.296   8.387  0.0610  0.3987 -0.1049
 5442SOL    HW217615   7.703   0.232   8.505 -0.0227  2.6422  1.2195
 5443SOL     OW17616   3.687   8.293   4.263 -0.2966 -0.6965 -0.2941
 5443SOL    HW117617   3.659   8.383   4.250  3.2161  0.5497 -0.1746
 5443SOL    HW217618   3.643   8.244   4.194 -0.1484  1.6145 -2.1517
 5444SOL     OW17619   1.278   0.725   1.279  0.4083 -0.7818 -0.0455
 5444SOL    HW117620   1.350   0.745   1.339 -0.2051  0.8510  0.2118
 5444SOL    HW217621   1.306   0.762   1.195 -0.4452  0.6682  0.2620
 5445SOL     OW17622   5.941   7.663   4.086  0.2863 -0.0943  0.3493
 5445SOL    HW117623   5.966   7.640   3.996 -2.0963  0.9471 -0.6859
 5445SOL    HW217624   5.854   7.625   4.097  0.3487  0.1943  2.0779
 5446SOL     OW17625   0.129   8.331   2.889 -0.7220 -0.0035  0.2265
 5446SOL    HW117626   0.048   8.376   2.913 -0.9436 -1.0605  1.5822
 5446SOL    HW217627   0.116   8.306   2.797 -1.7250  0.2693  0.2831
 5447SOL     OW17628   7.715   3.993   4.505 -0.1420 -0.1521 -0.1941
 5447SOL    HW117629   7.676   3.950   4.581 -1.0560 -2.3997 -1.8224
 5447SOL    HW217630   7.643   4.042   4.465  0.5310  1.7229  0.7780
 5448SOL     OW17631   5.103   2.322   4.054  0.4565  0.0027 -0.0128
 5448SOL    HW117632   5.076   2.372   4.130 -0.8279 -1.8181  0.7956
 5448SOL    HW217633   5.073   2.373   3.979 -1.3039  0.2109  0.7905
 5449SOL     OW17634   5.070   3.148   4.495 -0.2166  0.0791 -0.9957
 5449SOL    HW117635   4.993   3.203   4.483 -0.1622  0.4618  0.2317
 5449SOL    HW217636   5.127   3.198   4.553 -0.4643 -1.5154  0.7377
 5450SOL     OW17637   7.906   1.276   7.893  0.7743 -0.6316 -0.3718
 5450SOL    HW117638   7.816   1.309   7.902  0.9376  0.1203 -1.2314
 5450SOL    HW217639   7.895   1.187   7.859  0.3425 -0.4114 -0.8406
 5451SOL     OW17640   1.134   5.939   3.595  0.0216  0.0157  0.4049
 5451SOL    HW117641   1.202   5.938   3.662 -1.4531  1.2071  2.0086
 5451SOL    HW217642   1.058   5.898   3.637 -0.7397  0.1758 -0.7652
 5452SOL     OW17643   2.315   4.611   0.597  0.2749 -0.2375 -0.0530
 5452SOL    HW117644   2.231   4.587   0.636  0.0658 -0.0652 -0.4032
 5452SOL    HW217645   2.294   4.643   0.510  0.7265 -0.4138 -0.2317
 5453SOL     OW17646   0.081   4.861   7.306  0.0693  0.4459  0.2264
 5453SOL    HW117647   0.124   4.943   7.331  1.2243 -0.2393  0.5701
 5453SOL    HW217648   0.118   4.796   7.366 -0.7758 -0.3394 -0.0890
 5454SOL     OW17649   7.413   7.240   3.939 -0.2360 -0.0426  0.1827
 5454SOL    HW117650   7.498   7.238   3.895 -0.1644 -1.7018  0.3274
 5454SOL    HW217651   7.375   7.324   3.914  1.3260  0.6097 -0.0998
 5455SOL     OW17652   1.864   5.771   3.722  0.5187 -0.1266  0.2772
 5455SOL    HW117653   1.952   5.809   3.714  0.2465  0.2952 -0.9310
 5455SOL    HW217654   1.861   5.737   3.811  1.5152  0.8351  0.7043
 5456SOL     OW17655   6.749   7.646   0.740  0.4661 -0.7332  0.6480
 5456SOL    HW117656   6.794   7.584   0.683  2.0085  1.1333 -0.2761
 5456SOL    HW217657   6.658   7.616   0.740  0.9472 -2.3581 -0.5929
 5457SOL     OW17658   7.640   3.606   8.287  0.1500 -0.3475  0.4103
 5457SOL    HW117659   7.591   3.688   8.299  0.1100 -0.2213 -0.5629
 5457SOL    HW217660   7.587   3.554   8.227  1.2936 -0.1065 -0.8778
 5458SOL     OW17661   3.472   6.118   5.438 -0.1694 -0.1203 -0.3208
 5458SOL    HW117662   3.388   6.153   5.409 -0.5157 -0.4404  0.2889
 5458SOL    HW217663   3.510   6.188   5.492 -0.5894 -0.4314  0.3938
 5459SOL     OW17664   2.487   5.406   7.371 -0.1809 -0.1902 -0.0485
 5459SOL    HW117665   2.536   5.324   7.360  0.9452  0.5390 -0.8040
 5459SOL    HW217666   2.463   5.409   7.463  2.4102  0.0145  0.6963
 5460SOL     OW17667   7.915   8.033   0.171 -0.1260 -0.1659  0.0054
 5460SOL    HW117668   7.919   7.941   0.146 -2.2599 -0.1541 -0.5442
 5460SOL    HW217669   7.899   8.032   0.266  0.3545 -0.3222  0.0913
 5461SOL     OW17670   7.944   5.872   0.582 -0.2184 -0.7407  0.5678
 5461SOL    HW117671   7.904   5.796   0.540 -1.6584  0.7436 -0.8969
 5461SOL    HW217672   7.952   5.937   0.511  1.3181  0.3529  1.6805
 5462SOL     OW17673   7.222   3.282   1.902 -0.0057 -0.1023 -0.3822
 5462SOL    HW117674   7.178   3.201   1.927  1.2165 -0.2982  1.3692
 5462SOL    HW217675   7.168   3.351   1.941  1.2436 -0.3550  2.0191
 5463SOL     OW17676   0.457   7.285   4.179  0.2523 -0.5361  0.2650
 5463SOL    HW117677   0.526   7.221   4.162  1.2617  1.1677 -3.0161
 5463SOL    HW217678   0.503   7.363   4.210 -0.4630 -0.1160  0.2921
 5464SOL     OW17679   6.463   5.655   1.500  0.2865  0.3600 -0.3008
 5464SOL    HW117680   6.463   5.706   1.420 -1.2053 -0.1666 -0.6659
 5464SOL    HW217681   6.555   5.635   1.516  0.6310  0.7801 -1.6656
 5465SOL     OW17682   2.702   2.127   0.373 -0.2499  0.0357 -0.4587
 5465SOL    HW117683   2.745   2.205   0.338  1.6796 -0.6965  0.1689
 5465SOL    HW217684   2.772   2.062   0.381 -1.4463 -1.1719  0.7615
 5466SOL     OW17685   6.067   6.902   5.965  0.4301  0.1395 -0.0910
 5466SOL    HW117686   6.117   6.926   6.043  0.9700  0.6495 -0.5821
 5466SOL    HW217687   6.120   6.933   5.892  0.0814 -0.6075 -0.6759
 5467SOL     OW17688   5.977   1.733   5.323 -0.1222 -0.0475 -0.1668
 5467SOL    HW117689   5.935   1.815   5.298  0.8799  0.3353 -0.6637
 5467SOL    HW217690   6.071   1.753   5.321  0.4064 -1.9883 -3.5350
 5468SOL     OW17691   4.525   4.204   5.517 -0.2407 -0.4500 -0.2879
 5468SOL    HW117692   4.582   4.210   5.441 -0.5019  0.8507 -0.4021
 5468SOL    HW217693   4.583   4.176   5.588  0.8459  1.9505 -0.1391
 5469SOL     OW17694   4.253   3.758   0.581 -0.4888 -0.0322  0.2915
 5469SOL    HW117695   4.224   3.722   0.664 -2.0688  1.7025  0.5579
 5469SOL    HW217696   4.210   3.844   0.575  0.9514  0.6446 -1.5171
 5470SOL     OW17697   1.411   2.915   5.669 -0.3509 -0.2811  0.3238
 5470SOL    HW117698   1.390   2.914   5.762  0.5622 -0.9854  0.5365
 5470SOL    HW217699   1.441   2.827   5.650 -1.1259 -0.3269 -0.7947
 5471SOL     OW17700   4.655   0.160   3.577 -0.8316  0.0136 -0.3771
 5471SOL    HW117701   4.715   0.146   3.649 -3.1697  1.0574  1.9390
 5471SOL    HW217702   4.578   0.106   3.598 -0.7879 -1.4086 -3.2856
 5472SOL     OW17703   8.411   6.493   8.214  0.4460  0.2407  0.4471
 5472SOL    HW117704   8.374   6.581   8.209 -0.9403 -0.3964 -1.3564
 5472SOL    HW217705   8.390   6.464   8.303  0.0897  1.3766  0.7557
 5473SOL     OW17706   3.175   0.335   5.707 -0.4241 -0.0785  0.1444
 5473SOL    HW117707   3.163   0.350   5.613 -1.9391 -0.8876  0.1703
 5473SOL    HW217708   3.262   0.296   5.714 -0.4380 -0.3457 -0.9634
 5474SOL     OW17709   2.422   4.649   3.074 -0.2908  0.2182  0.3101
 5474SOL    HW117710   2.360   4.707   3.029  0.5402  1.2955  0.5265
 5474SOL    HW217711   2.496   4.643   3.014 -0.1099 -0.1215  0.5677
 5475SOL     OW17712   6.718   6.386   1.892  0.0497 -0.0076  0.2591
 5475SOL    HW117713   6.643   6.334   1.861  0.6243  0.4078 -1.9957
 5475SOL    HW217714   6.788   6.322   1.904 -0.3062 -0.2342  1.1664
 5476SOL     OW17715   1.641   5.261   3.063  0.0655  0.0192  0.1844
 5476SOL    HW117716   1.648   5.346   3.021  1.5603 -1.3679 -2.6259
 5476SOL    HW217717   1.697   5.268   3.140 -1.1393  2.0067  0.9660
 5477SOL     OW17718   2.158   4.077   0.745  0.2679 -0.8079 -0.7201
 5477SOL    HW117719   2.086   4.016   0.762 -1.1004  0.4711 -1.6610
 5477SOL    HW217720   2.159   4.134   0.821  2.0713 -2.4091  0.5398
 5478SOL     OW17721   4.907   8.682   4.386  0.0460  0.5567 -0.3160
 5478SOL    HW117722   4.937   8.721   4.467  1.2984  0.6097 -0.7825
 5478SOL    HW217723   4.962   8.604   4.375  1.1732  1.5311 -2.0042
 5479SOL     OW17724   0.963   7.838   4.662  0.5106 -0.0597 -0.2457
 5479SOL    HW117725   0.912   7.758   4.675  0.4507  0.0525  0.1966
 5479SOL    HW217726   1.037   7.830   4.722  0.3268  0.3676  0.0390
 5480SOL     OW17727   4.253   6.056   3.213 -0.1535  0.1684  0.3135
 5480SOL    HW117728   4.200   6.058   3.133  0.7058  3.1853 -0.2926
 5480SOL    HW217729   4.343   6.051   3.182  0.1141 -1.8326  1.2639
 5481SOL     OW17730   7.811   6.950   2.915 -0.0291 -0.1921  0.3823
 5481SOL    HW117731   7.882   6.902   2.958 -0.5725 -0.6106  0.8341
 5481SOL    HW217732   7.804   6.910   2.828  0.1960 -0.2431  0.3872
 5482SOL     OW17733   0.921   5.243   0.156 -0.2598 -0.2993 -0.1747
 5482SOL    HW117734   0.886   5.212   0.241 -0.5888 -0.0725 -0.2241
 5482SOL    HW217735   0.941   5.335   0.171  0.8001 -0.5526 -0.0059
 5483SOL     OW17736   6.851   0.424   4.363 -0.2784  0.6383 -0.3071
 5483SOL    HW117737   6.778   0.373   4.329  0.2219 -0.9466  0.8733
 5483SOL    HW217738   6.817   0.465   4.442  0.1116 -0.2335  0.3355
 5484SOL     OW17739   2.032   8.496   6.631 -0.3821  0.1922  0.0304
 5484SOL    HW117740   2.081   8.578   6.635 -0.6801  0.3248  1.1433
 5484SOL    HW217741   1.944   8.523   6.604 -0.1578  0.0753 -0.8745
 5485SOL     OW17742   1.989   7.777   1.052  0.2996 -0.4476  0.3288
 5485SOL    HW117743   2.015   7.803   0.963 -0.7643 -1.3725 -0.2876
 5485SOL    HW217744   1.900   7.809   1.061  0.5818  0.1031  1.2883
 5486SOL     OW17745   1.607   1.825   1.539 -0.1805  0.1553 -0.0241
 5486SOL    HW117746   1.555   1.894   1.580  1.4111  0.3754  1.7521
 5486SOL    HW217747   1.561   1.805   1.457 -1.4109  2.3623  0.0654
 5487SOL     OW17748   0.020   6.759   4.420 -0.2415  0.3668  0.1606
 5487SOL    HW117749   0.075   6.727   4.491  0.7446  1.5106 -0.0557
 5487SOL    HW217750   0.021   6.689   4.355 -1.6040 -0.9324  1.4459
 5488SOL     OW17751   3.187   4.820   5.089  0.6969 -0.1549 -0.2731
 5488SOL    HW117752   3.263   4.762   5.101  0.8566  0.2018  0.5297
 5488SOL    HW217753   3.130   4.774   5.027  1.3863 -0.6053 -0.5831
 5489SOL     OW17754   6.107   0.772   3.171  0.4442 -0.3168  0.3135
 5489SOL    HW117755   6.017   0.780   3.137  0.3774  1.7337  0.8711
 5489SOL    HW217756   6.099   0.793   3.264  1.1464 -2.6230  0.9526
 5490SOL     OW17757   6.672   0.829   7.672 -0.1925  0.2256 -0.8056
 5490SOL    HW117758   6.604   0.799   7.733  0.4812  2.8610  1.4139
 5490SOL    HW217759   6.671   0.924   7.678  1.5116  0.5056 -3.2262
 5491SOL     OW17760   3.573   7.104   2.356 -0.0296  0.5254 -0.1103
 5491SOL    HW117761   3.665   7.101   2.331  0.5324 -1.0152  1.9239
 5491SOL    HW217762   3.573   7.138   2.445 -0.8975 -3.4089  1.6205
 5492SOL     OW17763   8.171   3.507   5.538 -0.3359  0.7493 -0.6790
 5492SOL    HW117764   8.166   3.512   5.633 -0.5845 -1.6471 -0.5038
 5492SOL    HW217765   8.211   3.590   5.512 -0.1980  1.4351  1.5057
 5493SOL     OW17766   1.165   1.888   3.969 -0.3438 -0.2462  0.2971
 5493SOL    HW117767   1.113   1.840   4.034  0.8676  0.0370  1.5122
 5493SOL    HW217768   1.219   1.820   3.928 -1.6605 -0.5524 -1.0164
 5494SOL     OW17769   0.327   2.869   7.486 -0.2000 -0.5843 -0.0279
 5494SOL    HW117770   0.310   2.953   7.529 -0.3405  0.1713 -1.4978
 5494SOL    HW217771   0.362   2.813   7.556  1.6280  1.2497  0.6244
 5495SOL     OW17772   2.618   7.757   0.552 -0.3226 -0.2063  0.1249
 5495SOL    HW117773   2.554   7.688   0.567  0.4740 -1.2128 -0.8481
 5495SOL    HW217774   2.571   7.824   0.502 -1.3729  0.4548  1.9202
 5496SOL     OW17775   1.055   6.822   0.543  0.2779 -0.2583  0.2092
 5496SOL    HW117776   1.016   6.891   0.490 -1.9033 -1.9548 -0.5877
 5496SOL    HW217777   1.073   6.751   0.481  2.2270 -0.5208  1.0267
 5497SOL     OW17778   3.654   2.945   4.634  0.2242 -0.3032 -0.1341
 5497SOL    HW117779   3.680   2.949   4.726  1.5246 -1.5565 -0.3945
 5497SOL    HW217780   3.580   3.004   4.627  0.9080  0.8161  1.4416
 5498SOL     OW17781   4.634   6.913   6.644 -0.5377  0.3778  0.2416
 5498SOL    HW117782   4.563   6.972   6.618 -0.7709  0.1350  0.3176
 5498SOL    HW217783   4.599   6.825   6.628 -0.8968  0.1940  1.8535
 5499SOL     OW17784   1.093   6.156   2.936 -0.6763 -0.0807  0.1461
 5499SOL    HW117785   1.136   6.197   2.861  1.2993 -0.7017  0.8902
 5499SOL    HW217786   1.163   6.144   3.000 -1.5834 -2.7264  0.7434
 5500SOL     OW17787   2.223   6.642   7.265  0.3072 -0.3902 -0.1587
 5500SOL    HW117788   2.221   6.721   7.212 -0.9035 -0.5664 -0.4041
 5500SOL    HW217789   2.315   6.630   7.288  0.6916  0.2951 -1.3077
 5501SOL     OW17790   3.518   7.298   5.973  0.6412  0.1642 -0.2957
 5501SOL    HW117791   3.526   7.221   6.030  0.8737 -1.1045 -1.9714
 5501SOL    HW217792   3.558   7.369   6.023  0.7696 -0.8866  1.1488
 5502SOL     OW17793   1.403   1.016   8.428  0.3602 -0.5217 -0.2948
 5502SOL    HW117794   1.367   1.015   8.517 -0.3576  0.9943 -0.5333
 5502SOL    HW217795   1.428   0.925   8.411  0.0623 -0.9244  1.2737
 5503SOL     OW17796   7.857   8.520   4.493 -1.1930  0.5321  0.1116
 5503SOL    HW117797   7.952   8.532   4.504 -1.5076  2.0406  1.6182
 5503SOL    HW217798   7.842   8.532   4.400  0.1436 -0.2291 -0.2371
 5504SOL     OW17799   3.845   7.577   3.864  0.6051  0.0260  1.0209
 5504SOL    HW117800   3.890   7.543   3.787  1.0940  1.9256  0.4116
 5504SOL    HW217801   3.779   7.511   3.885  0.1050 -0.2867 -1.3497
 5505SOL     OW17802   6.996   2.217   7.635  0.2019 -0.3449  0.3491
 5505SOL    HW117803   7.005   2.226   7.541  0.7659  3.0316  0.6110
 5505SOL    HW217804   6.928   2.279   7.659  1.1030 -0.0371  2.3134
 5506SOL     OW17805   7.049   3.141   1.307  0.2660 -0.0345 -0.3823
 5506SOL    HW117806   7.060   3.234   1.326 -2.9867  0.2901  0.4747
 5506SOL    HW217807   6.969   3.136   1.255  0.3129 -2.3668 -0.3298
 5507SOL     OW17808   6.186   8.371   8.621 -0.7388  0.6049 -0.3703
 5507SOL    HW117809   6.129   8.299   8.645 -0.6547  1.0327  1.2691
 5507SOL    HW217810   6.146   8.409   8.543 -0.9659 -0.9745 -1.0531
 5508SOL     OW17811   8.330   7.002   4.987 -0.9532  0.1182 -0.2959
 5508SOL    HW117812   8.407   7.059   4.989  0.2365 -1.3678 -1.7190
 5508SOL    HW217813   8.262   7.053   5.032 -0.1256  2.8920 -1.9254
 5509SOL     OW17814   3.547   8.535   7.582  0.4581 -0.3475 -0.5501
 5509SOL    HW117815   3.555   8.479   7.659  1.1386 -0.4969 -0.7258
 5509SOL    HW217816   3.496   8.482   7.520  1.0492 -0.7508 -0.6940
 5510SOL     OW17817   3.703   2.651   5.233 -0.3366 -0.3086  0.7436
 5510SOL    HW117818   3.686   2.702   5.154 -0.3202 -1.5185 -0.0827
 5510SOL    HW217819   3.799   2.649   5.240 -0.3473  0.3408  1.1827
 5511SOL     OW17820   5.371   5.252   7.499 -0.0547 -0.1203  0.8114
 5511SOL    HW117821   5.315   5.260   7.576  1.8841  1.2242  2.1749
 5511SOL    HW217822   5.334   5.314   7.436 -1.4613 -0.9844  0.7575
 5512SOL     OW17823   4.408   5.979   0.622 -0.0460  0.2217  0.1050
 5512SOL    HW117824   4.478   5.920   0.649  0.5851  1.7300  2.0406
 5512SOL    HW217825   4.336   5.961   0.682 -0.8638 -0.3832 -1.0120
 5513SOL     OW17826   4.856   4.325   4.356  0.2532 -0.1212  0.4485
 5513SOL    HW117827   4.816   4.244   4.327  0.2375 -0.0061  0.1388
 5513SOL    HW217828   4.884   4.368   4.275 -1.2980  0.9990  0.4703
 5514SOL     OW17829   4.159   7.147   1.676  0.2132 -0.1715  0.0211
 5514SOL    HW117830   4.084   7.205   1.664  0.0267 -0.3680  0.2277
 5514SOL    HW217831   4.223   7.177   1.611 -0.0373  0.0075 -0.1464
 5515SOL     OW17832   4.342   0.159   8.517  0.7922 -0.3035 -0.3359
 5515SOL    HW117833   4.326   0.067   8.498  0.0036  0.2213 -2.4343
 5515SOL    HW217834   4.264   0.188   8.564 -0.5811  0.0640 -2.6822
 5516SOL     OW17835   3.581   5.560   8.093  0.4878 -0.0354  0.3549
 5516SOL    HW117836   3.653   5.576   8.032  0.2826  0.4736  0.2393
 5516SOL    HW217837   3.533   5.643   8.095  0.2569 -0.1797  0.8952
 5517SOL     OW17838   7.864   6.394   4.332 -0.2055 -0.0039 -0.5042
 5517SOL    HW117839   7.787   6.416   4.280 -0.8215  0.8138  0.6973
 5517SOL    HW217840   7.936   6.442   4.291 -0.4886 -0.1308 -1.1581
 5518SOL     OW17841   0.098   8.585   7.466 -0.4295 -0.4973 -0.6851
 5518SOL    HW117842   0.128   8.578   7.557 -0.1250 -1.7158 -0.8612
 5518SOL    HW217843   0.025   8.646   7.470  0.0677  0.0647  0.2591
 5519SOL     OW17844   6.111   2.289   6.022  0.0260 -0.4521  0.6028
 5519SOL    HW117845   6.141   2.283   6.113  0.6789 -3.7049  0.2966
 5519SOL    HW217846   6.186   2.324   5.974  0.0778  0.1630  1.1156
 5520SOL     OW17847   5.836   5.231   7.853 -0.0796 -0.6011 -0.2330
 5520SOL    HW117848   5.825   5.259   7.943  1.3530  2.5042 -0.8994
 5520SOL    HW217849   5.748   5.235   7.815 -0.6068 -1.4520  0.8437
 5521SOL     OW17850   7.525   2.070   8.532  0.0136  0.0885 -0.2080
 5521SOL    HW117851   7.581   1.993   8.523  2.1685  1.2836  1.7961
 5521SOL    HW217852   7.563   2.135   8.473  1.0158  1.0158  1.3999
 5522SOL     OW17853   6.232   7.113   4.353  0.5468  0.5107 -0.4568
 5522SOL    HW117854   6.168   7.110   4.425 -0.4295  2.1888 -1.1907
 5522SOL    HW217855   6.179   7.104   4.274  1.0483  2.8286 -1.1295
 5523SOL     OW17856   4.471   2.174   7.216  0.6898  0.5001  0.3529
 5523SOL    HW117857   4.451   2.214   7.131  0.4186 -0.6327 -0.1395
 5523SOL    HW217858   4.515   2.091   7.194  0.8327  0.3052  1.3217
 5524SOL     OW17859   5.044   2.818   6.102 -0.4685  0.2171 -0.6115
 5524SOL    HW117860   5.103   2.854   6.035 -0.8398  1.2588 -0.3904
 5524SOL    HW217861   5.103   2.792   6.173 -0.0460 -1.1326 -1.4268
 5525SOL     OW17862   6.508   8.186   4.080 -0.5680  0.3716 -0.4297
 5525SOL    HW117863   6.469   8.182   3.992 -2.3640 -1.3764  0.3830
 5525SOL    HW217864   6.598   8.154   4.068 -0.4830  1.0198 -1.7499
 5526SOL     OW17865   0.808   0.436   1.442  0.3842 -0.7227 -0.6370
 5526SOL    HW117866   0.818   0.459   1.534  2.4966 -0.9540 -0.7583
 5526SOL    HW217867   0.897   0.438   1.407 -0.3500 -0.8154 -2.6423
 5527SOL     OW17868   2.445   0.463   5.437  0.0128 -0.8613  0.0935
 5527SOL    HW117869   2.456   0.368   5.447 -0.9643 -1.1001 -0.8280
 5527SOL    HW217870   2.376   0.486   5.499 -0.2582 -0.8826 -0.1997
 5528SOL     OW17871   1.344   0.845   7.119  0.4965  0.1787  0.0546
 5528SOL    HW117872   1.361   0.937   7.096  0.1627  0.2702  0.1559
 5528SOL    HW217873   1.248   0.838   7.116  0.4707  0.0499  0.8417
 5529SOL     OW17874   1.306   6.561   8.469 -0.3742  0.6060 -0.0358
 5529SOL    HW117875   1.233   6.567   8.406  0.5185  2.7837 -0.9912
 5529SOL    HW217876   1.291   6.634   8.529  0.0086 -0.0941  0.9293
 5530SOL     OW17877   0.948   6.110   8.310  0.4084 -0.0703  0.2800
 5530SOL    HW117878   1.026   6.072   8.268  0.8406  0.1371  0.8733
 5530SOL    HW217879   0.875   6.083   8.254  0.9456  0.0481 -0.4945
 5531SOL     OW17880   0.827   2.667   4.683 -0.1176 -0.6026 -0.0767
 5531SOL    HW117881   0.855   2.579   4.705  1.9291  0.4382  1.9019
 5531SOL    HW217882   0.816   2.666   4.588  0.1883 -2.8681 -0.1318
 5532SOL     OW17883   5.857   2.342   4.515  0.0657 -0.2727  0.3687
 5532SOL    HW117884   5.929   2.402   4.498  0.3492 -0.0574  2.1878
 5532SOL    HW217885   5.871   2.269   4.455  1.6678 -0.1220  0.5313
 5533SOL     OW17886   6.014   8.429   6.507 -0.0998  0.0044  0.6675
 5533SOL    HW117887   6.055   8.400   6.425 -0.9821  0.1675  0.1500
 5533SOL    HW217888   5.927   8.388   6.506 -1.0078  1.8509  0.3862
 5534SOL     OW17889   8.280   5.035   6.789  0.1378  0.1889  0.9581
 5534SOL    HW117890   8.282   4.946   6.825  2.8225 -0.9256 -1.4901
 5534SOL    HW217891   8.195   5.042   6.747 -0.3257 -1.0261  1.6388
 5535SOL     OW17892   6.441   6.649   7.600 -0.0566 -0.2357  0.1559
 5535SOL    HW117893   6.353   6.669   7.633  0.4139  1.1604  0.6351
 5535SOL    HW217894   6.429   6.572   7.544 -1.3894 -0.7813  1.1253
 5536SOL     OW17895   3.027   6.750   2.372  0.0422 -0.2260 -0.2200
 5536SOL    HW117896   2.937   6.776   2.393 -0.7889 -2.0024 -1.3197
 5536SOL    HW217897   3.070   6.830   2.345 -0.6021  1.0364  2.1780
 5537SOL     OW17898   8.220   5.204   2.920  0.3838 -0.2927  0.4803
 5537SOL    HW117899   8.193   5.133   2.977  0.2011  0.2150  1.0407
 5537SOL    HW217900   8.316   5.198   2.917  0.2976 -1.5329 -0.7764
 5538SOL     OW17901   6.491   7.332   6.173 -0.2308 -0.3807 -0.4705
 5538SOL    HW117902   6.474   7.402   6.110 -1.8055 -1.3663 -1.1866
 5538SOL    HW217903   6.405   7.307   6.206  0.1431 -2.8474 -1.1951
 5539SOL     OW17904   7.892   6.353   4.626 -0.0600 -0.0090 -0.0585
 5539SOL    HW117905   7.944   6.432   4.609  2.0897 -1.5969 -1.4833
 5539SOL    HW217906   7.868   6.321   4.539 -1.9487 -0.3221  0.5358
 5540SOL     OW17907   1.101   3.774   5.644 -0.0648 -0.0290 -0.4566
 5540SOL    HW117908   1.029   3.751   5.585  0.2878  1.3093 -1.4383
 5540SOL    HW217909   1.104   3.869   5.642  0.9006 -0.0134  0.6192
 5541SOL     OW17910   2.265   4.232   2.913  0.3048 -0.1827  0.2659
 5541SOL    HW117911   2.280   4.265   3.002 -0.5215  0.8152  0.0583
 5541SOL    HW217912   2.233   4.143   2.925  1.6470 -0.6143  0.8889
 5542SOL     OW17913   7.457   1.777   5.420 -0.2878 -0.1017  0.2440
 5542SOL    HW117914   7.374   1.729   5.417 -0.5745  0.3656  0.5976
 5542SOL    HW217915   7.468   1.812   5.332 -1.1014  0.8899  0.5199
 5543SOL     OW17916   2.717   8.448   3.502 -0.6438  0.2762 -0.2256
 5543SOL    HW117917   2.808   8.475   3.510 -0.5956  0.2521 -0.6691
 5543SOL    HW217918   2.674   8.520   3.456 -0.3100 -0.7668 -2.3093
 5544SOL     OW17919   1.782   8.457   0.743  0.5941 -0.3478  0.4141
 5544SOL    HW117920   1.865   8.410   0.747  0.8119 -0.0382 -0.2453
 5544SOL    HW217921   1.772   8.495   0.831  0.6434 -1.2212  0.8049
 5545SOL     OW17922   0.201   5.305   5.446 -0.3073  0.0418  0.0012
 5545SOL    HW117923   0.139   5.258   5.390 -1.3635 -0.7645  1.7465
 5545SOL    HW217924   0.262   5.347   5.385 -0.9494 -1.3818 -1.7014
 5546SOL     OW17925   0.665   3.372   1.685 -0.1585 -0.0439  0.2812
 5546SOL    HW117926   0.594   3.320   1.720  0.4242 -1.6049 -0.7424
 5546SOL    HW217927   0.714   3.312   1.629  0.4252  1.6615 -1.1449
 5547SOL     OW17928   2.877   4.339   3.977 -0.1334  0.0716  0.5425
 5547SOL    HW117929   2.794   4.372   4.011 -0.3736  0.5470 -0.4624
 5547SOL    HW217930   2.883   4.376   3.889 -0.3480 -2.3887 -0.6105
 5548SOL     OW17931   7.015   5.479   0.609  0.3261 -0.4328 -0.0605
 5548SOL    HW117932   7.081   5.548   0.599  0.8014 -1.0420 -1.3671
 5548SOL    HW217933   6.944   5.505   0.549  0.3585 -0.9040 -0.3061
 5549SOL     OW17934   3.406   8.254   1.742  0.0108  0.1840  0.8916
 5549SOL    HW117935   3.404   8.334   1.794 -1.1799 -0.4257  1.8425
 5549SOL    HW217936   3.337   8.199   1.780  0.3104 -1.0005 -0.2038
 5550SOL     OW17937   5.747   1.341   6.150 -0.1958  0.1173  0.1843
 5550SOL    HW117938   5.664   1.382   6.177  0.1805  1.5854 -0.7392
 5550SOL    HW217939   5.729   1.247   6.153 -1.2081  0.3264  2.0999
 5551SOL     OW17940   4.455   5.271   1.081  0.4572 -0.1357  0.1982
 5551SOL    HW117941   4.362   5.292   1.089  0.3561 -0.7339  0.7686
 5551SOL    HW217942   4.460   5.213   1.005  0.5076  0.6509 -0.4059
 5552SOL     OW17943   7.716   6.695   2.483  1.0162  0.0787  0.0010
 5552SOL    HW117944   7.810   6.695   2.465  0.8750 -0.2708 -0.8217
 5552SOL    HW217945   7.685   6.613   2.444  0.1349  0.9077 -1.1251
 5553SOL     OW17946   1.789   1.341   7.312 -0.0387 -0.2041  0.5764
 5553SOL    HW117947   1.700   1.376   7.322  0.3237  0.3415  2.2416
 5553SOL    HW217948   1.788   1.260   7.363  0.0616 -0.9227 -0.5340
 5554SOL     OW17949   3.985   0.330   8.291  0.0239  0.1925 -0.4368
 5554SOL    HW117950   4.032   0.283   8.222 -0.2665  0.0758 -0.5563
 5554SOL    HW217951   3.959   0.261   8.353 -1.1060  0.0707 -1.0140
 5555SOL     OW17952   3.295   1.002   1.309  0.1163  0.3656  0.0636
 5555SOL    HW117953   3.306   1.097   1.302  0.5585  0.3358  0.3187
 5555SOL    HW217954   3.262   0.988   1.398  1.0857  0.1965  0.4037
 5556SOL     OW17955   2.662   5.015   5.705 -0.0173  0.2570 -0.6316
 5556SOL    HW117956   2.666   5.091   5.646  0.1620  1.6055  1.0431
 5556SOL    HW217957   2.723   4.952   5.668 -1.2788  0.2561 -2.9171
 5557SOL     OW17958   4.488   2.598   1.180  0.7995  0.6778  0.1529
 5557SOL    HW117959   4.463   2.636   1.095 -0.4441 -0.9126 -0.2375
 5557SOL    HW217960   4.414   2.619   1.237  0.9694  0.4721  0.4445
 5558SOL     OW17961   1.933   3.005   1.111  0.1105 -0.3936 -0.2766
 5558SOL    HW117962   2.027   3.010   1.098  0.2787 -0.3344  0.8373
 5558SOL    HW217963   1.895   3.050   1.035  0.8893 -2.1478 -1.7652
 5559SOL     OW17964   0.450   1.828   0.906  0.1226  0.2967  0.1666
 5559SOL    HW117965   0.530   1.870   0.937  0.3983  0.2521 -0.4765
 5559SOL    HW217966   0.399   1.899   0.868 -0.6148  0.5124  1.4867
 5560SOL     OW17967   3.356   3.408   5.351 -0.3105 -0.3780  0.4074
 5560SOL    HW117968   3.303   3.392   5.429  2.1270 -2.2552  1.8023
 5560SOL    HW217969   3.426   3.344   5.356  1.1664  0.8853 -2.2245
 5561SOL     OW17970   2.475   2.934   0.184 -0.2264 -0.3191  0.2506
 5561SOL    HW117971   2.404   2.996   0.168 -0.3401 -0.4874  0.1000
 5561SOL    HW217972   2.552   2.989   0.201 -0.3303 -0.1373  0.1319
 5562SOL     OW17973   3.087   2.973   8.285 -0.2654  0.3584  0.3215
 5562SOL    HW117974   3.087   3.044   8.350  0.7159  2.4606 -1.8050
 5562SOL    HW217975   2.997   2.970   8.253  0.0597  2.0664 -0.9080
 5563SOL     OW17976   4.985   8.313   3.217 -0.4070  0.2249 -0.2959
 5563SOL    HW117977   4.932   8.304   3.297  0.0485 -3.2771 -0.2377
 5563SOL    HW217978   5.053   8.375   3.240 -1.2039  0.4921  1.5125
 5564SOL     OW17979   1.923   2.211   6.999  0.5427 -0.2521  0.3241
 5564SOL    HW117980   1.928   2.137   6.939  1.1023  0.3959 -0.4542
 5564SOL    HW217981   1.861   2.272   6.958 -0.1275 -0.3998  1.0937
 5565SOL     OW17982   1.556   2.893   0.360  0.9241  0.1637  0.3094
 5565SOL    HW117983   1.533   2.872   0.269 -1.8364  0.3058  0.8809
 5565SOL    HW217984   1.603   2.976   0.355 -0.6345  1.0291 -0.9225
 5566SOL     OW17985   4.295   4.739   0.716 -0.1123  0.1270  0.1319
 5566SOL    HW117986   4.347   4.790   0.778  1.1798 -0.3886 -0.4896
 5566SOL    HW217987   4.267   4.663   0.765  0.4428 -0.0082  0.2468
 5567SOL     OW17988   2.420   1.287   6.923 -0.4561  0.3653 -0.0943
 5567SOL    HW117989   2.441   1.276   6.831 -1.7850  0.5315 -0.4407
 5567SOL    HW217990   2.379   1.374   6.928 -0.3691  0.3710  0.6590
 5568SOL     OW17991   6.601   2.621   2.250  0.3545 -0.5810  0.6530
 5568SOL    HW117992   6.685   2.625   2.296  0.1371  3.3575  1.0302
 5568SOL    HW217993   6.625   2.628   2.157  0.4971 -0.0792  0.7239
 5569SOL     OW17994   3.976   2.992   5.197 -0.0150 -0.3447 -0.2004
 5569SOL    HW117995   3.931   3.065   5.239 -0.4758 -1.3873  1.1816
 5569SOL    HW217996   4.063   3.027   5.176 -0.5136  0.8461 -0.3502
 5570SOL     OW17997   2.879   1.821   5.537  0.2978 -0.2770 -0.3315
 5570SOL    HW117998   2.926   1.738   5.527  1.5144  0.1844  1.1823
 5570SOL    HW217999   2.917   1.861   5.616 -1.2206  1.0884 -0.2438
 5571SOL     OW18000   8.394   2.058   3.795 -0.3061 -0.0847 -0.2601
 5571SOL    HW118001   8.438   2.037   3.713 -1.8259 -0.1624 -1.0850
 5571SOL    HW218002   8.457   2.114   3.842  0.7742 -0.4209 -1.2517
 5572SOL     OW18003   7.032   2.952   8.057 -0.2213 -0.1348 -0.0260
 5572SOL    HW118004   6.971   2.893   8.103  0.6936 -0.1473  1.2394
 5572SOL    HW218005   7.118   2.914   8.073  0.1433 -0.1857 -1.8928
 5573SOL     OW18006   4.426   8.366   5.948  1.0957  0.3833  0.1561
 5573SOL    HW118007   4.507   8.357   5.998  0.8027  0.0229  0.5611
 5573SOL    HW218008   4.402   8.277   5.924  0.0313  0.3401  1.2836
 5574SOL     OW18009   3.569   2.828   6.160  0.4981 -0.2518 -0.6028
 5574SOL    HW118010   3.482   2.869   6.164  1.4501  1.7775  0.5411
 5574SOL    HW218011   3.574   2.774   6.239  0.8761  0.9638  0.2248
 5575SOL     OW18012   4.007   7.324   3.223  0.2845  0.1151 -0.8389
 5575SOL    HW118013   4.017   7.268   3.300 -2.4246 -0.3255 -0.7308
 5575SOL    HW218014   3.931   7.378   3.242  0.5210  1.1293 -2.5776
 5576SOL     OW18015   5.338   7.608   2.889  0.0503  0.1916  0.2071
 5576SOL    HW118016   5.332   7.675   2.820 -1.5156  2.0999  2.0369
 5576SOL    HW218017   5.409   7.639   2.945  0.0692 -0.3306  0.4725
 5577SOL     OW18018   5.925   4.645   7.770 -0.0294  0.2575 -0.1175
 5577SOL    HW118019   5.870   4.721   7.749 -0.0020  0.9904  2.2171
 5577SOL    HW218020   5.886   4.608   7.849  3.0619  1.1691  2.0344
 5578SOL     OW18021   0.423   6.263   2.367 -0.2460 -0.5539  0.4325
 5578SOL    HW118022   0.410   6.202   2.440  0.7471 -0.3723  0.7683
 5578SOL    HW218023   0.402   6.349   2.404 -2.3692 -0.7229 -0.2362
 5579SOL     OW18024   5.521   5.488   6.664 -0.1884  0.3902 -0.5209
 5579SOL    HW118025   5.596   5.429   6.678 -0.2331  0.2914 -0.6855
 5579SOL    HW218026   5.495   5.472   6.573 -1.8159 -1.2230  0.1667
 5580SOL     OW18027   4.693   2.496   3.290 -0.1771  0.1207  0.6120
 5580SOL    HW118028   4.766   2.436   3.271 -0.3405  0.1432 -0.1281
 5580SOL    HW218029   4.695   2.558   3.217 -1.0536  0.0113  0.4934
 5581SOL     OW18030   5.547   0.203   6.822  0.0196 -0.1188  0.5226
 5581SOL    HW118031   5.538   0.210   6.917 -1.6280 -1.4213  0.5028
 5581SOL    HW218032   5.469   0.247   6.787 -1.1970 -2.5716 -0.0633
 5582SOL     OW18033   8.044   6.662   4.288 -0.0162  0.1876 -0.0772
 5582SOL    HW118034   7.984   6.728   4.254 -0.8866 -1.3512 -1.7163
 5582SOL    HW218035   8.002   6.629   4.367 -0.7218 -0.0073 -0.5298
 5583SOL     OW18036   3.908   3.958   1.902  0.2994 -0.3812  0.1275
 5583SOL    HW118037   3.912   4.053   1.890  0.0239 -0.4302 -0.4044
 5583SOL    HW218038   3.918   3.923   1.813  2.2076 -0.9239  0.5152
 5584SOL     OW18039   7.159   3.388   1.319 -0.2370 -0.6905  0.0268
 5584SOL    HW118040   7.208   3.323   1.268  0.3212 -0.5227  0.3313
 5584SOL    HW218041   7.227   3.445   1.355 -0.7302  0.1474 -0.3514
 5585SOL     OW18042   6.636   1.856   3.623  0.6754 -0.1845  0.3220
 5585SOL    HW118043   6.582   1.888   3.551  0.1437 -1.7898 -0.0479
 5585SOL    HW218044   6.693   1.930   3.646 -0.7168  1.0973 -0.2006
 5586SOL     OW18045   2.509   5.489   8.376  0.5449 -0.0143 -0.2004
 5586SOL    HW118046   2.588   5.540   8.395  0.9296 -1.0086  1.0563
 5586SOL    HW218047   2.442   5.526   8.432  0.5828 -0.2794  0.0233
 5587SOL     OW18048   5.499   6.850   8.370  0.2480 -0.0003  0.5696
 5587SOL    HW118049   5.416   6.889   8.397  0.7135  0.3732  1.5374
 5587SOL    HW218050   5.523   6.897   8.290  0.8426  1.8561  1.7544
 5588SOL     OW18051   0.194   5.147   3.624 -0.5253  0.5117  0.4587
 5588SOL    HW118052   0.110   5.102   3.620  0.2719 -1.0031 -2.3212
 5588SOL    HW218053   0.219   5.159   3.533  1.5114  2.4526  1.1878
 5589SOL     OW18054   4.715   3.748   3.731  0.2692 -0.3505  0.2574
 5589SOL    HW118055   4.706   3.820   3.794 -1.6807  0.2610 -0.6492
 5589SOL    HW218056   4.628   3.710   3.725  0.6335 -1.0194 -1.3407
 5590SOL     OW18057   4.400   8.645   7.594 -0.1631 -0.0000  0.6951
 5590SOL    HW118058   4.310   8.632   7.563 -0.3115  3.3363 -0.7009
 5590SOL    HW218059   4.393   8.718   7.656  1.7158  1.1891 -0.4167
 5591SOL     OW18060   1.844   6.290   7.723  0.0732  0.0745 -0.1936
 5591SOL    HW118061   1.890   6.333   7.795  2.2637 -2.0855 -0.1929
 5591SOL    HW218062   1.858   6.196   7.737 -0.8577 -0.5009 -2.5171
 5592SOL     OW18063   2.641   0.992   7.430 -0.7803  0.1801  0.1255
 5592SOL    HW118064   2.605   0.909   7.399 -1.3339  0.6268 -0.4405
 5592SOL    HW218065   2.568   1.053   7.427 -0.5216  0.5499  1.1146
 5593SOL     OW18066   4.423   1.543   0.486 -0.3146  0.0875  0.1016
 5593SOL    HW118067   4.483   1.599   0.437 -1.3486  0.0477 -1.2753
 5593SOL    HW218068   4.457   1.544   0.575  1.6727  0.1200 -0.6008
 5594SOL     OW18069   5.282   5.601   7.829 -0.0116  0.0649  0.6680
 5594SOL    HW118070   5.254   5.692   7.817  0.5862  0.0672 -0.9609
 5594SOL    HW218071   5.212   5.549   7.790 -0.0526 -0.1378  1.0139
 5595SOL     OW18072   0.971   6.961   6.890  0.3626 -0.5031  0.3617
 5595SOL    HW118073   0.924   7.025   6.943  1.2575 -0.1527  0.7432
 5595SOL    HW218074   1.033   7.012   6.838  1.8147 -1.1032  1.4219
 5596SOL     OW18075   0.345   4.731   3.185  0.1972  0.4853 -0.2097
 5596SOL    HW118076   0.344   4.670   3.111 -1.7137 -0.2652  0.3763
 5596SOL    HW218077   0.434   4.725   3.220  1.2072  1.0135 -2.5238
 5597SOL     OW18078   2.062   7.976   4.135 -0.0989  0.0319  0.2803
 5597SOL    HW118079   2.136   8.025   4.098 -0.9860  0.9413 -0.3297
 5597SOL    HW218080   1.986   8.031   4.117 -1.0483 -1.2994  0.1157
 5598SOL     OW18081   7.097   6.064   4.953 -0.0744  0.2476  0.0630
 5598SOL    HW118082   7.031   5.994   4.957 -0.2793  0.4163 -0.2832
 5598SOL    HW218083   7.166   6.028   4.897 -0.4250  0.5143 -0.5580
 5599SOL     OW18084   2.626   7.234   0.914  0.1374  0.0000  0.0300
 5599SOL    HW118085   2.653   7.233   0.823  1.2977 -0.9778  0.3536
 5599SOL    HW218086   2.534   7.260   0.912  0.5272  1.4149 -1.2854
 5600SOL     OW18087   7.792   8.439   7.261 -0.3334 -0.0044 -0.2466
 5600SOL    HW118088   7.780   8.456   7.167  0.5859 -0.2888 -0.4264
 5600SOL    HW218089   7.751   8.514   7.304 -0.9513  0.0269 -0.8702
 5601SOL     OW18090   1.940   4.746   7.416  0.3211 -0.0676 -0.0978
 5601SOL    HW118091   1.882   4.706   7.351  0.3271 -0.1047 -0.0800
 5601SOL    HW218092   1.946   4.838   7.389  2.2567 -0.5662 -1.5454
 5602SOL     OW18093   1.962   3.957   4.328  0.0838  0.0351 -0.0778
 5602SOL    HW118094   1.884   3.978   4.380 -0.2833 -1.5262  0.0569
 5602SOL    HW218095   1.940   3.874   4.285  1.4719 -0.1423 -0.4776
 5603SOL     OW18096   1.472   2.794   4.072 -0.5809  0.0364  0.5318
 5603SOL    HW118097   1.559   2.833   4.080 -0.1823 -0.8169  0.3823
 5603SOL    HW218098   1.470   2.758   3.983 -0.1964 -2.0509  1.3166
 5604SOL     OW18099   8.437   1.027   4.593  0.3944  0.1470 -0.1729
 5604SOL    HW118100   8.417   0.933   4.587  2.2772 -0.2208 -2.0197
 5604SOL    HW218101   8.532   1.032   4.583  0.3920  2.2451  0.3527
 5605SOL     OW18102   1.243   7.959   7.339 -0.0305 -0.3453  0.0543
 5605SOL    HW118103   1.199   7.944   7.255  2.0820 -1.9562 -0.8242
 5605SOL    HW218104   1.298   7.883   7.352  1.6552  1.0616  1.6647
 5606SOL     OW18105   7.069   1.194   5.948  0.2923 -0.5707 -0.4217
 5606SOL    HW118106   7.055   1.114   5.999  0.7990  0.7679  2.0290
 5606SOL    HW218107   6.981   1.223   5.924 -0.0817 -0.6405  0.7818
 5607SOL     OW18108   1.460   0.969   6.453  0.1070 -0.0966  0.5965
 5607SOL    HW118109   1.548   1.005   6.442  0.6154 -1.3360  0.3535
 5607SOL    HW218110   1.406   1.018   6.390  0.5760  0.8017  0.8806
 5608SOL     OW18111   0.386   7.726   8.268 -0.7713  0.0768  0.3235
 5608SOL    HW118112   0.371   7.802   8.324 -0.8103  0.7835 -0.6408
 5608SOL    HW218113   0.480   7.711   8.272 -0.7404  0.2813  0.3678
 5609SOL     OW18114   0.902   1.032   3.038 -0.4147 -0.3784  0.3422
 5609SOL    HW118115   0.970   1.004   3.099 -0.6581 -1.5518  0.0963
 5609SOL    HW218116   0.918   1.126   3.027  2.0304 -0.8309 -0.7679
 5610SOL     OW18117   3.548   3.197   2.136 -0.0132 -0.4605  0.0332
 5610SOL    HW118118   3.609   3.174   2.205  0.1971 -0.0373 -0.0047
 5610SOL    HW218119   3.499   3.117   2.118 -0.4677 -0.4240  1.0661
 5611SOL     OW18120   3.738   1.377   5.023 -0.2238 -0.1149 -0.1862
 5611SOL    HW118121   3.783   1.292   5.021  1.1096  0.5057  1.1219
 5611SOL    HW218122   3.646   1.355   5.036  0.1872 -1.3859  0.8635
 5612SOL     OW18123   4.673   3.291   6.867  0.5706  0.3402 -0.1143
 5612SOL    HW118124   4.618   3.242   6.929  1.1014 -0.1329 -0.0179
 5612SOL    HW218125   4.689   3.230   6.796  0.7998  0.5474 -0.2408
 5613SOL     OW18126   4.788   5.592   1.950 -0.0399  0.0631 -0.6016
 5613SOL    HW118127   4.730   5.637   2.012 -0.7613  0.1198 -1.3078
 5613SOL    HW218128   4.782   5.643   1.870  0.7272 -0.1337 -0.7967
 5614SOL     OW18129   3.090   5.949   0.857  0.6000  0.3387 -0.3162
 5614SOL    HW118130   3.175   5.912   0.880  0.1317 -0.6692 -0.1147
 5614SOL    HW218131   3.053   5.887   0.794 -0.2715  0.3751  0.1361
 5615SOL     OW18132   3.247   7.458   5.695  0.0066 -0.4289 -1.0524
 5615SOL    HW118133   3.338   7.484   5.682 -0.0771 -0.2706 -1.3203
 5615SOL    HW218134   3.251   7.365   5.718  0.4293  0.1191  1.3789
 5616SOL     OW18135   3.730   8.461   3.174  0.0559 -0.5803 -0.2462
 5616SOL    HW118136   3.778   8.406   3.112  1.1373  2.0976 -1.9344
 5616SOL    HW218137   3.783   8.541   3.182 -1.0074 -0.0288  2.7230
 5617SOL     OW18138   0.221   7.963   1.076 -0.3002 -0.0635  0.3117
 5617SOL    HW118139   0.295   8.023   1.071 -0.4555  0.0586 -0.7120
 5617SOL    HW218140   0.144   8.019   1.072 -0.4481 -0.2949 -0.0764
 5618SOL     OW18141   7.028   7.862   3.541  0.6770 -0.2292  0.4795
 5618SOL    HW118142   7.114   7.893   3.514  0.4227 -1.3528 -1.9488
 5618SOL    HW218143   7.021   7.774   3.503 -2.0790  0.4031 -0.7547
 5619SOL     OW18144   8.442   4.016   0.995 -0.0745 -0.2655  0.7628
 5619SOL    HW118145   8.429   4.082   0.927 -0.9752 -1.7023 -0.5198
 5619SOL    HW218146   8.404   4.054   1.074 -1.6012  0.3152 -0.2128
 5620SOL     OW18147   1.128   7.151   6.761 -0.2330  0.1800 -0.7706
 5620SOL    HW118148   1.178   7.176   6.839 -1.5483 -1.0075  0.5194
 5620SOL    HW218149   1.188   7.166   6.688  0.3563  3.2811  0.2222
 5621SOL     OW18150   8.707   6.423   3.610  0.3239 -0.0503 -0.4332
 5621SOL    HW118151   8.676   6.338   3.640  1.1986 -0.8269 -1.6458
 5621SOL    HW218152   8.642   6.452   3.546 -0.3091  0.5238  0.4354
 5622SOL     OW18153   5.410   8.309   0.605 -0.1030 -0.3349 -0.2866
 5622SOL    HW118154   5.357   8.278   0.532  0.5969 -1.3952 -0.3630
 5622SOL    HW218155   5.362   8.280   0.683 -0.9491  0.9618 -0.2862
 5623SOL     OW18156   8.159   8.619   8.276 -0.0360 -0.6417  0.1870
 5623SOL    HW118157   8.152   8.552   8.209 -2.4433 -1.4500  1.1563
 5623SOL    HW218158   8.222   8.584   8.339  1.1909 -0.4851 -0.9207
 5624SOL     OW18159   0.304   4.048   1.646  0.4600  0.2404 -0.1538
 5624SOL    HW118160   0.323   3.974   1.588  1.1288  1.0542 -0.9934
 5624SOL    HW218161   0.244   4.103   1.596 -0.3591  0.0760  0.6283
 5625SOL     OW18162   4.827   3.880   6.283  0.2373  0.2050 -0.2978
 5625SOL    HW118163   4.900   3.931   6.246 -0.2619  1.4714  0.4099
 5625SOL    HW218164   4.751   3.907   6.233  0.2184 -1.0693 -0.9886
 5626SOL     OW18165   3.604   5.825   5.070 -0.4389 -0.8010  0.3442
 5626SOL    HW118166   3.695   5.836   5.043 -0.1181 -3.4299  0.0915
 5626SOL    HW218167   3.609   5.779   5.154 -1.5316 -0.8946  0.3750
 5627SOL     OW18168   5.878   2.833   1.083  0.1218  0.1188 -0.1735
 5627SOL    HW118169   5.857   2.786   1.002 -1.3006  0.7022 -0.1810
 5627SOL    HW218170   5.967   2.865   1.070  0.2738 -0.6276 -1.0986
 5628SOL     OW18171   0.879   3.036   7.860  0.2978 -0.6076  0.0628
 5628SOL    HW118172   0.808   2.973   7.874 -0.4064  0.1586 -0.0070
 5628SOL    HW218173   0.871   3.061   7.768 -0.5854  0.9531  0.5326
 5629SOL     OW18174   6.904   2.492   3.383 -0.5040  0.0185  0.2370
 5629SOL    HW118175   6.932   2.574   3.425 -0.2066  1.4769 -2.5496
 5629SOL    HW218176   6.984   2.439   3.379 -0.3435  0.2185  0.6895
 5630SOL     OW18177   0.204   7.022   0.507 -0.0942 -0.2233  0.0455
 5630SOL    HW118178   0.238   6.955   0.566 -1.5584 -1.1797 -0.1468
 5630SOL    HW218179   0.113   7.033   0.533 -0.5689 -0.1250 -1.5375
 5631SOL     OW18180   0.585   7.430   6.606 -0.3475  0.2024 -0.6176
 5631SOL    HW118181   0.524   7.458   6.538 -0.9142 -1.2314 -0.7271
 5631SOL    HW218182   0.670   7.427   6.562 -0.7286 -0.8233 -1.3033
 5632SOL     OW18183   4.780   6.566   7.925 -0.4664 -0.4527  0.0437
 5632SOL    HW118184   4.691   6.535   7.940 -0.1771 -1.1535  0.3829
 5632SOL    HW218185   4.807   6.525   7.843 -0.9930  1.0077 -0.9052
 5633SOL     OW18186   0.808   6.917   8.443  0.5635 -0.0745  0.2007
 5633SOL    HW118187   0.825   6.915   8.349 -0.0557  1.3565  0.0309
 5633SOL    HW218188   0.807   6.825   8.470 -0.5705 -0.5711 -1.4318
 5634SOL     OW18189   0.498   3.403   4.477  0.0797  0.6769  0.3338
 5634SOL    HW118190   0.434   3.416   4.407 -0.2777 -0.7282  0.3786
 5634SOL    HW218191   0.576   3.368   4.433 -0.4310 -1.0198  0.6984
 5635SOL     OW18192   2.623   1.156   4.050  0.5961 -0.0243  0.2589
 5635SOL    HW118193   2.567   1.169   4.126  0.1692 -2.4805  0.4235
 5635SOL    HW218194   2.711   1.181   4.080  0.2815 -0.0911  1.2527
 5636SOL     OW18195   7.963   2.230   6.740 -0.0125 -0.1967 -0.0279
 5636SOL    HW118196   8.046   2.197   6.774  0.6222  0.2684 -1.0543
 5636SOL    HW218197   7.932   2.159   6.683  0.3493  0.1400 -0.6614
 5637SOL     OW18198   5.128   8.431   3.567 -0.2575 -0.3359 -0.8300
 5637SOL    HW118199   5.131   8.494   3.495 -0.3125 -1.2480 -1.6523
 5637SOL    HW218200   5.204   8.375   3.552  0.1413 -0.0965  0.2444
 5638SOL     OW18201   2.090   6.025   1.496  0.0225 -0.1424 -0.0887
 5638SOL    HW118202   2.056   6.101   1.543 -1.0240 -0.1198 -0.8632
 5638SOL    HW218203   2.032   6.014   1.421  0.3435 -1.5207 -0.1642
 5639SOL     OW18204   6.950   4.180   3.658  0.2888  0.3961 -0.0009
 5639SOL    HW118205   6.982   4.269   3.645  1.3479  0.1471  0.7259
 5639SOL    HW218206   7.028   4.125   3.647  0.3471 -0.1726  2.6471
 5640SOL     OW18207   5.953   5.022   3.186 -0.1700  0.3763 -0.1345
 5640SOL    HW118208   6.046   5.036   3.205 -0.2590  0.2540  0.4083
 5640SOL    HW218209   5.910   5.029   3.271 -0.8712  2.0466 -0.5835
 5641SOL     OW18210   8.227   4.593   3.196  0.0855 -0.1097 -0.1975
 5641SOL    HW118211   8.218   4.503   3.163 -0.4808 -0.2497  0.3144
 5641SOL    HW218212   8.300   4.588   3.258 -0.3129 -0.3570  0.2663
 5642SOL     OW18213   3.552   6.768   6.320 -0.2701 -0.2649  0.3244
 5642SOL    HW118214   3.574   6.828   6.391  2.8063  0.4140 -1.0342
 5642SOL    HW218215   3.464   6.737   6.341 -0.1217  1.1233  3.5219
 5643SOL     OW18216   3.346   7.864   6.825  0.2278  0.2202  0.2294
 5643SOL    HW118217   3.368   7.947   6.867 -0.9651 -0.0616  1.4776
 5643SOL    HW218218   3.254   7.850   6.846  0.6707 -1.9406  0.9915
 5644SOL     OW18219   0.444   5.982   4.092  0.6442  0.2020 -1.2439
 5644SOL    HW118220   0.424   5.894   4.124  1.0850  0.2005 -0.9627
 5644SOL    HW218221   0.501   6.020   4.159  0.7778  0.5578 -1.5544
 5645SOL     OW18222   1.868   2.955   6.045 -0.5112  0.1212  0.2605
 5645SOL    HW118223   1.775   2.933   6.047  0.0240 -2.5680 -0.4724
 5645SOL    HW218224   1.912   2.879   6.083  1.3644  1.6873  1.3721
 5646SOL     OW18225   1.380   6.265   3.401  0.1769  0.2584  0.1612
 5646SOL    HW118226   1.415   6.274   3.490 -0.1640 -0.2689  0.3514
 5646SOL    HW218227   1.457   6.273   3.345  0.4675  0.0930  0.5290
 5647SOL     OW18228   0.460   5.906   8.157 -0.2296  0.0575 -0.0902
 5647SOL    HW118229   0.416   5.895   8.073 -0.6511  0.2706  0.0952
 5647SOL    HW218230   0.388   5.922   8.219  0.0579 -0.2898  0.3419
 5648SOL     OW18231   3.761   4.729   8.086  0.1189  0.4209 -0.8069
 5648SOL    HW118232   3.807   4.710   8.004 -1.4045 -2.8069 -1.0629
 5648SOL    HW218233   3.814   4.686   8.153 -0.0710  0.7005 -0.4767
 5649SOL     OW18234   6.130   5.582   7.847  0.1101 -0.1680 -0.6153
 5649SOL    HW118235   6.191   5.539   7.787  1.3443 -0.2491  0.6401
 5649SOL    HW218236   6.119   5.520   7.919 -0.6606  0.2731 -0.3467
 5650SOL     OW18237   0.311   5.410   0.256  0.0168  0.6747  0.0110
 5650SOL    HW118238   0.366   5.468   0.203 -1.3901  1.7529 -0.3517
 5650SOL    HW218239   0.235   5.464   0.277 -0.7488 -0.6662  0.7555
 5651SOL     OW18240   3.643   6.369   3.765  0.6663  0.2768  0.3055
 5651SOL    HW118241   3.702   6.376   3.839  1.4969  0.9323 -0.3915
 5651SOL    HW218242   3.686   6.420   3.695 -0.3526  0.1420 -0.4462
 5652SOL     OW18243   7.813   1.663   6.031  0.7866 -0.3922 -0.3816
 5652SOL    HW118244   7.830   1.569   6.029  2.5483 -0.1198  0.0332
 5652SOL    HW218245   7.828   1.692   5.941 -4.1479 -1.0867 -1.7118
 5653SOL     OW18246   8.623   7.312   5.906  0.7657  0.9272  0.4097
 5653SOL    HW118247   8.687   7.370   5.866  0.0754  1.9413  0.7126
 5653SOL    HW218248   8.598   7.357   5.987 -1.2416  1.2384 -0.3037
 5654SOL     OW18249   4.214   0.372   4.695  1.0150  0.1771  0.8808
 5654SOL    HW118250   4.171   0.450   4.730  0.9621  0.5260  0.0610
 5654SOL    HW218251   4.195   0.375   4.601  0.7284 -1.0096  0.8933
 5655SOL     OW18252   1.332   7.644   7.697  0.1183 -0.1808  0.0197
 5655SOL    HW118253   1.386   7.692   7.760  0.2459  0.1349 -0.3329
 5655SOL    HW218254   1.260   7.610   7.750  0.8783 -0.9709  0.5811
 5656SOL     OW18255   2.649   3.484   6.025 -0.5834  0.2770  0.1383
 5656SOL    HW118256   2.718   3.535   6.068 -0.9801  0.7142  0.2725
 5656SOL    HW218257   2.593   3.454   6.097 -0.9746  0.5981 -0.0234
 5657SOL     OW18258   0.672   2.564   5.940  0.3545 -0.0989  0.2327
 5657SOL    HW118259   0.584   2.540   5.912  0.0211  0.3347  0.8718
 5657SOL    HW218260   0.658   2.620   6.017  1.1308  1.0665 -0.4395
 5658SOL     OW18261   1.134   2.920   6.859 -0.4807  0.7338  0.2640
 5658SOL    HW118262   1.059   2.891   6.807  0.7962 -0.3608 -1.0332
 5658SOL    HW218263   1.186   2.974   6.800 -0.7304  2.3913  1.4656
 5659SOL     OW18264   8.597   3.403   1.240  0.0937 -0.1818  0.6779
 5659SOL    HW118265   8.514   3.448   1.256  1.3611  1.6420  2.9275
 5659SOL    HW218266   8.608   3.347   1.317  0.9816 -0.2703  0.4889
 5660SOL     OW18267   0.547   7.173   5.599  0.0656  0.0746 -0.3953
 5660SOL    HW118268   0.519   7.094   5.553 -0.3807  1.2718 -2.2556
 5660SOL    HW218269   0.475   7.191   5.660 -0.4610 -0.1868 -0.9312
 5661SOL     OW18270   8.172   5.793   5.436 -0.4422 -0.0424 -0.2398
 5661SOL    HW118271   8.184   5.780   5.342 -3.6798  0.5575 -0.8683
 5661SOL    HW218272   8.168   5.704   5.473 -0.3924 -0.3057 -0.8634
 5662SOL     OW18273   8.678   0.565   5.505 -0.0590 -0.3890  0.4643
 5662SOL    HW118274   8.736   0.556   5.581  0.9292 -0.4823 -0.2878
 5662SOL    HW218275   8.733   0.547   5.430 -0.6897  0.9907 -0.3784
 5663SOL     OW18276   3.006   4.766   1.806  0.1179  0.1042  0.5982
 5663SOL    HW118277   3.076   4.815   1.765 -0.2931  0.5878  0.4608
 5663SOL    HW218278   3.000   4.803   1.895 -0.2225  0.3383  0.4793
 5664SOL     OW18279   4.044   4.468   7.177  0.8302  0.6280  0.1993
 5664SOL    HW118280   4.012   4.549   7.216 -0.5404  2.0145 -3.4047
 5664SOL    HW218281   3.965   4.424   7.145  1.7518 -1.0228  0.0708
 5665SOL     OW18282   2.341   0.476   2.677  0.3184 -0.3326 -0.3825
 5665SOL    HW118283   2.262   0.521   2.648 -0.5295 -0.0223  2.2125
 5665SOL    HW218284   2.309   0.404   2.731  1.7798  0.3016  1.4194
 5666SOL     OW18285   7.015   2.338   0.701  0.0960 -0.5437 -0.0679
 5666SOL    HW118286   7.017   2.433   0.689 -1.4773 -0.5615 -0.7712
 5666SOL    HW218287   6.923   2.314   0.688  0.3389 -2.0871  0.7950
 5667SOL     OW18288   2.990   7.344   2.238  0.7223 -0.3690 -0.3431
 5667SOL    HW118289   2.910   7.361   2.288  1.2077  0.9559  0.0124
 5667SOL    HW218290   2.988   7.408   2.167 -0.3095 -2.6429 -2.5563
 5668SOL     OW18291   5.824   7.664   5.550 -0.3467  0.1741 -0.1744
 5668SOL    HW118292   5.844   7.718   5.626  0.0849 -1.3380  0.8267
 5668SOL    HW218293   5.734   7.687   5.527 -0.7413  0.1360  1.2551
 5669SOL     OW18294   3.204   3.947   1.882  0.0941 -0.1225  0.2121
 5669SOL    HW118295   3.236   4.009   1.947  1.5105 -0.3056 -0.2758
 5669SOL    HW218296   3.187   4.000   1.804  0.4767 -0.2130  0.0648
 5670SOL     OW18297   2.383   3.930   0.977 -0.6670 -0.5103  0.2964
 5670SOL    HW118298   2.462   3.948   1.028 -0.6633  0.4788 -0.0453
 5670SOL    HW218299   2.320   3.996   1.005 -0.7868 -0.1870 -0.6984
 5671SOL     OW18300   7.017   6.284   1.325  0.0949  0.6010 -0.2975
 5671SOL    HW118301   7.074   6.355   1.296  0.3940 -0.0345 -1.3463
 5671SOL    HW218302   6.928   6.320   1.318  0.1658  0.5647 -1.8821
 5672SOL     OW18303   1.062   2.129   2.803  0.3130 -0.2716  0.2015
 5672SOL    HW118304   1.122   2.096   2.736 -0.0470  0.6345 -0.5942
 5672SOL    HW218305   1.081   2.076   2.880  3.7587  1.4640  0.7376
 5673SOL     OW18306   0.377   7.410   6.409 -0.3280 -0.0291 -0.2273
 5673SOL    HW118307   0.391   7.316   6.413 -1.6544 -0.2839 -1.0256
 5673SOL    HW218308   0.343   7.426   6.321 -0.2011  1.1926 -0.0810
 5674SOL     OW18309   2.025   5.095   6.507  0.3591  0.1985  0.5188
 5674SOL    HW118310   1.957   5.074   6.443 -0.4888 -2.1074  2.0376
 5674SOL    HW218311   2.003   5.184   6.537  0.4619  1.0991 -1.9007
 5675SOL     OW18312   0.459   0.991   4.858  0.4353  0.1087 -0.1809
 5675SOL    HW118313   0.545   1.029   4.875  1.5154 -1.5066 -1.7608
 5675SOL    HW218314   0.474   0.896   4.855 -0.6728 -0.1086 -3.8111
 5676SOL     OW18315   3.313   2.696   7.038  0.8822 -0.1632 -0.3221
 5676SOL    HW118316   3.228   2.683   6.994  0.6428  0.5212 -0.0704
 5676SOL    HW218317   3.342   2.781   7.007  0.6582  0.3821  0.9335
 5677SOL     OW18318   2.566   1.445   4.494  0.0712  0.1054  0.4015
 5677SOL    HW118319   2.504   1.376   4.471 -0.9476  0.8461  0.8352
 5677SOL    HW218320   2.515   1.506   4.548  1.0775  0.9379  0.4462
 5678SOL     OW18321   2.868   2.672   0.933 -0.1791  0.1956 -0.1324
 5678SOL    HW118322   2.930   2.722   0.985 -0.9076  0.1807  0.7675
 5678SOL    HW218323   2.827   2.612   0.995  0.6193 -1.5043 -1.1665
 5679SOL     OW18324   3.958   5.757   4.556  0.3168  0.5583 -0.1643
 5679SOL    HW118325   3.903   5.832   4.578 -1.9556 -1.0091 -0.1765
 5679SOL    HW218326   3.942   5.741   4.463 -1.5331 -1.6171  0.4376
 5680SOL     OW18327   5.929   7.394   3.014 -0.3601 -0.4717  0.0985
 5680SOL    HW118328   5.994   7.325   3.000 -1.3446 -1.0904 -1.7766
 5680SOL    HW218329   5.970   7.453   3.077  1.6868 -1.2507 -0.4176
 5681SOL     OW18330   1.183   2.327   8.675  0.4599  0.1191 -0.6884
 5681SOL    HW118331   1.228   2.411   8.682  0.5101 -0.0216  4.4925
 5681SOL    HW218332   1.224   2.273   8.742 -1.9362 -2.8923 -1.4433
 5682SOL     OW18333   8.688   4.220   4.756  0.3913 -0.3743  0.1913
 5682SOL    HW118334   8.658   4.145   4.806  0.1134  1.5670  3.1864
 5682SOL    HW218335   8.774   4.242   4.793  1.3051 -0.2533 -1.8675
 5683SOL     OW18336   1.108   7.516   0.466  0.0672 -0.3855 -0.0762
 5683SOL    HW118337   1.082   7.474   0.548 -0.9016 -0.6028 -0.4829
 5683SOL    HW218338   1.172   7.583   0.492 -1.5126  0.7342  1.0737
 5684SOL     OW18339   1.337   5.253   0.192 -0.1713 -0.2888  0.5700
 5684SOL    HW118340   1.276   5.188   0.159 -0.0019  0.0452 -0.4148
 5684SOL    HW218341   1.318   5.332   0.141  0.3759  0.1175  0.9821
 5685SOL     OW18342   3.333   2.502   1.054  0.4106 -0.0932  0.5084
 5685SOL    HW118343   3.255   2.481   1.003 -0.7537  0.6696  1.9076
 5685SOL    HW218344   3.402   2.512   0.988 -0.7135 -0.4923 -0.7878
 5686SOL     OW18345   7.213   0.682   7.272  0.3175  0.0276 -0.1988
 5686SOL    HW118346   7.124   0.711   7.292  0.1569 -0.8275  0.4163
 5686SOL    HW218347   7.243   0.740   7.203  0.0770  1.7461  1.0903
 5687SOL     OW18348   6.931   8.712   7.064  0.0645 -0.7511 -0.3988
 5687SOL    HW118349   6.953   8.793   7.111 -0.2874 -1.3054  0.7536
 5687SOL    HW218350   6.839   8.721   7.041 -0.0134 -0.8868 -0.1397
 5688SOL     OW18351   4.368   4.950   1.629 -0.7599  0.4348 -0.0410
 5688SOL    HW118352   4.323   4.900   1.561  0.3153 -0.1263 -0.3712
 5688SOL    HW218353   4.299   5.001   1.672 -1.9716 -1.5585  0.5283
 5689SOL     OW18354   3.820   6.749   7.820 -0.1931  0.0723 -0.1211
 5689SOL    HW118355   3.855   6.661   7.829  0.5580  0.4311  0.6276
 5689SOL    HW218356   3.732   6.744   7.856 -0.3486 -0.4833 -0.5689
 5690SOL     OW18357   7.646   1.263   5.441 -0.3061  0.3159  0.2815
 5690SOL    HW118358   7.625   1.171   5.454  0.5291  0.2899  1.6333
 5690SOL    HW218359   7.735   1.273   5.473 -0.5148  1.6635  0.5246
 5691SOL     OW18360   3.902   0.862   6.536  0.6237 -0.9010 -0.1930
 5691SOL    HW118361   3.809   0.863   6.511  0.5799 -0.0509 -0.0497
 5691SOL    HW218362   3.944   0.806   6.472  0.1818 -0.3918 -0.9459
 5692SOL     OW18363   2.053   3.233   8.069  0.1199  0.2075  0.2485
 5692SOL    HW118364   2.046   3.322   8.103 -1.0731  0.6591 -1.1051
 5692SOL    HW218365   1.967   3.194   8.086  0.2044 -0.2543 -0.3513
 5693SOL     OW18366   2.771   7.313   6.924  0.5366  0.0912 -0.3073
 5693SOL    HW118367   2.704   7.250   6.901 -0.2344 -0.1962  2.3529
 5693SOL    HW218368   2.731   7.398   6.906  0.3595 -0.1108 -0.8926
 5694SOL     OW18369   7.761   8.069   5.453  0.1661  0.1212 -0.5051
 5694SOL    HW118370   7.678   8.060   5.405  0.4069 -0.1328 -0.8757
 5694SOL    HW218371   7.815   8.125   5.398  0.5509 -0.4134 -0.6770
 5695SOL     OW18372   2.153   5.940   6.616  0.4828 -0.6216 -0.6516
 5695SOL    HW118373   2.211   5.963   6.689 -0.5694 -1.9426  0.6644
 5695SOL    HW218374   2.065   5.945   6.653 -0.0982 -0.9213 -1.9567
 5696SOL     OW18375   7.507   6.865   8.142  0.2094  0.2494  0.4478
 5696SOL    HW118376   7.464   6.807   8.205 -1.3264 -0.0394 -0.7826
 5696SOL    HW218377   7.542   6.806   8.076 -0.7018  0.6525 -0.4202
 5697SOL     OW18378   1.912   5.169   5.523 -0.3543  0.2513  0.4316
 5697SOL    HW118379   1.921   5.219   5.442  2.2916  0.0264  0.5039
 5697SOL    HW218380   1.891   5.080   5.495  0.7921  0.1205 -0.0353
 5698SOL     OW18381   3.786   2.922   7.889 -0.4269  0.2388 -0.3197
 5698SOL    HW118382   3.827   3.008   7.882 -2.7642  1.5295  0.7647
 5698SOL    HW218383   3.796   2.884   7.802  0.5027  1.6774 -0.8852
 5699SOL     OW18384   7.704   3.005   6.056  0.6377  0.5376  0.2431
 5699SOL    HW118385   7.752   2.944   6.112 -0.7101 -1.0311 -0.2126
 5699SOL    HW218386   7.630   3.034   6.109  0.6288  0.8520  0.0593
 5700SOL     OW18387   6.331   6.441   1.163 -0.5300 -0.3735  0.0601
 5700SOL    HW118388   6.276   6.402   1.094  0.8913 -1.8934 -0.2935
 5700SOL    HW218389   6.354   6.527   1.129  0.1072 -1.0765 -1.4171
 5701SOL     OW18390   0.269   1.259   5.311 -0.1868  0.5778  0.1686
 5701SOL    HW118391   0.309   1.172   5.302 -1.2690  0.0731  0.0364
 5701SOL    HW218392   0.280   1.280   5.404 -1.2582 -0.4016  0.5463
 5702SOL     OW18393   2.675   6.834   5.722  0.3066  0.1206  0.0894
 5702SOL    HW118394   2.704   6.748   5.689 -1.4532 -0.2998 -0.4878
 5702SOL    HW218395   2.731   6.850   5.798  0.6113 -1.5997  0.2879
 5703SOL     OW18396   6.272   4.338   0.590 -0.5021 -0.0925  0.1605
 5703SOL    HW118397   6.251   4.305   0.677  0.6315 -0.5682  0.2740
 5703SOL    HW218398   6.357   4.380   0.600 -1.4959  2.1567 -0.1770
 5704SOL     OW18399   5.397   2.214   7.768  0.2755 -0.2435 -0.4412
 5704SOL    HW118400   5.451   2.148   7.726 -0.2842 -0.3772 -0.9611
 5704SOL    HW218401   5.426   2.214   7.859  1.6391  0.1955 -0.8517
 5705SOL     OW18402   1.866   3.226   4.991 -0.4135  0.0534  0.7349
 5705SOL    HW118403   1.943   3.243   4.937  0.5404 -1.3627  1.5763
 5705SOL    HW218404   1.854   3.305   5.043  0.3880  0.3537  0.4717
 5706SOL     OW18405   1.776   8.573   6.596 -0.5659 -0.3165 -0.3979
 5706SOL    HW118406   1.763   8.655   6.550 -0.2862 -0.6028 -1.0033
 5706SOL    HW218407   1.748   8.590   6.686  1.5868  1.0903  0.0628
 5707SOL     OW18408   6.874   6.521   5.617 -0.6247 -0.2437 -0.1489
 5707SOL    HW118409   6.966   6.535   5.639  0.1255 -3.0118 -1.0562
 5707SOL    HW218410   6.875   6.484   5.529 -2.6318 -0.2567 -0.2242
 5708SOL     OW18411   6.605   0.801   3.843 -0.0339 -0.3678 -0.5787
 5708SOL    HW118412   6.610   0.707   3.860 -0.6007 -0.1841  0.7287
 5708SOL    HW218413   6.616   0.842   3.929  1.9838  0.8556 -1.3675
 5709SOL     OW18414   4.273   1.090   0.656  0.1939  0.6601 -0.1684
 5709SOL    HW118415   4.287   1.128   0.569 -1.0110 -0.0003 -0.6767
 5709SOL    HW218416   4.267   0.996   0.639 -2.1977  0.6664  0.2932
 5710SOL     OW18417   5.930   4.970   3.977 -0.5390  0.6029 -0.6917
 5710SOL    HW118418   5.861   4.996   4.039 -0.8390  0.0769 -0.7981
 5710SOL    HW218419   5.985   4.910   4.027 -0.8867  0.0319 -0.9792
 5711SOL     OW18420   4.873   2.413   8.463 -0.2370 -0.1359  0.3967
 5711SOL    HW118421   4.889   2.507   8.472  0.6830 -0.2888  0.4157
 5711SOL    HW218422   4.818   2.405   8.386 -1.2085  0.4990  1.0013
 5712SOL     OW18423   6.795   0.700   0.555  0.2588 -0.0748  0.0501
 5712SOL    HW118424   6.726   0.766   0.558 -0.1769 -0.5131 -0.1894
 5712SOL    HW218425   6.854   0.725   0.626  1.2771  1.8260 -1.3886
 5713SOL     OW18426   2.552   3.780   3.942  0.3094 -0.1426  0.5559
 5713SOL    HW118427   2.584   3.718   3.877  1.4203  0.0167  0.9247
 5713SOL    HW218428   2.511   3.850   3.891 -0.2693 -0.7998  0.1104
 5714SOL     OW18429   1.554   2.126   3.809 -0.1226 -0.1152  0.1880
 5714SOL    HW118430   1.569   2.221   3.806 -0.9871  0.0195 -0.7177
 5714SOL    HW218431   1.496   2.113   3.884  0.0434  0.0715  0.3487
 5715SOL     OW18432   4.474   8.415   0.620  0.4284 -0.3681  0.0460
 5715SOL    HW118433   4.494   8.485   0.559  0.0436  0.3047  0.6832
 5715SOL    HW218434   4.388   8.384   0.593  0.3298 -0.1817  0.1469
 5716SOL     OW18435   1.611   1.423   5.872  0.5353  0.2520 -0.6588
 5716SOL    HW118436   1.566   1.427   5.788 -0.3073 -0.6458 -0.2677
 5716SOL    HW218437   1.571   1.349   5.918  0.9321  0.7617  0.5621
 5717SOL     OW18438   0.006   7.465   0.187 -0.4093  0.1994  0.3500
 5717SOL    HW118439  -0.063   7.523   0.153  0.3757  0.2519 -1.2726
 5717SOL    HW218440   0.086   7.516   0.176  0.3738 -1.3204 -1.6049
 5718SOL     OW18441   2.235   7.162   5.018  0.1940 -0.2096  0.6494
 5718SOL    HW118442   2.208   7.079   4.980 -0.9335  0.4441 -0.0505
 5718SOL    HW218443   2.153   7.205   5.042  0.6113  1.4572 -0.6851
 5719SOL     OW18444   5.654   7.548   4.698  0.0066  0.2844  0.1304
 5719SOL    HW118445   5.672   7.469   4.647 -0.4727 -0.3455  0.9096
 5719SOL    HW218446   5.729   7.556   4.757  0.0111  0.3658  0.1142
 5720SOL     OW18447   6.727   6.711   4.241 -0.1779 -0.0681  0.3618
 5720SOL    HW118448   6.773   6.777   4.190 -0.2813 -0.9082 -0.8598
 5720SOL    HW218449   6.797   6.666   4.289  0.4260 -1.6134 -1.8052
 5721SOL     OW18450   6.931   7.328   7.074  0.2414  0.4920 -0.6590
 5721SOL    HW118451   6.996   7.354   7.009 -0.2284  0.0110 -1.3318
 5721SOL    HW218452   6.940   7.393   7.144  2.5899 -0.5040  0.0698
 5722SOL     OW18453   2.203   7.219   2.815  0.2826  0.0147 -0.0921
 5722SOL    HW118454   2.294   7.237   2.790  0.5296  1.8748  1.8479
 5722SOL    HW218455   2.205   7.213   2.910 -1.8936  2.0116  0.1677
 5723SOL     OW18456   3.700   8.417   7.902  0.1622  0.5559  0.0813
 5723SOL    HW118457   3.624   8.455   7.945 -0.1118 -0.2610  0.3242
 5723SOL    HW218458   3.707   8.329   7.938  0.0320 -0.0891 -1.4114
 5724SOL     OW18459   4.592   1.929   0.493 -0.1366 -0.1534  0.4754
 5724SOL    HW118460   4.590   2.003   0.432 -0.7690  0.4019  1.1486
 5724SOL    HW218461   4.548   1.961   0.572  1.0540 -0.7103  1.4095
 5725SOL     OW18462   5.103   3.482   0.156 -0.1274 -0.1208  0.3860
 5725SOL    HW118463   5.194   3.510   0.164  0.5662 -1.6218 -1.3727
 5725SOL    HW218464   5.089   3.424   0.230  0.6013 -0.4560  0.2723
 5726SOL     OW18465   1.992   2.995   6.334  0.2809  0.2634  0.1393
 5726SOL    HW118466   1.901   2.999   6.366  0.6477  0.5526  1.1988
 5726SOL    HW218467   1.985   3.003   6.239 -0.8654 -0.5553  0.1331
 5727SOL     OW18468   5.731   7.354   4.527  0.0900  0.6250 -0.2209
 5727SOL    HW118469   5.745   7.272   4.479  0.3344 -0.3932  1.5053
 5727SOL    HW218470   5.819   7.385   4.548 -0.0060  1.2503 -0.7206
 5728SOL     OW18471   2.509   6.971   6.300  0.5004 -0.1642  0.1712
 5728SOL    HW118472   2.525   7.065   6.308 -2.7340  0.3514  2.0913
 5728SOL    HW218473   2.527   6.936   6.387  1.3566 -1.3265 -0.4458
 5729SOL     OW18474   3.345   1.569   2.854 -0.4820 -0.0655 -0.1214
 5729SOL    HW118475   3.395   1.642   2.819  1.2727 -1.5862 -0.9360
 5729SOL    HW218476   3.270   1.561   2.795  1.3716 -1.3187 -2.4464
 5730SOL     OW18477   7.532   3.047   0.874 -0.1350 -0.2066  0.0616
 5730SOL    HW118478   7.470   3.010   0.937 -0.9196  1.7854  0.5546
 5730SOL    HW218479   7.478   3.101   0.816  0.9068  0.0967 -0.6561
 5731SOL     OW18480   5.064   3.279   8.209  0.3147 -0.2853 -0.6628
 5731SOL    HW118481   5.154   3.262   8.181  0.4153  3.0348 -2.8244
 5731SOL    HW218482   5.073   3.331   8.289  0.2669 -0.7117 -0.3757
 5732SOL     OW18483   0.988   8.547   6.462  0.0891  0.1951 -0.6248
 5732SOL    HW118484   0.924   8.595   6.409  0.6567  0.8397 -0.7408
 5732SOL    HW218485   1.032   8.615   6.513  1.3232 -0.1267 -1.2288
 5733SOL     OW18486   5.803   2.630   1.403 -0.3108 -1.3139 -0.5486
 5733SOL    HW118487   5.756   2.682   1.338 -0.5914 -1.0580 -0.1428
 5733SOL    HW218488   5.848   2.694   1.457  0.9421 -1.5641 -1.2426
 5734SOL     OW18489   1.181   0.673   0.324 -0.4216  0.4427 -0.2116
 5734SOL    HW118490   1.122   0.747   0.340 -0.0583  0.6762  0.0366
 5734SOL    HW218491   1.251   0.683   0.387 -1.4496 -1.3171  1.3275
 5735SOL     OW18492   3.210   6.016   5.930  0.0279 -0.5046  0.1991
 5735SOL    HW118493   3.281   5.952   5.921 -1.3264 -2.0785  0.4175
 5735SOL    HW218494   3.173   6.023   5.842 -0.0332 -0.2634  0.2439
 5736SOL     OW18495   0.592   4.835   6.506  0.2493  1.1563  0.0175
 5736SOL    HW118496   0.499   4.859   6.502 -0.0568  0.0468  0.3171
 5736SOL    HW218497   0.633   4.887   6.436 -0.5869  1.6813 -0.0891
 5737SOL     OW18498   8.168   8.385   3.173  0.4031 -0.2891  0.3962
 5737SOL    HW118499   8.241   8.327   3.151  0.1527 -0.6282  0.4446
 5737SOL    HW218500   8.112   8.332   3.231 -0.4093 -0.4010 -0.4655
 5738SOL     OW18501   6.332   1.336   2.098  1.0066 -0.4124 -0.2409
 5738SOL    HW118502   6.289   1.406   2.147  1.3302 -0.5595  0.2602
 5738SOL    HW218503   6.339   1.263   2.160  0.0990 -1.1238 -0.9414
 5739SOL     OW18504   7.652   1.487   6.309  0.1188 -0.0985 -0.2249
 5739SOL    HW118505   7.629   1.570   6.266 -1.0470 -0.4783 -0.3695
 5739SOL    HW218506   7.587   1.476   6.378 -0.1019 -1.1744 -0.5779
 5740SOL     OW18507   5.608   0.217   4.840  1.0843 -0.3143 -0.3955
 5740SOL    HW118508   5.588   0.310   4.849  0.0777 -0.5636  0.1761
 5740SOL    HW218509   5.596   0.182   4.929  1.0212 -1.0631 -0.6941
 5741SOL     OW18510   0.968   6.352   8.414  0.1338  0.3129  0.0356
 5741SOL    HW118511   0.971   6.273   8.361  1.8435 -0.6723  1.4871
 5741SOL    HW218512   0.890   6.342   8.469 -0.1630  0.0726 -0.4292
 5742SOL     OW18513   0.638   2.410   1.278 -0.0766  0.4653  1.0245
 5742SOL    HW118514   0.695   2.427   1.203 -1.3229 -1.5851 -0.4700
 5742SOL    HW218515   0.583   2.488   1.283 -0.2064  0.5017 -0.4428
 5743SOL     OW18516   0.524   3.253   4.034 -0.2552 -0.4131  0.2443
 5743SOL    HW118517   0.429   3.244   4.023  0.0524 -4.6543 -0.5914
 5743SOL    HW218518   0.557   3.272   3.945 -0.2470  0.4184  0.4186
 5744SOL     OW18519   5.371   0.462   7.071 -0.9479 -0.5429  0.0349
 5744SOL    HW118520   5.387   0.521   6.997 -0.2415 -2.3169 -1.2957
 5744SOL    HW218521   5.293   0.412   7.046 -1.1912 -0.6012  0.8714
 5745SOL     OW18522   0.896   5.363   7.650 -0.6356 -0.0600 -0.0583
 5745SOL    HW118523   0.954   5.437   7.668 -3.2622  1.9846  0.5525
 5745SOL    HW218524   0.891   5.315   7.733  2.0622 -1.8147 -0.7815
 5746SOL     OW18525   4.184   0.988   2.875  0.1654  0.6072  0.2442
 5746SOL    HW118526   4.149   0.912   2.922  0.0905 -0.8846 -2.0639
 5746SOL    HW218527   4.178   1.060   2.938  1.2715 -1.4762  2.9440
 5747SOL     OW18528   3.496   3.413   4.768  0.4925  0.4437  0.4049
 5747SOL    HW118529   3.588   3.440   4.758  0.1713  2.3307  1.9021
 5747SOL    HW218530   3.446   3.488   4.738 -0.5855 -0.4543 -0.1023
 5748SOL     OW18531   3.688   2.136   0.858 -0.0786  0.6519 -0.2772
 5748SOL    HW118532   3.698   2.207   0.920  2.3186 -2.2898  3.1101
 5748SOL    HW218533   3.729   2.168   0.777  1.8330  2.7830  1.4116
 5749SOL     OW18534   2.606   2.509   4.814  0.1281  0.8019  0.4395
 5749SOL    HW118535   2.588   2.590   4.766 -0.0622  1.0391  0.9098
 5749SOL    HW218536   2.525   2.489   4.860 -0.2283 -0.3145 -0.6104
 5750SOL     OW18537   4.078   1.382   7.516 -0.3361  0.6402 -0.4484
 5750SOL    HW118538   4.079   1.476   7.500  1.2084  0.5696 -0.9179
 5750SOL    HW218539   4.048   1.373   7.607 -0.8059  1.5545 -0.5091
 5751SOL     OW18540   4.512   2.596   4.659 -0.3357 -0.4660  0.0168
 5751SOL    HW118541   4.575   2.640   4.717 -0.0240  0.0061 -0.6675
 5751SOL    HW218542   4.431   2.646   4.668 -0.1026  0.0090 -0.4335
 5752SOL     OW18543   1.982   7.552   8.639 -0.0780 -0.3531  0.0080
 5752SOL    HW118544   1.889   7.541   8.618  0.1716 -0.8730 -0.8701
 5752SOL    HW218545   1.986   7.636   8.685 -1.0449 -0.5506  0.4964
 5753SOL     OW18546   3.657   7.372   8.628 -0.5925  0.1772  0.2507
 5753SOL    HW118547   3.672   7.285   8.664  1.2959 -0.8939 -2.7370
 5753SOL    HW218548   3.611   7.356   8.546 -0.5919  2.0623 -0.1558
 5754SOL     OW18549   6.023   8.484   6.019 -0.0144  0.2950  0.3367
 5754SOL    HW118550   5.949   8.536   5.987  0.1831  0.7795  0.6629
 5754SOL    HW218551   6.073   8.545   6.073 -0.1913 -0.4425  1.3501
 5755SOL     OW18552   7.330   6.208   1.724 -0.6726  0.1206 -0.2504
 5755SOL    HW118553   7.267   6.280   1.730 -0.3879  0.3684 -0.2245
 5755SOL    HW218554   7.296   6.141   1.784  0.1840  1.0987  1.3852
 5756SOL     OW18555   7.566   7.187   2.064 -0.2369  0.3775 -0.5404
 5756SOL    HW118556   7.495   7.177   2.128  0.5989 -0.0503  0.3581
 5756SOL    HW218557   7.619   7.259   2.099  0.4495 -0.1257 -0.5145
 5757SOL     OW18558   6.973   2.673   7.856 -0.3684 -0.6420  0.7112
 5757SOL    HW118559   7.010   2.758   7.834 -0.5929 -1.0879 -1.6517
 5757SOL    HW218560   6.887   2.693   7.894 -0.1630  0.1787  0.7674
 5758SOL     OW18561   6.482   2.456   5.665 -0.7535  0.0208 -0.3726
 5758SOL    HW118562   6.552   2.448   5.600  1.3462 -0.8060  1.8464
 5758SOL    HW218563   6.445   2.544   5.650 -0.7063 -0.3303 -2.9238
 5759SOL     OW18564   0.954   7.088   3.808 -0.3371  0.3686  1.0805
 5759SOL    HW118565   0.873   7.039   3.819  0.4265 -1.4337 -0.6974
 5759SOL    HW218566   0.965   7.095   3.713  0.5788  2.3480  1.2934
 5760SOL     OW18567   8.269   2.484   8.703  0.0776  0.2805 -0.0860
 5760SOL    HW118568   8.324   2.544   8.753  0.5226  0.8849 -1.2777
 5760SOL    HW218569   8.183   2.526   8.701 -0.7998 -1.1443  2.6580
 5761SOL     OW18570   7.099   7.745   6.934  0.1461  0.4494  0.2630
 5761SOL    HW118571   7.037   7.689   6.886  1.8473  1.4433 -3.4611
 5761SOL    HW218572   7.044   7.814   6.972 -1.2970  0.0586 -0.9954
 5762SOL     OW18573   5.664   2.777   1.217  0.3588 -0.4377 -0.3575
 5762SOL    HW118574   5.592   2.800   1.159  0.1769  3.2293  1.0732
 5762SOL    HW218575   5.743   2.802   1.169  0.3145  0.8795  0.2382
 5763SOL     OW18576   8.076   0.001   4.680  0.2903  0.1812  0.1138
 5763SOL    HW118577   8.122   0.078   4.710  2.7217 -0.9941 -0.3854
 5763SOL    HW218578   8.057   0.018   4.587  4.4023 -1.2444 -1.1836
 5764SOL     OW18579   5.460   0.182   7.397 -0.3292 -0.7666 -0.1238
 5764SOL    HW118580   5.387   0.184   7.336 -0.0148  0.1457 -0.4843
 5764SOL    HW218581   5.520   0.116   7.361 -0.4996 -0.7799 -0.3832
 5765SOL     OW18582   0.820   3.504   7.955 -0.1399 -0.2113 -0.0946
 5765SOL    HW118583   0.876   3.466   7.888  0.3092 -0.5502  0.4764
 5765SOL    HW218584   0.847   3.463   8.037 -0.1688  0.7542  0.4180
 5766SOL     OW18585   7.964   6.368   6.977 -0.5415  0.1587  0.5058
 5766SOL    HW118586   7.941   6.457   7.006  0.0824  0.4154  0.2286
 5766SOL    HW218587   7.914   6.355   6.897 -0.7850  0.1831  0.6522
 5767SOL     OW18588   0.692   0.371   0.629 -0.1872  0.6212 -0.0726
 5767SOL    HW118589   0.642   0.453   0.627 -0.3036  0.5963  1.1352
 5767SOL    HW218590   0.642   0.311   0.573 -1.0513  0.8587  0.4323
 5768SOL     OW18591   5.063   1.840   5.828  0.5488  0.2732  0.2750
 5768SOL    HW118592   5.088   1.882   5.746  2.3278 -0.4699  0.3901
 5768SOL    HW218593   5.107   1.755   5.826 -1.3378 -0.7911  0.9264
 5769SOL     OW18594   2.723   0.166   0.200 -0.1241  0.6105 -0.2773
 5769SOL    HW118595   2.684   0.080   0.185 -1.2783  1.1082 -0.1945
 5769SOL    HW218596   2.815   0.147   0.220 -0.8445 -0.8325  2.1263
 5770SOL     OW18597   0.435   4.959   6.965  0.1089  0.1488  0.2302
 5770SOL    HW118598   0.513   4.992   7.008 -0.8753  1.8218  0.8268
 5770SOL    HW218599   0.391   4.906   7.032  0.6269 -0.6760 -0.0617
 5771SOL     OW18600   7.533   4.257   0.671  0.1537 -0.0260 -0.5181
 5771SOL    HW118601   7.579   4.204   0.736  1.1114  0.6385 -0.6343
 5771SOL    HW218602   7.469   4.197   0.632 -2.1552  0.1178  2.6206
 5772SOL     OW18603   4.332   0.824   1.412 -1.1702  0.2889 -0.0237
 5772SOL    HW118604   4.426   0.816   1.395 -0.9908 -0.7819  1.3463
 5772SOL    HW218605   4.326   0.896   1.475 -1.0083 -1.1955  1.7405
 5773SOL     OW18606   2.796   7.962   8.551 -0.1394  0.0756 -0.2698
 5773SOL    HW118607   2.865   7.897   8.562 -0.4189  0.0464  1.5078
 5773SOL    HW218608   2.747   7.932   8.474 -0.2208 -1.7816  0.4737
 5774SOL     OW18609   2.932   1.365   6.440  0.2110  0.1211  0.3524
 5774SOL    HW118610   2.871   1.409   6.380 -0.4954 -0.6137  0.5248
 5774SOL    HW218611   2.880   1.296   6.481  0.6942  0.5866  1.7926
 5775SOL     OW18612   0.624   3.038   3.009  0.4645 -0.1071 -0.5772
 5775SOL    HW118613   0.619   3.017   2.916 -2.3387 -0.4356 -0.4150
 5775SOL    HW218614   0.610   3.133   3.012  1.2745  0.0210 -0.5000
 5776SOL     OW18615   3.063   7.220   3.643 -0.4122  0.2203  0.4898
 5776SOL    HW118616   3.122   7.282   3.600  0.1648  0.3072  1.3782
 5776SOL    HW218617   2.976   7.260   3.636 -0.4745 -0.1296 -1.2476
 5777SOL     OW18618   6.601   3.440   2.619  0.1069 -0.0875  0.0853
 5777SOL    HW118619   6.637   3.494   2.548  0.0860  0.6165  0.5992
 5777SOL    HW218620   6.549   3.501   2.671  0.3453 -0.5359  0.8628
 5778SOL     OW18621   0.740   7.498   0.775  0.3664  0.0544  0.3138
 5778SOL    HW118622   0.772   7.567   0.718  0.5060  1.3951  1.9199
 5778SOL    HW218623   0.790   7.509   0.856 -1.4781 -0.1924  1.5501
 5779SOL     OW18624   0.897   0.133   6.404  0.9135  0.1280  0.1162
 5779SOL    HW118625   0.820   0.183   6.430  2.6223  2.3391  1.2319
 5779SOL    HW218626   0.971   0.178   6.446  2.7518 -2.4339 -0.1129
 5780SOL     OW18627   8.438   3.735   5.336 -0.3058  0.3469  0.2503
 5780SOL    HW118628   8.405   3.718   5.424 -0.8512  0.5547  0.0901
 5780SOL    HW218629   8.469   3.826   5.339  1.2714 -0.1585  0.6982
 5781SOL     OW18630   8.658   7.195   0.154  0.2169  0.6877  0.0937
 5781SOL    HW118631   8.746   7.164   0.132  0.0722  0.1776  0.2214
 5781SOL    HW218632   8.665   7.291   0.153  0.6664  0.6539 -0.3236
 5782SOL     OW18633   5.262   0.924   4.555 -0.4098  0.5553 -0.8247
 5782SOL    HW118634   5.275   1.019   4.554 -0.0208  0.7657  3.5880
 5782SOL    HW218635   5.168   0.912   4.545 -0.5115  1.4594 -1.0397
 5783SOL     OW18636   5.766   3.144   4.690  0.1734  0.3837  0.1005
 5783SOL    HW118637   5.730   3.232   4.689  0.7708  0.6268 -0.4111
 5783SOL    HW218638   5.727   3.101   4.613  1.0364  0.6805 -0.5150
 5784SOL     OW18639   6.214   7.713   5.191  0.1687 -0.7498 -0.6378
 5784SOL    HW118640   6.269   7.774   5.241  0.3904 -2.5806  1.5139
 5784SOL    HW218641   6.131   7.711   5.239 -0.2660 -1.2400 -1.3854
 5785SOL     OW18642   0.698   3.566   8.481 -0.4007 -0.4484  0.2917
 5785SOL    HW118643   0.717   3.653   8.515 -1.3133 -0.3163  0.4622
 5785SOL    HW218644   0.638   3.580   8.407 -2.7810 -1.0715  1.9946
 5786SOL     OW18645   6.667   1.989   7.413 -0.2906  0.2133  0.3497
 5786SOL    HW118646   6.754   1.973   7.377  0.0009  1.4654  0.4387
 5786SOL    HW218647   6.628   1.902   7.421  0.5358 -0.2836 -0.7073
 5787SOL     OW18648   3.075   7.295   0.157 -0.0571  0.4235  0.4896
 5787SOL    HW118649   3.018   7.368   0.182 -0.9946 -0.1080 -0.0128
 5787SOL    HW218650   3.062   7.230   0.225  0.0247  0.3403  0.4261
 5788SOL     OW18651   2.039   5.366   7.272  0.1103 -0.0537  0.0463
 5788SOL    HW118652   2.025   5.274   7.292 -0.0185 -0.9645 -3.5811
 5788SOL    HW218653   2.127   5.371   7.236 -0.2589  1.0242 -0.7927
 5789SOL     OW18654   4.820   1.590   6.431 -0.0763  0.3196  0.5477
 5789SOL    HW118655   4.810   1.646   6.355  0.4122  2.1088  1.7363
 5789SOL    HW218656   4.896   1.535   6.411 -1.7621 -1.4873 -1.4803
 5790SOL     OW18657   5.927   5.441   5.808  0.1979 -0.2982  0.0592
 5790SOL    HW118658   6.013   5.480   5.821 -0.2551  0.1930  1.9045
 5790SOL    HW218659   5.917   5.381   5.882 -1.3652  0.2578  0.3297
 5791SOL     OW18660   1.952   5.974   8.575  0.1048  0.1145 -0.3166
 5791SOL    HW118661   1.947   6.021   8.492  0.9276  1.3960  0.3323
 5791SOL    HW218662   1.910   6.032   8.638 -1.2870 -1.2232  0.0366
 5792SOL     OW18663   7.123   5.195   0.193  0.3139 -0.3789  0.3843
 5792SOL    HW118664   7.102   5.230   0.280  0.4065 -1.0355  0.6731
 5792SOL    HW218665   7.166   5.112   0.210  0.0710 -0.6504 -0.3020
 5793SOL     OW18666   5.940   6.689   6.217 -0.4725 -0.2831  0.0813
 5793SOL    HW118667   5.938   6.622   6.285 -1.2663  2.0693  2.5781
 5793SOL    HW218668   5.850   6.721   6.213  0.4327  2.7172  1.3146
 5794SOL     OW18669   5.621   4.601   1.182 -0.4548 -0.2830 -0.1715
 5794SOL    HW118670   5.663   4.663   1.242 -0.3620 -2.3214  2.0273
 5794SOL    HW218671   5.544   4.647   1.149 -0.9317  0.6919  2.1497
 5795SOL     OW18672   6.676   5.686   2.157 -0.0670  0.1432 -0.0232
 5795SOL    HW118673   6.591   5.689   2.113 -0.1354 -0.5163  0.0656
 5795SOL    HW218674   6.694   5.778   2.178 -1.8271  0.1027  2.0025
 5796SOL     OW18675   5.293   5.833   8.493 -0.0813 -0.0851 -0.2051
 5796SOL    HW118676   5.278   5.766   8.426 -0.2381 -0.4856  0.2278
 5796SOL    HW218677   5.298   5.915   8.444  1.1591 -0.5255 -0.8560
 5797SOL     OW18678   8.633   4.505   1.705 -0.5971 -0.1979 -1.1496
 5797SOL    HW118679   8.563   4.442   1.687  0.6359 -1.9712 -0.1335
 5797SOL    HW218680   8.708   4.471   1.656  0.9004 -1.2422  1.6576
 5798SOL     OW18681   4.097   2.156   5.364  0.4101 -0.1773 -0.4266
 5798SOL    HW118682   4.024   2.165   5.303 -1.0361 -0.5386  1.1809
 5798SOL    HW218683   4.060   2.111   5.440  2.1815  0.0918  0.6526
 5799SOL     OW18684   5.060   4.743   3.838  0.6426  0.2282  0.3298
 5799SOL    HW118685   5.022   4.830   3.823 -1.9128 -0.5097  1.9278
 5799SOL    HW218686   5.138   4.760   3.891 -0.3219  1.4953  1.4009
 5800SOL     OW18687   8.513   3.825   1.258 -0.0975 -0.1209 -0.7502
 5800SOL    HW118688   8.456   3.793   1.188 -1.6229  0.6669  0.0725
 5800SOL    HW218689   8.486   3.774   1.335  0.0236  0.5345 -0.2650
 5801SOL     OW18690   7.453   5.286   1.074  0.2114  0.0681 -0.5102
 5801SOL    HW118691   7.417   5.362   1.120 -0.6224 -0.3715 -0.4104
 5801SOL    HW218692   7.542   5.278   1.107 -0.1573  0.1520  0.5460
 5802SOL     OW18693   7.328   6.225   0.835  0.6115  0.3040 -0.4456
 5802SOL    HW118694   7.261   6.209   0.768  0.4075  0.5225 -0.2935
 5802SOL    HW218695   7.389   6.286   0.793 -0.4948  1.8977  0.1877
 5803SOL     OW18696   0.970   5.732   6.627  0.4731 -0.1656 -0.1803
 5803SOL    HW118697   0.934   5.808   6.673 -1.0010 -0.4938 -0.7629
 5803SOL    HW218698   0.969   5.758   6.534 -0.9911 -1.2495 -0.4903
 5804SOL     OW18699   0.029   2.833   7.840 -0.1613  0.4720  0.0292
 5804SOL    HW118700   0.087   2.907   7.862  3.0619 -1.7041 -0.4315
 5804SOL    HW218701   0.000   2.851   7.751  1.8799  0.5341 -0.6821
 5805SOL     OW18702   6.618   7.823   6.932  0.0407 -0.2729 -0.3083
 5805SOL    HW118703   6.570   7.787   7.006  0.9344 -0.3507  0.2403
 5805SOL    HW218704   6.626   7.751   6.870  1.5883 -0.9877  0.6680
 5806SOL     OW18705   3.891   7.049   2.343  0.0603  0.1741  0.0365
 5806SOL    HW118706   3.867   7.049   2.436 -1.4178  0.8115 -0.3063
 5806SOL    HW218707   3.915   6.958   2.325 -2.8911 -0.7778  0.3219
 5807SOL     OW18708   1.195   5.729   5.741 -0.3916 -0.1074  0.2242
 5807SOL    HW118709   1.147   5.785   5.802 -0.7297 -0.1566  0.0106
 5807SOL    HW218710   1.128   5.699   5.679 -0.2946 -1.0780  0.5705
 5808SOL     OW18711   0.057   3.986   6.379  0.0472  0.3561 -0.2016
 5808SOL    HW118712  -0.006   4.051   6.349  0.3564 -0.3509 -2.5939
 5808SOL    HW218713   0.106   4.029   6.449 -1.3019  1.8320 -0.1331
 5809SOL     OW18714   6.557   1.353   7.364 -0.4796  0.0473 -0.1444
 5809SOL    HW118715   6.485   1.374   7.305  0.5840  1.7569 -0.9183
 5809SOL    HW218716   6.553   1.420   7.432 -0.3147 -0.5574  0.4799
 5810SOL     OW18717   1.660   0.577   3.771 -0.1498  0.5252 -0.1448
 5810SOL    HW118718   1.669   0.499   3.826  1.0290 -0.0457 -1.1266
 5810SOL    HW218719   1.568   0.577   3.746  0.2471 -1.8082 -1.9093
 5811SOL     OW18720   0.925   6.135   3.556 -0.3566 -0.0161 -0.1260
 5811SOL    HW118721   1.000   6.187   3.587 -1.1201  1.4646 -0.6530
 5811SOL    HW218722   0.959   6.046   3.550  1.1070  0.4588  0.5264
 5812SOL     OW18723   1.428   7.796   1.094 -0.4380  0.1647  0.5233
 5812SOL    HW118724   1.430   7.782   1.189 -2.9505  0.2811  0.6763
 5812SOL    HW218725   1.392   7.715   1.059  0.0913  0.2794 -0.3100
 5813SOL     OW18726   7.176   0.387   1.403  0.3245 -0.2476  0.0515
 5813SOL    HW118727   7.245   0.445   1.433  0.8949 -1.2362  0.7051
 5813SOL    HW218728   7.219   0.303   1.388 -0.9475 -1.3524  2.0300
 5814SOL     OW18729   2.819   4.215   6.677 -0.3940 -0.7873  0.0095
 5814SOL    HW118730   2.805   4.166   6.758  0.4846 -0.2492  0.5081
 5814SOL    HW218731   2.852   4.300   6.706 -0.2543 -0.5192 -0.9059
 5815SOL     OW18732   1.113   5.526   1.664  0.6432 -0.4876  0.1626
 5815SOL    HW118733   1.034   5.477   1.641 -1.1900  2.5289 -0.4503
 5815SOL    HW218734   1.089   5.575   1.742  1.3749  1.5619 -0.8331
 5816SOL     OW18735   6.641   3.638   5.517  0.1678 -0.0049  0.0273
 5816SOL    HW118736   6.616   3.605   5.603 -0.2269  1.7306  0.6102
 5816SOL    HW218737   6.694   3.715   5.535  1.8858 -0.7969 -1.2814
 5817SOL     OW18738   6.900   6.207   6.015 -0.2008 -0.8311 -0.1181
 5817SOL    HW118739   6.884   6.167   6.101 -2.0104 -1.1886 -0.5855
 5817SOL    HW218740   6.995   6.202   6.004  0.0119 -1.2864  1.6167
 5818SOL     OW18741   2.152   7.946   3.664  0.7997 -0.5672 -0.3857
 5818SOL    HW118742   2.098   7.903   3.598 -1.3146  0.0672  0.8384
 5818SOL    HW218743   2.193   7.873   3.712 -0.8350 -1.1851  0.1414
 5819SOL     OW18744   3.444   5.617   4.457 -0.2562 -0.4719  0.1363
 5819SOL    HW118745   3.467   5.539   4.508  1.6035  0.1771  0.4010
 5819SOL    HW218746   3.486   5.689   4.504  1.3058  0.1908 -2.0999
 5820SOL     OW18747   3.226   4.991   8.613  0.1866 -0.2008 -0.1401
 5820SOL    HW118748   3.182   4.991   8.698  0.1229 -0.8559 -0.1648
 5820SOL    HW218749   3.290   4.919   8.620  0.1171 -0.3173 -0.6773
 5821SOL     OW18750   0.844   0.850   4.829  0.0509 -0.4310 -0.3302
 5821SOL    HW118751   0.796   0.819   4.906  0.4933 -1.1330 -0.3295
 5821SOL    HW218752   0.779   0.849   4.758 -0.5711  0.9885  0.1884
 5822SOL     OW18753   2.508   5.128   7.583 -0.6109  0.2985  0.4368
 5822SOL    HW118754   2.590   5.113   7.537  0.0864 -0.3655  1.8332
 5822SOL    HW218755   2.477   5.213   7.551 -1.1788 -0.9721 -2.6698
 5823SOL     OW18756   5.686   4.616   5.525 -0.1024  0.0106  0.0069
 5823SOL    HW118757   5.616   4.661   5.477 -0.3010 -1.2793 -0.9796
 5823SOL    HW218758   5.767   4.657   5.493 -0.3558  1.0543  0.6592
 5824SOL     OW18759   2.738   2.893   6.645 -0.1899  0.0205 -0.1027
 5824SOL    HW118760   2.771   2.835   6.576  2.2005 -0.3239  1.2242
 5824SOL    HW218761   2.739   2.980   6.606  1.2601 -0.1486 -0.4706
 5825SOL     OW18762   1.133   5.243   2.253 -0.4258 -0.2715  0.2741
 5825SOL    HW118763   1.159   5.202   2.170  0.8355 -0.1893  0.6091
 5825SOL    HW218764   1.078   5.317   2.227  0.7794  0.3691 -0.5698
 5826SOL     OW18765   4.231   0.010   0.271 -0.3043 -0.7000  0.3749
 5826SOL    HW118766   4.244   0.041   0.361 -2.0872 -2.0030  1.1366
 5826SOL    HW218767   4.292  -0.063   0.262 -0.0024 -0.4617  0.4635
 5827SOL     OW18768   4.687   3.185   5.713 -0.2171 -0.5378  0.7050
 5827SOL    HW118769   4.613   3.195   5.653 -0.7733  0.7944  1.5608
 5827SOL    HW218770   4.660   3.115   5.773 -0.4332 -0.6228  0.5080
 5828SOL     OW18771   3.831   2.509   8.287  0.0666  0.0064 -0.4357
 5828SOL    HW118772   3.860   2.571   8.220  0.9340 -0.8161 -0.8445
 5828SOL    HW218773   3.864   2.425   8.258 -1.9203 -0.8430 -0.3982
 5829SOL     OW18774   4.385   2.258   5.129  0.5329 -0.4339 -0.4740
 5829SOL    HW118775   4.321   2.329   5.139  0.8667  0.0425 -1.5274
 5829SOL    HW218776   4.337   2.179   5.155 -0.0302  0.0922  0.1408
 5830SOL     OW18777   1.858   0.511   5.277 -0.4145  0.0319  0.1861
 5830SOL    HW118778   1.830   0.440   5.220  1.5277 -1.0184  0.4575
 5830SOL    HW218779   1.832   0.484   5.365  1.6356 -1.1544  0.4983
 5831SOL     OW18780   3.939   8.572   2.147  0.4417  0.2435 -0.1428
 5831SOL    HW118781   3.919   8.553   2.239 -0.7794  0.6046 -0.3071
 5831SOL    HW218782   3.995   8.500   2.120 -0.4345 -0.7174  0.4812
 5832SOL     OW18783   2.682   3.159   4.874  0.0483  0.1571 -0.0596
 5832SOL    HW118784   2.598   3.186   4.836  0.6851  1.8152 -0.3812
 5832SOL    HW218785   2.711   3.235   4.925  0.3077 -1.1921  1.9234
 5833SOL     OW18786   6.603   6.689   2.193  0.2519 -0.6580 -0.1471
 5833SOL    HW118787   6.698   6.681   2.188  0.1728 -2.9364  0.7434
 5833SOL    HW218788   6.571   6.598   2.192 -1.6726 -0.1820  2.9970
 5834SOL     OW18789   8.333   3.095   8.385  0.4691  0.1330 -0.0157
 5834SOL    HW118790   8.251   3.097   8.335 -0.8678 -0.7271  1.9904
 5834SOL    HW218791   8.396   3.053   8.327 -0.5249  0.7465 -1.5868
 5835SOL     OW18792   5.839   1.182   7.795  0.1112 -1.0531  0.4300
 5835SOL    HW118793   5.920   1.220   7.830 -0.1381 -1.3449  1.3630
 5835SOL    HW218794   5.770   1.240   7.827  0.0236 -0.0882 -1.4027
 5836SOL     OW18795   5.055   0.521   3.420  0.2283 -0.3428  0.2330
 5836SOL    HW118796   5.128   0.475   3.459  0.3306  0.0701  0.5367
 5836SOL    HW218797   5.084   0.541   3.330  0.6664  0.1991  0.4863
 5837SOL     OW18798   2.870   0.595   4.125  0.2728 -0.3916 -0.0541
 5837SOL    HW118799   2.934   0.655   4.161  1.6284 -1.7269 -0.1517
 5837SOL    HW218800   2.837   0.546   4.200 -0.9313  0.5259  0.0460
 5838SOL     OW18801   2.693   6.912   6.105  0.4572  0.0000 -0.1012
 5838SOL    HW118802   2.673   6.971   6.032  1.1490 -0.2089 -0.4670
 5838SOL    HW218803   2.627   6.932   6.171 -0.6453 -0.3231 -1.0773
 5839SOL     OW18804   7.215   8.234   1.802 -0.0106  0.0695 -0.2882
 5839SOL    HW118805   7.246   8.304   1.859  0.8111 -0.7244  0.2639
 5839SOL    HW218806   7.167   8.175   1.861  1.8821 -1.3995 -0.1334
 5840SOL     OW18807   7.389   8.072   7.373 -0.5834  0.5615  0.1754
 5840SOL    HW118808   7.474   8.088   7.416 -0.3131 -0.6344  0.1082
 5840SOL    HW218809   7.331   8.044   7.443 -0.8900  1.2178  0.1921
 5841SOL     OW18810   7.613   7.645   4.262  0.3864  0.6545  0.0499
 5841SOL    HW118811   7.607   7.651   4.357 -0.7563 -0.9924  0.1257
 5841SOL    HW218812   7.539   7.590   4.237  0.5233  1.2729 -1.8302
 5842SOL     OW18813   5.902   4.844   6.051  0.5303 -0.3293  0.1475
 5842SOL    HW118814   5.947   4.761   6.067  0.1596 -0.6660 -0.5262
 5842SOL    HW218815   5.963   4.894   5.997  0.7656 -0.1410  0.5771
 5843SOL     OW18816   2.349   1.682   7.997 -0.1211 -0.5081 -0.0869
 5843SOL    HW118817   2.278   1.651   8.054  0.4824  0.9356  1.5535
 5843SOL    HW218818   2.309   1.687   7.910 -1.1369 -2.5997  0.1828
 5844SOL     OW18819   4.425   4.188   3.398 -0.4339 -0.0905  0.0587
 5844SOL    HW118820   4.521   4.192   3.389 -0.2643 -1.2738  1.0741
 5844SOL    HW218821   4.406   4.238   3.477 -0.8267  1.3371 -0.9020
 5845SOL     OW18822   0.927   8.187   4.226 -0.2832 -0.0878 -0.0540
 5845SOL    HW118823   0.840   8.149   4.237 -0.0397 -0.5209  0.4746
 5845SOL    HW218824   0.912   8.272   4.186 -1.0349  0.2844  0.9876
 5846SOL     OW18825   4.482   2.144   4.309  0.3971 -0.1909 -0.0018
 5846SOL    HW118826   4.472   2.207   4.381 -0.2306  2.1840 -2.0648
 5846SOL    HW218827   4.399   2.095   4.308  0.0934  0.3085  0.3563
 5847SOL     OW18828   1.779   3.950   5.123 -0.2774  0.3113 -0.5670
 5847SOL    HW118829   1.828   4.005   5.062  1.1728 -0.1642  0.1442
 5847SOL    HW218830   1.771   3.866   5.079 -0.8346  0.5081 -0.8533
 5848SOL     OW18831   1.158   0.848   7.883 -0.3168  0.2300  0.2635
 5848SOL    HW118832   1.245   0.887   7.890 -0.2676  0.3385 -0.7555
 5848SOL    HW218833   1.167   0.782   7.814 -1.0483  0.2750  0.1151
 5849SOL     OW18834   3.306   6.995   0.836  0.7560 -0.4492 -0.2391
 5849SOL    HW118835   3.311   6.957   0.924 -0.3681 -1.1820 -0.4741
 5849SOL    HW218836   3.379   6.953   0.789 -1.5685 -3.9964 -1.0551
 5850SOL     OW18837   4.233   6.371   4.707 -0.9741  0.1273 -0.2892
 5850SOL    HW118838   4.267   6.287   4.739  0.1587 -0.8463 -3.6563
 5850SOL    HW218839   4.148   6.349   4.668 -0.9972  0.6737 -0.5512
 5851SOL     OW18840   2.424   0.760   0.777 -0.5979  0.0972 -0.5070
 5851SOL    HW118841   2.399   0.672   0.748 -0.1796  0.3495 -1.7082
 5851SOL    HW218842   2.512   0.773   0.741  1.1258 -0.5158  3.0374
 5852SOL     OW18843   2.167   0.724   5.875  0.3088  0.4471 -0.0505
 5852SOL    HW118844   2.224   0.713   5.951  1.5986 -2.7345 -1.2871
 5852SOL    HW218845   2.225   0.756   5.806 -0.1298  0.3644 -0.4606
 5853SOL     OW18846   0.424   0.839   5.833 -0.1190  0.4173  0.2253
 5853SOL    HW118847   0.409   0.899   5.760  1.1917  1.0033  0.3945
 5853SOL    HW218848   0.353   0.858   5.895  0.3781  1.9895  0.3765
 5854SOL     OW18849   5.494   0.703   4.527 -0.2417  0.1871 -0.1004
 5854SOL    HW118850   5.434   0.716   4.601 -0.6126  1.3001 -0.5812
 5854SOL    HW218851   5.472   0.773   4.466 -0.1243 -0.8879 -1.4069
 5855SOL     OW18852   8.682   3.704   6.431 -0.1881 -0.2467 -0.6489
 5855SOL    HW118853   8.722   3.707   6.518  0.5226 -0.3149 -0.9626
 5855SOL    HW218854   8.734   3.765   6.378 -1.0037  0.2654 -0.8714
 5856SOL     OW18855   0.043   3.782   3.931 -0.2411 -0.0746 -0.4033
 5856SOL    HW118856  -0.026   3.814   3.988 -0.0179 -0.1521 -0.0863
 5856SOL    HW218857   0.050   3.688   3.951 -0.1558 -0.1015 -0.5498
 5857SOL     OW18858   0.332   6.728   0.380  0.2606  0.3106 -0.3150
 5857SOL    HW118859   0.398   6.781   0.336  1.2010 -0.8835 -0.3996
 5857SOL    HW218860   0.248   6.767   0.353  0.8134  0.0847 -2.6112
 5858SOL     OW18861   3.613   0.132   8.016 -0.0689  0.2739  0.3766
 5858SOL    HW118862   3.619   0.213   8.067 -2.6183  0.4704  0.5274
 5858SOL    HW218863   3.541   0.148   7.955  0.4099 -1.3399 -0.6770
 5859SOL     OW18864   1.889   6.226   0.005  0.6766 -0.6029  0.1043
 5859SOL    HW118865   1.799   6.260   0.004  0.5008 -1.0186  1.1302
 5859SOL    HW218866   1.943   6.304  -0.003  0.2351 -0.4443 -1.9364
 5860SOL     OW18867   5.058   4.318   8.700 -0.2586 -0.2937  0.4057
 5860SOL    HW118868   5.039   4.383   8.768 -0.2781  1.8009 -1.5185
 5860SOL    HW218869   4.976   4.310   8.651 -0.0819 -1.3859  0.2640
 5861SOL     OW18870   0.920   8.537   8.056  0.1759  0.4375 -0.9211
 5861SOL    HW118871   0.993   8.591   8.028 -0.4771  1.7728 -0.1365
 5861SOL    HW218872   0.959   8.473   8.116  0.9366  0.1004 -1.7657
 5862SOL     OW18873   0.330   5.082   0.699  0.1527  0.1344 -0.5994
 5862SOL    HW118874   0.421   5.081   0.727 -0.2357  0.8471  0.7941
 5862SOL    HW218875   0.332   5.114   0.609  1.2646  0.3044 -0.5224
 5863SOL     OW18876   5.409   3.814   3.816 -0.7086  0.2445  0.4074
 5863SOL    HW118877   5.333   3.759   3.796 -0.5920  0.2491 -0.0776
 5863SOL    HW218878   5.372   3.891   3.859 -0.8471 -0.3128  1.3120
 5864SOL     OW18879   5.751   3.409   4.056 -0.1300  0.0986  0.1719
 5864SOL    HW118880   5.755   3.458   4.138  0.1362 -0.6083  0.5904
 5864SOL    HW218881   5.769   3.474   3.988  2.1510  0.2529  0.8386
 5865SOL     OW18882   3.616   6.335   5.135 -0.2194 -0.2866 -0.3003
 5865SOL    HW118883   3.706   6.320   5.163  0.4263  0.3482 -1.8829
 5865SOL    HW218884   3.576   6.385   5.206  0.7977 -0.2327  0.2485
 5866SOL     OW18885   2.388   7.519   6.103  0.8641  0.2504  0.0059
 5866SOL    HW118886   2.338   7.495   6.025 -0.6776 -0.7917  1.2400
 5866SOL    HW218887   2.328   7.574   6.154  1.8269  0.8894  0.4797
 5867SOL     OW18888   0.572   0.097   3.731  0.2533  0.2791  0.4534
 5867SOL    HW118889   0.539   0.014   3.765 -0.2575 -0.2195 -1.1803
 5867SOL    HW218890   0.657   0.077   3.693 -0.0579  0.3963 -0.3295
 5868SOL     OW18891   8.328   3.854   2.390  0.0908  0.5564 -0.0042
 5868SOL    HW118892   8.347   3.760   2.384 -0.8404  0.4165 -1.1566
 5868SOL    HW218893   8.410   3.897   2.365  0.8580  0.0910  1.5845
 5869SOL     OW18894   4.165   2.099   1.855 -0.0465 -0.7385  0.3047
 5869SOL    HW118895   4.071   2.101   1.871  0.1453  0.5896  1.4544
 5869SOL    HW218896   4.185   2.186   1.819  0.3080 -1.9966 -2.8265
 5870SOL     OW18897   5.256   3.978   7.794  0.0314  0.1239 -0.3135
 5870SOL    HW118898   5.309   3.899   7.781  0.8432  0.6914 -0.5578
 5870SOL    HW218899   5.300   4.024   7.866 -0.4589  0.3355 -0.1499
 5871SOL     OW18900   0.143   8.590   2.173 -0.6037  0.4690  0.1550
 5871SOL    HW118901   0.160   8.560   2.262 -0.3098  1.6725  0.5183
 5871SOL    HW218902   0.175   8.680   2.171 -0.7260  0.5024 -1.1318
 5872SOL     OW18903   5.333   4.460   5.787  0.0703 -0.9264 -0.1507
 5872SOL    HW118904   5.403   4.432   5.729  0.8332  1.7662 -0.6575
 5872SOL    HW218905   5.268   4.499   5.729 -0.0278  0.0897  0.6152
 5873SOL     OW18906   2.296   8.305   3.286 -0.4337 -0.1073  0.2947
 5873SOL    HW118907   2.243   8.231   3.316 -0.0449 -0.2392  0.6666
 5873SOL    HW218908   2.386   8.273   3.290 -0.3840 -0.2437 -1.3430
 5874SOL     OW18909   4.597   8.405   2.700  0.1590 -0.6638  0.1547
 5874SOL    HW118910   4.560   8.482   2.742  0.7265 -0.0873 -0.3628
 5874SOL    HW218911   4.524   8.365   2.653 -0.3523 -0.9964  1.1902
 5875SOL     OW18912   1.366   5.402   0.467  0.1633  0.3915  0.0833
 5875SOL    HW118913   1.284   5.435   0.502 -0.7913 -0.9955 -0.7088
 5875SOL    HW218914   1.352   5.400   0.372  1.5785  1.2734 -0.1694
 5876SOL     OW18915   1.823   6.852   6.651  0.0154  0.0746 -0.5092
 5876SOL    HW118916   1.853   6.792   6.719  0.6226  0.2273 -0.6330
 5876SOL    HW218917   1.790   6.796   6.582 -0.9735 -0.0733  0.0714
 5877SOL     OW18918   8.483   4.815   0.958 -0.1248  0.2013 -0.7057
 5877SOL    HW118919   8.501   4.845   1.047 -0.9635  1.3999 -0.9162
 5877SOL    HW218920   8.389   4.828   0.946 -0.0809 -0.2168 -1.6767
 5878SOL     OW18921   1.477   3.806   4.976 -0.6977 -0.1219 -0.0221
 5878SOL    HW118922   1.452   3.791   5.067  0.3100 -0.1525  0.2618
 5878SOL    HW218923   1.568   3.776   4.970 -0.4951  0.5935 -0.8398
 5879SOL     OW18924   5.426   7.437   8.690 -0.2746  0.3174 -0.6511
 5879SOL    HW118925   5.345   7.452   8.739 -0.4817 -1.3071 -0.4211
 5879SOL    HW218926   5.495   7.464   8.750 -0.5707 -0.6766  0.1787
 5880SOL     OW18927   7.200   6.897   2.676  0.5563  0.1302 -0.2772
 5880SOL    HW118928   7.136   6.889   2.746  0.4309  0.2629 -0.3745
 5880SOL    HW218929   7.210   6.992   2.663  1.8601  0.1508  0.7160
 5881SOL     OW18930   3.104   5.384   4.188 -0.6281 -0.0375  0.4260
 5881SOL    HW118931   3.018   5.425   4.182  0.6504  2.6082 -1.9769
 5881SOL    HW218932   3.142   5.421   4.268 -1.0680  0.1148  0.5713
 5882SOL     OW18933   5.556   3.253   4.434  0.0107 -0.1484  0.3123
 5882SOL    HW118934   5.530   3.258   4.342 -0.5108 -0.2123  0.4528
 5882SOL    HW218935   5.523   3.334   4.473 -2.1057 -1.2555  1.0103
 5883SOL     OW18936   6.576   6.629   3.690 -0.1508 -0.3402  0.1744
 5883SOL    HW118937   6.655   6.590   3.728 -0.8973 -0.3114  1.8000
 5883SOL    HW218938   6.606   6.713   3.656  0.6351 -0.5761  0.2477
 5884SOL     OW18939   5.828   8.030   0.200 -0.1136 -0.1922 -0.2824
 5884SOL    HW118940   5.792   7.991   0.120 -1.9076  1.0007 -0.1138
 5884SOL    HW218941   5.776   7.992   0.271  0.7919 -0.4677  0.2536
 5885SOL     OW18942   5.300   1.460   0.334  0.2989  0.2349 -0.2343
 5885SOL    HW118943   5.323   1.436   0.244 -0.0003  1.0567 -0.5485
 5885SOL    HW218944   5.334   1.549   0.344 -0.2313  0.3898  0.2456
 5886SOL     OW18945   4.766   3.782   5.233 -0.6443  0.2096 -0.0265
 5886SOL    HW118946   4.767   3.692   5.203  1.1193 -0.6101  2.1782
 5886SOL    HW218947   4.849   3.793   5.280 -1.2344  2.6753  0.6089
 5887SOL     OW18948   4.448   1.450   3.482 -0.7698  0.3306  0.3450
 5887SOL    HW118949   4.500   1.528   3.502 -0.8223  0.2880  0.6534
 5887SOL    HW218950   4.412   1.467   3.395  1.8276 -0.7125 -1.0517
 5888SOL     OW18951   0.262   8.052   2.754 -0.1714 -0.2857 -0.1083
 5888SOL    HW118952   0.323   8.077   2.822  0.4868 -0.9295 -0.4469
 5888SOL    HW218953   0.237   8.134   2.712 -0.9164  0.1660  1.1616
 5889SOL     OW18954   3.752   7.451   4.585  0.4496 -0.6366  0.6407
 5889SOL    HW118955   3.699   7.521   4.548  1.1262 -0.4878 -0.0821
 5889SOL    HW218956   3.695   7.408   4.649 -0.9103 -1.1641 -0.8788
 5890SOL     OW18957   2.620   2.596   7.316  0.8861  0.3699  0.4468
 5890SOL    HW118958   2.589   2.657   7.383  1.3461 -0.3407  1.3443
 5890SOL    HW218959   2.712   2.621   7.303  0.3184  1.7295 -1.3542
 5891SOL     OW18960   4.107   5.683   4.983 -0.2173 -0.2151  0.4594
 5891SOL    HW118961   4.172   5.743   5.020 -1.4109  2.7845 -1.8753
 5891SOL    HW218962   4.140   5.665   4.895 -1.8512  0.3371 -0.2981
 5892SOL     OW18963   7.502   0.356   4.370 -0.3646  0.0235 -0.0580
 5892SOL    HW118964   7.553   0.305   4.434  0.6809  0.4816 -0.5001
 5892SOL    HW218965   7.568   0.398   4.315 -1.2439 -0.0870 -1.2377
 5893SOL     OW18966   0.040   6.892   7.533  0.2183  0.3616  0.0691
 5893SOL    HW118967   0.122   6.933   7.507 -0.4988  2.2080  0.5814
 5893SOL    HW218968  -0.020   6.906   7.459  0.2420 -0.6832 -0.1680
 5894SOL     OW18969   0.630   7.246   7.384 -0.5762 -0.1724 -0.1380
 5894SOL    HW118970   0.599   7.286   7.303 -1.7629  0.9335  0.8130
 5894SOL    HW218971   0.695   7.182   7.356 -0.5965  0.5300 -1.9150
 5895SOL     OW18972   2.859   1.492   4.172 -0.2085  0.1855 -0.3629
 5895SOL    HW118973   2.795   1.514   4.240  1.0501  2.0296  0.3114
 5895SOL    HW218974   2.882   1.576   4.132  1.6567 -0.4272 -0.6825
 5896SOL     OW18975   3.914   3.368   6.167  0.8416  0.0610  0.2805
 5896SOL    HW118976   3.923   3.458   6.198  0.6662 -0.0510  0.6654
 5896SOL    HW218977   3.927   3.314   6.245 -0.1046 -0.2058  0.2693
 5897SOL     OW18978   2.885   5.102   6.058 -0.2638  0.6289 -0.2520
 5897SOL    HW118979   2.874   5.111   6.152  2.7168 -0.0153  0.2742
 5897SOL    HW218980   2.818   5.158   6.020  0.3048  3.2801  2.3155
 5898SOL     OW18981   6.345   5.645   0.863  0.0482  0.0148  0.2306
 5898SOL    HW118982   6.432   5.644   0.904  0.7738 -0.1184 -1.2468
 5898SOL    HW218983   6.329   5.738   0.845  0.7349 -0.1167 -1.1767
 5899SOL     OW18984   4.256   2.556   0.768  0.3205 -0.1498  0.2807
 5899SOL    HW118985   4.346   2.588   0.761  0.2789 -0.3494 -1.7705
 5899SOL    HW218986   4.204   2.633   0.788  0.6305  0.5007 -1.3173
 5900SOL     OW18987   3.699   1.497   0.735  0.4364 -0.0579  0.0392
 5900SOL    HW118988   3.764   1.428   0.742 -0.5230 -0.9873  0.1322
 5900SOL    HW218989   3.653   1.478   0.653 -0.7626 -0.3791  0.7569
 5901SOL     OW18990   2.692   7.640   4.092  0.0463  0.2865 -0.1925
 5901SOL    HW118991   2.719   7.731   4.103 -0.2944  0.2624  0.9895
 5901SOL    HW218992   2.619   7.630   4.153 -0.9549 -0.3544 -1.4457
 5902SOL     OW18993   6.882   1.274   8.165 -0.1840 -0.1033 -0.1675
 5902SOL    HW118994   6.885   1.266   8.260 -0.7828  1.3107 -0.0103
 5902SOL    HW218995   6.968   1.309   8.142 -0.0069 -0.5275 -0.1763
 5903SOL     OW18996   3.380   3.135   0.710 -0.3596  0.5034  0.3021
 5903SOL    HW118997   3.431   3.171   0.638  0.0830 -0.3922  0.1544
 5903SOL    HW218998   3.289   3.145   0.682 -0.1737 -2.0964 -1.5629
 5904SOL     OW18999   5.605   4.647   3.301  0.0388  0.1165 -0.1229
 5904SOL    HW119000   5.665   4.620   3.231  0.3925 -1.5813  0.7945
 5904SOL    HW219001   5.591   4.740   3.285 -0.1647 -0.2762 -2.6663
 5905SOL     OW19002   0.204   6.322   4.478 -0.1025  0.7223  0.1927
 5905SOL    HW119003   0.275   6.300   4.537  1.1431 -0.9594 -1.7866
 5905SOL    HW219004   0.222   6.272   4.398 -2.4962  1.6925 -1.0820
 5906SOL     OW19005   4.637   0.360   4.038  0.0669  0.3179  0.6105
 5906SOL    HW119006   4.715   0.388   3.990 -0.4931  1.3771  0.2792
 5906SOL    HW219007   4.670   0.326   4.121  0.8554  1.1728  0.6623
 5907SOL     OW19008   2.294   4.992   2.260 -0.4552 -0.1905  0.4906
 5907SOL    HW119009   2.310   5.012   2.168 -2.4371 -0.5639  0.0030
 5907SOL    HW219010   2.207   4.952   2.261 -0.4318 -0.3221  2.5173
 5908SOL     OW19011   7.523   3.755   7.795  0.4362 -0.0772 -0.0333
 5908SOL    HW119012   7.464   3.822   7.760  1.3912  0.2209 -1.0877
 5908SOL    HW219013   7.565   3.797   7.870  1.4413  0.7224 -1.0163
 5909SOL     OW19014   5.972   5.262   6.020  0.2559  0.2035  0.2697
 5909SOL    HW119015   5.892   5.216   6.044 -0.0047  1.1686  1.3236
 5909SOL    HW219016   6.021   5.270   6.102  1.2044  0.0641 -0.2674
 5910SOL     OW19017   0.036   0.738   0.352 -0.1140  0.1114 -0.3926
 5910SOL    HW119018   0.056   0.787   0.431  0.6529  0.6516 -0.9058
 5910SOL    HW219019   0.103   0.765   0.289 -1.0011  0.0717 -1.3890
 5911SOL     OW19020   0.034   1.230   7.946  0.0149  0.1921 -0.2790
 5911SOL    HW119021   0.063   1.149   7.989  0.9770 -0.5116 -2.1355
 5911SOL    HW219022  -0.059   1.237   7.968 -0.7145 -2.7118 -1.8476
 5912SOL     OW19023   3.145   6.062   5.619  0.7832  0.1438  0.7623
 5912SOL    HW119024   3.226   6.031   5.578 -0.6142 -1.5971 -0.9043
 5912SOL    HW219025   3.157   6.156   5.628  1.3800  0.6674 -3.5117
 5913SOL     OW19026   2.232   2.133   7.301  0.0744  0.1476  0.4201
 5913SOL    HW119027   2.174   2.208   7.313 -1.3412 -0.8270  0.0646
 5913SOL    HW219028   2.312   2.155   7.348  0.2688  2.4722 -0.8689
 5914SOL     OW19029   0.778   0.066   5.370  0.4374  0.2472 -0.3348
 5914SOL    HW119030   0.869   0.052   5.396 -0.0140 -2.0676  0.2131
 5914SOL    HW219031   0.773   0.030   5.282 -0.0759 -0.1268 -0.1509
 5915SOL     OW19032   1.198   6.306   4.450 -0.2421  0.0915  0.2951
 5915SOL    HW119033   1.108   6.326   4.474 -0.2386 -0.0791  0.4496
 5915SOL    HW219034   1.250   6.372   4.496 -0.1194 -1.0564  1.8885
 5916SOL     OW19035   4.610   0.607   5.936  0.1966  0.6150  0.0257
 5916SOL    HW119036   4.656   0.524   5.946  0.1966  0.6219  0.0861
 5916SOL    HW219037   4.680   0.672   5.923  0.2976  0.8519  1.6150
 5917SOL     OW19038   7.386   8.646   5.826 -0.7012 -0.8833 -0.3638
 5917SOL    HW119039   7.305   8.680   5.788 -0.7321  0.0276  0.4756
 5917SOL    HW219040   7.455   8.698   5.784 -0.8845  2.4179  2.9495
 5918SOL     OW19041   5.123   6.124   5.216  0.0016 -0.0305 -0.2330
 5918SOL    HW119042   5.183   6.187   5.178 -1.6266  2.4091  0.9943
 5918SOL    HW219043   5.116   6.055   5.151  1.5529  1.2249 -1.8244
 5919SOL     OW19044   3.745   2.761   2.699  0.0651  0.2798  0.7747
 5919SOL    HW119045   3.670   2.726   2.749 -0.5231  1.5669  0.8318
 5919SOL    HW219046   3.706   2.792   2.617  0.3774  1.7839  1.1751
 5920SOL     OW19047   0.182   4.207   3.170  0.1036 -0.5580 -0.1919
 5920SOL    HW119048   0.107   4.196   3.229 -0.2875  0.9399 -0.3708
 5920SOL    HW219049   0.144   4.226   3.085  0.6165  2.0684  0.0833
 5921SOL     OW19050   6.957   1.904   0.971  0.0351 -0.2466  0.0550
 5921SOL    HW119051   7.019   1.976   0.981  1.3665 -0.8819 -2.6686
 5921SOL    HW219052   6.981   1.842   1.040  0.3708  0.8837  0.9871
 5922SOL     OW19053   4.305   6.894   8.698 -0.3482 -0.0564  0.2048
 5922SOL    HW119054   4.395   6.884   8.728  0.2682  1.7148 -0.8891
 5922SOL    HW219055   4.302   6.981   8.658 -1.8246 -1.0688 -2.1669
 5923SOL     OW19056   3.500   0.219   0.632 -0.2994  0.2100 -0.0017
 5923SOL    HW119057   3.512   0.126   0.613 -0.1311  0.5621 -1.8090
 5923SOL    HW219058   3.585   0.258   0.613 -0.1172  0.6469  1.5649
 5924SOL     OW19059   2.346   1.114   4.435 -0.2546  0.5938 -0.1431
 5924SOL    HW119060   2.375   1.096   4.524  0.2768  2.1857  0.0313
 5924SOL    HW219061   2.278   1.181   4.445 -1.3210 -0.3531 -0.8320
 5925SOL     OW19062   4.350   3.828   0.992 -0.3467  0.3960 -0.0900
 5925SOL    HW119063   4.276   3.790   0.944  0.1752  0.5576 -1.0506
 5925SOL    HW219064   4.311   3.866   1.071 -1.2355  0.1491 -0.4027
 5926SOL     OW19065   0.631   4.849   3.603  0.1719  0.2481 -0.6714
 5926SOL    HW119066   0.570   4.890   3.664  2.4674  0.3230  1.7729
 5926SOL    HW219067   0.652   4.765   3.643  1.3857  0.0780 -1.6097
 5927SOL     OW19068   6.783   3.789   7.566 -0.2601 -0.2868 -0.1050
 5927SOL    HW119069   6.714   3.810   7.629 -0.4937 -1.8674  0.2044
 5927SOL    HW219070   6.848   3.742   7.618 -1.1128 -2.8995 -1.2699
 5928SOL     OW19071   0.834   4.588   4.221  0.1065  0.7501 -0.4078
 5928SOL    HW119072   0.745   4.560   4.199  0.0747 -0.0538  0.6861
 5928SOL    HW219073   0.890   4.518   4.187  0.1178 -0.0639  1.2198
 5929SOL     OW19074   3.449   6.606   3.787 -0.1008 -0.1100 -0.2981
 5929SOL    HW119075   3.358   6.592   3.762  0.1762 -2.9610 -0.1140
 5929SOL    HW219076   3.494   6.628   3.705 -0.3388 -2.6998 -1.2167
 5930SOL     OW19077   3.980   7.391   1.025  0.1952  0.3518 -0.0694
 5930SOL    HW119078   4.036   7.315   1.015 -0.2681  0.0821 -0.7018
 5930SOL    HW219079   3.981   7.433   0.939 -0.1565  0.6308  0.0605
 5931SOL     OW19080   5.742   7.940   7.213  0.7037 -0.4861 -0.0687
 5931SOL    HW119081   5.680   7.927   7.284 -0.0229  0.4564 -0.4965
 5931SOL    HW219082   5.726   7.867   7.153 -1.2698  0.6342 -1.0278
 5932SOL     OW19083   1.537   0.220   8.358  0.0266 -0.5540  0.4205
 5932SOL    HW119084   1.512   0.128   8.360 -0.4228 -0.4412  0.2623
 5932SOL    HW219085   1.521   0.251   8.448 -0.4071 -0.4869  0.3244
 5933SOL     OW19086   6.255   1.404   7.297  0.0465 -0.2142  0.3013
 5933SOL    HW119087   6.241   1.466   7.368 -0.7459  0.8062 -0.7198
 5933SOL    HW219088   6.170   1.398   7.253  1.0933  1.1510 -2.1065
 5934SOL     OW19089   0.598   5.153   0.730  0.5825  0.0388  0.3586
 5934SOL    HW119090   0.605   5.239   0.689  0.4621 -0.2065 -0.1839
 5934SOL    HW219091   0.665   5.100   0.687 -0.7744 -0.7440 -0.8953
 5935SOL     OW19092   6.965   6.633   3.912  0.0204 -0.6353 -0.0467
 5935SOL    HW119093   6.922   6.672   3.835 -1.0979 -1.1454  0.2935
 5935SOL    HW219094   6.949   6.697   3.982 -0.3413 -0.8986  0.1163
 5936SOL     OW19095   5.883   2.208   2.533 -0.7791 -0.0333  0.1652
 5936SOL    HW119096   5.905   2.128   2.581 -0.8551  0.8103  1.6922
 5936SOL    HW219097   5.814   2.249   2.585 -1.6742  0.3915 -1.2982
 5937SOL     OW19098   0.384   0.561   4.358 -0.5895  0.0578  0.5483
 5937SOL    HW119099   0.386   0.465   4.355 -2.3589 -0.0417  1.6855
 5937SOL    HW219100   0.454   0.584   4.419  1.4822 -0.3137 -1.5101
 5938SOL     OW19101   6.735   0.054   4.517  0.0929  0.4377 -0.1840
 5938SOL    HW119102   6.817   0.007   4.531  1.7408  3.2589  0.6197
 5938SOL    HW219103   6.735   0.075   4.423  0.2413  0.3226 -0.2087
 5939SOL     OW19104   8.313   5.516   3.708  0.1006  0.3379  0.3193
 5939SOL    HW119105   8.341   5.564   3.630 -1.1048  0.4765 -0.0447
 5939SOL    HW219106   8.304   5.426   3.679 -3.2602  0.8166 -0.5852
 5940SOL     OW19107   1.311   7.884   3.216  0.1438 -0.1433  0.5838
 5940SOL    HW119108   1.378   7.942   3.180  1.9714 -1.7348  1.2684
 5940SOL    HW219109   1.306   7.905   3.309  0.3314 -0.6088  0.7046
 5941SOL     OW19110   3.850   1.246   3.951  0.2868 -0.1300  0.4485
 5941SOL    HW119111   3.877   1.275   3.864  0.1370 -1.6090 -0.1303
 5941SOL    HW219112   3.853   1.325   4.005  0.0233  0.9031 -0.9810
 5942SOL     OW19113   4.509   5.448   3.510  0.1583 -0.4292  1.2021
 5942SOL    HW119114   4.482   5.362   3.478 -0.6014  0.6291 -1.2580
 5942SOL    HW219115   4.429   5.500   3.509  0.8372  0.6410  1.4005
 5943SOL     OW19116   5.188   7.942   1.627  0.7353 -0.0106 -0.5915
 5943SOL    HW119117   5.105   7.902   1.600  0.1190  0.5105  0.4620
 5943SOL    HW219118   5.204   7.908   1.715  0.4993  1.5508  0.0979
 5944SOL     OW19119   3.038   2.789   7.050 -0.3663 -0.5186 -0.1683
 5944SOL    HW119120   3.005   2.863   6.999 -0.0654  0.0677  0.4769
 5944SOL    HW219121   3.121   2.821   7.086 -0.1562 -1.2291 -0.0180
 5945SOL     OW19122   6.050   8.027   1.211 -0.2455 -0.1120  0.0112
 5945SOL    HW119123   6.078   7.970   1.139  2.5393 -0.1092  0.9984
 5945SOL    HW219124   6.068   7.976   1.290  0.1004  1.2467  0.8371
 5946SOL     OW19125   3.112   5.112   6.634  0.3613  0.1872  0.4691
 5946SOL    HW119126   3.184   5.074   6.584  1.4784  1.1766  1.2602
 5946SOL    HW219127   3.050   5.142   6.568  1.6885  1.2559 -0.3564
 5947SOL     OW19128   1.288   8.366   2.345  0.0672 -0.3131  0.2905
 5947SOL    HW119129   1.292   8.319   2.428  0.4009  1.3857  1.2722
 5947SOL    HW219130   1.247   8.450   2.366 -0.4680 -0.1051 -1.4015
 5948SOL     OW19131   2.419   0.265   0.823 -0.1258  0.6115 -0.1311
 5948SOL    HW119132   2.508   0.280   0.794  0.2739  0.5825  1.0190
 5948SOL    HW219133   2.368   0.258   0.742  1.0978 -0.5651 -0.8590
 5949SOL     OW19134   0.910   2.930   0.182 -0.3757  0.2911 -0.5611
 5949SOL    HW119135   0.873   2.852   0.224  2.1136  0.8955  3.2757
 5949SOL    HW219136   0.995   2.901   0.148 -0.3760  0.8978 -1.1136
 5950SOL     OW19137   3.097   2.487   4.822 -0.2686  0.4422 -0.3545
 5950SOL    HW119138   3.165   2.467   4.757  0.7246 -4.3949  1.7452
 5950SOL    HW219139   3.015   2.484   4.772  0.6966  2.3488 -2.2139
 5951SOL     OW19140   3.995   8.117   5.290  0.1655  0.2481  0.5554
 5951SOL    HW119141   3.900   8.107   5.286  0.0105  1.6698  0.3730
 5951SOL    HW219142   4.029   8.027   5.283 -1.1957 -0.5126  2.6617
 5952SOL     OW19143   8.134   3.107   5.470  0.3480  0.0795 -0.0532
 5952SOL    HW119144   8.132   3.031   5.411  1.0998 -0.0419  0.0763
 5952SOL    HW219145   8.131   3.182   5.411  1.6730 -0.0350 -0.2966
 5953SOL     OW19146   5.514   4.994   7.403  0.1298 -0.3047 -0.2286
 5953SOL    HW119147   5.541   5.029   7.318  2.5772 -0.3561  0.4400
 5953SOL    HW219148   5.492   5.071   7.455  1.4814 -0.0123 -0.0432
 5954SOL     OW19149   3.401   2.257   1.218 -0.4383 -0.3769  1.0077
 5954SOL    HW119150   3.364   2.345   1.226 -0.8202 -0.6372  2.5317
 5954SOL    HW219151   3.383   2.231   1.128 -1.0475  0.7886  0.7748
 5955SOL     OW19152   1.367   0.423   1.327 -0.3707 -0.1223 -0.3531
 5955SOL    HW119153   1.391   0.473   1.249 -0.9804 -0.0948 -0.5248
 5955SOL    HW219154   1.376   0.486   1.399 -0.7261  0.1136 -0.5172
 5956SOL     OW19155   1.244   3.051   4.996 -0.2205  0.4057 -0.0961
 5956SOL    HW119156   1.245   3.116   5.066 -1.0361  2.1465 -1.6027
 5956SOL    HW219157   1.153   3.046   4.968  0.2009  0.3806 -1.5608
 5957SOL     OW19158   5.809   5.840   1.574 -0.2025  0.7524 -0.6308
 5957SOL    HW119159   5.762   5.766   1.537  0.1845  0.0417  0.2727
 5957SOL    HW219160   5.869   5.802   1.638  0.0898  1.8285 -0.2327
 5958SOL     OW19161   7.908   3.422   1.511  0.1107  0.0870  0.4177
 5958SOL    HW119162   7.989   3.374   1.493  1.0008  1.7606 -0.2082
 5958SOL    HW219163   7.918   3.452   1.602 -0.0891 -0.2305  0.5453
 5959SOL     OW19164   2.856   0.690   1.569 -0.5417 -0.0105 -0.1704
 5959SOL    HW119165   2.799   0.650   1.634  0.4597 -0.9755  0.1268
 5959SOL    HW219166   2.889   0.770   1.612 -1.5086  0.4649 -0.2839
 5960SOL     OW19167   7.232   6.840   2.060 -0.3563 -0.5746 -0.2093
 5960SOL    HW119168   7.261   6.868   1.974 -1.0238 -1.1014 -0.6139
 5960SOL    HW219169   7.153   6.891   2.077  0.8482  1.0110  0.9772
 5961SOL     OW19170   7.536   2.888   4.619  0.4991 -0.8865 -1.0183
 5961SOL    HW119171   7.583   2.971   4.629  0.0564 -0.6483 -0.8777
 5961SOL    HW219172   7.495   2.874   4.705 -0.2074 -0.7688 -1.3327
 5962SOL     OW19173   3.462   5.568   7.102 -0.3443  0.1841  0.0852
 5962SOL    HW119174   3.447   5.552   7.195 -0.2748 -0.6053 -0.0347
 5962SOL    HW219175   3.447   5.483   7.060 -0.5975  0.5823 -0.6517
 5963SOL     OW19176   0.861   5.700   3.269  0.3126  0.4684  0.0835
 5963SOL    HW119177   0.890   5.703   3.361 -0.6770  1.2313  0.3977
 5963SOL    HW219178   0.919   5.761   3.224  0.0561  0.9882  0.4423
 5964SOL     OW19179   4.435   0.980   0.253 -0.1778  0.0748 -0.2940
 5964SOL    HW119180   4.400   1.018   0.334  0.3369 -0.2260  0.0787
 5964SOL    HW219181   4.446   1.055   0.195 -0.1030  0.3657  0.0867
 5965SOL     OW19182   5.847   1.422   7.031 -0.0357  0.0409 -0.3862
 5965SOL    HW119183   5.799   1.502   7.011  1.0689  1.0443  0.7774
 5965SOL    HW219184   5.920   1.451   7.087  2.6242 -1.1855 -2.9441
 5966SOL     OW19185   6.478   1.879   5.204  0.1252  0.1818 -0.3617
 5966SOL    HW119186   6.518   1.793   5.193  0.5708  0.0251  2.0078
 5966SOL    HW219187   6.551   1.937   5.224 -0.4695  0.4781  1.0701
 5967SOL     OW19188   7.296   7.960   3.669 -0.2647  0.4108 -0.7683
 5967SOL    HW119189   7.240   8.009   3.608  0.5828 -1.3643 -3.1627
 5967SOL    HW219190   7.381   8.004   3.663  0.0631 -0.3152 -1.6399
 5968SOL     OW19191   0.436   2.957   0.346  0.3028  0.4969  0.4548
 5968SOL    HW119192   0.518   2.918   0.317 -0.6518 -1.4220  0.1770
 5968SOL    HW219193   0.395   2.891   0.402 -1.7139  0.7545 -0.5905
 5969SOL     OW19194   3.841   3.163   5.397 -0.2150  0.5086 -0.3890
 5969SOL    HW119195   3.766   3.114   5.430  0.1899 -0.8204 -1.3729
 5969SOL    HW219196   3.916   3.129   5.447  0.0014  0.4425 -0.7531
 5970SOL     OW19197   7.139   7.604   6.557 -0.2120 -0.2526 -0.0275
 5970SOL    HW119198   7.090   7.613   6.639  0.3211  1.6858  0.1309
 5970SOL    HW219199   7.195   7.682   6.554  1.0433 -1.1546 -1.4089
 5971SOL     OW19200   6.931   8.018   6.136  0.1721  0.1131 -0.3307
 5971SOL    HW119201   6.876   7.940   6.139 -0.2000  0.3221 -1.3764
 5971SOL    HW219202   6.915   8.056   6.050  1.8794  0.2458 -0.6337
 5972SOL     OW19203   3.002   2.212   7.042  0.4388 -0.9792  0.3752
 5972SOL    HW119204   2.927   2.207   6.983  0.9617 -2.0911 -0.2267
 5972SOL    HW219205   3.001   2.129   7.089  0.1248 -0.1742  1.8436
 5973SOL     OW19206   1.219   6.624   6.844  0.9064 -0.0923  0.6100
 5973SOL    HW119207   1.211   6.624   6.748  0.3006 -0.1366  0.6586
 5973SOL    HW219208   1.308   6.592   6.860  1.4223  0.9835  0.0249
 5974SOL     OW19209   6.266   8.668   3.195 -0.1432 -0.1424 -0.2371
 5974SOL    HW119210   6.232   8.641   3.110 -1.8158  1.1425 -0.0239
 5974SOL    HW219211   6.265   8.589   3.248 -1.9907 -0.3618 -0.5330
 5975SOL     OW19212   7.905   3.846   1.585  0.4186 -0.7565  0.3871
 5975SOL    HW119213   7.955   3.797   1.519 -0.6915 -0.1035 -0.9936
 5975SOL    HW219214   7.887   3.781   1.653  1.1821 -1.5925 -0.1755
 5976SOL     OW19215   0.602   2.079   4.730  0.0591 -0.1367 -0.2756
 5976SOL    HW119216   0.549   2.074   4.810 -0.7273 -2.1579 -0.8746
 5976SOL    HW219217   0.575   2.003   4.678 -0.7445  2.0012 -3.2828
 5977SOL     OW19218   7.944   4.246   1.929 -0.6677  0.5560  0.2007
 5977SOL    HW119219   8.012   4.249   1.996 -0.1276 -0.7696 -0.2465
 5977SOL    HW219220   7.966   4.316   1.868 -1.6698  2.3788  1.8249
 5978SOL     OW19221   7.437   2.057   2.756 -0.2933 -0.5257  0.3274
 5978SOL    HW119222   7.440   2.079   2.663 -0.1265 -1.5496  0.0879
 5978SOL    HW219223   7.348   2.024   2.770 -0.0115 -1.2961  0.3181
 5979SOL     OW19224   0.406   8.459   6.948  0.7710  0.1028 -0.0737
 5979SOL    HW119225   0.499   8.437   6.955  0.7279 -0.1644 -0.3342
 5979SOL    HW219226   0.373   8.449   7.037  1.0336  0.4047  0.0625
 5980SOL     OW19227   3.494   7.692   2.846  0.3490  0.2429 -0.1378
 5980SOL    HW119228   3.461   7.667   2.759  1.2472  0.4720 -0.5497
 5980SOL    HW219229   3.455   7.778   2.863 -0.3508 -0.0863 -0.0178
 5981SOL     OW19230   2.698   6.875   6.905  0.5550  0.6624 -0.2415
 5981SOL    HW119231   2.680   6.947   6.845 -0.8669 -0.0233 -0.6927
 5981SOL    HW219232   2.650   6.898   6.984  1.2522  0.8706  0.1305
 5982SOL     OW19233   6.512   0.116   0.975  1.0182  0.0069 -0.1171
 5982SOL    HW119234   6.456   0.159   1.040 -1.0609  0.1642 -1.9380
 5982SOL    HW219235   6.598   0.112   1.018 -0.1117  0.5873  2.4197
 5983SOL     OW19236   8.503   2.155   5.440  0.6262  0.3759  0.0244
 5983SOL    HW119237   8.469   2.068   5.460 -0.6611  1.0936  1.0807
 5983SOL    HW219238   8.426   2.209   5.424  1.4115  1.2715 -0.9315
 5984SOL     OW19239   3.523   1.890   6.871  0.4416 -0.4883 -0.2152
 5984SOL    HW119240   3.549   1.841   6.793  0.8619  1.0139 -1.0541
 5984SOL    HW219241   3.431   1.867   6.884  0.9677 -2.4992  0.2221
 5985SOL     OW19242   0.120   8.089   6.794 -0.2280 -0.2342 -0.6828
 5985SOL    HW119243   0.207   8.049   6.785  0.2153  0.3442  0.7434
 5985SOL    HW219244   0.098   8.117   6.706  0.1194 -2.2011 -1.4563
 5986SOL     OW19245   4.115   1.158   4.906 -0.0075  0.1140  0.2258
 5986SOL    HW119246   4.028   1.154   4.945  0.3120  2.0019  1.3061
 5986SOL    HW219247   4.168   1.203   4.973  1.0612  1.6582 -1.5683
 5987SOL     OW19248   4.065   3.525   0.472 -0.1201 -0.1961 -0.3977
 5987SOL    HW119249   4.077   3.598   0.411 -1.8277  0.1546 -0.3663
 5987SOL    HW219250   4.018   3.564   0.546  1.1425 -0.8061  0.7572
 5988SOL     OW19251   3.812   7.589   5.513 -0.9935 -0.1060 -0.6832
 5988SOL    HW119252   3.806   7.508   5.461  2.5231 -0.4448 -0.7705
 5988SOL    HW219253   3.865   7.647   5.459  1.6505  0.0239  1.8475
 5989SOL     OW19254   6.607   3.932   5.814 -0.7316  0.7250 -0.7501
 5989SOL    HW119255   6.560   3.859   5.855  0.2199  0.0299 -0.8867
 5989SOL    HW219256   6.605   4.002   5.880 -0.5912  0.1601 -0.1435
 5990SOL     OW19257   8.699   6.954   8.502 -0.2105  0.2508 -0.3269
 5990SOL    HW119258   8.637   7.010   8.547  1.0607 -1.2002  3.6639
 5990SOL    HW219259   8.707   6.992   8.414 -3.7694  2.6643  0.2057
 5991SOL     OW19260   5.396   2.280   5.734  0.1790 -0.1466  0.5617
 5991SOL    HW119261   5.417   2.311   5.646  0.0283 -0.0042  0.5757
 5991SOL    HW219262   5.305   2.305   5.747 -0.1345 -1.1235  0.3449
 5992SOL     OW19263   8.340   6.797   3.786  0.3467 -1.0506  0.3383
 5992SOL    HW119264   8.311   6.872   3.735  2.9345 -0.4361 -0.4122
 5992SOL    HW219265   8.426   6.823   3.820 -0.4464 -2.1010  3.5984
 5993SOL     OW19266   0.347   5.381   7.302 -0.2223  0.2525 -0.4168
 5993SOL    HW119267   0.386   5.461   7.337  0.4256 -0.6517  1.0263
 5993SOL    HW219268   0.421   5.322   7.289 -0.7725 -0.4011 -0.6613
 5994SOL     OW19269   4.980   0.119   8.205  0.5222  0.2581  0.6870
 5994SOL    HW119270   5.030   0.201   8.203 -1.3365  1.4712  1.7273
 5994SOL    HW219271   4.902   0.139   8.256 -0.1670 -2.0904  0.6712
 5995SOL     OW19272   3.617   4.836   4.337 -0.4166  0.3278 -0.3143
 5995SOL    HW119273   3.696   4.797   4.297 -0.8250  0.0530 -0.8695
 5995SOL    HW219274   3.545   4.789   4.296 -0.9205  1.5392 -0.8348
 5996SOL     OW19275   5.149   8.117   1.378 -0.2485 -0.1007  0.1407
 5996SOL    HW119276   5.180   8.073   1.299 -2.0219 -0.1692 -0.5642
 5996SOL    HW219277   5.183   8.063   1.450  0.9712 -0.3163 -0.5640
 5997SOL     OW19278   5.619   2.491   0.537 -0.2329  0.3330  0.3782
 5997SOL    HW119279   5.545   2.444   0.498  2.2211 -1.0357 -3.0892
 5997SOL    HW219280   5.678   2.423   0.568  1.4299  1.1639 -0.7813
 5998SOL     OW19281   8.671   4.939   3.177  0.1426  0.1393  0.1460
 5998SOL    HW119282   8.632   4.858   3.144 -0.3975  0.4521 -0.0020
 5998SOL    HW219283   8.732   4.911   3.244 -0.6595 -0.3435  0.6992
 5999SOL     OW19284   6.254   1.969   4.302  0.3993  0.1205  0.0119
 5999SOL    HW119285   6.216   2.056   4.288 -0.1207 -0.1624 -0.3993
 5999SOL    HW219286   6.289   1.944   4.216  0.7568  0.0177  0.1828
 6000SOL     OW19287   2.040   1.278   2.603  0.4091  0.4423  0.2148
 6000SOL    HW119288   2.030   1.260   2.696  2.8346 -1.8177  0.1628
 6000SOL    HW219289   2.010   1.198   2.560 -2.2882  2.0647 -1.1533
 6001SOL     OW19290   3.487   8.560   0.124 -0.2366  0.1629 -0.3686
 6001SOL    HW119291   3.437   8.601   0.054 -1.4935  1.7189  1.3287
 6001SOL    HW219292   3.578   8.584   0.106 -0.4787  0.1622 -1.6618
 6002SOL     OW19293   2.808   6.138   1.973  0.4020 -0.0772  0.2636
 6002SOL    HW119294   2.741   6.095   1.920  0.3561 -0.7106  0.8391
 6002SOL    HW219295   2.812   6.227   1.937 -2.1592  0.6302  1.4729
 6003SOL     OW19296   8.491   6.087   5.581 -0.1210 -0.1201 -0.3216
 6003SOL    HW119297   8.403   6.065   5.551 -0.1675  0.8025 -0.9086
 6003SOL    HW219298   8.538   6.004   5.580 -1.4304 -0.9725  1.6862
 6004SOL     OW19299   6.447   5.269   4.230  0.4583  0.1256  0.5295
 6004SOL    HW119300   6.399   5.302   4.306  0.8691 -0.2432  0.9569
 6004SOL    HW219301   6.466   5.178   4.252  2.6551  0.6496  1.0455
 6005SOL     OW19302   4.648   5.213   4.343  0.2864 -0.8390 -0.0414
 6005SOL    HW119303   4.556   5.240   4.349  0.2071 -1.0621 -0.2078
 6005SOL    HW219304   4.663   5.162   4.422  0.7520  0.5894  0.8179
 6006SOL     OW19305   6.455   5.902   2.166  0.2145 -0.5084  0.5624
 6006SOL    HW119306   6.404   5.832   2.126  0.5861 -0.5511  0.1571
 6006SOL    HW219307   6.455   5.881   2.260 -0.3732 -0.5916  0.5485
 6007SOL     OW19308   4.392   5.729   1.364  0.4374  0.5934 -0.0170
 6007SOL    HW119309   4.363   5.780   1.289 -1.2479  0.2331  0.3500
 6007SOL    HW219310   4.324   5.662   1.375  2.2282 -1.3290 -0.0819
 6008SOL     OW19311   1.640   2.418   2.733 -0.5363 -0.3145 -0.5093
 6008SOL    HW119312   1.587   2.395   2.657  0.6279 -1.8390 -0.9152
 6008SOL    HW219313   1.687   2.498   2.707 -1.0117 -0.1734 -0.9452
 6009SOL     OW19314   8.253   2.030   4.420  0.2877  0.2348 -0.4819
 6009SOL    HW119315   8.218   2.113   4.388 -1.3991 -0.7940 -1.4980
 6009SOL    HW219316   8.295   1.990   4.343  0.5799 -0.1083 -0.1503
 6010SOL     OW19317   4.805   6.314   0.889  0.0565 -0.5704  0.2380
 6010SOL    HW119318   4.811   6.324   0.984  0.2694 -0.1175  0.1775
 6010SOL    HW219319   4.894   6.295   0.861 -0.1160 -1.3768  0.1987
 6011SOL     OW19320   3.480   4.569   5.659  0.3895  0.1543  0.1243
 6011SOL    HW119321   3.510   4.486   5.697  1.4404  0.2055 -0.5616
 6011SOL    HW219322   3.421   4.542   5.589  2.1424 -0.1025 -1.3041
 6012SOL     OW19323   2.936   2.726   8.073  0.6122 -0.1832  0.1135
 6012SOL    HW119324   2.896   2.809   8.098 -0.7470 -0.9850  0.7412
 6012SOL    HW219325   2.864   2.676   8.034  2.0010 -0.1168 -2.7645
 6013SOL     OW19326   4.361   3.235   1.047 -0.3615  0.2465 -0.1194
 6013SOL    HW119327   4.446   3.194   1.036  0.3553  1.2270  1.4601
 6013SOL    HW219328   4.312   3.175   1.103 -0.0197  0.5671  0.5362
 6014SOL     OW19329   2.396   3.971   2.589  0.2237 -0.4284 -0.1431
 6014SOL    HW119330   2.391   3.935   2.501  0.1991 -3.0299  0.8437
 6014SOL    HW219331   2.482   4.013   2.593 -1.1241  2.9819 -2.4305
 6015SOL     OW19332   2.019   4.694   2.971  0.2489 -0.0028 -0.2037
 6015SOL    HW119333   1.933   4.728   2.947  0.7922 -0.4761 -3.2895
 6015SOL    HW219334   2.009   4.598   2.966  0.5931 -0.1211  1.0257
 6016SOL     OW19335   7.690   3.705   6.266 -0.0144  0.6784  0.0720
 6016SOL    HW119336   7.677   3.796   6.239  1.7219  0.3996 -2.0558
 6016SOL    HW219337   7.608   3.661   6.243 -0.1710  1.3522 -0.7230
 6017SOL     OW19338   6.271   2.899   8.201 -0.1575 -0.3659  0.9554
 6017SOL    HW119339   6.360   2.887   8.235  0.2895  0.9338  0.3024
 6017SOL    HW219340   6.249   2.990   8.222 -0.2591  0.1896 -1.3012
 6018SOL     OW19341   3.544   7.279   5.248  0.8048 -0.0951 -0.2866
 6018SOL    HW119342   3.585   7.286   5.335  1.4602  2.0319 -0.6959
 6018SOL    HW219343   3.610   7.235   5.194  0.2244 -1.8265  0.3409
 6019SOL     OW19344   6.869   0.285   7.411  0.0511 -0.3029  0.0398
 6019SOL    HW119345   6.903   0.362   7.457  0.9184 -1.2261  1.0097
 6019SOL    HW219346   6.783   0.269   7.450  0.4157 -0.5650  0.7654
 6020SOL     OW19347   3.806   2.880   6.858 -0.7550 -0.7987  0.0951
 6020SOL    HW119348   3.821   2.969   6.890  0.8240 -1.3241  0.9254
 6020SOL    HW219349   3.711   2.873   6.852 -1.0215  0.2085  2.2066
 6021SOL     OW19350   7.348   1.733   3.098 -0.3432 -0.2456 -0.5236
 6021SOL    HW119351   7.337   1.766   3.008  2.1355  0.4019 -0.6843
 6021SOL    HW219352   7.378   1.642   3.086 -1.5143 -0.6736 -0.2765
 6022SOL     OW19353   2.449   2.089   7.021  0.3814  0.1955 -0.0265
 6022SOL    HW119354   2.411   2.134   7.096 -0.4580 -0.8113  0.1704
 6022SOL    HW219355   2.384   2.102   6.951  1.2442  1.2937 -0.6659
 6023SOL     OW19356   7.384   8.285   5.651 -0.3852  0.2311  0.0578
 6023SOL    HW119357   7.335   8.218   5.698 -1.3567  0.9714  0.1368
 6023SOL    HW219358   7.448   8.317   5.714 -1.8053  1.3536  0.9793
 6024SOL     OW19359   8.443   4.099   1.840 -0.1924 -0.0169  0.0233
 6024SOL    HW119360   8.442   4.178   1.786 -1.5444  0.3653  0.5641
 6024SOL    HW219361   8.351   4.083   1.861  0.1575 -1.1366  0.7918
 6025SOL     OW19362   5.579   8.674   5.553  0.4587 -0.4237  0.0689
 6025SOL    HW119363   5.546   8.591   5.519 -0.8971  0.8473 -1.9967
 6025SOL    HW219364   5.543   8.680   5.641  0.0204 -1.7147 -0.0025
 6026SOL     OW19365   1.242   0.776   5.901  0.2318 -0.2529  0.0633
 6026SOL    HW119366   1.147   0.786   5.892  0.0143 -0.2219  1.9839
 6026SOL    HW219367   1.277   0.862   5.879 -0.2697 -0.0018  0.2238
 6027SOL     OW19368   7.521   7.380   3.322  0.0118  0.2530 -0.1543
 6027SOL    HW119369   7.545   7.357   3.412 -0.7653 -0.4133 -0.1095
 6027SOL    HW219370   7.546   7.472   3.314 -2.0259  1.0597  1.5391
 6028SOL     OW19371   7.903   4.024   6.779  0.4959  0.6404  0.2401
 6028SOL    HW119372   7.848   4.047   6.853 -0.2261 -1.2086  0.3095
 6028SOL    HW219373   7.975   3.974   6.817  0.2055 -0.1824 -0.2815
 6029SOL     OW19374   1.680   3.408   8.151  0.3847 -0.5099 -0.6938
 6029SOL    HW119375   1.705   3.444   8.066  1.7330 -0.6246 -0.3630
 6029SOL    HW219376   1.586   3.427   8.158  0.8877  2.5161 -0.7509
 6030SOL     OW19377   1.132   8.554   3.967  0.1501  0.4886 -0.1769
 6030SOL    HW119378   1.216   8.582   4.004  0.7658 -1.1067 -0.2842
 6030SOL    HW219379   1.144   8.564   3.873  0.0717  0.6634 -0.1677
 6031SOL     OW19380   0.246   0.956   1.273 -0.0046 -0.6572 -0.6209
 6031SOL    HW119381   0.241   0.902   1.352 -0.2457 -1.8487 -1.4363
 6031SOL    HW219382   0.288   1.037   1.303  0.0898 -1.1623  0.6866
 6032SOL     OW19383   0.169   3.911   3.045 -0.0080 -0.1429 -0.2316
 6032SOL    HW119384   0.077   3.939   3.048  0.4585  1.5493 -0.8638
 6032SOL    HW219385   0.171   3.834   3.101 -1.9830 -0.7382 -0.8711
 6033SOL     OW19386   6.164   6.461   4.760 -0.1948  0.4896 -0.6585
 6033SOL    HW119387   6.191   6.383   4.808 -1.3536  1.0426  0.9739
 6033SOL    HW219388   6.243   6.514   4.751  0.1493  0.1205  0.1652
 6034SOL     OW19389   2.086   2.296   0.168  0.6038  0.7699 -0.5699
 6034SOL    HW119390   2.072   2.384   0.205  2.1428  0.3765  1.0644
 6034SOL    HW219391   2.043   2.237   0.230 -0.5562  0.3335 -1.7459
 6035SOL     OW19392   8.712   2.067   6.867 -0.3700  0.5605 -0.2837
 6035SOL    HW119393   8.791   2.014   6.876 -0.4247  0.5492  0.1516
 6035SOL    HW219394   8.723   2.138   6.931 -0.6431  0.6433 -0.3275
 6036SOL     OW19395   1.606   3.062   5.858  0.3128 -0.3007  0.1715
 6036SOL    HW119396   1.523   3.034   5.897 -0.8961  1.0152 -1.3233
 6036SOL    HW219397   1.631   3.139   5.909  0.5301 -0.5893  0.5051
 6037SOL     OW19398   2.943   7.726   5.682 -0.1630  0.6272  0.2415
 6037SOL    HW119399   2.916   7.635   5.698 -0.8651  0.7434 -0.2440
 6037SOL    HW219400   2.896   7.777   5.749 -1.1214  0.8181 -0.5450
 6038SOL     OW19401   1.329   6.475   4.838  0.5107  0.7573 -0.3333
 6038SOL    HW119402   1.318   6.500   4.746  2.5637  0.2765 -0.7801
 6038SOL    HW219403   1.415   6.433   4.840  0.5365  0.8202  1.8423
 6039SOL     OW19404   0.158   3.146   0.325 -0.2331 -0.4930 -0.4052
 6039SOL    HW119405   0.224   3.143   0.395  2.0684  1.1537 -2.3351
 6039SOL    HW219406   0.192   3.087   0.258 -1.6811 -0.9910 -0.7160
 6040SOL     OW19407   8.703   7.040   4.737 -0.4770 -0.2712  0.7269
 6040SOL    HW119408   8.688   6.955   4.696  1.4146 -0.1610 -0.2948
 6040SOL    HW219409   8.782   7.028   4.789  0.4100  1.0901 -0.2417
 6041SOL     OW19410   3.165   2.534   1.642  0.3762  0.4121 -0.0166
 6041SOL    HW119411   3.248   2.535   1.595  0.3705 -0.9676 -0.1164
 6041SOL    HW219412   3.115   2.605   1.604  0.8952  0.2130 -1.1289
 6042SOL     OW19413   0.319   6.394   7.180  0.3411 -0.0094  0.0532
 6042SOL    HW119414   0.224   6.380   7.190 -0.0345  2.8567  1.3799
 6042SOL    HW219415   0.358   6.342   7.250 -0.5547  1.2643  1.5691
 6043SOL     OW19416   3.509   6.132   0.324 -0.5505  0.0510  0.0606
 6043SOL    HW119417   3.526   6.045   0.288  0.3977  0.3384 -0.2022
 6043SOL    HW219418   3.418   6.151   0.300 -0.7711 -0.8704  0.1415
 6044SOL     OW19419   4.133   5.200   4.025 -0.5134 -0.8420  0.2419
 6044SOL    HW119420   4.118   5.295   4.025  0.6879 -0.6245 -0.9780
 6044SOL    HW219421   4.128   5.175   3.933 -1.8972 -2.1802  0.6385
 6045SOL     OW19422   2.840   5.280   8.172  0.5916  0.4360  0.0423
 6045SOL    HW119423   2.745   5.272   8.179  0.7274 -3.3841 -0.4940
 6045SOL    HW219424   2.873   5.261   8.259  0.9190  0.8058  0.0044
 6046SOL     OW19425   6.417   5.513   4.517 -0.1172  0.2371 -0.0618
 6046SOL    HW119426   6.485   5.530   4.582 -0.3644  1.7173 -0.1443
 6046SOL    HW219427   6.395   5.600   4.483 -1.1466 -0.3493 -0.9438
 6047SOL     OW19428   2.420   2.987   3.525  0.3636  0.8920  0.5365
 6047SOL    HW119429   2.497   3.022   3.480  0.0135  0.2143 -0.6482
 6047SOL    HW219430   2.346   3.016   3.472 -0.1028  0.4556  0.9372
 6048SOL     OW19431   0.299   8.182   2.225 -0.1640  0.3995  0.7144
 6048SOL    HW119432   0.286   8.196   2.131  0.4936 -2.3439  0.1307
 6048SOL    HW219433   0.378   8.232   2.245 -0.4551  1.2330 -0.0994
 6049SOL     OW19434   0.520   6.548   1.712  0.2907 -0.3359  0.1505
 6049SOL    HW119435   0.576   6.472   1.721  0.0622 -0.9511 -2.7908
 6049SOL    HW219436   0.437   6.522   1.753  0.4563 -1.3676 -0.1621
 6050SOL     OW19437   8.556   5.476   5.447  0.2837  0.1410 -0.0268
 6050SOL    HW119438   8.635   5.492   5.499  0.0501 -0.2118  0.4458
 6050SOL    HW219439   8.587   5.474   5.357  0.9491 -0.7522  0.2067
 6051SOL     OW19440   6.356   7.788   3.575  0.4152  0.1314 -0.3021
 6051SOL    HW119441   6.329   7.805   3.666  0.4320  0.5063 -0.3636
 6051SOL    HW219442   6.296   7.720   3.545 -1.7101  2.1503 -0.9945
 6052SOL     OW19443   6.816   5.171   3.539  0.3098  0.3601  0.0467
 6052SOL    HW119444   6.874   5.224   3.485  0.1345  0.8291  0.3177
 6052SOL    HW219445   6.848   5.184   3.628 -0.5436  1.0567  0.2607
 6053SOL     OW19446   8.294   7.008   7.777  0.4749  0.4679  0.3601
 6053SOL    HW119447   8.262   7.097   7.788  0.5418  0.4074  1.0938
 6053SOL    HW219448   8.215   6.954   7.771  0.4234  0.6515 -0.8406
 6054SOL     OW19449   0.335   7.640   2.445  0.1056  0.3018 -0.4785
 6054SOL    HW119450   0.423   7.604   2.440 -0.5086 -1.2613 -0.5447
 6054SOL    HW219451   0.327   7.694   2.366  0.1671 -1.5951 -1.8510
 6055SOL     OW19452   6.096   4.405   2.655 -0.4989  0.0925 -0.0166
 6055SOL    HW119453   6.182   4.443   2.671  0.4147 -1.2696 -1.4272
 6055SOL    HW219454   6.078   4.352   2.732 -0.7669  1.5066  0.9389
 6056SOL     OW19455   0.048   2.244   5.201  0.0857 -0.1110  0.2868
 6056SOL    HW119456   0.073   2.317   5.258  0.5109 -0.4295  0.5190
 6056SOL    HW219457   0.065   2.276   5.112 -0.0821  0.1996  0.3628
 6057SOL     OW19458   1.016   2.987   5.326  0.2804 -0.1832 -0.8673
 6057SOL    HW119459   0.963   3.067   5.319 -0.9140 -0.8184  0.3445
 6057SOL    HW219460   1.045   2.985   5.417 -0.2204 -1.4087 -0.7064
 6058SOL     OW19461   2.290   6.683   0.220 -0.6308  0.0271  0.7232
 6058SOL    HW119462   2.310   6.590   0.206 -2.2599 -0.7766  3.0917
 6058SOL    HW219463   2.272   6.689   0.314 -3.1845  2.1920  0.1870
 6059SOL     OW19464   0.165   5.112   7.409  1.1058 -0.2233 -0.1148
 6059SOL    HW119465   0.258   5.125   7.428  0.8905  2.0745 -0.3925
 6059SOL    HW219466   0.120   5.179   7.460 -0.4525 -1.4796  0.2346
 6060SOL     OW19467   4.365   3.220   7.667 -1.0314 -0.2578  0.0719
 6060SOL    HW119468   4.326   3.136   7.692 -1.0771 -0.1771  0.2701
 6060SOL    HW219469   4.291   3.274   7.639 -1.0019 -0.2820 -0.0571
 6061SOL     OW19470   1.500   8.696   6.417  0.4415  0.5250 -0.4156
 6061SOL    HW119471   1.422   8.748   6.437  0.8389  1.2944 -0.8181
 6061SOL    HW219472   1.573   8.748   6.451  0.9758  0.9467 -2.0912
 6062SOL     OW19473   3.994   0.379   5.193 -0.3630 -0.4214 -0.1417
 6062SOL    HW119474   4.034   0.437   5.258  0.9429 -1.0596 -0.3374
 6062SOL    HW219475   4.068   0.330   5.156 -1.0743 -0.1544 -2.0306
 6063SOL     OW19476   2.702   6.966   3.519  0.1697 -0.2515  0.0275
 6063SOL    HW119477   2.788   6.987   3.483 -0.3126  1.1295 -0.3605
 6063SOL    HW219478   2.701   7.009   3.605  0.2272 -1.1249  0.4865
 6064SOL     OW19479   5.126   2.794   4.577 -0.1108  0.6859 -0.3297
 6064SOL    HW119480   5.186   2.831   4.512  0.3263  1.3456  0.4270
 6064SOL    HW219481   5.080   2.870   4.613 -0.1009  0.3655  0.3719
 6065SOL     OW19482   7.699   0.627   6.657  0.1863  0.0492  0.3132
 6065SOL    HW119483   7.717   0.679   6.578  0.4216 -0.8053 -0.2125
 6065SOL    HW219484   7.748   0.546   6.643 -2.0791 -1.3382 -0.0130
 6066SOL     OW19485   8.643   4.023   8.279  0.2687  0.0696  0.0420
 6066SOL    HW119486   8.624   4.047   8.369 -0.1443  3.0564 -0.7431
 6066SOL    HW219487   8.614   3.932   8.272 -4.1820  1.1014  1.7182
 6067SOL     OW19488   5.121   6.439   2.303  0.0496  0.4334 -0.3101
 6067SOL    HW119489   5.177   6.480   2.238 -0.2543  2.1718  0.4837
 6067SOL    HW219490   5.104   6.507   2.368  0.1521 -1.1605  1.4949
 6068SOL     OW19491   1.936   2.543   7.378 -0.1139 -0.4168  0.1492
 6068SOL    HW119492   2.015   2.592   7.359  0.5034 -0.5760  2.1276
 6068SOL    HW219493   1.867   2.609   7.385  0.3276 -0.0139  0.8031
 6069SOL     OW19494   0.756   6.301   6.000 -0.3196  0.6593 -0.5181
 6069SOL    HW119495   0.663   6.293   6.021  0.0999 -0.3440  1.1194
 6069SOL    HW219496   0.794   6.343   6.077  1.0272 -1.7036  0.2039
 6070SOL     OW19497   4.932   5.341   1.254  0.5312  0.6031  0.3944
 6070SOL    HW119498   4.930   5.373   1.344  1.1927 -0.1132  0.6739
 6070SOL    HW219499   4.857   5.383   1.212  0.6066  1.4696  1.0938
 6071SOL     OW19500   7.035   7.591   8.700 -0.3534  0.2371 -0.1871
 6071SOL    HW119501   7.105   7.577   8.764 -0.0185  1.5656 -0.2378
 6071SOL    HW219502   6.972   7.521   8.717  1.2604 -1.3699 -0.5306
 6072SOL     OW19503   5.480   8.515   0.431  0.3414 -0.5959 -0.0598
 6072SOL    HW119504   5.440   8.476   0.353  0.9289 -1.4634  0.0587
 6072SOL    HW219505   5.474   8.446   0.497  0.1706  0.0064  0.5596
 6073SOL     OW19506   0.245   1.690   6.664  0.8900  0.2190 -0.3433
 6073SOL    HW119507   0.212   1.746   6.734 -0.8706 -0.7401 -0.3231
 6073SOL    HW219508   0.178   1.695   6.596  1.5052 -0.5557 -1.0358
 6074SOL     OW19509   6.116   1.398   5.463 -0.7748 -0.1347  0.0665
 6074SOL    HW119510   6.134   1.304   5.460 -0.6099 -0.0722 -1.1395
 6074SOL    HW219511   6.119   1.419   5.557 -0.7360 -1.3082  0.3508
 6075SOL     OW19512   8.144   0.049   6.572  0.1816  0.1648  0.8404
 6075SOL    HW119513   8.225   0.065   6.621  0.4784  1.5655 -0.0545
 6075SOL    HW219514   8.113   0.136   6.548 -1.6345 -0.3374  1.2010
 6076SOL     OW19515   0.504   4.012   6.122 -0.5786 -0.3782  0.5120
 6076SOL    HW119516   0.442   3.989   6.191 -1.1213  0.4892  0.3191
 6076SOL    HW219517   0.590   3.992   6.159 -0.9901 -3.8441 -0.0165
 6077SOL     OW19518   3.277   5.414   0.732 -0.5118 -0.1853 -0.0967
 6077SOL    HW119519   3.193   5.378   0.759 -0.1445 -1.8463 -1.0504
 6077SOL    HW219520   3.255   5.496   0.688 -1.5433 -0.1359  0.4853
 6078SOL     OW19521   7.993   8.208   4.452 -0.2094 -0.0376 -0.0015
 6078SOL    HW119522   7.971   8.212   4.545  2.5426  1.0535  0.7109
 6078SOL    HW219523   7.941   8.278   4.413  0.3063  1.0733  1.1954
 6079SOL     OW19524   6.526   6.191   8.089 -0.2101 -0.7779 -0.4831
 6079SOL    HW119525   6.445   6.140   8.097  0.0800 -0.9908  1.9503
 6079SOL    HW219526   6.585   6.134   8.039 -1.0551 -1.2885 -0.9254
 6080SOL     OW19527   8.249   3.294   7.433  0.0427  0.6868  0.5189
 6080SOL    HW119528   8.234   3.311   7.526  0.6886 -0.7352  0.9241
 6080SOL    HW219529   8.332   3.247   7.431 -0.9526 -1.1398 -0.5528
 6081SOL     OW19530   0.380   3.467   1.485  0.3025  0.3573 -0.3857
 6081SOL    HW119531   0.475   3.478   1.478  0.4427 -1.5493 -2.3001
 6081SOL    HW219532   0.346   3.495   1.400 -0.7989  0.4495  0.0733
 6082SOL     OW19533   5.666   0.498   2.807 -0.2150 -0.6545 -0.4866
 6082SOL    HW119534   5.663   0.414   2.761 -0.8459 -0.2773 -1.1446
 6082SOL    HW219535   5.655   0.563   2.738  0.8425  0.0009 -0.0624
 6083SOL     OW19536   8.222   4.958   1.650  0.1616 -0.5020  0.1662
 6083SOL    HW119537   8.218   5.004   1.567  1.9301  1.7043  1.2121
 6083SOL    HW219538   8.132   4.959   1.683 -0.1629  0.5667 -0.7115
 6084SOL     OW19539   8.184   1.405   3.769 -0.8438  0.8458  0.0103
 6084SOL    HW119540   8.205   1.312   3.761 -1.2973  0.7407  0.0134
 6084SOL    HW219541   8.236   1.447   3.701  2.2091  1.0567  2.2833
 6085SOL     OW19542   6.809   0.024   0.022  0.6656  0.1275 -0.1167
 6085SOL    HW119543   6.882  -0.036   0.030  1.6897  1.4262  0.6287
 6085SOL    HW219544   6.812   0.077   0.101 -2.0842 -0.8255  0.7552
 6086SOL     OW19545   1.108   0.938   2.380 -0.5175  0.4156  0.2101
 6086SOL    HW119546   1.052   1.015   2.389 -0.2646  0.4601  1.5549
 6086SOL    HW219547   1.186   0.971   2.334 -1.9182  0.1500 -2.5776
 6087SOL     OW19548   7.117   4.960   2.699  0.0573  0.1829  0.1119
 6087SOL    HW119549   7.095   4.997   2.613 -2.4807 -0.7442  0.2778
 6087SOL    HW219550   7.184   5.018   2.734 -0.7227  2.0913 -1.4068
 6088SOL     OW19551   4.031   6.961   0.012 -0.3094 -0.0502  0.5504
 6088SOL    HW119552   4.118   6.922   0.006  0.3884  1.3468  1.0154
 6088SOL    HW219553   3.978   6.895   0.056  0.9920 -0.2317  1.9297
 6089SOL     OW19554   5.240   7.747   6.638 -0.2707 -0.5731  0.0077
 6089SOL    HW119555   5.190   7.686   6.692 -0.2507 -0.7274 -0.1460
 6089SOL    HW219556   5.325   7.704   6.626 -0.3548 -0.6459 -0.3368
 6090SOL     OW19557   0.104   6.541   8.223 -0.5382 -0.2669  0.0365
 6090SOL    HW119558   0.128   6.563   8.313  2.4004 -1.0598 -0.4730
 6090SOL    HW219559   0.044   6.611   8.197 -1.0462  0.2637  2.3958
 6091SOL     OW19560   2.376   5.106   0.914  0.0924 -0.0559  0.0136
 6091SOL    HW119561   2.415   5.039   0.970 -1.5468 -1.5117 -0.5081
 6091SOL    HW219562   2.340   5.171   0.975 -0.7047 -1.0621  0.6433
 6092SOL     OW19563   2.868   4.453   2.086  0.1085  0.2182  0.4783
 6092SOL    HW119564   2.886   4.414   2.172  0.6477 -0.8670 -0.1061
 6092SOL    HW219565   2.923   4.531   2.083  1.2708 -0.5761  0.5280
 6093SOL     OW19566   2.932   5.448   3.298 -0.1014 -0.0803 -0.3064
 6093SOL    HW119567   2.859   5.386   3.294 -0.3998  0.2078  0.5509
 6093SOL    HW219568   3.002   5.400   3.342 -0.4012  0.2538  0.5422
 6094SOL     OW19569   7.200   3.143   2.839 -0.7367 -0.0640 -0.3312
 6094SOL    HW119570   7.207   3.238   2.843  1.6204 -0.2227  0.8133
 6094SOL    HW219571   7.272   3.115   2.784 -0.7020 -1.2388  0.2660
 6095SOL     OW19572   2.917   0.981   0.229  0.6869  0.6951  0.0493
 6095SOL    HW119573   2.933   1.075   0.228  1.6214  0.5486  0.2008
 6095SOL    HW219574   3.003   0.942   0.247  0.4524 -0.2132 -0.6923
 6096SOL     OW19575   5.736   3.591   6.778  0.2163 -0.2065  0.4941
 6096SOL    HW119576   5.830   3.580   6.792  0.1859  0.1255  0.9951
 6096SOL    HW219577   5.695   3.531   6.840  0.0783  1.4044  2.0602
 6097SOL     OW19578   7.065   7.180   4.124 -0.6434  0.3478 -0.0146
 6097SOL    HW119579   7.097   7.152   4.039  1.7809  0.2733  0.8429
 6097SOL    HW219580   7.118   7.131   4.187 -3.7669 -1.1916  1.6359
 6098SOL     OW19581   3.696   8.152   3.241 -0.0275  0.1836 -0.0240
 6098SOL    HW119582   3.637   8.077   3.243 -0.8440  0.8171  0.2556
 6098SOL    HW219583   3.689   8.190   3.329 -1.0711  1.6662 -0.6986
 6099SOL     OW19584   8.215   4.173   7.670  0.5125  0.3273 -0.6214
 6099SOL    HW119585   8.122   4.159   7.691  0.9377 -0.9488  0.5572
 6099SOL    HW219586   8.243   4.243   7.728  0.2985  0.7099 -0.9742
 6100SOL     OW19587   3.699   3.856   8.365 -0.3689  0.3908 -0.2560
 6100SOL    HW119588   3.700   3.942   8.322  0.6381  1.5196  1.9054
 6100SOL    HW219589   3.765   3.862   8.433  1.1100 -2.7984 -1.2189
 6101SOL     OW19590   7.607   7.305   6.687 -0.1506  0.2738 -0.2565
 6101SOL    HW119591   7.687   7.253   6.700  0.1438  0.7600 -0.0878
 6101SOL    HW219592   7.591   7.346   6.772 -1.3503 -0.8718  0.1032
 6102SOL     OW19593   5.014   2.840   2.409  0.5037 -0.0132 -0.0947
 6102SOL    HW119594   5.084   2.827   2.345  0.3063 -0.1361 -0.2867
 6102SOL    HW219595   4.974   2.924   2.384 -0.3887 -0.6633 -0.9117
 6103SOL     OW19596   8.281   5.772   1.560  0.0667 -0.3295 -0.2408
 6103SOL    HW119597   8.366   5.805   1.531 -0.1089 -0.5753 -1.0628
 6103SOL    HW219598   8.228   5.771   1.481 -1.0584  0.8905  0.4472
 6104SOL     OW19599   8.459   5.907   4.163 -0.5522 -0.7053  0.5253
 6104SOL    HW119600   8.485   5.818   4.139 -1.6414 -0.5176 -1.6398
 6104SOL    HW219601   8.377   5.895   4.211 -1.6867 -0.8709 -1.3281
 6105SOL     OW19602   3.071   0.919   6.929  0.2618 -0.0303 -0.1535
 6105SOL    HW119603   3.147   0.934   6.986 -0.2125  1.3572  0.1357
 6105SOL    HW219604   3.029   1.004   6.921 -0.5275 -0.5109 -1.3976
 6106SOL     OW19605   5.928   3.083   8.418  0.5529  0.5539 -0.1583
 6106SOL    HW119606   5.876   3.155   8.382  2.2339  1.3916 -1.0167
 6106SOL    HW219607   5.952   3.031   8.341  2.5867  1.2863 -0.0669
 6107SOL     OW19608   3.725   6.948   5.075  0.7138  0.1090  0.5230
 6107SOL    HW119609   3.785   6.887   5.118 -0.0853 -0.8515  0.3050
 6107SOL    HW219610   3.708   6.909   4.989 -1.7137 -0.6772  1.2799
 6108SOL     OW19611   6.906   2.337   6.205 -0.2083 -0.1130 -0.2126
 6108SOL    HW119612   6.820   2.306   6.178 -0.8691  0.6744  0.9041
 6108SOL    HW219613   6.960   2.330   6.126 -1.5673  0.3630 -1.2192
 6109SOL     OW19614   1.094   2.484   5.871 -0.6517  0.3698  0.3559
 6109SOL    HW119615   1.086   2.508   5.963 -1.6989  1.4671  0.0166
 6109SOL    HW219616   1.013   2.437   5.851 -0.6218  0.4947 -0.0836
 6110SOL     OW19617   5.286   4.242   2.440  0.1108  0.2081  0.1763
 6110SOL    HW119618   5.313   4.313   2.498  1.4171  0.1918 -0.3911
 6110SOL    HW219619   5.252   4.286   2.362 -2.2188  0.2463  1.1286
 6111SOL     OW19620   5.816   5.343   0.169  0.1782 -0.2841 -0.1408
 6111SOL    HW119621   5.814   5.259   0.122  0.3729 -0.4543  0.1530
 6111SOL    HW219622   5.724   5.364   0.184  0.1509 -1.4936  1.6343
 6112SOL     OW19623   0.559   4.089   6.574  0.1432 -0.0347  0.1192
 6112SOL    HW119624   0.618   4.014   6.584  1.0893  0.4797 -1.2244
 6112SOL    HW219625   0.507   4.067   6.497 -0.5855  0.0670  0.5770
 6113SOL     OW19626   1.427   5.680   3.484  0.0353  0.0491  0.0949
 6113SOL    HW119627   1.342   5.646   3.457  0.7516 -1.3813 -0.5014
 6113SOL    HW219628   1.408   5.764   3.524 -1.5286  0.3406 -1.1429
 6114SOL     OW19629   6.846   0.867   6.530 -0.1129  0.4457 -0.0363
 6114SOL    HW119630   6.763   0.898   6.495 -0.2848  0.3057  0.2407
 6114SOL    HW219631   6.862   0.784   6.487  0.1851  0.7591 -0.5373
 6115SOL     OW19632   6.152   2.122   1.016 -0.0507 -0.3914  0.0264
 6115SOL    HW119633   6.164   2.195   0.955 -1.0931 -0.1193  0.1330
 6115SOL    HW219634   6.069   2.140   1.059 -0.2794 -1.6051  0.1166
 6116SOL     OW19635   7.643   6.822   5.441  0.0288 -0.6610  0.6518
 6116SOL    HW119636   7.689   6.870   5.372  0.3590 -3.5778 -1.3441
 6116SOL    HW219637   7.551   6.846   5.430  0.3136  0.4498  0.5679
 6117SOL     OW19638   0.374   6.243   4.931 -0.0149  0.3988 -0.0659
 6117SOL    HW119639   0.319   6.262   5.007 -1.0751  1.2782 -1.0278
 6117SOL    HW219640   0.410   6.156   4.949 -2.5048 -0.6694  0.1407
 6118SOL     OW19641   5.618   7.125   4.780  0.5988  0.1509 -0.3284
 6118SOL    HW119642   5.556   7.103   4.710  0.2050 -0.2004  0.1214
 6118SOL    HW219643   5.700   7.085   4.752  1.3194  2.6395 -2.1245
 6119SOL     OW19644   2.092   2.129   3.292  0.1420  0.1399  0.2859
 6119SOL    HW119645   2.174   2.091   3.323 -0.3543 -1.0439  0.2043
 6119SOL    HW219646   2.072   2.197   3.355  1.0528  0.2723  0.4489
 6120SOL     OW19647   2.302   6.757   0.728  0.1254 -0.1568 -0.4282
 6120SOL    HW119648   2.266   6.741   0.814  1.1686 -0.8430 -0.0991
 6120SOL    HW219649   2.354   6.837   0.738 -0.0873 -0.0056 -0.5262
 6121SOL     OW19650   1.463   1.899   0.396 -0.1271  0.5360 -0.1851
 6121SOL    HW119651   1.489   1.990   0.405  1.1994  0.0301  1.9165
 6121SOL    HW219652   1.399   1.885   0.465 -1.2463  0.1431 -1.2608
 6122SOL     OW19653   6.292   3.332   2.667 -0.0296 -0.2587 -0.4716
 6122SOL    HW119654   6.383   3.303   2.657 -0.1853  0.0119 -3.9160
 6122SOL    HW219655   6.267   3.303   2.755  3.8835  1.2467  1.3853
 6123SOL     OW19656   3.732   6.950   4.755 -0.4326  0.1103 -0.2514
 6123SOL    HW119657   3.690   6.865   4.737 -0.8299  0.1993  0.2333
 6123SOL    HW219658   3.820   6.941   4.719  0.6856 -1.6940  2.5956
 6124SOL     OW19659   4.995   7.575   7.845 -0.0196 -0.0567 -0.2719
 6124SOL    HW119660   5.031   7.655   7.806 -1.3674  0.2770 -0.9030
 6124SOL    HW219661   4.934   7.542   7.779  0.9498 -1.9502 -0.2590
 6125SOL     OW19662   6.577   8.039   6.716  0.6364 -0.0398 -0.6669
 6125SOL    HW119663   6.482   8.038   6.704  0.3027  1.2890  1.4744
 6125SOL    HW219664   6.590   8.028   6.810  2.5459  1.1028 -0.7440
 6126SOL     OW19665   5.055   1.230   6.010 -0.1379  0.3219 -0.0971
 6126SOL    HW119666   4.987   1.170   6.041 -0.9513  1.5705  0.6389
 6126SOL    HW219667   5.064   1.294   6.081  0.6583  1.1166 -0.8914
 6127SOL     OW19668   6.229   1.085   4.279  0.2953 -0.4892  0.1149
 6127SOL    HW119669   6.270   1.157   4.231  1.7946  0.1530  2.1855
 6127SOL    HW219670   6.283   1.009   4.258  0.7671 -0.2739  0.5247
 6128SOL     OW19671   6.352   3.245   3.767  0.7345  0.1358  0.0004
 6128SOL    HW119672   6.408   3.283   3.700 -1.2875  0.4115 -1.6226
 6128SOL    HW219673   6.271   3.222   3.721 -0.3685 -0.5802  2.1546
 6129SOL     OW19674   3.887   7.039   1.389  0.1675  0.1161 -0.0206
 6129SOL    HW119675   3.908   7.119   1.438 -2.6024  1.1012 -0.2286
 6129SOL    HW219676   3.905   7.061   1.298 -0.6615  0.5556 -0.0856
 6130SOL     OW19677   5.890   7.296   3.384  0.6748  0.1189 -0.2360
 6130SOL    HW119678   5.963   7.308   3.323  1.6911 -1.3082  0.6558
 6130SOL    HW219679   5.927   7.314   3.470 -0.3163  0.4393  0.1384
 6131SOL     OW19680   1.065   1.312   6.700 -0.0185 -0.0012 -0.4133
 6131SOL    HW119681   1.072   1.314   6.605 -0.8183  0.7183 -0.4686
 6131SOL    HW219682   1.037   1.223   6.721  0.2717 -0.1930 -0.8395
 6132SOL     OW19683   7.244   4.972   0.226 -0.1103 -0.0921 -0.1359
 6132SOL    HW119684   7.264   4.878   0.228  0.6952  0.0890  1.4070
 6132SOL    HW219685   7.321   5.012   0.186 -0.1108 -0.0123 -0.0572
 6133SOL     OW19686   7.265   7.043   0.333  0.1492  0.1948 -0.0790
 6133SOL    HW119687   7.305   6.964   0.297  0.9279  0.2044  0.7341
 6133SOL    HW219688   7.205   7.012   0.401  0.9988  0.3189  0.7495
 6134SOL     OW19689   3.554   3.787   6.158 -0.0552  0.0960  0.5052
 6134SOL    HW119690   3.582   3.876   6.134 -0.6631  0.0796 -0.3005
 6134SOL    HW219691   3.609   3.729   6.105  1.5243 -0.1030  2.2411
 6135SOL     OW19692   5.176   6.280   7.006  0.1415  0.3741  0.1862
 6135SOL    HW119693   5.163   6.219   7.079  2.1335  1.6850  1.7486
 6135SOL    HW219694   5.109   6.347   7.018  1.1948  1.2295  1.6180
 6136SOL     OW19695   4.033   6.061   0.276  0.1715 -0.1066 -0.2192
 6136SOL    HW119696   4.117   6.023   0.248  1.9269  0.5634  3.5162
 6136SOL    HW219697   4.058   6.130   0.337 -3.1480 -0.1251  1.3327
 6137SOL     OW19698   2.925   5.353   7.438 -0.3647  0.1397 -0.3859
 6137SOL    HW119699   2.919   5.410   7.361  0.0288 -0.4662 -0.8779
 6137SOL    HW219700   3.018   5.351   7.459 -0.6118  1.3907  0.9626
 6138SOL     OW19701   7.013   7.850   3.866 -0.4531  0.4038 -0.2365
 6138SOL    HW119702   6.952   7.924   3.859  1.0255  1.6383 -0.8567
 6138SOL    HW219703   7.065   7.856   3.786  0.7988 -0.2914  0.5116
 6139SOL     OW19704   3.257   6.990   3.279 -0.6164  0.1501  0.0101
 6139SOL    HW119705   3.206   7.023   3.205 -1.1080 -0.2124  0.1870
 6139SOL    HW219706   3.235   6.897   3.284  1.9905 -0.6754 -1.5298
 6140SOL     OW19707   7.318   2.621   4.826 -0.0082 -0.4701 -0.5023
 6140SOL    HW119708   7.356   2.608   4.739 -1.1105 -0.2273 -1.0362
 6140SOL    HW219709   7.369   2.692   4.864 -0.0742  0.0165 -1.3026
 6141SOL     OW19710   6.811   3.502   4.551 -0.1869  0.3688  0.3092
 6141SOL    HW119711   6.809   3.444   4.474  0.8105  1.6107 -0.7053
 6141SOL    HW219712   6.720   3.505   4.581 -1.2215  2.0703 -2.5701
 6142SOL     OW19713   5.817   1.765   4.652 -0.2096  0.1875  0.0851
 6142SOL    HW119714   5.911   1.769   4.634 -0.3058 -0.5015 -0.6473
 6142SOL    HW219715   5.779   1.729   4.571 -1.1279  0.6965  0.2788
 6143SOL     OW19716   3.367   6.863   7.384  0.0740  0.0318 -0.2745
 6143SOL    HW119717   3.301   6.910   7.436  1.6698 -0.3832  2.2681
 6143SOL    HW219718   3.451   6.893   7.419  1.1969 -2.2069 -0.8709
 6144SOL     OW19719   6.458   5.468   6.667  0.2959 -0.0968 -0.1443
 6144SOL    HW119720   6.441   5.427   6.582 -0.2559 -1.2590  0.5047
 6144SOL    HW219721   6.372   5.499   6.696  0.5468  0.6443 -0.1645
 6145SOL     OW19722   7.650   8.277   4.252  0.4875 -0.1839 -0.6351
 6145SOL    HW119723   7.593   8.284   4.329  3.5347  1.9293  1.7007
 6145SOL    HW219724   7.674   8.184   4.248 -0.4094 -0.4812  0.4042
 6146SOL     OW19725   3.779   1.241   7.918 -0.3800 -0.1724  0.9063
 6146SOL    HW119726   3.683   1.241   7.923 -0.4667  0.2158 -0.4934
 6146SOL    HW219727   3.800   1.162   7.869 -0.0295  0.2267  0.4088
 6147SOL     OW19728   1.633   3.047   1.605 -0.4385 -0.0150 -0.0065
 6147SOL    HW119729   1.724   3.030   1.584 -0.4137 -0.0077  0.0935
 6147SOL    HW219730   1.624   3.142   1.604  0.0573  0.0916  2.0383
 6148SOL     OW19731   3.691   2.191   2.824  0.3517  0.2534  0.0791
 6148SOL    HW119732   3.708   2.112   2.772  1.8217  1.1216 -0.8280
 6148SOL    HW219733   3.771   2.203   2.876  0.1216  1.0996  0.2520
 6149SOL     OW19734   8.385   3.978   6.463  0.3004  0.1772  0.1216
 6149SOL    HW119735   8.386   3.890   6.499 -2.1236 -0.3057 -0.8268
 6149SOL    HW219736   8.408   3.966   6.371  0.6825  0.6449  0.1501
 6150SOL     OW19737   3.421   0.190   5.714 -0.2021  0.1697  0.5365
 6150SOL    HW119738   3.446   0.103   5.684  2.3034  0.9657  0.0473
 6150SOL    HW219739   3.483   0.210   5.784 -0.4792  1.7051  0.3751
 6151SOL     OW19740   7.097   4.996   1.647 -0.3181  0.0885  0.6181
 6151SOL    HW119741   7.166   5.059   1.669 -0.3691  0.2616  0.2842
 6151SOL    HW219742   7.132   4.911   1.675 -0.2265  0.2574  1.0220
 6152SOL     OW19743   5.759   0.075   3.655  0.1902 -0.5160  0.2265
 6152SOL    HW119744   5.793   0.068   3.566 -0.2736  1.1083 -0.1038
 6152SOL    HW219745   5.795  -0.002   3.700  0.4359 -1.3588 -1.3392
 6153SOL     OW19746   1.141   0.956   3.161 -0.2998 -0.3971 -0.0249
 6153SOL    HW119747   1.149   0.893   3.233 -1.2424 -0.1784  0.2778
 6153SOL    HW219748   1.230   0.963   3.126 -0.0429 -1.3489  0.4019
 6154SOL     OW19749   6.116   0.506   0.489 -0.1480 -0.2359  0.8865
 6154SOL    HW119750   6.026   0.481   0.511 -0.8258  0.6235 -0.7446
 6154SOL    HW219751   6.144   0.441   0.424 -0.0209  0.2031  0.5021
 6155SOL     OW19752   0.008   8.371   0.383  0.2328 -0.2897  0.1423
 6155SOL    HW119753   0.005   8.466   0.394 -0.4558 -0.3717  0.6757
 6155SOL    HW219754  -0.044   8.355   0.304  2.5120 -0.0073 -1.5431
 6156SOL     OW19755   7.517   8.586   6.844  0.3049  0.1624 -0.0481
 6156SOL    HW119756   7.532   8.551   6.756 -1.0080  0.4915 -0.4246
 6156SOL    HW219757   7.491   8.677   6.829 -2.8117 -0.5328  0.4004
 6157SOL     OW19758   5.276   4.416   4.107 -0.5032 -0.1996 -0.4573
 6157SOL    HW119759   5.244   4.370   4.184  2.1439  0.3541  1.0853
 6157SOL    HW219760   5.314   4.497   4.141 -0.7973  0.9183 -2.5821
 6158SOL     OW19761   2.975   6.474   6.639  0.3620 -0.0901 -0.4581
 6158SOL    HW119762   3.017   6.504   6.558 -1.1910 -1.2374 -1.7511
 6158SOL    HW219763   3.040   6.417   6.680  0.6604 -0.6341 -1.6343
 6159SOL     OW19764   1.593   0.090   4.047 -0.1785 -0.6873 -0.7577
 6159SOL    HW119765   1.676   0.048   4.070 -0.6329 -0.6711  1.0049
 6159SOL    HW219766   1.569   0.141   4.124 -2.2077 -1.2867 -0.9293
 6160SOL     OW19767   5.262   1.946   6.992 -0.2457  0.0032 -0.3767
 6160SOL    HW119768   5.303   2.024   6.956  0.8512  0.6590  2.1137
 6160SOL    HW219769   5.311   1.873   6.955  1.5339  0.6901  0.5386
 6161SOL     OW19770   0.459   0.767   7.011 -0.0532  0.6314 -0.0337
 6161SOL    HW119771   0.482   0.832   7.078 -0.3005  0.7194 -0.0309
 6161SOL    HW219772   0.441   0.820   6.933  0.3223  0.5230 -0.1969
 6162SOL     OW19773   6.849   6.099   6.744 -0.6494 -0.1748 -0.4643
 6162SOL    HW119774   6.863   6.035   6.674 -0.7620 -1.4542  0.6390
 6162SOL    HW219775   6.769   6.070   6.788  0.4966 -0.6093  1.4477
 6163SOL     OW19776   1.849   6.542   5.547 -0.5703  0.3793  0.0020
 6163SOL    HW119777   1.790   6.497   5.487  1.1199 -3.1767  0.7129
 6163SOL    HW219778   1.822   6.512   5.634  1.2344 -0.1414  0.4331
 6164SOL     OW19779   1.850   0.932   8.582  0.1855 -0.6167  0.0453
 6164SOL    HW119780   1.791   0.985   8.530  0.8130 -0.2204 -0.2687
 6164SOL    HW219781   1.927   0.919   8.526  0.5108 -0.8970  0.5468
 6165SOL     OW19782   1.791   7.494   6.621 -0.3267  0.9124  0.3031
 6165SOL    HW119783   1.886   7.480   6.620 -0.2118  1.5975  1.0337
 6165SOL    HW219784   1.780   7.584   6.592 -0.6742  1.2317  1.4040
 6166SOL     OW19785   6.996   0.117   3.301  0.2324  0.0305 -0.0720
 6166SOL    HW119786   7.000   0.021   3.300 -1.6636 -0.0790 -0.5958
 6166SOL    HW219787   6.951   0.140   3.220 -0.4786  1.2894  0.6580
 6167SOL     OW19788   4.207   0.666   4.640 -0.5189 -0.7111 -0.0387
 6167SOL    HW119789   4.230   0.668   4.733 -1.8010 -1.7575  0.3420
 6167SOL    HW219790   4.134   0.727   4.632  1.4015  1.6297 -0.9858
 6168SOL     OW19791   1.858   6.575   7.405 -0.3298  0.4503  0.3977
 6168SOL    HW119792   1.935   6.521   7.422 -1.0228 -1.4229 -1.8146
 6168SOL    HW219793   1.890   6.646   7.349  0.0449  0.5378  0.7217
 6169SOL     OW19794   0.882   5.777   0.045 -0.0453 -0.4578  0.3086
 6169SOL    HW119795   0.866   5.732  -0.037  1.0101 -0.1519 -0.0925
 6169SOL    HW219796   0.921   5.711   0.102  1.6029 -0.0692 -0.3152
 6170SOL     OW19797   5.326   3.542   8.242 -0.3240  0.4163  0.4397
 6170SOL    HW119798   5.281   3.481   8.300  1.2084 -0.8702  0.3375
 6170SOL    HW219799   5.287   3.627   8.262 -2.1507 -0.4897  0.9491
 6171SOL     OW19800   7.408   0.889   8.539  0.0932 -0.2202 -0.4425
 6171SOL    HW119801   7.471   0.911   8.470  0.4580  0.9591  0.2359
 6171SOL    HW219802   7.449   0.920   8.620 -1.1111  0.0695  0.0802
 6172SOL     OW19803   2.088   3.563   3.789 -0.0054  0.5485  0.3824
 6172SOL    HW119804   1.997   3.540   3.808  0.1253 -0.9896 -0.6345
 6172SOL    HW219805   2.084   3.608   3.705  0.0338  1.9357  1.0980
 6173SOL     OW19806   0.881   1.433   4.975  0.4898 -0.1395  0.0102
 6173SOL    HW119807   0.793   1.415   5.008  0.1909  1.4182  0.1107
 6173SOL    HW219808   0.934   1.448   5.054  0.9106 -1.2810 -0.0399
 6174SOL     OW19809   8.446   3.858   3.876 -0.3779  0.1188  0.3358
 6174SOL    HW119810   8.491   3.811   3.806 -1.0099  0.2402 -0.1606
 6174SOL    HW219811   8.354   3.835   3.865 -0.5042  0.2494  1.0498
 6175SOL     OW19812   7.851   8.079   0.772 -0.8251 -0.5963  0.0814
 6175SOL    HW119813   7.871   8.058   0.681 -0.0940 -0.3537  0.1841
 6175SOL    HW219814   7.766   8.124   0.768 -0.6215 -0.2546 -0.5144
 6176SOL     OW19815   8.484   5.021   6.379  0.0279 -0.1495  0.8940
 6176SOL    HW119816   8.504   5.107   6.416 -1.1343 -0.6763  2.8971
 6176SOL    HW219817   8.487   5.035   6.284  0.9540  1.8198  1.1561
 6177SOL     OW19818   1.465   6.922   0.959  0.6026 -0.4268 -0.3288
 6177SOL    HW119819   1.514   7.004   0.955 -1.0697  0.6064 -0.3865
 6177SOL    HW219820   1.527   6.856   0.926  1.8404  0.8567 -0.6960
 6178SOL     OW19821   5.009   4.132   3.628  0.2923 -0.5724 -0.7116
 6178SOL    HW119822   4.996   4.196   3.698 -1.9953 -0.4405 -1.1913
 6178SOL    HW219823   5.044   4.183   3.555 -1.8107  0.2981 -1.2019
 6179SOL     OW19824   3.541   6.932   7.169 -0.4367 -0.5132 -0.0486
 6179SOL    HW119825   3.495   6.867   7.116  1.1429 -1.0208 -0.8832
 6179SOL    HW219826   3.607   6.881   7.216  1.4864  0.5466 -1.4605
 6180SOL     OW19827   4.893   6.100   7.561  0.1665  0.3358 -0.1407
 6180SOL    HW119828   4.853   6.078   7.645  0.1446 -1.8016 -0.6583
 6180SOL    HW219829   4.973   6.048   7.558  0.5497  0.9443 -1.1445
 6181SOL     OW19830   1.474   0.443   7.158  0.0565 -0.1800 -0.1356
 6181SOL    HW119831   1.390   0.484   7.176 -0.6680 -1.4807 -0.4552
 6181SOL    HW219832   1.457   0.349   7.161  1.6588 -0.4877  0.5310
 6182SOL     OW19833   1.847   5.653   4.785 -0.0417  0.1384 -0.0067
 6182SOL    HW119834   1.911   5.588   4.813 -0.6532 -0.2260  0.5820
 6182SOL    HW219835   1.786   5.605   4.728 -0.4228  0.2238  0.3251
 6183SOL     OW19836   8.303   1.108   5.427  0.6930  0.0472  0.4819
 6183SOL    HW119837   8.388   1.120   5.384 -0.3527  1.5960 -1.2933
 6183SOL    HW219838   8.241   1.096   5.356 -0.8743  1.0255  1.6040
 6184SOL     OW19839   2.013   4.513   2.672  0.0342 -0.3706  0.4921
 6184SOL    HW119840   1.999   4.469   2.756  0.0111  0.6041  1.0046
 6184SOL    HW219841   2.086   4.572   2.688  0.8380 -1.0604 -0.5243
 6185SOL     OW19842   5.072   4.274   7.216 -0.1793 -0.1176  0.6826
 6185SOL    HW119843   5.087   4.295   7.308 -0.1610  0.3373  0.5768
 6185SOL    HW219844   4.979   4.251   7.211 -0.6588  1.7004  0.4833
 6186SOL     OW19845   1.505   2.326   2.444  0.0843 -0.2945  0.2113
 6186SOL    HW119846   1.516   2.419   2.426  0.5440 -0.0949  1.4348
 6186SOL    HW219847   1.574   2.283   2.393 -0.1545  0.0273 -0.3844
 6187SOL     OW19848   8.219   0.307   1.777  0.1739 -0.3513  0.2014
 6187SOL    HW119849   8.225   0.339   1.866 -0.1673  0.6407 -0.1227
 6187SOL    HW219850   8.274   0.228   1.776  0.6521 -0.0421  1.1298
 6188SOL     OW19851   3.179   5.401   0.358 -0.0550  0.6338 -0.2478
 6188SOL    HW119852   3.202   5.481   0.405 -2.4151  1.1824  0.0668
 6188SOL    HW219853   3.098   5.423   0.312 -1.6712 -2.0150  1.1178
 6189SOL     OW19854   0.665   2.296   3.730  0.0473 -0.6580  0.2445
 6189SOL    HW119855   0.641   2.372   3.678  0.8759 -0.2354  0.4576
 6189SOL    HW219856   0.739   2.257   3.683 -1.3107 -2.2336 -0.6887
 6190SOL     OW19857   6.140   2.337   6.284  0.1857  0.0622 -0.7580
 6190SOL    HW119858   6.188   2.401   6.336 -0.1807 -0.0846 -0.2366
 6190SOL    HW219859   6.056   2.326   6.329  0.1726 -0.6562 -0.9393
 6191SOL     OW19860   2.380   4.460   6.445 -0.9167 -0.1046  1.0992
 6191SOL    HW119861   2.429   4.400   6.388 -1.5927  1.6358 -1.4996
 6191SOL    HW219862   2.426   4.543   6.437 -2.7741  0.9446  0.5752
 6192SOL     OW19863   3.693   5.020   3.378  0.1603 -0.3518 -0.3254
 6192SOL    HW119864   3.610   5.017   3.329 -1.0294 -1.4370  1.6223
 6192SOL    HW219865   3.690   5.104   3.424 -0.4520 -0.9045  0.6698
 6193SOL     OW19866   0.901   8.676   2.690 -0.4058  0.2885  0.0848
 6193SOL    HW119867   0.838   8.659   2.761 -0.0907  0.3382  0.3804
 6193SOL    HW219868   0.973   8.615   2.708  1.2156  2.5000  1.7320
 6194SOL     OW19869   7.340   5.820   5.666 -0.6549  0.2330  0.4160
 6194SOL    HW119870   7.426   5.846   5.697 -1.3048  2.0131  0.8247
 6194SOL    HW219871   7.339   5.845   5.573 -1.5692  2.6361  1.0001
 6195SOL     OW19872   6.272   4.014   0.568 -0.3106 -0.5714  0.1786
 6195SOL    HW119873   6.183   4.045   0.584 -0.0291 -0.2790  1.2879
 6195SOL    HW219874   6.316   4.088   0.525 -0.4167 -0.4554  0.2696
 6196SOL     OW19875   1.797   4.598   7.206 -0.3416  0.1502 -0.3630
 6196SOL    HW119876   1.703   4.587   7.215  0.0365 -2.0270  1.9851
 6196SOL    HW219877   1.830   4.510   7.185  1.2820  0.5406  0.3559
 6197SOL     OW19878   6.806   7.100   4.288  0.7435  0.1368  0.3558
 6197SOL    HW119879   6.811   7.128   4.196 -0.3604 -0.2863  0.1598
 6197SOL    HW219880   6.896   7.074   4.309  1.0168  0.2577 -0.5935
 6198SOL     OW19881   5.082   0.181   2.902  0.1118 -0.0213 -0.1286
 6198SOL    HW119882   5.120   0.101   2.866  0.4470  0.3119 -0.5139
 6198SOL    HW219883   5.063   0.235   2.826  1.4387  0.9687  0.2249
 6199SOL     OW19884   6.715   3.026   8.129 -0.3288 -0.3429  0.0460
 6199SOL    HW119885   6.735   3.116   8.105 -0.8371  0.4800  2.4445
 6199SOL    HW219886   6.631   3.008   8.087 -0.4152  0.4452 -0.1319
 6200SOL     OW19887   1.128   5.102   2.707 -0.3256 -0.3872  0.1161
 6200SOL    HW119888   1.151   5.073   2.619  0.1888 -1.0948  0.4712
 6200SOL    HW219889   1.140   5.196   2.705  0.8207 -0.5234 -0.2528
 6201SOL     OW19890   3.789   2.905   4.104 -0.4714 -0.3189  0.3012
 6201SOL    HW119891   3.799   2.928   4.196 -0.3357 -0.6788  0.3780
 6201SOL    HW219892   3.823   2.981   4.057 -1.8256  0.4615  0.5272
 6202SOL     OW19893   8.203   6.016   5.560 -0.6293  0.3369 -0.5132
 6202SOL    HW119894   8.152   6.078   5.508 -1.9058  0.0905  0.3763
 6202SOL    HW219895   8.186   5.931   5.519  0.6854  0.4867 -1.4072
 6203SOL     OW19896   3.909   4.233   5.108 -0.0339 -0.1634  0.9409
 6203SOL    HW119897   3.931   4.282   5.029 -0.6279 -0.9436  0.2562
 6203SOL    HW219898   3.815   4.215   5.099 -0.2374  0.2303  2.1201
 6204SOL     OW19899   8.134   7.110   0.011  0.1054  0.5221 -0.0263
 6204SOL    HW119900   8.114   7.139  -0.078  1.9906 -0.3108 -0.7931
 6204SOL    HW219901   8.223   7.143   0.028  0.2477 -0.3544  1.0618
 6205SOL     OW19902   7.693   5.314   1.196  0.6828 -0.1916 -0.1267
 6205SOL    HW119903   7.689   5.387   1.257 -0.3759 -1.1401  0.9861
 6205SOL    HW219904   7.784   5.312   1.167  1.1791  0.3882  1.2992
 6206SOL     OW19905   4.375   5.020   8.077  0.5062  0.2951 -0.3949
 6206SOL    HW119906   4.400   4.975   8.158  2.0489 -0.2828 -1.1602
 6206SOL    HW219907   4.418   5.105   8.083  0.7754  0.1802 -0.6856
 6207SOL     OW19908   5.263   5.321   6.346  0.9296 -0.2704  0.5360
 6207SOL    HW119909   5.251   5.264   6.422  1.8998 -1.4498 -0.1646
 6207SOL    HW219910   5.353   5.352   6.353  1.4685 -1.4002 -0.7521
 6208SOL     OW19911   1.564   2.087   8.140  0.7784 -0.1049 -0.2813
 6208SOL    HW119912   1.474   2.117   8.148  1.0958  1.5316 -2.0986
 6208SOL    HW219913   1.615   2.145   8.196  0.7274 -1.1414  0.8876
 6209SOL     OW19914   2.864   8.150   6.149  0.5861  0.2920 -0.1815
 6209SOL    HW119915   2.851   8.243   6.131  2.9131  0.2761 -2.7626
 6209SOL    HW219916   2.919   8.149   6.228  0.6354  1.1372 -0.1899
 6210SOL     OW19917   3.026   5.754   1.749  0.3033 -0.1218  0.6342
 6210SOL    HW119918   2.975   5.745   1.669  0.4771 -2.1558  0.7028
 6210SOL    HW219919   3.115   5.729   1.724  0.5511  0.0845  1.2707
 6211SOL     OW19920   7.539   8.507   8.281 -0.1593 -0.0426 -0.2836
 6211SOL    HW119921   7.562   8.486   8.190 -1.3731  0.5339 -0.7437
 6211SOL    HW219922   7.467   8.448   8.301  0.4537 -0.5331  0.4964
 6212SOL     OW19923   8.123   2.921   5.259  0.2007  0.4777  0.0311
 6212SOL    HW119924   8.170   2.858   5.204 -0.4012 -0.5827  0.7079
 6212SOL    HW219925   8.156   3.006   5.230  0.3689 -0.0771 -1.5349
 6213SOL     OW19926   1.563   5.282   2.660  0.3776 -0.3763 -0.4883
 6213SOL    HW119927   1.615   5.203   2.653 -0.4448 -0.9125 -0.7225
 6213SOL    HW219928   1.627   5.353   2.663  1.0861 -0.9551 -1.4972
 6214SOL     OW19929   4.143   4.621   1.197 -0.4131  0.3379 -0.3842
 6214SOL    HW119930   4.100   4.645   1.115 -0.8122 -2.0190 -0.9536
 6214SOL    HW219931   4.221   4.572   1.170  1.3271  2.3938  0.6695
 6215SOL     OW19932   7.151   6.598   4.870  0.1840  0.2979  0.2800
 6215SOL    HW119933   7.060   6.615   4.896  0.5375 -0.1836  1.9091
 6215SOL    HW219934   7.154   6.626   4.778 -1.8053 -0.3834 -0.0565
 6216SOL     OW19935   2.737   5.558   0.971  0.3081  0.7578  0.5542
 6216SOL    HW119936   2.669   5.499   1.004  1.3751  0.4023  2.2078
 6216SOL    HW219937   2.708   5.645   0.998  0.0178  0.7198  0.3721
 6217SOL     OW19938   8.239   4.550   3.688  0.1350 -0.0523  0.2380
 6217SOL    HW119939   8.216   4.643   3.692  2.5368  0.5690  2.2072
 6217SOL    HW219940   8.335   4.549   3.688  0.1767 -2.5550  0.3671
 6218SOL     OW19941   1.645   0.097   7.687 -0.3433  0.5925 -0.1428
 6218SOL    HW119942   1.684   0.087   7.600  0.8537 -1.3724  0.5452
 6218SOL    HW219943   1.686   0.028   7.740 -0.4953  2.1723  2.1897
 6219SOL     OW19944   5.900   1.022   6.699  0.2344  0.5881 -0.2660
 6219SOL    HW119945   5.945   1.057   6.622  0.4164  0.5607 -0.1743
 6219SOL    HW219946   5.898   1.095   6.761  0.1198  0.5998 -0.2835
 6220SOL     OW19947   0.413   3.055   6.445  0.1516 -0.3883  0.2211
 6220SOL    HW119948   0.402   3.026   6.535 -0.8576 -1.3834 -0.1962
 6220SOL    HW219949   0.506   3.076   6.437  0.4015 -1.0703  1.2655
 6221SOL     OW19950   3.697   6.568   1.105 -0.0490  0.2151  0.2014
 6221SOL    HW119951   3.705   6.477   1.131  4.4542  0.6286  1.0679
 6221SOL    HW219952   3.680   6.615   1.186 -1.3570  0.2899 -0.0933
 6222SOL     OW19953   1.636   3.935   3.300 -0.2118  0.1012 -0.2790
 6222SOL    HW119954   1.550   3.971   3.323  0.3881  0.9245  0.7240
 6222SOL    HW219955   1.630   3.920   3.205 -1.5301 -0.0643 -0.1936
 6223SOL     OW19956   6.716   6.722   6.153 -0.3680 -0.4678 -0.3805
 6223SOL    HW119957   6.725   6.627   6.155  3.2208 -0.2966 -1.4540
 6223SOL    HW219958   6.788   6.754   6.207  0.9574  1.5880 -3.1226
 6224SOL     OW19959   3.029   3.638   7.004  0.8105  0.5491  0.3984
 6224SOL    HW119960   2.935   3.654   7.011  1.1432  2.7896  0.5933
 6224SOL    HW219961   3.037   3.543   7.003 -1.4820  0.2886 -0.1481
 6225SOL     OW19962   2.999   1.030   7.724  0.1974  0.1603  0.7264
 6225SOL    HW119963   2.906   1.036   7.705  0.6466 -1.3904 -2.9694
 6225SOL    HW219964   3.031   1.120   7.716 -0.7151  0.4390 -0.0101
 6226SOL     OW19965   5.342   7.113   0.900  0.8808 -0.3486 -0.3283
 6226SOL    HW119966   5.354   7.204   0.872  0.4325  0.8464  2.9741
 6226SOL    HW219967   5.419   7.094   0.953 -0.0758 -1.1158  0.8289
 6227SOL     OW19968   2.204   3.042   0.122 -0.4716 -0.1661  0.1216
 6227SOL    HW119969   2.203   3.025   0.028  0.9610 -2.0301  0.3914
 6227SOL    HW219970   2.197   3.137   0.130 -0.2826  0.0421 -1.8766
 6228SOL     OW19971   4.060   1.466   5.827  0.6669  0.9034  0.3310
 6228SOL    HW119972   3.964   1.466   5.818  0.6612  1.1916  0.3856
 6228SOL    HW219973   4.075   1.460   5.922  0.7119 -0.0815  0.2754
 6229SOL     OW19974   3.929   5.577   2.922 -0.6081  0.3194 -0.2810
 6229SOL    HW119975   3.998   5.536   2.870  0.5442  0.7777  0.8426
 6229SOL    HW219976   3.975   5.628   2.989 -2.0200  0.1234  0.9160
 6230SOL     OW19977   0.532   2.905   3.946  0.3716  0.0513 -0.2178
 6230SOL    HW119978   0.491   2.819   3.949 -0.1494  0.3169  0.7169
 6230SOL    HW219979   0.480   2.954   3.883  0.0924 -0.0351 -0.0566
 6231SOL     OW19980   0.819   5.382   4.573 -0.0776 -0.0831 -0.0490
 6231SOL    HW119981   0.802   5.295   4.537 -1.0629  0.0527  0.0634
 6231SOL    HW219982   0.878   5.365   4.647 -0.4191 -0.6849  0.0993
 6232SOL     OW19983   0.394   7.522   0.168 -0.6837 -0.1437 -0.3769
 6232SOL    HW119984   0.412   7.502   0.076 -0.4626 -0.5284 -0.2539
 6232SOL    HW219985   0.472   7.493   0.214 -0.3041  1.1348 -0.1934
 6233SOL     OW19986   3.921   7.401   7.403 -0.0379  0.4975  0.3269
 6233SOL    HW119987   4.008   7.366   7.384 -1.0165 -1.3935 -0.9200
 6233SOL    HW219988   3.887   7.428   7.317 -1.6144 -1.1253  0.3783
 6234SOL     OW19989   3.149   8.126   6.253 -0.2061  0.1026 -0.3072
 6234SOL    HW119990   3.175   8.117   6.162  0.6236  1.5315 -0.2382
 6234SOL    HW219991   3.227   8.106   6.304  0.0245  1.5923 -0.0104
 6235SOL     OW19992   2.704   2.137   8.435 -0.1500 -0.1358  0.0021
 6235SOL    HW119993   2.659   2.089   8.366 -1.0617  2.2070 -1.1436
 6235SOL    HW219994   2.792   2.152   8.401 -0.2875  0.1521 -0.2305
 6236SOL     OW19995   3.290   7.780   1.470 -0.2897  0.1683  0.3937
 6236SOL    HW119996   3.252   7.866   1.488 -1.1603  0.1514 -1.1222
 6236SOL    HW219997   3.375   7.799   1.431 -0.7927  0.3899 -0.6262
 6237SOL     OW19998   6.900   4.977   5.853  0.1905  0.4207  0.2647
 6237SOL    HW119999   6.854   5.013   5.929  0.8456  0.8805  0.4527
 6237SOL    HW220000   6.874   5.034   5.781 -2.0705 -1.2225 -0.3296
 6238SOL     OW20001   7.668   1.208   7.370 -1.1113  0.3050  0.3265
 6238SOL    HW120002   7.635   1.119   7.356  2.4614 -0.9590 -1.2118
 6238SOL    HW220003   7.622   1.260   7.305  0.1354 -1.4744 -2.1574
 6239SOL     OW20004   2.843   3.209   7.753  0.3535  0.1209  0.4754
 6239SOL    HW120005   2.825   3.205   7.847 -3.4360 -0.7518 -0.1237
 6239SOL    HW220006   2.791   3.139   7.715 -1.2748  2.7096 -2.6156
 6240SOL     OW20007   0.405   6.460   6.578  0.0121  0.4817 -0.4596
 6240SOL    HW120008   0.362   6.390   6.626 -1.8115  2.0551  0.3392
 6240SOL    HW220009   0.495   6.460   6.612  0.4164 -2.1229 -1.3218
 6241SOL     OW20010   4.526   7.736   0.722 -0.4222  0.0313 -0.1755
 6241SOL    HW120011   4.490   7.682   0.651 -1.1803 -0.9782  0.9488
 6241SOL    HW220012   4.449   7.762   0.773  0.3340 -1.8408  2.0654
 6242SOL     OW20013   6.132   3.741   6.308 -0.4948 -0.0263  0.5715
 6242SOL    HW120014   6.154   3.742   6.214 -0.8612 -0.6169  0.4787
 6242SOL    HW220015   6.211   3.773   6.351 -1.2726  3.1794 -0.1215
 6243SOL     OW20016   3.344   6.460   8.383 -0.8096  0.2538  0.4282
 6243SOL    HW120017   3.342   6.397   8.311 -0.9490  0.3077  0.3835
 6243SOL    HW220018   3.350   6.545   8.340  0.8983  0.2056  0.5206
 6244SOL     OW20019   2.858   8.668   3.166  0.7469 -0.4345 -0.4104
 6244SOL    HW120020   2.769   8.680   3.133  0.4220  0.8915  0.8032
 6244SOL    HW220021   2.906   8.628   3.094 -0.8644 -1.3040 -1.0366
 6245SOL     OW20022   2.740   4.874   3.261  0.2469  0.0727 -0.1016
 6245SOL    HW120023   2.786   4.925   3.194  0.9933 -0.5111 -0.0457
 6245SOL    HW220024   2.789   4.792   3.267 -2.5700 -1.9399 -2.2176
 6246SOL     OW20025   0.654   1.903   5.925 -0.5041  0.2927  0.5772
 6246SOL    HW120026   0.604   1.949   5.858 -0.9506 -0.0577  0.6646
 6246SOL    HW220027   0.692   1.972   5.979 -1.4218  0.5542  0.8994
 6247SOL     OW20028   3.379   7.826   3.133 -1.0162  0.3830 -0.3417
 6247SOL    HW120029   3.379   7.835   3.038 -0.8007  1.2148 -0.2691
 6247SOL    HW220030   3.316   7.891   3.164 -1.7170 -0.4540  0.0447
 6248SOL     OW20031   5.480   0.170   1.830 -0.0866 -0.5088  0.2185
 6248SOL    HW120032   5.391   0.140   1.847 -0.3384  0.1152  0.0388
 6248SOL    HW220033   5.518   0.103   1.774 -0.8991 -0.1199 -0.8339
 6249SOL     OW20034   4.129   6.241   0.945  0.3433  0.3726 -0.3215
 6249SOL    HW120035   4.205   6.224   0.889  0.5140  0.3613 -0.0882
 6249SOL    HW220036   4.083   6.313   0.901  1.4236  1.5633  0.4223
 6250SOL     OW20037   3.121   6.113   5.189 -0.0660 -0.0425 -0.0127
 6250SOL    HW120038   3.154   6.141   5.104 -0.2358  0.1473 -0.0178
 6250SOL    HW220039   3.084   6.026   5.173 -0.1383  0.0123 -0.1433
 6251SOL     OW20040   2.900   7.563   2.068 -0.4225 -0.2376  0.2766
 6251SOL    HW120041   2.875   7.635   2.010  2.1668 -0.5843 -1.4092
 6251SOL    HW220042   2.850   7.487   2.035  1.3819 -0.5541 -1.9716
 6252SOL     OW20043   5.604   6.921   8.663  0.0724 -0.1056 -0.3559
 6252SOL    HW120044   5.676   6.981   8.643  2.0045 -1.9719  0.6335
 6252SOL    HW220045   5.604   6.859   8.590  1.0007 -1.4246  0.7116
 6253SOL     OW20046   8.138   7.875   1.693  0.2129 -0.6486  0.0064
 6253SOL    HW120047   8.155   7.895   1.601 -0.8708  1.5505  0.2159
 6253SOL    HW220048   8.223   7.884   1.736  0.5408 -0.6906 -0.6254
 6254SOL     OW20049   5.305   4.172   6.339 -0.3149  0.2014 -0.2839
 6254SOL    HW120050   5.322   4.243   6.277 -0.0673  1.3522  1.0503
 6254SOL    HW220051   5.324   4.092   6.290  0.0442  1.0689 -1.6225
 6255SOL     OW20052   5.213   1.169   3.484  0.6628  0.1387 -0.5789
 6255SOL    HW120053   5.209   1.226   3.560 -2.8157 -0.9041  0.1791
 6255SOL    HW220054   5.245   1.226   3.413  0.8735  1.9831  0.9291
 6256SOL     OW20055   4.423   2.183   3.567 -0.1382  0.4833  0.6113
 6256SOL    HW120056   4.354   2.121   3.590  2.0724 -2.0936  0.6843
 6256SOL    HW220057   4.429   2.242   3.642 -2.1363  0.7104  0.6396
 6257SOL     OW20058   6.544   5.011   8.479  0.3696 -0.0051 -0.1408
 6257SOL    HW120059   6.467   4.961   8.451  1.1484 -1.4282  0.1446
 6257SOL    HW220060   6.570   4.971   8.562  0.2064  1.8380  0.8453
 6258SOL     OW20061   4.328   4.330   6.659  0.1779  0.2038  0.1999
 6258SOL    HW120062   4.330   4.248   6.611 -0.7288  0.0380  0.4218
 6258SOL    HW220063   4.280   4.310   6.739  0.8371  0.7074  0.7357
 6259SOL     OW20064   4.505   1.855   0.014 -0.7640  0.3804 -0.1917
 6259SOL    HW120065   4.565   1.921   0.051 -1.2946 -0.1949  1.7933
 6259SOL    HW220066   4.557   1.811  -0.054  0.4570  1.0997  0.2416
 6260SOL     OW20067   0.314   1.373   6.546  0.0264  0.2166  0.2166
 6260SOL    HW120068   0.225   1.396   6.521  0.7345  3.1516  0.0305
 6260SOL    HW220069   0.311   1.363   6.641 -0.3335  1.2778  0.3237
 6261SOL     OW20070   1.810   4.147   2.088  0.4225 -0.3065 -0.1558
 6261SOL    HW120071   1.821   4.170   2.181  0.2143  0.4804 -0.3177
 6261SOL    HW220072   1.883   4.087   2.070 -0.6637 -2.0777  1.0151
 6262SOL     OW20073   3.556   5.712   1.607  0.0287 -0.0123 -0.0691
 6262SOL    HW120074   3.462   5.715   1.590  0.1550  1.2226 -0.6880
 6262SOL    HW220075   3.587   5.800   1.582  1.1366  0.0227  1.3509
 6263SOL     OW20076   0.742   1.544   6.556  0.0366 -0.4494 -0.7500
 6263SOL    HW120077   0.743   1.489   6.634  1.6743  0.9964  0.3154
 6263SOL    HW220078   0.654   1.533   6.520 -0.8869 -0.9182  1.4742
 6264SOL     OW20079   1.994   7.250   1.628  0.2913 -0.2565  0.0019
 6264SOL    HW120080   2.074   7.198   1.625 -0.2156 -1.0588 -0.1713
 6264SOL    HW220081   2.002   7.304   1.706  0.6663 -0.9007  0.4171
 6265SOL     OW20082   4.916   3.192   5.983 -0.2670  0.1206 -0.4918
 6265SOL    HW120083   5.010   3.195   5.965 -0.2736  0.6327 -0.4474
 6265SOL    HW220084   4.878   3.254   5.921 -0.7509 -1.1925 -1.5475
 6266SOL     OW20085   4.555   4.542   4.623  0.3536  0.2002 -0.1503
 6266SOL    HW120086   4.589   4.462   4.581  0.7641  1.3758 -2.2145
 6266SOL    HW220087   4.576   4.531   4.715  1.9147 -1.3552 -0.6227
 6267SOL     OW20088   4.312   3.059   0.750 -0.3558  0.3580  0.3862
 6267SOL    HW120089   4.284   3.142   0.790 -0.7911  1.0068 -1.1779
 6267SOL    HW220090   4.287   3.068   0.657  2.9239  0.0418 -0.6470
 6268SOL     OW20091   1.023   2.278   2.107 -0.4844 -0.3130  1.0235
 6268SOL    HW120092   0.964   2.270   2.032 -0.3067 -1.3952  0.9890
 6268SOL    HW220093   1.069   2.195   2.111  0.2121  0.0906  1.7564
 6269SOL     OW20094   4.532   5.310   1.960 -0.2413 -0.2345 -0.0023
 6269SOL    HW120095   4.538   5.290   1.866 -0.9357  0.2331 -0.1497
 6269SOL    HW220096   4.586   5.242   2.001 -0.5221 -0.8892 -0.6818
 6270SOL     OW20097   3.183   2.097   6.244 -0.0115 -0.2964 -0.9935
 6270SOL    HW120098   3.252   2.103   6.177 -0.9738 -1.1444 -2.1071
 6270SOL    HW220099   3.230   2.080   6.325  1.3293  2.3436 -1.0904
 6271SOL     OW20100   5.181   5.797   3.564 -0.1966 -0.7373  0.1216
 6271SOL    HW120101   5.182   5.771   3.656  0.8337 -1.1656 -0.0072
 6271SOL    HW220102   5.266   5.769   3.530  1.1805  3.0479  0.0426
 6272SOL     OW20103   4.989   3.946   7.022  0.2824 -0.3229  0.0332
 6272SOL    HW120104   5.070   3.895   7.021 -0.2686 -1.2175 -0.0324
 6272SOL    HW220105   4.963   3.952   6.930  0.4586  0.2754  0.0181
 6273SOL     OW20106   1.534   8.034   3.398 -0.1687 -0.1103  0.0283
 6273SOL    HW120107   1.451   8.036   3.445  0.5356 -0.7895  1.3769
 6273SOL    HW220108   1.576   8.117   3.420 -0.3353  0.0863 -0.3817
 6274SOL     OW20109   8.131   5.322   1.638 -0.0973  0.0424 -0.4230
 6274SOL    HW120110   8.139   5.414   1.663 -0.0963 -0.2152  0.6079
 6274SOL    HW220111   8.049   5.293   1.679  1.7217 -1.3691  2.6304
 6275SOL     OW20112   6.323   1.585   6.414 -0.1519 -0.0782 -0.3468
 6275SOL    HW120113   6.368   1.571   6.497  1.9743 -2.4606 -1.7463
 6275SOL    HW220114   6.391   1.575   6.348 -1.9398  0.8166 -2.4507
 6276SOL     OW20115   4.328   5.000   6.318  0.6301 -0.3485  0.1259
 6276SOL    HW120116   4.319   5.095   6.323  1.2854 -0.3379  2.6782
 6276SOL    HW220117   4.409   4.986   6.269  0.3457  0.3786 -0.5763
 6277SOL     OW20118   0.793   1.173   3.394 -0.2958  0.1803 -0.2773
 6277SOL    HW120119   0.824   1.224   3.319  0.2546 -0.3293 -0.4031
 6277SOL    HW220120   0.702   1.150   3.372 -0.9926  2.1612  0.3439
 6278SOL     OW20121   6.046   3.810   4.881  0.4385 -0.2282 -0.0015
 6278SOL    HW120122   6.057   3.718   4.906  1.0381 -0.2788 -0.4366
 6278SOL    HW220123   5.989   3.807   4.804  0.0451 -0.1986  0.2876
 6279SOL     OW20124   7.472   2.277   3.252 -0.1445 -0.1572  0.1138
 6279SOL    HW120125   7.379   2.277   3.231 -0.1292 -0.4084  0.0427
 6279SOL    HW220126   7.499   2.368   3.243 -0.6889  0.1638  1.4800
 6280SOL     OW20127   6.458   3.110   5.426 -0.3209 -0.4806  0.1464
 6280SOL    HW120128   6.436   3.199   5.453 -0.5325  0.1192 -1.8967
 6280SOL    HW220129   6.463   3.061   5.509 -0.5429  1.3245  1.2821
 6281SOL     OW20130   6.339   2.452   7.182  0.1131  0.2561 -0.2275
 6281SOL    HW120131   6.410   2.444   7.118  0.4938 -2.0364  0.4076
 6281SOL    HW220132   6.350   2.540   7.218  2.5211  0.0462 -0.2833
 6282SOL     OW20133   5.755   5.248   3.105 -0.2602 -0.0752  0.4042
 6282SOL    HW120134   5.723   5.248   3.015  0.0356 -0.9655  0.2912
 6282SOL    HW220135   5.789   5.160   3.119 -0.3424  0.0369  1.4092
 6283SOL     OW20136   8.048   4.812   8.338  0.0649  0.0309 -0.1292
 6283SOL    HW120137   7.953   4.821   8.350  0.2240 -0.9561  2.7941
 6283SOL    HW220138   8.059   4.723   8.304 -0.0484  0.0273 -0.1572
 6284SOL     OW20139   7.152   4.445   2.494  0.4634 -0.6727 -0.5178
 6284SOL    HW120140   7.096   4.495   2.554  0.1985 -1.1817 -0.3362
 6284SOL    HW220141   7.220   4.407   2.550 -0.0575 -1.5378 -0.4600
 6285SOL     OW20142   0.208   7.681   1.019 -0.0373 -0.3183  0.1212
 6285SOL    HW120143   0.226   7.773   0.997  1.0708 -0.4701  0.3477
 6285SOL    HW220144   0.206   7.680   1.115  1.8705 -0.8552  0.1888
 6286SOL     OW20145   4.015   4.106   7.918 -0.8183 -0.2653 -0.0747
 6286SOL    HW120146   4.039   4.028   7.967  0.6001 -0.0255 -0.3536
 6286SOL    HW220147   3.979   4.166   7.984  1.8877  0.4044  0.9061
 6287SOL     OW20148   5.935   4.407   0.282  0.0781 -0.4703  0.2051
 6287SOL    HW120149   6.025   4.375   0.293  0.5533  0.3505 -0.9945
 6287SOL    HW220150   5.889   4.335   0.241  0.0085 -1.1188  1.3759
 6288SOL     OW20151   0.418   4.826   1.360 -0.0889 -0.2091 -0.2170
 6288SOL    HW120152   0.325   4.849   1.366 -0.6202 -1.9243 -1.0112
 6288SOL    HW220153   0.419   4.730   1.366  1.7509 -0.1606  0.9306
 6289SOL     OW20154   3.482   2.955   2.071 -0.0516 -0.3612 -0.3650
 6289SOL    HW120155   3.525   2.879   2.033 -1.1314 -1.1214 -0.1292
 6289SOL    HW220156   3.440   2.999   1.997 -0.8393 -0.9591 -0.2863
 6290SOL     OW20157   7.253   1.577   0.712  0.1370 -0.5329 -0.5509
 6290SOL    HW120158   7.271   1.542   0.799 -2.2400 -0.2721  0.1104
 6290SOL    HW220159   7.336   1.616   0.685  0.6403  0.6119  2.2012
 6291SOL     OW20160   2.229   5.889   8.297 -0.3033  0.5257 -0.2634
 6291SOL    HW120161   2.266   5.976   8.312 -2.3133  1.3601  0.2178
 6291SOL    HW220162   2.194   5.862   8.382  0.5322 -0.8948 -0.3461
 6292SOL     OW20163   5.682   6.723   5.206 -0.2506 -0.2682  0.2499
 6292SOL    HW120164   5.653   6.666   5.135  2.3801 -1.3763 -0.0458
 6292SOL    HW220165   5.761   6.681   5.240 -0.1363  1.4483  2.3259
 6293SOL     OW20166   2.172   3.699   0.693  0.1768  0.3449  0.0671
 6293SOL    HW120167   2.145   3.758   0.764 -0.6791  1.0659 -0.8209
 6293SOL    HW220168   2.090   3.678   0.648  0.8454  0.8758 -1.4422
 6294SOL     OW20169   4.590   4.385   6.708  0.6146  0.0699  0.4913
 6294SOL    HW120170   4.608   4.476   6.684  1.5938 -0.1296  0.4226
 6294SOL    HW220171   4.496   4.375   6.698  0.4226  1.2392  1.0503
 6295SOL     OW20172   0.923   2.420   4.752 -0.4354  0.2192  0.5814
 6295SOL    HW120173   0.998   2.472   4.783  1.1531 -2.1677  1.0040
 6295SOL    HW220174   0.909   2.355   4.821 -0.4898 -1.6928 -1.1387
 6296SOL     OW20175   8.124   3.732   6.771 -0.1037  0.1746  0.4544
 6296SOL    HW120176   8.134   3.748   6.865  0.0210  0.1264  0.4486
 6296SOL    HW220177   8.206   3.760   6.732  0.6242 -1.6318  0.5877
 6297SOL     OW20178   2.270   5.125   2.517  0.0933 -0.3914 -0.0827
 6297SOL    HW120179   2.197   5.183   2.494 -1.5727 -2.8025 -1.4030
 6297SOL    HW220180   2.296   5.087   2.433  2.1407 -0.4567  0.5493
 6298SOL     OW20181   4.933   6.272   3.239  0.3264  0.3019  0.9166
 6298SOL    HW120182   4.910   6.348   3.187  0.0262 -1.0338 -0.9920
 6298SOL    HW220183   4.852   6.221   3.246  1.0024 -0.9188  0.2491
 6299SOL     OW20184   3.725   5.992   2.726  0.1181 -0.1260  0.3833
 6299SOL    HW120185   3.702   5.998   2.633 -1.8178  1.0246  0.8729
 6299SOL    HW220186   3.694   5.905   2.752  1.9483 -1.0388 -0.3116
 6300SOL     OW20187   1.176   4.301   6.541 -0.0453 -0.1870  0.3053
 6300SOL    HW120188   1.155   4.394   6.553  0.8492 -0.0121  0.5756
 6300SOL    HW220189   1.212   4.274   6.626  1.1018 -0.3871 -0.2332
 6301SOL     OW20190   3.357   8.305   8.076  0.1054 -0.5890 -0.6401
 6301SOL    HW120191   3.297   8.231   8.079 -0.9003  0.2213  2.3758
 6301SOL    HW220192   3.436   8.274   8.121  0.1782 -0.2434 -0.5237
 6302SOL     OW20193   4.335   1.486   4.647  0.3419  0.3012 -0.1711
 6302SOL    HW120194   4.364   1.469   4.736 -0.7149 -0.9155 -0.0292
 6302SOL    HW220195   4.275   1.414   4.627 -0.7176  1.4374 -1.2662
 6303SOL     OW20196   7.940   0.019   7.504 -0.0262 -0.6352 -0.2803
 6303SOL    HW120197   8.025   0.048   7.471  0.1713  0.6137  1.1888
 6303SOL    HW220198   7.960  -0.022   7.588 -0.8820 -0.1631  0.1719
 6304SOL     OW20199   0.862   8.042   4.526  0.1586  0.1730  0.5938
 6304SOL    HW120200   0.892   7.967   4.577 -0.3288  0.9730  2.1239
 6304SOL    HW220201   0.830   8.004   4.444 -0.6187 -1.3670  1.5560
 6305SOL     OW20202   3.593   6.164   0.574 -0.0868 -0.0430  0.4438
 6305SOL    HW120203   3.549   6.172   0.489  0.6632  2.0485  0.1814
 6305SOL    HW220204   3.598   6.070   0.590 -1.7270 -0.4288 -1.0355
 6306SOL     OW20205   7.980   6.523   0.199  0.3662 -0.2255 -0.5392
 6306SOL    HW120206   7.931   6.593   0.156 -1.6233 -1.6955 -0.7985
 6306SOL    HW220207   8.000   6.557   0.285  0.1123  0.9501 -0.9292
 6307SOL     OW20208   3.186   3.993   2.901 -0.0464 -0.4810  0.0704
 6307SOL    HW120209   3.161   3.954   2.985  0.5903  0.6898  0.8447
 6307SOL    HW220210   3.106   4.032   2.867 -0.3941 -1.3017 -0.0715
 6308SOL     OW20211   6.815   0.596   8.337  0.2885  0.0553 -0.1081
 6308SOL    HW120212   6.891   0.583   8.393  0.3514 -1.0747 -0.4284
 6308SOL    HW220213   6.830   0.539   8.262 -0.7927 -0.0538 -0.2601
 6309SOL     OW20214   2.573   8.666   3.376 -0.0410  0.3020 -0.1552
 6309SOL    HW120215   2.503   8.730   3.386  0.2587  0.5880  0.1355
 6309SOL    HW220216   2.552   8.619   3.295  0.4546  1.6703 -1.1073
 6310SOL     OW20217   6.959   4.185   3.929  0.2571 -0.5709  0.0894
 6310SOL    HW120218   6.964   4.189   3.834  1.1903 -0.0130  0.1510
 6310SOL    HW220219   6.938   4.275   3.955 -0.4727 -0.8217  0.3943
 6311SOL     OW20220   3.844   4.348   5.978  0.0418 -0.0335 -0.1854
 6311SOL    HW120221   3.939   4.364   5.978 -0.0575  0.5633 -0.2944
 6311SOL    HW220222   3.823   4.328   6.070 -0.0283  1.6956  0.2080
 6312SOL     OW20223   7.575   5.892   5.789 -0.1955 -0.4501 -0.2433
 6312SOL    HW120224   7.626   5.935   5.720  1.6257 -2.3372 -0.1735
 6312SOL    HW220225   7.621   5.915   5.870 -0.4380 -0.8341  0.0016
 6313SOL     OW20226   0.719   1.227   1.494  0.1535 -0.5515 -0.6434
 6313SOL    HW120227   0.807   1.257   1.514  0.3121  0.0136 -2.1033
 6313SOL    HW220228   0.664   1.266   1.562  0.9104 -0.2570 -0.1935
 6314SOL     OW20229   2.146   4.274   5.409  0.4609 -0.6731  0.2883
 6314SOL    HW120230   2.233   4.262   5.446  0.7603 -0.7890 -0.4456
 6314SOL    HW220231   2.120   4.188   5.378 -0.3224 -0.8447  1.3483
 6315SOL     OW20232   4.147   0.736   2.968 -0.1995 -0.1432  0.1743
 6315SOL    HW120233   4.066   0.693   2.938  0.2197 -0.2478 -0.8476
 6315SOL    HW220234   4.201   0.665   3.002 -1.0898  0.0962  2.2492
 6316SOL     OW20235   5.450   6.856   5.672 -0.0059 -0.1739 -0.2775
 6316SOL    HW120236   5.465   6.894   5.585  2.0826 -0.2203  0.0204
 6316SOL    HW220237   5.425   6.931   5.727  0.0887  0.0940 -0.5976
 6317SOL     OW20238   0.095   5.961   0.007  0.0104 -0.4344  0.0375
 6317SOL    HW120239   0.082   6.056  -0.003  1.5143 -0.3702 -2.0455
 6317SOL    HW220240   0.177   5.953   0.054 -0.6247 -0.7326  1.1168
 6318SOL     OW20241   1.056   0.837   7.099 -0.0958 -0.2197  0.2243
 6318SOL    HW120242   0.997   0.766   7.121 -0.5552 -0.7527 -2.3937
 6318SOL    HW220243   0.999   0.907   7.067  0.4521  0.7808  1.3687
 6319SOL     OW20244   3.695   1.948   7.087  0.0304 -0.4237 -0.0296
 6319SOL    HW120245   3.653   1.935   7.002  0.6467 -0.4527 -0.3301
 6319SOL    HW220246   3.650   2.024   7.125  0.2023 -0.0013 -0.6612
 6320SOL     OW20247   3.856   8.039   3.821  0.6459  0.6364 -0.1249
 6320SOL    HW120248   3.928   8.091   3.856  0.8728 -1.2369  2.4560
 6320SOL    HW220249   3.856   7.960   3.874 -2.2343 -0.2096 -1.2298
 6321SOL     OW20250   6.896   4.239   0.335 -0.5642 -0.4785  0.0196
 6321SOL    HW120251   6.955   4.215   0.264 -1.3552  0.8904 -1.1546
 6321SOL    HW220252   6.940   4.313   0.378 -1.5830  0.9028 -1.1929
 6322SOL     OW20253   0.477   7.843   5.594  0.0987  0.2519 -0.0980
 6322SOL    HW120254   0.450   7.915   5.650 -1.3608 -0.4010  0.0887
 6322SOL    HW220255   0.417   7.846   5.519  0.5106 -0.3097 -0.4638
 6323SOL     OW20256   2.826   0.795   7.509  0.5506 -0.5127 -0.3002
 6323SOL    HW120257   2.921   0.809   7.511  0.5623 -0.2145 -1.9447
 6323SOL    HW220258   2.790   0.883   7.520  0.4715 -0.5388 -0.3563
 6324SOL     OW20259   2.739   1.585   0.172 -0.2094  0.4569 -0.5110
 6324SOL    HW120260   2.827   1.590   0.210 -0.0595 -0.1828 -0.7471
 6324SOL    HW220261   2.684   1.552   0.244 -0.3845  1.4373 -0.1830
 6325SOL     OW20262   4.253   7.058   2.218  0.2881 -0.0048  0.0090
 6325SOL    HW120263   4.187   7.126   2.209  0.6272  0.7515  2.4175
 6325SOL    HW220264   4.322   7.083   2.156 -1.2627 -0.3827 -1.9617
 6326SOL     OW20265   1.865   6.711   1.924 -0.5042 -0.0331  0.0191
 6326SOL    HW120266   1.850   6.785   1.984  1.1903 -0.0029  0.4517
 6326SOL    HW220267   1.873   6.752   1.838 -0.5651  0.1727  0.1105
 6327SOL     OW20268   2.274   2.483   0.587 -0.2001  0.1564 -0.4181
 6327SOL    HW120269   2.203   2.419   0.576 -0.9426  1.0816 -1.1393
 6327SOL    HW220270   2.325   2.476   0.507  0.2907 -0.2093 -0.0793
 6328SOL     OW20271   2.577   3.598   3.730  0.3182 -0.2157 -0.0807
 6328SOL    HW120272   2.502   3.570   3.678  0.7205 -0.7233 -0.3903
 6328SOL    HW220273   2.643   3.531   3.716  0.6637 -0.0257  0.5772
 6329SOL     OW20274   5.315   6.113   3.773 -0.1090  0.3636 -0.1277
 6329SOL    HW120275   5.220   6.103   3.769 -0.0783  0.3894 -0.9886
 6329SOL    HW220276   5.332   6.201   3.741  0.2063  0.3647  0.0390
 6330SOL     OW20277   8.329   2.267   0.156 -0.2719  0.2425 -0.0567
 6330SOL    HW120278   8.418   2.278   0.189 -0.7219  0.9842  0.9617
 6330SOL    HW220279   8.313   2.346   0.105 -0.6536  0.5344  0.5062
 6331SOL     OW20280   4.888   4.452   7.340 -0.2338  0.0394 -0.8642
 6331SOL    HW120281   4.799   4.437   7.308 -0.7185 -0.3765  0.5987
 6331SOL    HW220282   4.880   4.449   7.435  1.2345  0.7002 -0.6935
 6332SOL     OW20283   0.293   7.165   7.001 -0.0815 -0.0408 -0.3593
 6332SOL    HW120284   0.333   7.206   6.924 -0.8931  0.9304 -0.2854
 6332SOL    HW220285   0.231   7.230   7.033  0.7264 -0.1277  1.5319
 6333SOL     OW20286   8.469   2.600   4.615 -0.1418 -0.1711  0.2948
 6333SOL    HW120287   8.452   2.580   4.523 -3.6045  0.4508  0.6950
 6333SOL    HW220288   8.427   2.529   4.663  1.3345 -0.2996  1.4694
 6334SOL     OW20289   2.460   3.207   5.483 -0.8997 -0.1775 -0.0519
 6334SOL    HW120290   2.366   3.202   5.469 -0.6352 -1.4594 -1.7165
 6334SOL    HW220291   2.484   3.121   5.517 -0.0384 -0.7289 -1.9147
 6335SOL     OW20292   6.450   2.682   3.859  0.0417  0.6800 -0.5976
 6335SOL    HW120293   6.481   2.767   3.891 -0.0520  0.4202  0.2271
 6335SOL    HW220294   6.529   2.627   3.858  0.2781  1.0235 -2.0227
 6336SOL     OW20295   0.816   4.335   5.789  0.0686  0.5105 -0.9858
 6336SOL    HW120296   0.850   4.288   5.865  0.2260  1.3667 -0.5057
 6336SOL    HW220297   0.740   4.383   5.823  0.6396  1.5725 -1.1484
 6337SOL     OW20298   1.731   2.383   1.541  0.0755 -0.9751 -0.3494
 6337SOL    HW120299   1.810   2.335   1.568 -0.6376 -0.9614  1.9473
 6337SOL    HW220300   1.755   2.475   1.551  0.1577 -0.9375 -0.8693
 6338SOL     OW20301   8.124   0.164   6.888 -0.2009 -0.5707  0.0754
 6338SOL    HW120302   8.134   0.228   6.958 -1.6416 -0.8264  0.5459
 6338SOL    HW220303   8.147   0.212   6.808 -0.0353  0.1696  0.5644
 6339SOL     OW20304   7.838   7.417   8.280 -0.2633 -0.0961  0.5870
 6339SOL    HW120305   7.884   7.354   8.225  0.7727  0.6380  0.5876
 6339SOL    HW220306   7.789   7.472   8.218 -0.2161 -0.1533  0.4992
 6340SOL     OW20307   8.155   3.420   4.821 -0.6219 -0.2303 -0.1786
 6340SOL    HW120308   8.194   3.332   4.820 -1.1560 -0.4847  0.7248
 6340SOL    HW220309   8.221   3.476   4.779  1.4279 -0.3502  2.6037
 6341SOL     OW20310   4.813   4.498   7.022 -0.1408  0.0741  0.4252
 6341SOL    HW120311   4.768   4.425   6.980 -0.0444 -1.1916  2.3929
 6341SOL    HW220312   4.789   4.491   7.115  1.5164  1.3083  0.9989
 6342SOL     OW20313   3.332   8.324   4.044  0.2964 -0.4432  0.1403
 6342SOL    HW120314   3.249   8.314   4.092 -0.3335  0.4349 -0.7303
 6342SOL    HW220315   3.389   8.257   4.082  0.7447  1.7816  3.9349
 6343SOL     OW20316   1.542   7.584   1.367 -0.0648 -0.5030  0.1611
 6343SOL    HW120317   1.447   7.574   1.357 -0.2493  0.9773  0.2285
 6343SOL    HW220318   1.577   7.496   1.351 -1.2971 -0.6961 -1.8341
 6344SOL     OW20319   4.403   6.645   2.817 -0.1866 -0.7506 -0.1606
 6344SOL    HW120320   4.444   6.731   2.825  0.4947 -0.6926 -3.0836
 6344SOL    HW220321   4.324   6.651   2.871 -0.4487  1.8970 -0.6964
 6345SOL     OW20322   2.164   8.205   7.758 -0.6731 -0.3619  0.4840
 6345SOL    HW120323   2.130   8.224   7.846 -1.7882 -2.3058  0.5318
 6345SOL    HW220324   2.226   8.132   7.772  0.6714  0.6228 -0.1157
 6346SOL     OW20325   6.879   5.701   5.347  0.2426  0.3052 -0.2514
 6346SOL    HW120326   6.893   5.656   5.430  0.1841  0.9641  0.1309
 6346SOL    HW220327   6.899   5.793   5.367 -0.4873  0.5839 -0.7720
 6347SOL     OW20328   7.525   1.545   4.565  0.4182 -0.3879  0.1382
 6347SOL    HW120329   7.464   1.490   4.517  0.8318 -1.6174  0.9666
 6347SOL    HW220330   7.553   1.491   4.639  0.7320  0.9949  1.0734
 6348SOL     OW20331   4.846   5.271   0.900 -0.1401  0.6615  0.2459
 6348SOL    HW120332   4.871   5.185   0.935  1.2174  1.0096  0.1559
 6348SOL    HW220333   4.767   5.294   0.950 -1.2411 -1.1397 -0.5464
 6349SOL     OW20334   0.427   3.572   7.770 -0.3681  0.4053  0.0791
 6349SOL    HW120335   0.408   3.499   7.710  0.4792  0.6750 -0.5346
 6349SOL    HW220336   0.358   3.636   7.751  2.0884  2.2953 -3.6451
 6350SOL     OW20337   2.619   0.577   6.086 -0.2829  0.3811  0.4032
 6350SOL    HW120338   2.707   0.539   6.082 -0.0113  1.0480 -0.1797
 6350SOL    HW220339   2.561   0.502   6.080  0.2358  0.0756 -1.6489
 6351SOL     OW20340   7.346   6.693   6.927 -0.0670 -0.1513  0.5710
 6351SOL    HW120341   7.356   6.707   6.833 -0.7759  1.9786  0.7482
 6351SOL    HW220342   7.257   6.658   6.937 -0.5349  0.9804  0.5211
 6352SOL     OW20343   1.152   3.276   5.158 -0.1082  0.5002  0.3271
 6352SOL    HW120344   1.144   3.371   5.165  1.0127  0.5933  0.5547
 6352SOL    HW220345   1.075   3.242   5.203 -0.0129  1.2871  1.1159
 6353SOL     OW20346   3.168   2.662   7.925 -0.5282  0.0026 -0.7128
 6353SOL    HW120347   3.137   2.592   7.868  0.6105 -0.8613 -0.2875
 6353SOL    HW220348   3.114   2.654   8.004 -1.1569  0.3237 -1.1016
 6354SOL     OW20349   6.718   2.766   7.954 -0.2891  0.4706  0.9245
 6354SOL    HW120350   6.711   2.861   7.946  2.2522  0.6922  0.2710
 6354SOL    HW220351   6.743   2.752   8.046 -0.4272  0.4530  0.9588
 6355SOL     OW20352   8.120   4.625   1.475 -0.1247 -0.7216 -0.4705
 6355SOL    HW120353   8.033   4.648   1.442 -0.6132  0.6788  1.5559
 6355SOL    HW220354   8.176   4.697   1.446 -0.4258  0.1902  1.0989
 6356SOL     OW20355   5.433   7.230   4.259  0.2434 -0.0986 -0.1784
 6356SOL    HW120356   5.401   7.242   4.348 -0.7342 -0.0556 -0.5179
 6356SOL    HW220357   5.412   7.139   4.238 -0.6513  0.2318 -0.7786
 6357SOL     OW20358   3.502   2.746   5.387  0.9969  0.6158 -0.6317
 6357SOL    HW120359   3.560   2.690   5.335  0.3273 -0.9135  0.2015
 6357SOL    HW220360   3.416   2.733   5.348  0.4480 -0.7093  0.9252
 6358SOL     OW20361   4.891   7.266   1.256 -0.3772  0.5542 -0.1528
 6358SOL    HW120362   4.955   7.224   1.199  0.0188  1.5007 -0.4282
 6358SOL    HW220363   4.814   7.210   1.251  0.0598 -0.0127 -0.6801
 6359SOL     OW20364   8.638   2.170   3.884  0.4618  0.1103 -0.0636
 6359SOL    HW120365   8.647   2.223   3.964  0.5543 -1.1277  0.7680
 6359SOL    HW220366   8.702   2.101   3.894 -0.2425 -0.6590 -0.7289
 6360SOL     OW20367   3.936   4.090   0.352  0.0186  0.5292 -0.4933
 6360SOL    HW120368   3.873   4.067   0.284 -0.3863 -0.7077  0.2505
 6360SOL    HW220369   3.925   4.184   0.366 -0.9731  0.5002 -1.0536
 6361SOL     OW20370   6.901   8.172   0.683  0.4531  0.3995 -0.0027
 6361SOL    HW120371   6.900   8.078   0.700  2.1313  0.7265  2.3182
 6361SOL    HW220372   6.823   8.206   0.726  0.2035  0.1723 -0.2695
 6362SOL     OW20373   1.868   3.112   0.723 -0.0805  0.4009  0.6059
 6362SOL    HW120374   1.795   3.059   0.756 -0.4810  1.8470  2.1563
 6362SOL    HW220375   1.938   3.049   0.707 -1.3022 -0.8944  0.0708
 6363SOL     OW20376   1.630   4.769   8.295 -0.3384  0.4501 -0.5406
 6363SOL    HW120377   1.592   4.739   8.377  1.2864  0.1268  0.1369
 6363SOL    HW220378   1.721   4.790   8.317  0.6653 -1.2888 -2.5833
 6364SOL     OW20379   1.804   4.883   6.175  0.1979 -0.0059  0.3196
 6364SOL    HW120380   1.783   4.871   6.267 -2.4952 -1.3423 -0.3943
 6364SOL    HW220381   1.769   4.969   6.153 -0.6940 -0.3932  0.1787
 6365SOL     OW20382   4.303   6.376   6.595 -0.0609 -0.4665  0.1522
 6365SOL    HW120383   4.391   6.359   6.628 -0.2746  1.9473  2.2536
 6365SOL    HW220384   4.245   6.330   6.656 -0.3234 -0.3405 -0.0017
 6366SOL     OW20385   1.309   5.122   5.738 -0.3598 -0.0594  0.1342
 6366SOL    HW120386   1.281   5.208   5.768 -0.3815 -0.0769  0.1639
 6366SOL    HW220387   1.265   5.060   5.796  0.9890 -0.0452  1.2087
 6367SOL     OW20388   7.816   7.113   4.864 -0.0748  0.3761  0.0393
 6367SOL    HW120389   7.853   7.080   4.946 -0.6761 -0.7238 -0.1134
 6367SOL    HW220390   7.890   7.113   4.803 -0.1300 -1.2097 -0.0894
 6368SOL     OW20391   5.005   1.575   0.731 -0.1253  0.0221  0.5494
 6368SOL    HW120392   4.963   1.509   0.786  0.0360 -1.8464 -1.4827
 6368SOL    HW220393   5.012   1.535   0.645  3.6141  1.1315  0.1493
 6369SOL     OW20394   3.692   0.740   3.779 -0.3175 -0.2935  0.1527
 6369SOL    HW120395   3.721   0.653   3.805 -1.3707 -0.8509 -0.4667
 6369SOL    HW220396   3.618   0.759   3.836  0.1181  0.3513  0.5180
 6370SOL     OW20397   6.957   1.690   8.092 -0.3875 -0.1139  0.0602
 6370SOL    HW120398   7.015   1.706   8.019 -1.2342  1.7961 -0.2452
 6370SOL    HW220399   6.964   1.595   8.108  0.9491 -0.3129 -1.4747
 6371SOL     OW20400   0.134   6.020   5.261  0.4463 -0.4230  0.0190
 6371SOL    HW120401   0.083   5.975   5.194  0.3826 -0.8258  0.3316
 6371SOL    HW220402   0.146   5.954   5.330  2.0741 -0.6137 -0.4049
 6372SOL     OW20403   5.946   5.612   8.249 -0.5856  0.1822 -0.2466
 6372SOL    HW120404   5.877   5.662   8.292 -1.2872 -0.5578 -0.4907
 6372SOL    HW220405   5.949   5.647   8.159  0.9643  1.8130  0.3666
 6373SOL     OW20406   7.069   1.712   1.411  0.0409 -0.0352  0.7760
 6373SOL    HW120407   7.079   1.690   1.318 -0.8154 -0.7161  0.8388
 6373SOL    HW220408   7.130   1.653   1.455  2.0346  1.7099  0.5273
 6374SOL     OW20409   0.298   6.704   3.890  0.1697  0.4334 -0.1040
 6374SOL    HW120410   0.360   6.668   3.827  0.5473 -0.9418  1.0208
 6374SOL    HW220411   0.224   6.644   3.889 -0.0388  0.6725  0.4078
 6375SOL     OW20412   7.987   8.241   8.498 -0.3723  0.5723 -0.6058
 6375SOL    HW120413   7.921   8.173   8.491  0.6314 -0.3951 -0.8972
 6375SOL    HW220414   7.939   8.323   8.482 -1.5932 -0.0487 -0.2114
 6376SOL     OW20415   4.372   4.769   3.200  0.2186 -0.6188 -0.4135
 6376SOL    HW120416   4.408   4.853   3.172 -0.7789  0.9988  2.7609
 6376SOL    HW220417   4.449   4.716   3.221  0.8798 -0.8293 -3.0340
 6377SOL     OW20418   3.673   2.341   1.040  0.7283  0.2137  0.7571
 6377SOL    HW120419   3.743   2.405   1.027 -0.0252  0.8818 -0.1491
 6377SOL    HW220420   3.592   2.391   1.029  0.1193 -0.8981 -0.0417
 6378SOL     OW20421   3.837   8.557   7.562 -0.1852 -0.6083  0.0625
 6378SOL    HW120422   3.755   8.573   7.608 -0.8052 -0.8663 -0.9310
 6378SOL    HW220423   3.834   8.464   7.540  0.8110 -0.8403  0.8355
 6379SOL     OW20424   1.247   7.847   2.607  0.0116  0.4530  0.3435
 6379SOL    HW120425   1.188   7.922   2.610  1.2856  1.4592  1.0214
 6379SOL    HW220426   1.192   7.772   2.632 -1.6516  0.8544 -1.8108
 6380SOL     OW20427   4.564   6.673   5.466 -0.2775  0.4754  0.4955
 6380SOL    HW120428   4.558   6.757   5.422 -0.5676  1.6789  2.6955
 6380SOL    HW220429   4.474   6.651   5.490 -0.2435 -0.6407 -0.2824
 6381SOL     OW20430   6.971   4.801   8.089 -0.0227  0.4695 -0.5913
 6381SOL    HW120431   7.053   4.758   8.112 -0.1801  0.3996 -0.1523
 6381SOL    HW220432   6.993   4.893   8.077  0.1695  0.4027 -0.7456
 6382SOL     OW20433   4.107   2.224   0.478  0.0721  0.5288 -0.1212
 6382SOL    HW120434   4.171   2.163   0.442  0.6175  2.4012 -2.5776
 6382SOL    HW220435   4.029   2.170   0.494  1.3318 -1.2521  0.2603
 6383SOL     OW20436   5.011   2.252   6.182 -0.1136  0.1802  0.6781
 6383SOL    HW120437   5.060   2.307   6.243  0.0369  1.0899 -0.2215
 6383SOL    HW220438   4.944   2.210   6.235 -2.9188  4.3469  0.8545
 6384SOL     OW20439   1.273   7.716   5.211  0.3161 -0.3191 -0.5215
 6384SOL    HW120440   1.188   7.701   5.253  0.3354  0.6378 -0.1228
 6384SOL    HW220441   1.314   7.629   5.210 -0.4304 -0.6880 -0.2026
 6385SOL     OW20442   3.545   4.027   1.011 -0.0813  0.1408 -0.3014
 6385SOL    HW120443   3.570   3.935   1.019 -2.0497 -0.3688  0.7718
 6385SOL    HW220444   3.624   4.076   1.036  1.2119 -1.2094 -1.5798
 6386SOL     OW20445   6.928   3.093   6.088  0.0585 -0.2237 -0.1492
 6386SOL    HW120446   6.997   3.070   6.150 -1.2121 -0.9954  1.0367
 6386SOL    HW220447   6.894   3.177   6.120  0.4338  0.1552 -0.7304
 6387SOL     OW20448   4.946   5.353   1.914  0.1954 -0.5822 -0.6050
 6387SOL    HW120449   5.021   5.392   1.870  1.3431  0.0308  1.7363
 6387SOL    HW220450   4.901   5.426   1.956  1.1495 -1.4157  2.0717
 6388SOL     OW20451   3.258   0.668   5.726  0.6641  0.2594 -0.2803
 6388SOL    HW120452   3.259   0.729   5.653  2.0313 -0.2899 -0.7351
 6388SOL    HW220453   3.253   0.582   5.686 -2.5372  0.0003  0.3613
 6389SOL     OW20454   4.072   3.630   1.074  0.5086 -0.1648  0.4028
 6389SOL    HW120455   4.037   3.653   1.160  0.1452 -1.6792  0.7033
 6389SOL    HW220456   3.997   3.596   1.026  0.7248  0.5957 -0.4993
 6390SOL     OW20457   4.525   4.367   7.952 -0.2173 -0.3737  0.1713
 6390SOL    HW120458   4.593   4.433   7.944  0.6928 -1.1857  0.9919
 6390SOL    HW220459   4.443   4.414   7.935  0.4112  0.9640  0.7516
 6391SOL     OW20460   5.982   1.271   4.203  0.3340 -0.0778 -0.1678
 6391SOL    HW120461   6.020   1.288   4.116  0.0627  1.0737 -0.0708
 6391SOL    HW220462   6.055   1.235   4.254  0.9337  0.7681 -0.3992
 6392SOL     OW20463   2.855   4.664   1.488 -0.1375  0.3830 -0.4408
 6392SOL    HW120464   2.866   4.690   1.396  3.3643 -0.9941 -0.5670
 6392SOL    HW220465   2.821   4.575   1.483  0.3136  0.2080 -0.4274
 6393SOL     OW20466   4.967   7.978   6.398 -0.0055 -0.1381 -0.0376
 6393SOL    HW120467   5.048   7.928   6.392 -0.3481 -1.3369  3.0576
 6393SOL    HW220468   4.979   8.052   6.338  3.7065  0.1660  0.8059
 6394SOL     OW20469   6.246   4.924   5.821 -0.3445 -1.0238  0.1939
 6394SOL    HW120470   6.239   5.019   5.830  0.0613 -1.1298  1.9232
 6394SOL    HW220471   6.157   4.892   5.837  0.1041 -1.1097  2.8676
 6395SOL     OW20472   7.494   4.396   7.513 -0.4015 -0.2851  0.1337
 6395SOL    HW120473   7.530   4.448   7.584  0.0650 -0.0976 -0.2310
 6395SOL    HW220474   7.498   4.454   7.436 -2.0699 -0.0350  0.1996
 6396SOL     OW20475   2.883   8.502   5.736 -0.0983  0.1641 -0.1445
 6396SOL    HW120476   2.808   8.448   5.713 -0.4012  1.2660 -1.9376
 6396SOL    HW220477   2.942   8.443   5.782 -1.8454 -0.8254  0.9261
 6397SOL     OW20478   1.998   0.390   0.415  0.7932 -0.3087 -0.0979
 6397SOL    HW120479   2.015   0.418   0.325 -0.4093 -1.5706 -0.7439
 6397SOL    HW220480   1.906   0.412   0.430  0.9216 -0.3170  0.7517
 6398SOL     OW20481   1.087   1.881   3.259 -0.3068  0.2123 -0.6911
 6398SOL    HW120482   1.038   1.889   3.178  0.2831  1.5397 -0.9341
 6398SOL    HW220483   1.127   1.967   3.273  1.0307 -0.4894  0.0849
 6399SOL     OW20484   5.313   3.721   5.164 -0.7088 -0.0508  0.2851
 6399SOL    HW120485   5.369   3.799   5.172 -0.7569  0.0088  0.0515
 6399SOL    HW220486   5.368   3.648   5.192 -0.3848 -0.0454 -0.3340
 6400SOL     OW20487   4.028   7.222   5.937  0.0933  0.6713 -0.0428
 6400SOL    HW120488   3.935   7.244   5.926  0.1297  0.4108 -0.9267
 6400SOL    HW220489   4.031   7.176   6.021 -0.8104 -0.4631 -0.5873
 6401SOL     OW20490   6.881   4.779   2.199  0.2562  0.1958 -0.3923
 6401SOL    HW120491   6.887   4.684   2.208  1.1417  0.3661  1.1535
 6401SOL    HW220492   6.867   4.794   2.106 -1.4475 -1.5169 -0.4709
 6402SOL     OW20493   6.420   8.583   3.554 -0.7839 -1.1605 -0.2911
 6402SOL    HW120494   6.478   8.659   3.543 -2.9581  0.4851 -1.1536
 6402SOL    HW220495   6.424   8.563   3.647  0.8254 -0.8230 -0.2695
 6403SOL     OW20496   0.994   2.927   1.402 -0.2504  0.3052 -0.5262
 6403SOL    HW120497   1.007   2.940   1.496  0.3347  0.1524 -0.5800
 6403SOL    HW220498   1.070   2.876   1.374 -0.7537 -0.2134 -0.9664
 6404SOL     OW20499   2.767   1.584   6.936  0.2188  0.0331 -0.1717
 6404SOL    HW120500   2.826   1.577   7.010  0.8721 -0.4278 -0.7197
 6404SOL    HW220501   2.788   1.508   6.881 -1.6512 -0.7747  0.1594
 6405SOL     OW20502   3.442   0.988   5.573 -0.1142  0.3936  0.4866
 6405SOL    HW120503   3.510   1.040   5.531 -0.6957  0.0965 -0.8857
 6405SOL    HW220504   3.480   0.900   5.582 -0.9523 -0.3563 -2.2296
 6406SOL     OW20505   7.069   5.527   8.069 -0.1427  0.1578 -0.0930
 6406SOL    HW120506   7.031   5.540   8.156  1.3705  2.1278  0.3445
 6406SOL    HW220507   7.028   5.447   8.037 -0.4367 -0.8939  2.6031
 6407SOL     OW20508   7.051   1.901   0.326 -0.1090  0.5914  0.3849
 6407SOL    HW120509   6.959   1.878   0.310 -0.4840  0.2556  2.6655
 6407SOL    HW220510   7.088   1.825   0.371  1.1262  0.9895  0.0897
 6408SOL     OW20511   7.183   6.496   1.303  0.1482 -0.1348 -0.2339
 6408SOL    HW120512   7.112   6.559   1.289 -0.2490 -0.7902 -1.2450
 6408SOL    HW220513   7.194   6.493   1.398 -1.7363 -0.6342  0.0009
 6409SOL     OW20514   6.672   5.356   3.972  0.5296  0.3619  0.5713
 6409SOL    HW120515   6.742   5.292   3.958  1.0482  0.9652  0.3815
 6409SOL    HW220516   6.718   5.438   3.991 -0.1304  0.7052  0.7059
 6410SOL     OW20517   4.708   7.437   7.916  0.2504  0.1489 -0.5345
 6410SOL    HW120518   4.675   7.383   7.988 -0.4685  0.3822 -0.6896
 6410SOL    HW220519   4.739   7.374   7.851  1.9605 -0.0829  0.4258
 6411SOL     OW20520   0.314   7.266   1.926 -0.3668 -0.0574  0.7742
 6411SOL    HW120521   0.230   7.233   1.893 -0.9015  0.6056  1.4271
 6411SOL    HW220522   0.297   7.285   2.018  0.2342  0.9781  0.6803
 6412SOL     OW20523   2.311   2.249   3.515  0.1949  0.2372 -0.4981
 6412SOL    HW120524   2.337   2.284   3.600  1.7765  0.1478 -0.9217
 6412SOL    HW220525   2.329   2.155   3.522 -0.5225  0.0862 -0.6301
 6413SOL     OW20526   1.312   5.094   1.088 -0.5381  0.0187 -0.0800
 6413SOL    HW120527   1.287   5.180   1.053 -1.2612 -0.5845 -1.1067
 6413SOL    HW220528   1.387   5.068   1.034  0.7388  0.6888  1.2994
 6414SOL     OW20529   6.127   5.492   0.953 -0.0865  0.1923 -0.1768
 6414SOL    HW120530   6.190   5.549   0.909 -0.2251  0.8531  0.4550
 6414SOL    HW220531   6.166   5.475   1.038 -0.0005 -0.7557 -0.3970
 6415SOL     OW20532   7.939   0.277   7.343 -0.2509 -0.0050  0.3557
 6415SOL    HW120533   7.881   0.312   7.275 -0.4549  0.0379  0.5517
 6415SOL    HW220534   7.883   0.220   7.396 -0.3467  0.7746  1.1204
 6416SOL     OW20535   6.596   4.315   1.146 -0.1289  0.0725  0.4507
 6416SOL    HW120536   6.530   4.380   1.123 -0.7507 -0.5467  0.4315
 6416SOL    HW220537   6.631   4.285   1.063 -1.7180 -1.4944  0.2793
 6417SOL     OW20538   0.962   2.511   3.819  0.2419  0.4253  0.0321
 6417SOL    HW120539   1.047   2.487   3.857  0.3232  0.2810 -0.2409
 6417SOL    HW220540   0.919   2.428   3.802  0.3168  0.4828 -0.4415
 6418SOL     OW20541   4.821   7.620   4.095  0.8619  0.6117 -0.1064
 6418SOL    HW120542   4.874   7.550   4.132 -0.7271 -0.1939  0.8031
 6418SOL    HW220543   4.880   7.669   4.038  2.2894 -0.7891  0.1163
 6419SOL     OW20544   6.910   0.751   4.227  0.1379 -0.0080  0.0025
 6419SOL    HW120545   6.960   0.705   4.295  1.1760 -0.2716 -0.9096
 6419SOL    HW220546   6.931   0.843   4.240 -0.9941  0.1318  1.0693
 6420SOL     OW20547   0.743   6.797   5.826  0.3173 -0.1537  0.0355
 6420SOL    HW120548   0.746   6.838   5.739 -1.2236  0.3671  0.1936
 6420SOL    HW220549   0.654   6.764   5.833  0.2038  0.4278  1.6993
 6421SOL     OW20550   2.304   3.566   2.285 -0.3953 -0.3995  0.0009
 6421SOL    HW120551   2.315   3.647   2.335 -1.5902  1.4607 -2.4747
 6421SOL    HW220552   2.391   3.526   2.283  0.0267  0.3122  2.0380
 6422SOL     OW20553   1.394   0.773   2.866 -1.0228 -0.0996 -0.0423
 6422SOL    HW120554   1.441   0.719   2.803 -1.4503 -1.4758  0.7927
 6422SOL    HW220555   1.396   0.861   2.828  0.5672 -0.4821 -0.9306
 6423SOL     OW20556   3.899   5.292   0.461 -0.4085  0.4280  0.3491
 6423SOL    HW120557   3.883   5.386   0.472 -0.1014  0.4059  0.9777
 6423SOL    HW220558   3.994   5.285   0.451 -0.4369  0.1846  0.2541
 6424SOL     OW20559   5.660   4.823   2.425 -0.3148 -0.4777 -0.0206
 6424SOL    HW120560   5.651   4.787   2.513 -0.1383 -0.6312 -0.0656
 6424SOL    HW220561   5.592   4.890   2.420  1.4734  1.5668  1.2352
 6425SOL     OW20562   4.988   5.044   6.231  0.2614 -0.2798  0.0980
 6425SOL    HW120563   5.068   4.992   6.231  0.6240  0.2155 -1.4128
 6425SOL    HW220564   4.995   5.099   6.153 -0.9689  0.6969  0.6307
 6426SOL     OW20565   1.419   3.953   6.649  0.1641 -0.0765 -0.5984
 6426SOL    HW120566   1.478   4.019   6.686  1.1466 -1.1628 -0.1153
 6426SOL    HW220567   1.362   3.929   6.722  0.6541 -0.6563 -0.3974
 6427SOL     OW20568   8.625   6.225   2.944 -0.3430  0.1381 -0.1916
 6427SOL    HW120569   8.574   6.145   2.958  1.4599 -1.1572 -0.7165
 6427SOL    HW220570   8.614   6.244   2.850  0.2910 -0.2631 -0.3500
 6428SOL     OW20571   3.728   5.551   4.495  0.1609  0.3191 -0.4318
 6428SOL    HW120572   3.724   5.514   4.583 -0.0476  1.4874  0.0752
 6428SOL    HW220573   3.716   5.477   4.437 -0.5633 -0.3546  0.5453
 6429SOL     OW20574   0.991   5.485   4.834 -0.1262 -0.2405  0.2575
 6429SOL    HW120575   0.933   5.437   4.893 -0.4177  1.7850  1.7417
 6429SOL    HW220576   1.078   5.449   4.852 -0.3413 -0.2923  1.3058
 6430SOL     OW20577   4.783   3.900   4.095 -0.5477 -0.9490 -0.8959
 6430SOL    HW120578   4.757   3.926   4.183 -0.2229 -1.0290 -0.7740
 6430SOL    HW220579   4.707   3.920   4.040 -1.1478 -1.8459 -0.4283
 6431SOL     OW20580   1.501   2.737   3.797  0.1928  0.2103  0.4903
 6431SOL    HW120581   1.583   2.770   3.762  0.6155  0.0636  1.3236
 6431SOL    HW220582   1.435   2.801   3.767  0.5241  0.0490 -0.6007
 6432SOL     OW20583   6.984   3.742   8.370 -0.3251  0.6711 -0.6314
 6432SOL    HW120584   7.059   3.686   8.348  0.9466  1.9779  0.2035
 6432SOL    HW220585   6.923   3.684   8.414  0.1551 -0.4392 -1.3779
 6433SOL     OW20586   0.231   5.695   2.143  0.5502  0.0973  0.5259
 6433SOL    HW120587   0.222   5.786   2.115 -1.7059  0.2738  1.5923
 6433SOL    HW220588   0.303   5.661   2.091  2.0121  2.7044  0.6766
 6434SOL     OW20589   6.279   0.344   3.961 -0.0276  0.2281  0.4349
 6434SOL    HW120590   6.229   0.269   3.930  1.4211 -0.3402 -0.6436
 6434SOL    HW220591   6.288   0.330   4.055  0.5558 -1.1643  0.1897
 6435SOL     OW20592   4.840   6.126   2.136 -0.1481  0.8560 -0.4675
 6435SOL    HW120593   4.773   6.192   2.118 -0.2228  0.9503  0.1466
 6435SOL    HW220594   4.819   6.054   2.076 -1.3069  0.5340  0.2815
 6436SOL     OW20595   2.664   7.883   0.154 -0.5682  0.2950 -0.4140
 6436SOL    HW120596   2.713   7.898   0.235  2.6774 -1.5174 -1.8624
 6436SOL    HW220597   2.662   7.969   0.111 -0.3620  0.7964  0.5484
 6437SOL     OW20598   2.544   4.873   1.001  0.3109 -0.0540  0.2307
 6437SOL    HW120599   2.453   4.847   0.985  0.1637  0.7153 -0.2364
 6437SOL    HW220600   2.555   4.866   1.096 -0.3627  0.2358  0.3331
 6438SOL     OW20601   2.696   2.952   4.405 -0.2126 -0.0407 -0.1566
 6438SOL    HW120602   2.645   2.946   4.324 -1.3064 -0.3256  0.5317
 6438SOL    HW220603   2.787   2.947   4.376 -0.5959 -2.1780 -1.2367
 6439SOL     OW20604   5.063   8.703   6.923  0.0241 -0.3498 -0.1077
 6439SOL    HW120605   5.156   8.690   6.944 -0.1664  0.8768  1.8280
 6439SOL    HW220606   5.062   8.782   6.868  0.0586  0.7290  1.3647
 6440SOL     OW20607   1.168   3.711   1.722 -0.2073  0.6217 -0.1586
 6440SOL    HW120608   1.170   3.629   1.674 -0.9119 -0.3096  1.3379
 6440SOL    HW220609   1.213   3.691   1.805 -1.9309  1.2217  0.9690
 6441SOL     OW20610   7.995   5.400   6.233  0.3691  0.1549  0.6088
 6441SOL    HW120611   8.027   5.326   6.284 -1.5753 -0.7215  0.6515
 6441SOL    HW220612   7.908   5.373   6.204  0.5488  1.4868 -1.3775
 6442SOL     OW20613   8.197   6.900   1.643  0.5176 -0.0182  0.1834
 6442SOL    HW120614   8.233   6.890   1.554  0.0445 -0.3694  0.0327
 6442SOL    HW220615   8.143   6.823   1.656 -0.7924  0.8666  0.1214
 6443SOL     OW20616   4.966   3.228   7.665  0.3537  0.3462  0.3310
 6443SOL    HW120617   4.995   3.154   7.719 -1.2439 -0.6874 -0.1829
 6443SOL    HW220618   4.984   3.305   7.719  1.1304 -0.4771  1.2818
 6444SOL     OW20619   3.544   3.655   4.949 -0.1353 -0.0499  0.0309
 6444SOL    HW120620   3.513   3.731   4.899 -1.1950  0.1136  0.8978
 6444SOL    HW220621   3.466   3.621   4.991  0.5065 -1.0327  0.4520
 6445SOL     OW20622   1.154   0.870   4.510  0.1003 -0.1006  0.2165
 6445SOL    HW120623   1.107   0.790   4.487  2.6785 -1.7727  0.3763
 6445SOL    HW220624   1.134   0.884   4.602 -1.8379  0.5524 -0.2683
 6446SOL     OW20625   1.651   6.212   4.576  0.2518 -0.0663  0.2611
 6446SOL    HW120626   1.678   6.281   4.515 -0.5942 -0.1211 -0.1836
 6446SOL    HW220627   1.613   6.144   4.519  2.9693 -1.8866  0.4184
 6447SOL     OW20628   1.194   7.544   8.146  0.0538  0.0342 -0.3506
 6447SOL    HW120629   1.281   7.505   8.154  0.4738  0.8418 -0.9277
 6447SOL    HW220630   1.142   7.477   8.101 -0.1446 -1.2114  1.6018
 6448SOL     OW20631   6.658   7.837   5.888 -0.4634  0.9923  0.9278
 6448SOL    HW120632   6.725   7.840   5.820 -1.4755  2.2825 -0.0693
 6448SOL    HW220633   6.707   7.847   5.970  0.8175 -0.9828  0.4800
 6449SOL     OW20634   6.925   8.242   6.614  0.4380  0.2049 -0.2061
 6449SOL    HW120635   6.913   8.187   6.692  1.7271 -0.2060 -0.2877
 6449SOL    HW220636   6.836   8.261   6.585 -0.0513 -1.8756 -0.2090
 6450SOL     OW20637   8.188   7.492   0.571 -0.8122  0.1177  0.0108
 6450SOL    HW120638   8.138   7.522   0.646 -0.3555 -1.6113  1.0652
 6450SOL    HW220639   8.123   7.446   0.517 -0.7735 -0.2992  0.3166
 6451SOL     OW20640   7.098   7.147   1.837  0.5663 -0.7320 -0.0049
 6451SOL    HW120641   7.019   7.148   1.891  0.5555 -0.5399 -0.0234
 6451SOL    HW220642   7.096   7.229   1.789 -0.4151 -1.7291 -1.7707
 6452SOL     OW20643   5.145   6.783   0.589 -0.1183  0.4126 -0.1829
 6452SOL    HW120644   5.105   6.708   0.545 -0.6623  0.3222  0.4595
 6452SOL    HW220645   5.100   6.859   0.552 -0.3169  0.3596 -0.0480
 6453SOL     OW20646   0.218   0.810   5.342  1.0659  0.0759 -0.4294
 6453SOL    HW120647   0.234   0.839   5.252 -1.3846  1.6153 -0.4444
 6453SOL    HW220648   0.177   0.724   5.332  1.5909 -0.1486 -0.7170
 6454SOL     OW20649   2.101   8.400   1.422  0.7383  0.5707  0.2389
 6454SOL    HW120650   2.172   8.365   1.477 -0.4794 -0.2182  1.3695
 6454SOL    HW220651   2.060   8.468   1.476  0.5075  0.8818 -0.3228
 6455SOL     OW20652   3.558   6.674   2.655 -0.0860 -0.0160  0.5509
 6455SOL    HW120653   3.631   6.705   2.602  0.1723 -0.9278  0.3585
 6455SOL    HW220654   3.594   6.662   2.743  0.3582 -1.6895  0.1819
 6456SOL     OW20655   5.482   3.870   1.904  0.5916 -0.1740 -0.0164
 6456SOL    HW120656   5.480   3.919   1.821  0.2361 -0.6092 -0.2670
 6456SOL    HW220657   5.572   3.881   1.935  0.4749  0.8042  0.0305
 6457SOL     OW20658   8.126   1.367   0.063 -0.5141  0.1500 -0.1039
 6457SOL    HW120659   8.133   1.449   0.015 -1.0682 -0.3401 -1.0524
 6457SOL    HW220660   8.199   1.369   0.125  0.2826  0.7585 -1.0344
 6458SOL     OW20661   2.512   1.257   8.687 -0.0146 -0.0716  0.1496
 6458SOL    HW120662   2.491   1.217   8.603  0.8553 -0.3042  0.0261
 6458SOL    HW220663   2.534   1.183   8.744  0.4919  0.1525  0.2539
 6459SOL     OW20664   2.296   7.356   5.624  0.8258 -0.6024  0.1744
 6459SOL    HW120665   2.313   7.281   5.567 -1.6014 -0.5146 -0.7591
 6459SOL    HW220666   2.336   7.430   5.579 -1.0179 -0.5395 -1.4479
 6460SOL     OW20667   1.507   6.789   4.279 -0.0986 -0.4298  0.0541
 6460SOL    HW120668   1.440   6.828   4.222 -0.1900 -3.0135 -1.7824
 6460SOL    HW220669   1.461   6.769   4.360 -2.1235 -3.3377 -1.6049
 6461SOL     OW20670   6.388   8.584   6.011  0.3308 -0.0262 -0.4206
 6461SOL    HW120671   6.330   8.629   6.072  0.3866 -0.2807 -0.1753
 6461SOL    HW220672   6.469   8.569   6.061  0.3669 -0.2613 -0.5460
 6462SOL     OW20673   6.842   1.915   4.358  0.1568  0.0808  0.3911
 6462SOL    HW120674   6.908   1.938   4.293  0.5696 -0.7142  0.5249
 6462SOL    HW220675   6.817   1.825   4.336 -0.7554  0.3091  0.4482
 6463SOL     OW20676   1.759   2.007   0.836  0.5101 -0.0383  0.2957
 6463SOL    HW120677   1.665   2.024   0.836  0.7239  1.2774  0.9839
 6463SOL    HW220678   1.769   1.925   0.883 -0.2331  0.2580  0.9967
 6464SOL     OW20679   8.277   1.166   8.217  0.7292  0.8801 -0.0037
 6464SOL    HW120680   8.326   1.094   8.257 -2.0565 -2.8435 -2.5715
 6464SOL    HW220681   8.206   1.184   8.278  0.3426  0.0097 -0.1818
 6465SOL     OW20682   4.589   0.908   5.747  0.1666  0.1669 -0.0811
 6465SOL    HW120683   4.564   0.849   5.676 -0.6487  0.7944 -0.3389
 6465SOL    HW220684   4.675   0.877   5.775  0.6611  0.1094 -1.5767
 6466SOL     OW20685   7.781   1.217   4.873 -0.0790 -0.0260  0.1138
 6466SOL    HW120686   7.779   1.218   4.969  1.0974  0.2446  0.1524
 6466SOL    HW220687   7.869   1.185   4.851  0.5891  2.2755 -0.8570
 6467SOL     OW20688   7.734   6.390   1.918 -0.3459 -0.3001 -0.0821
 6467SOL    HW120689   7.643   6.415   1.937  0.0241  1.2377 -0.1904
 6467SOL    HW220690   7.747   6.415   1.827  0.3118 -0.1194  0.0566
 6468SOL     OW20691   1.469   5.151   1.592  0.4299  0.2676  0.8103
 6468SOL    HW120692   1.481   5.061   1.562  2.2624  0.3878  1.0826
 6468SOL    HW220693   1.455   5.201   1.512  2.5080  0.1671  0.3286
 6469SOL     OW20694   6.720   5.506   2.834  0.2458  0.1074  0.2471
 6469SOL    HW120695   6.748   5.473   2.920 -0.6089  0.0115  0.4967
 6469SOL    HW220696   6.783   5.468   2.772 -1.9278 -3.9334  0.2046
 6470SOL     OW20697   8.118   5.742   2.807  0.2437  0.4294  0.2681
 6470SOL    HW120698   8.039   5.713   2.852  0.3142 -0.6348 -0.2762
 6470SOL    HW220699   8.191   5.709   2.860  0.3331 -1.2819 -0.8502
 6471SOL     OW20700   0.335   1.695   4.006  0.0262  0.3644  0.1043
 6471SOL    HW120701   0.359   1.731   4.091  0.0950 -1.7725  1.0552
 6471SOL    HW220702   0.243   1.672   4.015 -0.2981  1.1988 -0.8394
 6472SOL     OW20703   2.427   3.254   8.021 -0.2234 -0.3531  0.8315
 6472SOL    HW120704   2.444   3.286   8.110 -0.4746  0.4499  0.6037
 6472SOL    HW220705   2.343   3.294   7.997  0.8724  1.2361 -0.5701
 6473SOL     OW20706   3.511   5.967   3.651  0.3752 -0.3451  0.0462
 6473SOL    HW120707   3.419   5.981   3.629  0.6069  0.2485 -0.5871
 6473SOL    HW220708   3.527   6.026   3.725  0.1495 -0.7348  0.4066
 6474SOL     OW20709   7.776   0.947   1.771  0.0768 -0.0924  0.6191
 6474SOL    HW120710   7.808   0.860   1.745  1.1390  0.4398  0.0603
 6474SOL    HW220711   7.784   0.948   1.867  0.5719 -0.4226  0.5831
 6475SOL     OW20712   3.572   2.577   8.282 -0.1745  0.0159 -0.4851
 6475SOL    HW120713   3.537   2.545   8.365 -0.6356  1.1275 -0.2311
 6475SOL    HW220714   3.666   2.564   8.289 -0.0727  1.1898  0.7223
 6476SOL     OW20715   0.930   6.092   4.105  0.5648 -0.0418  0.1549
 6476SOL    HW120716   0.872   6.024   4.071  1.3033 -0.6870  0.1392
 6476SOL    HW220717   0.965   6.055   4.186  1.1209  0.2425  0.0492
 6477SOL     OW20718   6.259   8.431   1.580  0.0677  0.3402  0.1469
 6477SOL    HW120719   6.304   8.505   1.620  3.3035 -1.6318  0.5575
 6477SOL    HW220720   6.245   8.369   1.651 -3.3418  0.7509 -0.0168
 6478SOL     OW20721   7.671   2.577   6.630 -0.2577 -0.1644 -0.1367
 6478SOL    HW120722   7.616   2.551   6.705 -1.0243 -0.6048 -0.8324
 6478SOL    HW220723   7.760   2.554   6.657 -0.6203 -1.1119  0.3166
 6479SOL     OW20724   8.320   0.951   1.937 -0.5081 -0.4125  0.1170
 6479SOL    HW120725   8.289   1.020   1.879  0.8035  0.5236  0.5024
 6479SOL    HW220726   8.278   0.871   1.904 -1.0963  0.3695 -1.0657
 6480SOL     OW20727   6.998   1.693   2.221 -0.4373 -0.3875 -0.3167
 6480SOL    HW120728   7.050   1.678   2.300  0.3017  1.1655 -0.4696
 6480SOL    HW220729   7.016   1.617   2.165  3.1963  0.8900 -1.1481
 6481SOL     OW20730   2.344   4.809   4.926 -0.0390  0.6620 -0.4126
 6481SOL    HW120731   2.272   4.765   4.970  0.0051 -0.2967 -1.2407
 6481SOL    HW220732   2.325   4.799   4.832  1.0385  0.6052 -0.6464
 6482SOL     OW20733   5.952   7.860   5.690  0.3151 -0.1296  0.2188
 6482SOL    HW120734   5.883   7.920   5.661  0.9150  0.7810  0.6174
 6482SOL    HW220735   6.033   7.900   5.659  0.7232 -0.8081  0.3848
 6483SOL     OW20736   8.161   1.746   2.446  0.2889  0.1661  0.4745
 6483SOL    HW120737   8.247   1.755   2.405  0.2670 -2.8027 -0.4415
 6483SOL    HW220738   8.179   1.701   2.529 -0.2326  1.1708  1.1502
 6484SOL     OW20739   3.564   5.344   6.404 -0.4577 -0.0564  0.6094
 6484SOL    HW120740   3.500   5.319   6.337  1.2074 -0.0177 -1.0709
 6484SOL    HW220741   3.566   5.270   6.464 -2.4752  0.1913  1.0581
 6485SOL     OW20742   7.059   0.374   3.098  0.2015  0.1362 -0.4192
 6485SOL    HW120743   7.061   0.370   3.194  2.7872  2.9086 -0.2165
 6485SOL    HW220744   6.994   0.441   3.079 -0.9937 -1.0545 -0.7539
 6486SOL     OW20745   7.679   0.741   4.766  0.4574  0.1222 -0.0476
 6486SOL    HW120746   7.657   0.671   4.829 -2.8849  0.6778 -0.4308
 6486SOL    HW220747   7.657   0.822   4.812 -0.2696  0.6266 -1.2431
 6487SOL     OW20748   6.690   5.241   1.672  0.1909 -0.1754  0.4920
 6487SOL    HW120749   6.696   5.321   1.620  0.4121 -2.2271 -2.9753
 6487SOL    HW220750   6.781   5.219   1.693  0.1320  0.4184  1.4171
 6488SOL     OW20751   0.463   0.117   4.148 -0.2112 -0.0220  0.1514
 6488SOL    HW120752   0.416   0.044   4.189 -1.0604 -0.8188 -2.0672
 6488SOL    HW220753   0.556   0.094   4.159 -0.4369 -0.7927  0.5826
 6489SOL     OW20754   8.605   6.015   2.254 -0.7855  0.2843 -0.2812
 6489SOL    HW120755   8.590   5.997   2.161  1.3226 -0.6796 -0.4953
 6489SOL    HW220756   8.638   6.104   2.256  2.7273 -0.8500 -0.9913
 6490SOL     OW20757   8.491   1.471   6.916  0.5864 -0.1388  0.4486
 6490SOL    HW120758   8.468   1.557   6.950 -1.1224  0.2259 -1.4081
 6490SOL    HW220759   8.473   1.411   6.989 -1.9218  0.7011  0.6098
 6491SOL     OW20760   7.365   8.374   0.470 -0.6997  0.4382 -0.3416
 6491SOL    HW120761   7.394   8.461   0.499  1.2539  0.2764 -1.6112
 6491SOL    HW220762   7.315   8.340   0.544 -0.6505  2.2264  0.5896
 6492SOL     OW20763   2.854   5.266   1.609  0.1873 -0.2670 -0.8480
 6492SOL    HW120764   2.788   5.232   1.550  0.6436 -0.2874 -1.3514
 6492SOL    HW220765   2.924   5.298   1.552  0.5574 -0.1289 -0.3287
 6493SOL     OW20766   3.886   0.754   2.466  1.0963 -0.1654  0.1019
 6493SOL    HW120767   3.797   0.790   2.470  1.2164  0.0860  0.5261
 6493SOL    HW220768   3.939   0.824   2.430  1.1467 -0.2762 -0.0410
 6494SOL     OW20769   1.851   4.155   8.206  0.7323  0.3961 -0.0450
 6494SOL    HW120770   1.844   4.078   8.150  2.9573  0.4975 -0.5480
 6494SOL    HW220771   1.841   4.229   8.147 -1.3325  0.5450  0.4276
 6495SOL     OW20772   8.496   0.449   0.228  0.7523  0.0877  0.2729
 6495SOL    HW120773   8.452   0.502   0.295  0.7582  2.2375 -1.3331
 6495SOL    HW220774   8.585   0.437   0.262  0.1955 -0.6553  1.5651
 6496SOL     OW20775   8.304   6.580   1.409 -0.3361 -0.0284  0.4040
 6496SOL    HW120776   8.395   6.597   1.386 -0.2558 -0.0117  0.7270
 6496SOL    HW220777   8.306   6.496   1.455 -0.2577  0.6940  1.7949
 6497SOL     OW20778   7.306   4.821   4.353  0.0203  0.2466 -0.4856
 6497SOL    HW120779   7.220   4.838   4.393 -0.2705 -1.8245 -0.1183
 6497SOL    HW220780   7.285   4.794   4.264  0.1358 -1.7946  0.0748
 6498SOL     OW20781   3.985   0.830   4.584 -0.0225  0.2099  0.6296
 6498SOL    HW120782   3.967   0.923   4.593 -1.8417 -0.1228  0.8289
 6498SOL    HW220783   3.921   0.799   4.519  2.7254 -0.3310 -2.0589
 6499SOL     OW20784   5.373   3.472   3.963  0.3805  0.3375  0.3671
 6499SOL    HW120785   5.329   3.526   3.896 -0.5899  0.3073  0.9567
 6499SOL    HW220786   5.380   3.530   4.039 -1.6599 -0.6219  1.3820
 6500SOL     OW20787   4.208   5.879   0.845 -0.0721 -0.2304  0.5279
 6500SOL    HW120788   4.210   5.788   0.874  0.9768 -0.0457  1.0924
 6500SOL    HW220789   4.118   5.907   0.858 -0.3319 -1.1016  0.6296
 6501SOL     OW20790   7.267   0.633   3.998  0.5952  0.0795  0.4461
 6501SOL    HW120791   7.343   0.646   4.054  0.9534 -0.2137  0.0398
 6501SOL    HW220792   7.209   0.706   4.018  0.8691  0.1588  0.9507
 6502SOL     OW20793   2.719   7.701   6.633 -0.7972 -0.1298  0.2071
 6502SOL    HW120794   2.694   7.684   6.543 -1.6609  0.8873  0.2318
 6502SOL    HW220795   2.647   7.664   6.685 -0.4888 -0.3734  0.4682
 6503SOL     OW20796   2.330   7.898   5.865 -0.2385  0.5548  0.1763
 6503SOL    HW120797   2.283   7.975   5.895 -3.9779 -1.3572 -0.1712
 6503SOL    HW220798   2.355   7.918   5.774  0.6285  1.9909  0.6973
 6504SOL     OW20799   2.857   8.598   7.329 -0.3539  0.1913  0.4265
 6504SOL    HW120800   2.844   8.643   7.246  1.1077 -1.4350 -0.7818
 6504SOL    HW220801   2.878   8.667   7.392 -0.3737  1.3594 -0.8159
 6505SOL     OW20802   2.669   6.993   3.229 -0.5264 -0.1722  0.7512
 6505SOL    HW120803   2.759   7.005   3.199 -0.1128 -2.3724  0.9718
 6505SOL    HW220804   2.677   6.938   3.307 -2.0379 -0.0177  1.0480
 6506SOL     OW20805   7.243   1.363   7.961  0.1287  0.2046 -0.0641
 6506SOL    HW120806   7.203   1.406   8.036 -0.3941 -1.9909  1.0044
 6506SOL    HW220807   7.337   1.377   7.972  0.1794 -1.3593  1.8959
 6507SOL     OW20808   2.100   6.618   1.688 -0.4691  0.4864  0.2224
 6507SOL    HW120809   2.011   6.602   1.659 -0.6008 -0.1318  0.9401
 6507SOL    HW220810   2.154   6.561   1.633 -0.6849 -0.4234  0.9349
 6508SOL     OW20811   5.175   7.583   4.545  0.1572  0.1091 -0.9072
 6508SOL    HW120812   5.201   7.675   4.536 -0.5519  0.3452 -0.5855
 6508SOL    HW220813   5.254   7.534   4.523  0.1690  0.7640 -2.5008
 6509SOL     OW20814   6.946   6.617   4.389 -0.0404 -0.1087  0.1236
 6509SOL    HW120815   7.028   6.576   4.362 -0.3992 -1.1171  0.5068
 6509SOL    HW220816   6.904   6.551   4.445 -0.5376  0.8747  0.9404
 6510SOL     OW20817   5.739   8.623   0.453  0.2418  0.1280  0.6053
 6510SOL    HW120818   5.762   8.551   0.394  1.3490 -0.5551  1.8215
 6510SOL    HW220819   5.643   8.623   0.453  0.2165 -0.6122 -0.2792
 6511SOL     OW20820   0.331   5.168   4.639  0.2291 -0.4336 -0.2875
 6511SOL    HW120821   0.360   5.080   4.613 -0.7152 -0.5189 -1.0946
 6511SOL    HW220822   0.405   5.225   4.616  0.8309 -1.0022  0.2034
 6512SOL     OW20823   4.733   5.196   7.025  0.4033 -0.4085 -0.0823
 6512SOL    HW120824   4.705   5.111   7.059  5.2941 -2.1159  0.4266
 6512SOL    HW220825   4.735   5.184   6.930 -2.2995  0.5374 -0.3649
 6513SOL     OW20826   7.002   6.706   2.379 -0.7122  0.7831 -0.2487
 6513SOL    HW120827   6.977   6.796   2.399 -1.3091  0.6021 -0.1681
 6513SOL    HW220828   7.095   6.702   2.398 -1.0128  0.9439  1.3554
 6514SOL     OW20829   3.397   2.539   1.529  0.4938 -0.4963 -0.2396
 6514SOL    HW120830   3.491   2.551   1.542  0.2773  0.9530  0.1502
 6514SOL    HW220831   3.383   2.562   1.437  0.6937 -2.0116 -0.6757
 6515SOL     OW20832   3.486   3.162   4.605 -0.3110  0.0746 -0.8139
 6515SOL    HW120833   3.546   3.219   4.557  1.6937 -1.5549 -0.3892
 6515SOL    HW220834   3.458   3.215   4.680  0.8787  0.8008 -0.8447
 6516SOL     OW20835   3.241   1.158   0.989 -0.2032  0.6298  0.6166
 6516SOL    HW120836   3.162   1.204   1.019 -1.1733 -1.2417  1.0943
 6516SOL    HW220837   3.311   1.194   1.043 -0.8840  1.6151  0.8840
 6517SOL     OW20838   3.153   6.404   6.098 -0.2846  0.1057  0.7532
 6517SOL    HW120839   3.127   6.333   6.156 -0.7998  1.1302  1.8174
 6517SOL    HW220840   3.221   6.451   6.146  0.3440  0.1092 -0.1113
 6518SOL     OW20841   0.049   1.105   6.548  0.1161  0.3525 -0.7328
 6518SOL    HW120842   0.101   1.036   6.507  0.2631  0.1415 -0.1948
 6518SOL    HW220843   0.100   1.132   6.624  0.5703  1.7877 -1.4996
 6519SOL     OW20844   0.986   3.379   7.775  0.9949  0.4832 -0.0842
 6519SOL    HW120845   1.035   3.300   7.796 -0.0453 -0.1967 -0.1475
 6519SOL    HW220846   0.952   3.364   7.687 -2.5883 -0.8440  1.3273
 6520SOL     OW20847   8.315   6.848   1.022  0.3351  0.8073  1.1002
 6520SOL    HW120848   8.252   6.915   0.996  0.9233  1.5091  1.4271
 6520SOL    HW220849   8.390   6.898   1.056  0.1428 -0.0237  2.8956
 6521SOL     OW20850   6.870   3.626   1.587  0.3415  0.0600  0.3296
 6521SOL    HW120851   6.893   3.533   1.593  1.4570  0.3714  1.1517
 6521SOL    HW220852   6.887   3.648   1.495 -0.3399 -0.6367  0.0201
 6522SOL     OW20853   6.583   2.417   2.499 -0.0590  0.0307 -0.4224
 6522SOL    HW120854   6.645   2.440   2.430  1.7924 -2.0199  0.4179
 6522SOL    HW220855   6.636   2.370   2.563 -2.2835 -0.6989  0.9892
 6523SOL     OW20856   1.031   1.328   7.862  0.2178  0.3809 -0.2893
 6523SOL    HW120857   1.037   1.415   7.824  0.9983  1.4196  2.0165
 6523SOL    HW220858   0.938   1.318   7.884 -0.0109  0.2781 -1.2495
 6524SOL     OW20859   4.005   4.873   1.520  0.1987 -0.1608  0.2371
 6524SOL    HW120860   3.982   4.817   1.594 -0.6401 -0.9236 -0.5849
 6524SOL    HW220861   4.064   4.820   1.467  0.4152  0.2077  0.1017
 6525SOL     OW20862   8.415   6.095   1.615  0.2631  0.1870  0.0760
 6525SOL    HW120863   8.463   6.025   1.571  0.0376  1.0993 -1.7181
 6525SOL    HW220864   8.323   6.068   1.610  0.2859  0.0317  0.4854
 6526SOL     OW20865   5.112   8.065   5.498 -0.3652  0.3299  0.5720
 6526SOL    HW120866   5.079   8.152   5.521 -1.6141  0.2209 -0.7067
 6526SOL    HW220867   5.082   8.051   5.409 -0.6358 -1.6475  0.9410
 6527SOL     OW20868   6.280   4.420   2.966 -0.0134 -0.1059  0.0753
 6527SOL    HW120869   6.306   4.490   3.025 -0.8761 -0.1706  0.5450
 6527SOL    HW220870   6.319   4.341   3.003 -0.7565 -0.1843  0.7095
 6528SOL     OW20871   8.223   6.095   2.517  0.5256 -0.0922 -0.1353
 6528SOL    HW120872   8.163   6.061   2.583  1.3351  1.1628  1.3148
 6528SOL    HW220873   8.294   6.032   2.514  0.6536  0.0174  0.4656
 6529SOL     OW20874   1.938   1.144   3.292  0.2507  0.3735  0.4458
 6529SOL    HW120875   1.941   1.162   3.386  0.5969 -2.4546  1.0924
 6529SOL    HW220876   1.940   1.230   3.250  1.2297  1.7025  2.9973
 6530SOL     OW20877   4.633   0.971   7.116 -0.1696  0.2076 -0.2042
 6530SOL    HW120878   4.605   0.935   7.032  0.5211 -0.1747 -0.2838
 6530SOL    HW220879   4.591   1.057   7.121 -0.4252  0.1246 -0.8220
 6531SOL     OW20880   7.121   3.866   5.731  0.0785 -0.5716  0.3551
 6531SOL    HW120881   7.168   3.855   5.648  1.6040  1.3514  0.8689
 6531SOL    HW220882   7.076   3.950   5.722  0.2074 -0.3711  1.4328
 6532SOL     OW20883   7.000   3.828   2.867  0.1846 -0.1520  0.3834
 6532SOL    HW120884   6.960   3.904   2.826 -0.3505 -1.0208 -0.7818
 6532SOL    HW220885   7.094   3.840   2.855  0.1576  0.7332  0.9956
 6533SOL     OW20886   3.954   2.720   2.979  0.1804 -0.5103 -0.0106
 6533SOL    HW120887   3.926   2.657   2.913 -0.8269 -1.8347  1.5859
 6533SOL    HW220888   4.005   2.668   3.041  3.3004  1.1622 -0.9462
 6534SOL     OW20889   6.298   6.938   0.902 -0.0058 -0.0712  0.4035
 6534SOL    HW120890   6.266   6.959   0.815 -1.5309 -0.7594  0.7602
 6534SOL    HW220891   6.390   6.912   0.889 -0.3150 -0.5089 -1.0454
 6535SOL     OW20892   5.769   3.948   7.320 -0.2062 -0.1859 -0.5342
 6535SOL    HW120893   5.726   4.034   7.325  1.9213  0.8986  0.4708
 6535SOL    HW220894   5.759   3.911   7.408 -0.0432 -0.4141 -0.6104
 6536SOL     OW20895   6.970   2.100   2.469 -0.2958  0.0602 -0.0713
 6536SOL    HW120896   7.032   2.172   2.457  0.0116  0.4338  3.0353
 6536SOL    HW220897   6.903   2.135   2.527 -1.1262 -1.6107  0.0357
 6537SOL     OW20898   0.076   0.556   1.176 -0.4777 -0.0591 -0.1210
 6537SOL    HW120899   0.125   0.618   1.123  0.5316 -0.7851 -0.0583
 6537SOL    HW220900   0.013   0.610   1.225  0.8143  0.9865  0.4350
 6538SOL     OW20901   0.764   8.620   5.982  0.7850 -0.2359 -0.2574
 6538SOL    HW120902   0.731   8.599   5.895 -2.4160 -0.5042  0.8989
 6538SOL    HW220903   0.732   8.709   5.999 -1.2574 -1.2504  1.6975
 6539SOL     OW20904   8.322   1.861   6.073 -0.2975 -0.1377  0.0777
 6539SOL    HW120905   8.391   1.897   6.128  1.9098 -1.1715 -1.8660
 6539SOL    HW220906   8.258   1.932   6.065  0.8473  1.0998  1.3901
 6540SOL     OW20907   2.131   4.307   2.482 -0.3725 -0.1848 -0.5442
 6540SOL    HW120908   2.069   4.379   2.479  0.4455  0.5813  0.1638
 6540SOL    HW220909   2.196   4.334   2.547  1.6512 -0.1499 -2.4625
 6541SOL     OW20910   5.331   6.490   2.580  0.3632  0.0578  0.3731
 6541SOL    HW120911   5.317   6.570   2.530  0.7082  0.3052  0.6678
 6541SOL    HW220912   5.328   6.519   2.672 -1.2841 -0.5383  0.5441
 6542SOL     OW20913   6.074   8.353   3.588 -0.8470  0.3137  0.0177
 6542SOL    HW120914   6.017   8.362   3.512  0.0023 -0.3820 -0.7280
 6542SOL    HW220915   6.118   8.269   3.574 -1.5780 -0.4308  1.9048
 6543SOL     OW20916   7.241   6.086   1.308 -0.1435 -0.3234  1.1401
 6543SOL    HW120917   7.288   6.096   1.225 -1.8735 -0.6402  0.0814
 6543SOL    HW220918   7.167   6.146   1.302 -1.3779 -1.7216  1.6157
 6544SOL     OW20919   3.417   1.473   0.088 -0.1166 -0.1068  0.3348
 6544SOL    HW120920   3.479   1.448   0.020  0.4446  2.6424 -0.2724
 6544SOL    HW220921   3.331   1.466   0.046  0.0772 -0.1948 -0.0494
 6545SOL     OW20922   7.612   4.762   2.251 -0.3503 -0.2331 -0.0599
 6545SOL    HW120923   7.668   4.769   2.329 -1.5882  0.6499  0.8016
 6545SOL    HW220924   7.544   4.828   2.266 -1.6660 -1.3414 -1.0201
 6546SOL     OW20925   2.783   0.542   3.403  0.2104  0.3410  0.5729
 6546SOL    HW120926   2.716   0.597   3.442 -0.9118 -1.1074  0.7613
 6546SOL    HW220927   2.744   0.455   3.398  2.4073 -0.8139  1.6640
 6547SOL     OW20928   0.402   8.061   0.367  0.1729  0.4622 -0.2305
 6547SOL    HW120929   0.356   8.123   0.310  0.1082  1.3535  0.7644
 6547SOL    HW220930   0.336   7.996   0.389  0.1654  0.1691 -1.0650
 6548SOL     OW20931   3.443   1.318   7.425  0.4038 -0.1546 -0.1775
 6548SOL    HW120932   3.513   1.326   7.360 -0.2265 -0.8563 -0.9694
 6548SOL    HW220933   3.391   1.398   7.414 -1.4386 -1.5527 -2.6997
 6549SOL     OW20934   1.109   8.334   7.367  0.1537 -0.1862  0.0600
 6549SOL    HW120935   1.170   8.312   7.297 -0.1247 -0.0776 -0.2187
 6549SOL    HW220936   1.159   8.320   7.448  0.3219 -0.7850 -0.1464
 6550SOL     OW20937   6.273   2.925   3.071 -0.9810 -0.3642 -0.1559
 6550SOL    HW120938   6.283   3.003   3.016  0.9447 -0.3641  0.1231
 6550SOL    HW220939   6.178   2.915   3.081 -1.4647 -0.3036 -3.3764
 6551SOL     OW20940   5.173   7.895   0.189 -0.2320 -0.1019 -0.5388
 6551SOL    HW120941   5.113   7.834   0.146  0.1641 -0.2291 -0.9202
 6551SOL    HW220942   5.119   7.973   0.207 -1.6052 -1.6301  2.7535
 6552SOL     OW20943   6.220   0.402   1.492 -0.3263  0.3284  0.0568
 6552SOL    HW120944   6.277   0.386   1.567 -0.1792  0.5992  0.0048
 6552SOL    HW220945   6.137   0.431   1.531  0.2076  1.9171  0.0982
 6553SOL     OW20946   2.123   7.577   6.958 -0.5730  0.0986  0.1888
 6553SOL    HW120947   2.067   7.503   6.935  0.5318 -0.7828  0.2387
 6553SOL    HW220948   2.169   7.598   6.877  0.0116 -0.0764  0.4705
 6554SOL     OW20949   4.505   1.405   8.082  0.2562  0.3360  0.0498
 6554SOL    HW120950   4.497   1.315   8.115  0.4264  0.3634  0.1651
 6554SOL    HW220951   4.415   1.432   8.066  0.0934  0.6150  1.2874
 6555SOL     OW20952   1.443   4.618   1.015 -0.4191  0.3059 -0.0394
 6555SOL    HW120953   1.537   4.626   1.002 -0.4664  0.7715 -0.1356
 6555SOL    HW220954   1.407   4.605   0.927 -0.4135 -0.2337  0.0369
 6556SOL     OW20955   1.886   6.241   6.155  0.1636 -0.1810 -0.1393
 6556SOL    HW120956   1.874   6.210   6.066 -2.0862 -0.4168  0.1955
 6556SOL    HW220957   1.846   6.173   6.210 -0.5097  1.0152  0.8975
 6557SOL     OW20958   5.904   4.278   1.424  0.7414 -0.1315 -0.3972
 6557SOL    HW120959   5.834   4.341   1.438  3.2813  2.2706  3.2839
 6557SOL    HW220960   5.862   4.193   1.434 -1.8228  1.1374  0.4590
 6558SOL     OW20961   8.015   4.156   5.530  0.1653 -0.3268 -0.1718
 6558SOL    HW120962   8.110   4.161   5.533  0.1639 -0.6948  2.2470
 6558SOL    HW220963   7.986   4.246   5.545  0.1251 -0.2980 -0.4166
 6559SOL     OW20964   0.749   7.958   6.653 -0.5325 -0.0517 -0.7136
 6559SOL    HW120965   0.664   7.944   6.611 -0.1245  2.1538 -2.4618
 6559SOL    HW220966   0.813   7.933   6.587  0.1569  1.0589 -0.4873
 6560SOL     OW20967   3.952   8.021   0.653  0.3800  0.1891 -0.0225
 6560SOL    HW120968   3.944   7.962   0.578 -1.6153  1.2004 -0.7068
 6560SOL    HW220969   3.869   8.070   0.652  0.5375  0.6140  2.5256
 6561SOL     OW20970   3.049   7.835   3.823  0.3885  0.3216  0.0917
 6561SOL    HW120971   3.076   7.919   3.861  0.9085  1.0214 -1.7463
 6561SOL    HW220972   3.112   7.772   3.859  0.5233  0.8603  0.8233
 6562SOL     OW20973   3.212   0.886   8.672 -0.3822 -0.1293 -0.0382
 6562SOL    HW120974   3.293   0.919   8.710 -0.5591 -0.7964  0.9270
 6562SOL    HW220975   3.200   0.799   8.710 -1.6570  0.0376 -0.0165
 6563SOL     OW20976   3.018   0.947   5.212  0.5360  0.2528 -0.4905
 6563SOL    HW120977   2.966   0.867   5.212 -0.7549  1.0697 -1.2761
 6563SOL    HW220978   2.999   0.989   5.129 -0.5006  2.4535  0.7731
 6564SOL     OW20979   0.995   1.450   5.599 -0.0386 -0.1254 -0.0268
 6564SOL    HW120980   1.047   1.407   5.532  0.3315  0.7355 -0.2962
 6564SOL    HW220981   1.059   1.495   5.654 -0.3249 -0.8849  0.9701
 6565SOL     OW20982   4.974   1.355   1.372 -0.0392  0.2286 -0.1917
 6565SOL    HW120983   4.914   1.367   1.298 -0.5073  1.6876  0.3831
 6565SOL    HW220984   4.927   1.297   1.432 -0.1306 -0.0594 -0.5388
 6566SOL     OW20985   6.331   1.768   6.867 -0.1396  0.2860  0.3501
 6566SOL    HW120986   6.299   1.838   6.810 -0.3968  0.7514  1.0582
 6566SOL    HW220987   6.259   1.751   6.928  0.8005  1.0849  1.7223
 6567SOL     OW20988   0.731   3.273   2.410 -0.1266  0.3616 -0.0587
 6567SOL    HW120989   0.703   3.215   2.339 -1.0637  2.0494 -1.1444
 6567SOL    HW220990   0.811   3.233   2.443 -0.8488 -1.6571 -0.5817
 6568SOL     OW20991   8.640   6.102   8.020  0.5560  0.1431 -0.0468
 6568SOL    HW120992   8.683   6.187   8.027 -1.0203  0.8688  1.3982
 6568SOL    HW220993   8.709   6.039   8.040  1.1017  1.2515  1.7431
 6569SOL     OW20994   0.407   3.732   5.183  0.1450 -0.2571  0.5433
 6569SOL    HW120995   0.471   3.662   5.169  0.5522  0.3444 -0.8402
 6569SOL    HW220996   0.323   3.691   5.165  0.4209 -0.3097 -0.7590
 6570SOL     OW20997   0.473   4.197   5.111  0.3803  0.1469  0.2307
 6570SOL    HW120998   0.402   4.234   5.163  1.1418 -0.3373  1.6533
 6570SOL    HW220999   0.457   4.103   5.112  0.0717  0.1653 -0.9472
 6571SOL     OW21000   0.160   0.591   3.745 -0.1462  0.0863  1.1815
 6571SOL    HW121001   0.231   0.629   3.797  1.0291  0.8609 -0.8661
 6571SOL    HW221002   0.174   0.497   3.751  1.7851  0.2382 -0.0536
 6572SOL     OW21003   2.634   4.666   4.059 -0.5565  0.0266  0.1747
 6572SOL    HW121004   2.615   4.576   4.035 -0.6342 -0.0893  0.6539
 6572SOL    HW221005   2.723   4.681   4.029 -1.6114  0.8511 -2.8765
 6573SOL     OW21006   5.354   1.120   5.449  0.4617 -0.2505  0.2448
 6573SOL    HW121007   5.303   1.118   5.530  0.5901  0.5018  0.3554
 6573SOL    HW221008   5.401   1.037   5.447  3.0940  1.0146  2.6573
 6574SOL     OW21009   0.810   7.554   1.242  0.5023 -0.1004  0.1230
 6574SOL    HW121010   0.728   7.591   1.275  1.3700  1.4294  0.7204
 6574SOL    HW221011   0.876   7.587   1.303  1.9570  1.3640 -2.0771
 6575SOL     OW21012   3.063   6.487   2.407 -0.3881  0.1669  0.0936
 6575SOL    HW121013   3.052   6.579   2.382  0.8340 -0.1548 -1.8052
 6575SOL    HW221014   3.152   6.466   2.382 -0.5589 -1.4950  0.7513
 6576SOL     OW21015   0.039   4.376   4.086  0.2861  0.1582 -0.6468
 6576SOL    HW121016   0.093   4.454   4.098  0.2790  0.2553 -1.2138
 6576SOL    HW221017   0.039   4.360   3.992 -1.5486  0.8060 -0.8069
 6577SOL     OW21018   7.302   8.396   8.572 -0.0066  0.1141 -0.3315
 6577SOL    HW121019   7.316   8.388   8.477  0.5451 -0.3836 -0.2147
 6577SOL    HW221020   7.280   8.488   8.585  2.9391  0.9523 -0.5831
 6578SOL     OW21021   2.268   2.165   8.125 -0.4733  0.1685 -0.3054
 6578SOL    HW121022   2.231   2.134   8.208  0.6057  0.6266  0.3637
 6578SOL    HW221023   2.232   2.105   8.060 -1.8649  0.1891  0.3822
 6579SOL     OW21024   2.447   4.570   0.829 -0.3527 -0.0057  0.4954
 6579SOL    HW121025   2.391   4.632   0.875 -1.3341 -0.0651 -0.5745
 6579SOL    HW221026   2.429   4.587   0.736  1.0777 -0.3353  0.1407
 6580SOL     OW21027   6.586   6.385   5.069  0.0139 -0.0453 -0.2760
 6580SOL    HW121028   6.675   6.364   5.042 -0.5615 -2.2441 -0.6631
 6580SOL    HW221029   6.574   6.339   5.152 -1.2496 -1.1476 -1.0279
 6581SOL     OW21030   8.313   7.455   5.293 -0.1594  0.1451 -0.6269
 6581SOL    HW121031   8.390   7.477   5.240 -0.5625  0.4127 -1.0993
 6581SOL    HW221032   8.238   7.482   5.241 -0.6140 -0.8432 -0.5121
 6582SOL     OW21033   0.733   5.497   7.050  0.2256 -0.2250  0.3051
 6582SOL    HW121034   0.782   5.418   7.026  1.4813  0.1395  1.5475
 6582SOL    HW221035   0.645   5.465   7.071 -0.2516 -0.8527 -2.2780
 6583SOL     OW21036   7.345   1.268   1.435 -0.0643  0.1326 -0.4777
 6583SOL    HW121037   7.437   1.282   1.458  0.3135  2.2497 -2.8638
 6583SOL    HW221038   7.296   1.325   1.494  0.2861  0.2375 -0.2882
 6584SOL     OW21039   1.020   2.703   7.358  0.0305  0.5257  0.5957
 6584SOL    HW121040   0.983   2.615   7.348 -0.4924  0.7632  0.4080
 6584SOL    HW221041   1.112   2.693   7.333  0.0007  0.0130  0.6700
 6585SOL     OW21042   4.617   7.948   6.510 -0.1860  0.0715 -0.0457
 6585SOL    HW121043   4.603   8.041   6.529 -3.8261 -0.4761  0.7071
 6585SOL    HW221044   4.610   7.942   6.415  2.1619  0.7466 -0.3236
 6586SOL     OW21045   8.348   5.056   7.809 -0.0755  0.0953  0.5715
 6586SOL    HW121046   8.271   5.089   7.761  1.4388 -2.4475 -4.3529
 6586SOL    HW221047   8.327   4.964   7.827  1.5739 -0.5715 -0.6349
 6587SOL     OW21048   0.273   8.637   7.714 -0.7660 -0.6577  0.6340
 6587SOL    HW121049   0.240   8.555   7.752 -0.8034 -2.3730 -2.7297
 6587SOL    HW221050   0.361   8.616   7.684 -1.2926  0.0288 -1.5678
 6588SOL     OW21051   2.517   2.272   6.414 -0.0399 -0.3343  0.9286
 6588SOL    HW121052   2.449   2.317   6.465  0.8451  0.9637  1.0188
 6588SOL    HW221053   2.600   2.303   6.451  0.6148 -0.2815 -0.5119
 6589SOL     OW21054   6.250   7.189   7.424 -0.4379  0.0907  0.9555
 6589SOL    HW121055   6.207   7.262   7.380  0.5368  0.3339  0.3738
 6589SOL    HW221056   6.282   7.134   7.353  1.0273  0.4134  1.3231
 6590SOL     OW21057   8.362   3.644   3.065 -0.1212 -0.3555  0.8239
 6590SOL    HW121058   8.329   3.583   2.999  0.5801  0.4116 -0.2840
 6590SOL    HW221059   8.418   3.590   3.121 -0.5763 -0.9902  0.6759
 6591SOL     OW21060   3.348   6.063   8.367  0.2287  0.2790 -0.7257
 6591SOL    HW121061   3.321   6.120   8.440  1.5095  0.6392 -0.5054
 6591SOL    HW221062   3.284   5.992   8.367  0.5490 -0.0712  1.1762
 6592SOL     OW21063   4.169   6.474   3.089 -0.4196  0.0690 -0.4014
 6592SOL    HW121064   4.147   6.413   3.160  2.7855  1.8025  2.3568
 6592SOL    HW221065   4.231   6.426   3.035  0.2201  0.0230  0.3496
 6593SOL     OW21066   3.098   4.592   0.325  0.0358 -0.0023  0.4307
 6593SOL    HW121067   3.122   4.543   0.246  1.2283 -2.4396  2.1638
 6593SOL    HW221068   3.023   4.545   0.361  0.7535 -0.1773  1.7644
 6594SOL     OW21069   0.672   3.702   6.282 -0.1220 -0.1345  0.0288
 6594SOL    HW121070   0.749   3.746   6.318  1.5292 -3.0810  0.5037
 6594SOL    HW221071   0.653   3.632   6.345 -1.7348 -0.9465 -1.2622
 6595SOL     OW21072   3.596   1.430   8.575 -0.0082 -0.3310  0.0831
 6595SOL    HW121073   3.516   1.385   8.547 -1.2331  0.8091  1.5482
 6595SOL    HW221074   3.657   1.418   8.502 -0.6332 -3.3246 -0.0740
 6596SOL     OW21075   0.234   5.804   1.179  0.9537 -0.2684  0.2745
 6596SOL    HW121076   0.262   5.768   1.095  2.6736  2.0127 -0.2071
 6596SOL    HW221077   0.225   5.727   1.235  1.0562 -1.7349 -1.6121
 6597SOL     OW21078   1.370   5.449   1.846  0.5195  0.0271 -0.9626
 6597SOL    HW121079   1.298   5.471   1.904  0.2391 -0.5772 -1.0733
 6597SOL    HW221080   1.349   5.362   1.813  0.9403  0.1409 -1.5576
 6598SOL     OW21081   3.804   7.992   2.717  0.5876  0.3973 -0.0669
 6598SOL    HW121082   3.796   7.899   2.739  0.3360  0.8352  1.8103
 6598SOL    HW221083   3.781   8.039   2.797 -0.0382  2.1154 -1.1893
 6599SOL     OW21084   0.659   0.983   8.676  0.1202  0.2312  0.0208
 6599SOL    HW121085   0.662   1.079   8.676 -0.5089  0.2536  0.3732
 6599SOL    HW221086   0.565   0.962   8.673  0.2597 -0.3716 -0.1647
 6600SOL     OW21087   5.239   0.146   7.239 -0.2823  0.0960  0.5160
 6600SOL    HW121088   5.173   0.193   7.188  1.3197 -0.0545 -1.8597
 6600SOL    HW221089   5.203   0.058   7.250 -1.3808  0.6057  1.1610
 6601SOL     OW21090   0.784   3.605   5.654  0.0910 -0.0733  0.0885
 6601SOL    HW121091   0.719   3.573   5.591  0.0540  1.3370 -0.6499
 6601SOL    HW221092   0.748   3.688   5.685  0.1275 -0.7321  1.9894
 6602SOL     OW21093   4.650   8.226   6.680 -0.1515  0.1069  0.3907
 6602SOL    HW121094   4.678   8.315   6.660  0.9054  0.0177  1.3666
 6602SOL    HW221095   4.724   8.187   6.727  0.0212 -1.8040 -1.3397
 6603SOL     OW21096   0.119   3.515   5.610 -0.1545  0.2550 -0.2494
 6603SOL    HW121097   0.186   3.483   5.549 -0.4342  0.2710 -0.5701
 6603SOL    HW221098   0.037   3.480   5.575 -0.5770  1.9862 -1.0923
 6604SOL     OW21099   6.456   6.880   6.324  0.0943  0.0698  0.2285
 6604SOL    HW121100   6.491   6.813   6.382 -1.5840 -3.2216 -2.2474
 6604SOL    HW221101   6.527   6.896   6.261  0.0984 -0.2764  0.1417
 6605SOL     OW21102   0.801   2.547   6.575  0.2357  0.2191  0.8488
 6605SOL    HW121103   0.742   2.473   6.560  0.2827  0.2172  0.6659
 6605SOL    HW221104   0.757   2.599   6.642  0.2216  0.0064  1.0066
 6606SOL     OW21105   0.784   3.628   1.157 -0.3277  0.1251 -0.5175
 6606SOL    HW121106   0.734   3.664   1.230 -0.7362 -1.5509  0.0923
 6606SOL    HW221107   0.822   3.547   1.192  0.8447  0.1357 -1.6868
 6607SOL     OW21108   4.330   5.676   2.828 -0.4433  0.2379 -0.8732
 6607SOL    HW121109   4.359   5.642   2.744 -0.9211  0.2227 -1.0355
 6607SOL    HW221110   4.235   5.682   2.820 -0.5973 -0.7904  0.0500
 6608SOL     OW21111   2.993   0.606   7.971 -0.1238  0.6096  0.0347
 6608SOL    HW121112   3.079   0.633   8.003  0.9356 -0.9210 -1.3914
 6608SOL    HW221113   2.985   0.647   7.885  0.0716 -0.8406 -0.7027
 6609SOL     OW21114   3.172   5.253   5.424 -0.5736  0.3255  0.3128
 6609SOL    HW121115   3.193   5.160   5.413 -0.6435  0.2800  0.5548
 6609SOL    HW221116   3.214   5.277   5.507 -0.1385  0.6362  0.0015
 6610SOL     OW21117   4.800   7.381   0.838  0.2978 -0.1600 -0.1091
 6610SOL    HW121118   4.812   7.389   0.933  0.9788  0.6844 -0.2489
 6610SOL    HW221119   4.706   7.372   0.826  0.3134 -1.7402  0.7318
 6611SOL     OW21120   1.876   6.494   5.953  0.1312 -0.3024 -0.4747
 6611SOL    HW121121   1.838   6.462   6.034  1.8110 -1.0275  0.0593
 6611SOL    HW221122   1.898   6.586   5.972  0.4890 -0.4603 -0.1257
 6612SOL     OW21123   3.804   4.597   1.078  0.0941 -0.2009 -0.4735
 6612SOL    HW121124   3.795   4.639   1.164 -0.5356  1.4514 -1.2986
 6612SOL    HW221125   3.716   4.562   1.060  0.2923 -0.7761 -0.3544
 6613SOL     OW21126   7.174   1.736   6.910  0.3467 -0.8879  0.7241
 6613SOL    HW121127   7.163   1.755   7.003 -2.1099  0.8027  0.1781
 6613SOL    HW221128   7.122   1.658   6.894 -2.6980  1.0903  0.1382
 6614SOL     OW21129   8.239   8.661   1.170  0.1289 -0.0802 -0.2408
 6614SOL    HW121130   8.244   8.586   1.228 -0.0228  0.7921  0.9242
 6614SOL    HW221131   8.167   8.640   1.109 -0.8448 -0.2871  0.9458
 6615SOL     OW21132   6.103   4.832   3.500 -0.0128 -0.4129 -0.1451
 6615SOL    HW121133   6.053   4.909   3.473  0.3162  0.4252  1.4531
 6615SOL    HW221134   6.194   4.861   3.498  0.0133 -0.0893  2.2108
 6616SOL     OW21135   3.109   3.588   5.487  0.0388  0.6764 -0.2041
 6616SOL    HW121136   3.055   3.520   5.446  1.7836  0.2152 -1.8634
 6616SOL    HW221137   3.108   3.661   5.424 -1.3501  2.0320  1.2995
 6617SOL     OW21138   3.315   6.499   1.954 -0.1693  0.2910  0.7421
 6617SOL    HW121139   3.267   6.444   2.016 -0.6884 -0.4726 -0.3162
 6617SOL    HW221140   3.360   6.437   1.897 -1.3495  0.8944 -0.9401
 6618SOL     OW21141   0.341   3.247   7.150  0.8365  0.4325  0.5906
 6618SOL    HW121142   0.361   3.228   7.242  1.9788 -0.8973  0.0888
 6618SOL    HW221143   0.421   3.226   7.103  0.2349  1.0208 -0.7453
 6619SOL     OW21144   3.076   7.042   0.655 -0.6325 -0.4821  0.1918
 6619SOL    HW121145   3.134   7.041   0.731  0.1403 -0.2837 -0.3932
 6619SOL    HW221146   3.099   6.963   0.606  0.7213  0.7423 -1.2115
 6620SOL     OW21147   1.406   5.594   8.065  0.0239 -0.2969  0.0846
 6620SOL    HW121148   1.356   5.627   8.140 -0.2453  0.1316 -0.2741
 6620SOL    HW221149   1.345   5.534   8.020  0.6993 -1.7320  1.0385
 6621SOL     OW21150   7.644   2.605   5.875  0.4687  0.4563 -0.3160
 6621SOL    HW121151   7.555   2.625   5.847  1.1945  1.7015 -1.8619
 6621SOL    HW221152   7.680   2.690   5.904  1.2264  0.0080  0.1024
 6622SOL     OW21153   6.559   4.223   5.263  0.3104 -0.1221  0.2995
 6622SOL    HW121154   6.559   4.128   5.268  1.0601 -0.1918 -0.6650
 6622SOL    HW221155   6.550   4.242   5.169 -1.5767  0.7927  0.6234
 6623SOL     OW21156   4.968   6.783   8.700  0.0857 -0.0076 -0.3176
 6623SOL    HW121157   4.943   6.807   8.789  1.2081  2.5879 -0.5918
 6623SOL    HW221158   5.053   6.740   8.710 -0.2615 -0.6412 -0.0708
 6624SOL     OW21159   6.422   4.410   2.405 -0.0330 -0.6781 -0.1735
 6624SOL    HW121160   6.379   4.448   2.482 -0.8547  1.4078 -1.5926
 6624SOL    HW221161   6.367   4.334   2.382 -0.3728 -0.6928  0.6592
 6625SOL     OW21162   8.529   0.052   2.310 -0.0591 -0.1652  0.3070
 6625SOL    HW121163   8.590   0.024   2.378  1.0365  0.2943 -0.4587
 6625SOL    HW221164   8.447   0.006   2.330  0.2596 -0.1001  1.8696
 6626SOL     OW21165   4.731   6.770   5.659 -0.1254 -0.3746 -0.2634
 6626SOL    HW121166   4.669   6.712   5.616 -1.7208  1.2609 -0.2816
 6626SOL    HW221167   4.788   6.801   5.589 -0.9703  0.1447 -0.7286
 6627SOL     OW21168   3.468   1.540   5.151  0.0697 -0.2156  0.3804
 6627SOL    HW121169   3.497   1.450   5.163  0.3851 -0.2006 -0.1980
 6627SOL    HW221170   3.518   1.571   5.076 -2.2460 -0.5503 -1.4324
 6628SOL     OW21171   2.662   1.991   6.416  0.2334  0.4909  0.5978
 6628SOL    HW121172   2.591   2.052   6.397 -1.0356 -1.4134 -1.1912
 6628SOL    HW221173   2.741   2.034   6.383 -0.8442  0.5446 -2.1427
 6629SOL     OW21174   4.405   4.045   0.816 -0.1938  0.5389  0.0736
 6629SOL    HW121175   4.351   4.082   0.886 -2.3966 -2.2119 -0.0166
 6629SOL    HW221176   4.395   3.951   0.824  0.1104  0.0637 -3.4276
 6630SOL     OW21177   7.443   0.430   4.739 -0.1236  0.2619  0.3693
 6630SOL    HW121178   7.504   0.396   4.674 -0.9492  0.4202 -0.5039
 6630SOL    HW221179   7.478   0.400   4.823  0.3965 -0.8243 -0.2163
 6631SOL     OW21180   2.379   8.167   8.686  0.6081  0.0562 -0.1409
 6631SOL    HW121181   2.365   8.214   8.603 -2.6939  0.5594  0.5841
 6631SOL    HW221182   2.291   8.152   8.721  1.8612 -0.1504  3.2938
 6632SOL     OW21183   4.658   0.242   1.976  0.5947  0.2819  0.0169
 6632SOL    HW121184   4.614   0.310   2.027 -0.1952  1.0234 -1.5960
 6632SOL    HW221185   4.635   0.160   2.022  2.2560  1.0807  2.4838
 6633SOL     OW21186   3.469   0.514   4.030  0.1733 -0.1340 -0.3554
 6633SOL    HW121187   3.541   0.461   4.064  0.7420  1.2126  0.6668
 6633SOL    HW221188   3.486   0.520   3.936  2.7178  1.9367  0.1220
 6634SOL     OW21189   6.072   3.380   7.442 -0.5878 -0.5679  0.0615
 6634SOL    HW121190   6.109   3.468   7.449 -0.4806 -0.6533  0.5673
 6634SOL    HW221191   6.147   3.321   7.450 -0.8795 -0.7601  1.7182
 6635SOL     OW21192   6.827   8.210   6.334  0.4933  0.2112  0.0763
 6635SOL    HW121193   6.870   8.218   6.420 -0.1167 -0.7697  0.4818
 6635SOL    HW221194   6.841   8.120   6.308 -1.1442 -0.0872  0.1332
 6636SOL     OW21195   2.684   3.580   8.521 -0.5300 -0.3476 -0.4739
 6636SOL    HW121196   2.621   3.598   8.590  2.5812  0.7403  2.3585
 6636SOL    HW221197   2.716   3.666   8.493  3.0208 -0.7292  1.7304
 6637SOL     OW21198   7.712   7.594   6.716  0.8078  0.0839 -0.1018
 6637SOL    HW121199   7.620   7.572   6.725 -0.0428  2.9915 -0.6836
 6637SOL    HW221200   7.741   7.545   6.639 -0.8793  0.7385 -1.2181
 6638SOL     OW21201   8.519   3.083   1.744 -0.0164 -0.0152 -0.0458
 6638SOL    HW121202   8.506   3.142   1.818  1.3907  1.5548 -0.9879
 6638SOL    HW221203   8.614   3.085   1.729 -0.2447 -0.5088 -1.7127
 6639SOL     OW21204   1.357   6.774   3.856 -0.2629  0.0475  0.6761
 6639SOL    HW121205   1.262   6.766   3.846 -0.2698 -1.8427  1.6621
 6639SOL    HW221206   1.369   6.854   3.906 -1.0347  2.2742 -2.4317
 6640SOL     OW21207   2.054   0.453   0.120  0.4967 -0.3868  0.1173
 6640SOL    HW121208   2.015   0.520   0.064 -0.0036 -1.2205 -0.5606
 6640SOL    HW221209   2.128   0.420   0.070  2.1013  1.1297  1.3649
 6641SOL     OW21210   6.745   3.235   4.913  0.7407 -0.0490  0.5122
 6641SOL    HW121211   6.663   3.249   4.865  1.7796  0.0845 -1.3280
 6641SOL    HW221212   6.723   3.257   5.004 -1.2569 -0.0468  0.0904
 6642SOL     OW21213   3.708   1.617   7.120 -0.7321  0.3677  0.7144
 6642SOL    HW121214   3.676   1.704   7.095 -2.8523  0.2255  2.5548
 6642SOL    HW221215   3.685   1.610   7.213  2.0217 -1.0667  1.3765
 6643SOL     OW21216   2.705   1.847   7.863 -0.7358  0.4083  0.4688
 6643SOL    HW121217   2.672   1.935   7.879 -1.3787  0.1223  0.7528
 6643SOL    HW221218   2.742   1.851   7.774 -0.9150  0.9136  0.4133
 6644SOL     OW21219   0.781   7.751   6.027 -0.2819 -0.1584 -1.0012
 6644SOL    HW121220   0.768   7.720   6.116  0.7621 -1.1676 -1.1704
 6644SOL    HW221221   0.815   7.675   5.980  1.1368  0.8980 -1.7656
 6645SOL     OW21222   3.515   1.377   5.622  0.2157  0.0185  0.8220
 6645SOL    HW121223   3.573   1.304   5.597 -0.3991 -0.0633 -0.4349
 6645SOL    HW221224   3.429   1.352   5.587  0.0270  1.4122  0.2334
 6646SOL     OW21225   0.270   4.729   3.550  0.0180  0.0058 -0.2197
 6646SOL    HW121226   0.313   4.683   3.478 -1.6685 -0.9493 -0.6954
 6646SOL    HW221227   0.183   4.751   3.516  0.6756  3.5532  0.0267
 6647SOL     OW21228   0.810   4.990   7.493 -0.0218  0.2524  0.2085
 6647SOL    HW121229   0.897   5.002   7.532 -0.2130 -1.2921  1.2183
 6647SOL    HW221230   0.828   4.977   7.400  0.9083 -0.5017  0.4676
 6648SOL     OW21231   5.384   5.219   0.858  0.3014  0.5464 -0.1853
 6648SOL    HW121232   5.395   5.263   0.774 -2.1032 -1.9591 -1.9970
 6648SOL    HW221233   5.309   5.264   0.899 -2.3322 -1.6609 -2.1532
 6649SOL     OW21234   0.200   5.418   4.805 -0.1490  0.1814 -0.6724
 6649SOL    HW121235   0.129   5.369   4.844  1.6718 -1.1418  1.1728
 6649SOL    HW221236   0.265   5.427   4.875  2.0303  0.2589 -2.5789
 6650SOL     OW21237   1.781   8.640   4.153  0.6333  0.2746 -0.5864
 6650SOL    HW121238   1.750   8.583   4.083  1.1065 -0.5462 -0.1292
 6650SOL    HW221239   1.800   8.582   4.226  2.7688  0.8007 -0.6669
 6651SOL     OW21240   8.542   3.101   2.739  0.2528  0.0759  0.2856
 6651SOL    HW121241   8.536   3.006   2.755  0.4165  0.3503  2.2411
 6651SOL    HW221242   8.625   3.127   2.779  0.4423  0.9904 -0.6609
 6652SOL     OW21243   5.409   6.655   3.749  0.0876 -0.1459  0.7460
 6652SOL    HW121244   5.472   6.705   3.697 -1.2567  2.1808  1.2015
 6652SOL    HW221245   5.446   6.654   3.837 -0.3585  1.0001  0.9594
 6653SOL     OW21246   2.931   1.558   7.130 -0.3288  0.2533  0.1722
 6653SOL    HW121247   2.981   1.511   7.197  0.8305 -2.0118 -2.1139
 6653SOL    HW221248   2.988   1.630   7.104  1.0259 -1.1728 -1.0435
 6654SOL     OW21249   3.102   2.524   2.983  0.2205 -0.3088 -0.2551
 6654SOL    HW121250   3.184   2.573   2.982 -0.3509  0.6904 -1.5399
 6654SOL    HW221251   3.065   2.539   3.070  0.6489  0.5443 -0.2195
 6655SOL     OW21252   8.077   3.220   6.485  0.3135 -0.2189  0.8292
 6655SOL    HW121253   8.119   3.189   6.405  0.0339 -1.1081  1.0195
 6655SOL    HW221254   8.054   3.311   6.467 -0.7843 -0.7353 -0.5218
 6656SOL     OW21255   1.365   8.105   2.854 -0.1294  0.5012 -0.1406
 6656SOL    HW121256   1.405   8.132   2.937  0.4617 -1.6970  0.3409
 6656SOL    HW221257   1.407   8.022   2.833 -0.2453  1.0288 -2.6997
 6657SOL     OW21258   1.837   3.149   4.544 -0.1005  0.2319 -0.6635
 6657SOL    HW121259   1.916   3.121   4.589 -0.4111  0.1922 -0.1392
 6657SOL    HW221260   1.865   3.165   4.454  0.1873 -1.3026 -0.8752
 6658SOL     OW21261   8.245   5.855   4.439 -0.3300 -0.2709 -0.5448
 6658SOL    HW121262   8.181   5.840   4.369 -0.5152  0.3072 -0.5022
 6658SOL    HW221263   8.226   5.943   4.471  0.0593 -0.3500 -0.0802
 6659SOL     OW21264   1.857   1.360   5.052 -0.1624 -0.1757 -0.3216
 6659SOL    HW121265   1.835   1.360   5.145  0.0271 -1.7124 -0.2488
 6659SOL    HW221266   1.953   1.366   5.051 -0.2750  2.9590 -0.5408
 6660SOL     OW21267   7.576   0.926   4.967  0.0288  0.3839  0.2327
 6660SOL    HW121268   7.511   0.989   4.995  0.9452 -0.1582  4.2148
 6660SOL    HW221269   7.660   0.963   4.995  1.0323 -0.7405 -1.0966
 6661SOL     OW21270   3.362   1.201   8.146 -0.5257  0.8299 -0.3573
 6661SOL    HW121271   3.300   1.195   8.218  0.8406  0.0390  0.8164
 6661SOL    HW221272   3.418   1.276   8.168  0.0809  0.4110 -0.4365
 6662SOL     OW21273   4.855   3.941   3.280 -0.0428  0.1805  0.1915
 6662SOL    HW121274   4.870   3.886   3.357 -0.3027  0.5225  0.4918
 6662SOL    HW221275   4.926   3.919   3.220  0.3984  0.2078  0.6961
 6663SOL     OW21276   0.956   2.603   1.138 -0.3583  0.4776 -0.5100
 6663SOL    HW121277   0.909   2.653   1.204 -1.4468  0.4742 -1.2641
 6663SOL    HW221278   0.912   2.518   1.136 -0.5759  0.6023 -1.4876
 6664SOL     OW21279   0.783   3.585   5.276  0.4297 -0.2955  0.1992
 6664SOL    HW121280   0.718   3.551   5.215  1.7268  1.3076 -2.2494
 6664SOL    HW221281   0.833   3.509   5.304  0.4469 -0.9777 -1.6051
 6665SOL     OW21282   3.855   8.448   8.233  0.1627  0.5556 -0.2705
 6665SOL    HW121283   3.912   8.460   8.157  1.8546 -0.6385  0.7173
 6665SOL    HW221284   3.779   8.402   8.200  1.5174 -1.2517 -1.0470
 6666SOL     OW21285   3.964   4.048   7.672  0.9377  0.4163 -0.0045
 6666SOL    HW121286   3.972   4.061   7.766 -2.7791 -1.1642  0.7177
 6666SOL    HW221287   3.906   4.118   7.642  0.7654 -0.0349 -0.7739
 6667SOL     OW21288   7.095   8.070   2.776 -0.0602 -0.0448 -1.0295
 6667SOL    HW121289   7.121   8.162   2.765  0.7761  0.4900  3.2604
 6667SOL    HW221290   7.176   8.020   2.765  0.0212  0.0563 -0.9012
 6668SOL     OW21291   0.541   1.179   4.488 -0.0447  0.1954  0.0950
 6668SOL    HW121292   0.622   1.143   4.450  0.0371 -0.4600  0.8562
 6668SOL    HW221293   0.503   1.105   4.536 -1.0129  0.5511 -0.1142
 6669SOL     OW21294   7.175   7.596   2.050 -0.2058  0.1435 -0.3667
 6669SOL    HW121295   7.247   7.589   2.113 -0.2895 -0.2308 -0.3101
 6669SOL    HW221296   7.172   7.689   2.027 -0.9592  0.5173  1.1250
 6670SOL     OW21297   3.457   7.086   1.656 -0.3732  0.0720  0.0624
 6670SOL    HW121298   3.395   7.031   1.704  0.2923 -1.0236 -0.2751
 6670SOL    HW221299   3.473   7.161   1.713  0.5142 -1.2590  1.6462
 6671SOL     OW21300   3.038   7.371   4.601  0.2311 -0.6319  1.1866
 6671SOL    HW121301   2.998   7.322   4.528  1.1971 -0.2253  0.3624
 6671SOL    HW221302   3.130   7.348   4.598  0.5873  0.6906  1.2128
 6672SOL     OW21303   1.312   3.742   6.226  0.7972  0.3582  0.3271
 6672SOL    HW121304   1.249   3.783   6.166  0.5286 -1.2062 -0.5156
 6672SOL    HW221305   1.397   3.761   6.187  0.6351 -0.4634 -0.4744
 6673SOL     OW21306   0.322   2.686   3.527  0.3732 -0.0644 -0.5572
 6673SOL    HW121307   0.417   2.694   3.512  0.8584 -0.8924  1.6753
 6673SOL    HW221308   0.284   2.758   3.477  2.0693 -0.3225 -2.3564
 6674SOL     OW21309   4.693   6.974   4.542  0.4177  0.3757  0.0760
 6674SOL    HW121310   4.669   6.907   4.479 -3.2959 -0.0437  1.6619
 6674SOL    HW221311   4.689   7.056   4.493 -0.8247 -0.0775 -0.6181
 6675SOL     OW21312   0.437   6.057   7.086 -0.4228 -0.3676 -0.4007
 6675SOL    HW121313   0.416   6.049   7.179  1.7874 -1.5530  0.0457
 6675SOL    HW221314   0.356   6.093   7.047 -1.8665 -1.0952  1.7253
 6676SOL     OW21315   1.992   2.785   8.600 -0.2746  0.2212  0.2965
 6676SOL    HW121316   2.036   2.758   8.519 -1.2569 -1.0882  0.1684
 6676SOL    HW221317   1.985   2.880   8.592  0.8022  0.2466 -0.5486
 6677SOL     OW21318   1.827   3.512   3.771 -0.9500  0.8520 -0.0419
 6677SOL    HW121319   1.779   3.588   3.803 -2.3748 -0.6361  1.5502
 6677SOL    HW221320   1.813   3.513   3.676 -1.3902  2.2391  0.0171
 6678SOL     OW21321   2.836   2.208   0.760 -0.6447 -0.2930  0.0337
 6678SOL    HW121322   2.874   2.296   0.767 -1.7403  0.1053  1.1101
 6678SOL    HW221323   2.873   2.160   0.834  1.5259 -1.4055 -1.6380
 6679SOL     OW21324   2.161   5.480   7.507  0.4799  0.1338 -0.2839
 6679SOL    HW121325   2.196   5.402   7.549  0.6531  0.3859  0.0486
 6679SOL    HW221326   2.091   5.448   7.450 -0.1242 -0.1752  0.6061
 6680SOL     OW21327   8.640   0.130   1.424  0.5777  0.1226 -0.8668
 6680SOL    HW121328   8.679   0.196   1.367  0.7381 -0.1592 -1.0842
 6680SOL    HW221329   8.676   0.148   1.510  1.4885 -0.3613 -1.1295
 6681SOL     OW21330   1.387   1.628   2.230  0.2717 -0.4506  0.2458
 6681SOL    HW121331   1.310   1.648   2.282 -0.7418  2.2361 -2.0428
 6681SOL    HW221332   1.456   1.682   2.267  0.3899 -0.8992  0.6897
 6682SOL     OW21333   0.896   7.172   5.262  0.1770  0.4206  0.4330
 6682SOL    HW121334   0.892   7.177   5.166  1.6312  1.2607  0.3896
 6682SOL    HW221335   0.866   7.257   5.292 -0.5129  0.0759  0.7602
 6683SOL     OW21336   3.250   0.026   2.290  0.2335  0.3485 -0.7211
 6683SOL    HW121337   3.252  -0.059   2.334 -1.8639  0.5037 -0.2198
 6683SOL    HW221338   3.283   0.087   2.355  0.5951  0.0914 -0.6576
 6684SOL     OW21339   4.803   0.930   5.097  0.5361 -0.4563  0.0578
 6684SOL    HW121340   4.895   0.908   5.081  0.9985  0.3174  1.5193
 6684SOL    HW221341   4.800   0.954   5.190 -1.6698 -3.1831  0.8457
 6685SOL     OW21342   6.549   4.526   5.730 -0.3906  0.0269  0.2112
 6685SOL    HW121343   6.593   4.499   5.810  0.1543 -2.0571 -0.7210
 6685SOL    HW221344   6.472   4.575   5.761 -0.0610 -0.4890  1.9884
 6686SOL     OW21345   1.881   7.124   2.882 -0.1098  0.1617  0.8281
 6686SOL    HW121346   1.870   7.151   2.973 -0.5666  0.1349  0.7797
 6686SOL    HW221347   1.976   7.123   2.869 -0.0588  0.8740  1.0898
 6687SOL     OW21348   2.386   6.400   4.174  0.1743 -0.1397 -0.1747
 6687SOL    HW121349   2.368   6.312   4.142  0.8657 -0.6732  0.8541
 6687SOL    HW221350   2.478   6.398   4.201 -0.0042  0.6627  0.5638
 6688SOL     OW21351   4.117   2.773   3.990 -0.1418  0.1000  0.4057
 6688SOL    HW121352   4.150   2.860   4.011  1.4202 -0.0399 -1.2319
 6688SOL    HW221353   4.121   2.767   3.895 -1.3780 -1.3483  0.3970
 6689SOL     OW21354   2.744   4.639   3.483 -0.4498 -0.0908 -0.0548
 6689SOL    HW121355   2.818   4.661   3.426  0.9009 -1.0233  1.2597
 6689SOL    HW221356   2.671   4.625   3.423  0.3213  1.2003 -1.3790
 6690SOL     OW21357   8.066   5.233   0.657 -0.3068  0.1815  0.3684
 6690SOL    HW121358   8.144   5.198   0.700 -0.0786  0.9220  0.5621
 6690SOL    HW221359   8.099   5.282   0.583 -0.6937 -0.9734 -0.6106
 6691SOL     OW21360   7.017   7.203   7.646  0.0173  0.3360 -0.3049
 6691SOL    HW121361   6.926   7.174   7.642 -0.2626  1.2891 -1.2625
 6691SOL    HW221362   7.049   7.193   7.557  1.2926 -1.3031  0.2948
 6692SOL     OW21363   8.603   4.701   3.921  0.4407 -0.1430 -0.0213
 6692SOL    HW121364   8.617   4.791   3.951  1.0862 -0.3620  0.3442
 6692SOL    HW221365   8.532   4.668   3.976  1.1627 -0.3189  0.8258
 6693SOL     OW21366   4.997   4.593   3.594 -0.1528  0.5946 -0.2796
 6693SOL    HW121367   5.021   4.672   3.545 -1.4402  1.5264  0.5441
 6693SOL    HW221368   5.009   4.617   3.686 -1.2626  0.0787  0.0156
 6694SOL     OW21369   0.054   5.522   4.611 -0.3172 -0.3106 -0.1032
 6694SOL    HW121370   0.003   5.581   4.665  1.2942  0.0974  1.0557
 6694SOL    HW221371   0.116   5.481   4.671  0.1001 -1.4947 -1.2766
 6695SOL     OW21372   6.997   6.868   4.475  0.3865 -0.8010 -0.8072
 6695SOL    HW121373   6.988   6.791   4.419 -0.8961 -2.1147  1.0658
 6695SOL    HW221374   6.908   6.888   4.504  1.0621 -0.8352  1.5204
 6696SOL     OW21375   0.563   7.451   1.056 -0.3991  0.1022 -0.7288
 6696SOL    HW121376   0.622   7.497   0.996 -0.5698  0.3922 -0.6781
 6696SOL    HW221377   0.605   7.460   1.142  1.4172 -2.8501 -1.1500
 6697SOL     OW21378   4.523   6.840   2.979 -0.4973 -0.1116 -0.3174
 6697SOL    HW121379   4.507   6.915   3.037  2.9292 -0.2170  0.9732
 6697SOL    HW221380   4.480   6.767   3.023  1.6651 -0.1079  2.0670
 6698SOL     OW21381   4.243   4.519   2.814  0.4605 -0.1449 -0.0130
 6698SOL    HW121382   4.240   4.537   2.720  0.0904  0.3050  0.0792
 6698SOL    HW221383   4.201   4.595   2.854  1.0284 -0.1203  0.5445
 6699SOL     OW21384   5.925   0.022   0.970  0.7279 -0.2147 -0.2484
 6699SOL    HW121385   5.939  -0.051   0.910 -1.9104 -0.4861 -0.6519
 6699SOL    HW221386   5.888   0.092   0.916 -1.6923 -0.4605  0.9126
 6700SOL     OW21387   5.824   4.632   0.180 -0.4729 -0.0477  0.4905
 6700SOL    HW121388   5.739   4.606   0.143  0.0008 -0.1023 -0.6055
 6700SOL    HW221389   5.863   4.549   0.207 -0.3657 -0.1339  0.0854
 6701SOL     OW21390   4.222   3.272   1.428  0.2589 -0.4596  0.1737
 6701SOL    HW121391   4.194   3.225   1.506 -0.0565  1.6451  1.3826
 6701SOL    HW221392   4.177   3.227   1.356 -1.8521 -0.6137  1.4985
 6702SOL     OW21393   3.159   6.867   6.190  0.9409  0.3411 -0.0848
 6702SOL    HW121394   3.200   6.790   6.229  1.7189  0.3724 -0.8166
 6702SOL    HW221395   3.070   6.838   6.168  0.8381  0.0144  0.7312
 6703SOL     OW21396   5.827   2.056   6.810  0.4629 -0.2522  0.0315
 6703SOL    HW121397   5.872   2.123   6.861  1.0640 -1.3641  1.0062
 6703SOL    HW221398   5.762   2.104   6.759 -0.5084  0.8751  2.2070
 6704SOL     OW21399   7.564   4.199   7.299 -0.6030  0.1141 -0.2927
 6704SOL    HW121400   7.594   4.254   7.227  0.5542 -0.2902 -0.1266
 6704SOL    HW221401   7.518   4.260   7.358  1.2812  1.0919  0.2550
 6705SOL     OW21402   6.432   4.178   4.358 -0.2447 -0.4736 -0.0168
 6705SOL    HW121403   6.501   4.218   4.412 -0.7527  1.6298 -0.7957
 6705SOL    HW221404   6.475   4.160   4.275 -0.5932  0.9371 -0.5391
 6706SOL     OW21405   3.822   2.615   0.149  0.0356  0.1093  0.5545
 6706SOL    HW121406   3.773   2.598   0.068  0.2418 -0.3807  0.5251
 6706SOL    HW221407   3.881   2.539   0.157  0.0801  0.2016  1.1183
 6707SOL     OW21408   3.520   6.416   4.409 -0.2643 -0.7267  0.4665
 6707SOL    HW121409   3.522   6.333   4.457 -1.2635  0.0639  1.9624
 6707SOL    HW221410   3.427   6.440   4.406 -0.2473 -0.7775 -1.9966
 6708SOL     OW21411   2.984   8.368   7.382  0.2973 -0.0978 -0.8438
 6708SOL    HW121412   2.936   8.449   7.366 -0.0174  0.2953  1.6348
 6708SOL    HW221413   2.915   8.301   7.390  0.1750  0.2412  1.4712
 6709SOL     OW21414   2.320   7.379   7.426 -0.0813 -0.3021 -0.4126
 6709SOL    HW121415   2.305   7.442   7.356 -0.2988 -0.7729 -0.7993
 6709SOL    HW221416   2.246   7.392   7.485 -0.0441 -0.0924 -0.4103
 6710SOL     OW21417   3.339   0.808   0.527  0.0655 -0.2221 -0.2337
 6710SOL    HW121418   3.373   0.719   0.536  2.2838  0.4405 -1.2979
 6710SOL    HW221419   3.344   0.844   0.616  0.9824 -0.5585 -0.1358
 6711SOL     OW21420   3.175   4.437   2.239 -0.4065 -0.0404  0.1219
 6711SOL    HW121421   3.084   4.457   2.216 -0.4558 -0.2749  0.1049
 6711SOL    HW221422   3.223   4.447   2.158 -0.5208 -0.5196 -0.0081
 6712SOL     OW21423   2.213   2.005   6.533 -0.0798  0.3174 -0.1468
 6712SOL    HW121424   2.166   2.087   6.544 -1.3161 -0.4013  0.1587
 6712SOL    HW221425   2.262   2.016   6.452 -1.1355  0.9376 -0.7179
 6713SOL     OW21426   2.742   4.010   0.839  0.2943  0.4305  0.4289
 6713SOL    HW121427   2.726   3.993   0.932  0.2618 -2.9346 -0.0877
 6713SOL    HW221428   2.664   3.978   0.794  1.2491 -0.1417 -0.9075
 6714SOL     OW21429   8.090   5.387   7.425 -0.1938 -0.0170 -0.6155
 6714SOL    HW121430   8.112   5.341   7.344  0.4207 -1.1245  0.1529
 6714SOL    HW221431   8.135   5.471   7.417  1.4771 -0.8653 -0.6188
 6715SOL     OW21432   5.559   8.461   0.083  0.2442  0.5727  0.8433
 6715SOL    HW121433   5.509   8.396   0.131 -1.0141  0.7726 -0.1326
 6715SOL    HW221434   5.647   8.425   0.077 -0.1232 -0.4510  1.3925
 6716SOL     OW21435   4.875   5.385   2.197 -0.2412 -0.0435 -0.5661
 6716SOL    HW121436   4.895   5.295   2.172 -1.4047 -0.0384 -1.6054
 6716SOL    HW221437   4.781   5.394   2.182 -0.1590  1.3307 -0.4099
 6717SOL     OW21438   3.422   4.826   1.024 -0.0148  0.3686 -0.2428
 6717SOL    HW121439   3.426   4.822   0.929 -0.2765  1.1339 -0.2976
 6717SOL    HW221440   3.504   4.868   1.050 -0.6745  1.7408 -0.2691
 6718SOL     OW21441   3.779   7.743   2.802 -0.4688  0.1722  0.0503
 6718SOL    HW121442   3.819   7.724   2.887 -0.9698 -1.6299 -0.0818
 6718SOL    HW221443   3.687   7.719   2.812 -0.8494  1.2966 -0.5898
 6719SOL     OW21444   8.452   0.912   7.261 -0.3797 -0.6535  0.1482
 6719SOL    HW121445   8.399   0.878   7.189  0.4519  0.7955 -1.2236
 6719SOL    HW221446   8.418   1.000   7.276  1.6902  0.3953 -0.9164
 6720SOL     OW21447   6.817   5.497   7.680 -0.1190  0.9331 -0.0531
 6720SOL    HW121448   6.731   5.478   7.718  0.4687  1.3982  1.6093
 6720SOL    HW221449   6.797   5.537   7.595 -1.4436 -4.7228 -2.8570
 6721SOL     OW21450   1.792   7.734   2.841 -0.3092 -0.1520  0.0025
 6721SOL    HW121451   1.756   7.665   2.785  1.1362  0.3474 -1.6344
 6721SOL    HW221452   1.715   7.782   2.873 -1.2209 -1.1652 -0.6223
 6722SOL     OW21453   2.093   3.263   6.952  0.1583 -0.8603  0.1015
 6722SOL    HW121454   2.075   3.316   6.874  1.4829  2.3765  1.8179
 6722SOL    HW221455   2.099   3.174   6.918 -0.8615  0.1629 -3.2304
 6723SOL     OW21456   0.605   4.867   5.104  0.3412  0.0654 -0.0402
 6723SOL    HW121457   0.580   4.889   5.194  3.2991  1.9027  0.4632
 6723SOL    HW221458   0.640   4.778   5.110  0.9331  0.3399  0.7552
 6724SOL     OW21459   2.421   3.931   1.831  0.0506  0.0095 -0.6517
 6724SOL    HW121460   2.332   3.901   1.848 -0.6462  1.1909 -1.9553
 6724SOL    HW221461   2.464   3.857   1.789 -0.8413 -0.0733 -1.4728
 6725SOL     OW21462   2.791   6.147   2.240  0.2286  0.1870  0.4195
 6725SOL    HW121463   2.710   6.197   2.235  2.0357  3.5074  1.2666
 6725SOL    HW221464   2.822   6.141   2.150 -0.1775  0.3539  0.2669
 6726SOL     OW21465   3.786   0.726   5.369 -0.4885  0.0894  0.3397
 6726SOL    HW121466   3.690   0.727   5.373 -0.5595 -1.0035 -0.6157
 6726SOL    HW221467   3.806   0.752   5.279  0.1240  0.3360  0.5411
 6727SOL     OW21468   6.026   0.606   5.648  0.6214  0.1289 -0.0119
 6727SOL    HW121469   6.043   0.614   5.742  2.0960 -1.9080 -0.0405
 6727SOL    HW221470   5.941   0.562   5.642  0.9141 -0.5074  0.4100
 6728SOL     OW21471   5.647   3.077   2.048 -0.2031 -0.1264  0.5241
 6728SOL    HW121472   5.723   3.117   2.007  0.3713 -0.0156  1.6789
 6728SOL    HW221473   5.589   3.150   2.070  0.5489  0.0484  2.0275
 6729SOL     OW21474   8.341   8.241   4.704 -0.4099 -0.3325 -0.0197
 6729SOL    HW121475   8.284   8.209   4.634 -1.9109 -0.4214  1.1936
 6729SOL    HW221476   8.318   8.333   4.715  1.4244  0.3255 -1.1171
 6730SOL     OW21477   0.549   6.450   7.822 -0.9074  0.1695 -0.1831
 6730SOL    HW121478   0.588   6.526   7.780  0.9010 -1.2483 -1.2168
 6730SOL    HW221479   0.583   6.375   7.774 -2.5644 -1.3348  0.8318
 6731SOL     OW21480   4.475   0.736   2.847 -0.1943 -0.2441 -0.3708
 6731SOL    HW121481   4.385   0.711   2.871 -0.0458 -0.8193 -0.4040
 6731SOL    HW221482   4.529   0.697   2.916  0.0407  0.0570 -0.3822
 6732SOL     OW21483   7.007   5.214   1.269 -0.3875  0.0721 -0.2578
 6732SOL    HW121484   6.990   5.265   1.190  0.1027 -2.5338 -2.1734
 6732SOL    HW221485   6.921   5.207   1.312 -0.8237  0.8571 -0.9774
 6733SOL     OW21486   6.348   8.396   7.647 -0.3391  0.4692  0.0817
 6733SOL    HW121487   6.409   8.447   7.594  0.1925 -1.4221 -1.2485
 6733SOL    HW221488   6.301   8.461   7.698  0.2409  2.2917 -1.5543
 6734SOL     OW21489   3.328   1.465   6.273  0.1539 -0.1608 -0.0572
 6734SOL    HW121490   3.368   1.544   6.235  0.4164 -0.1901  0.1547
 6734SOL    HW221491   3.350   1.395   6.212  0.8943 -0.2760  0.3376
 6735SOL     OW21492   8.621   6.803   3.880 -0.3754 -0.3083 -0.4362
 6735SOL    HW121493   8.690   6.747   3.846 -1.1243 -1.5059 -0.0431
 6735SOL    HW221494   8.666   6.868   3.933  0.4462 -1.0071 -0.2632
 6736SOL     OW21495   7.171   4.647   2.177  0.4055  0.2963 -0.2059
 6736SOL    HW121496   7.193   4.621   2.087  0.1679 -0.8006  0.0345
 6736SOL    HW221497   7.089   4.601   2.196 -0.5546  2.0004 -0.0610
 6737SOL     OW21498   1.965   3.854   5.548  0.1389 -0.6858 -0.2157
 6737SOL    HW121499   2.011   3.789   5.602 -2.2492 -1.2916  1.2040
 6737SOL    HW221500   1.981   3.937   5.593  0.3551 -0.7904 -0.0945
 6738SOL     OW21501   0.423   8.481   2.488  0.2507 -0.3747  0.5221
 6738SOL    HW121502   0.344   8.532   2.469  1.1691 -0.0524 -3.3368
 6738SOL    HW221503   0.489   8.545   2.511  1.0012  0.2698 -2.8456
 6739SOL     OW21504   0.634   3.473   6.041 -0.1133  0.2112 -0.1252
 6739SOL    HW121505   0.547   3.498   6.072  0.2577  0.7496  0.5325
 6739SOL    HW221506   0.682   3.556   6.033 -0.0767  0.0649 -1.8635
 6740SOL     OW21507   6.871   8.404   7.231 -0.0346  0.0178 -0.8700
 6740SOL    HW121508   6.853   8.479   7.173  1.0957 -0.6803 -2.1630
 6740SOL    HW221509   6.876   8.443   7.319 -2.6511  0.9874 -1.0362
 6741SOL     OW21510   5.521   4.589   4.870  0.6456  0.3895 -0.0355
 6741SOL    HW121511   5.443   4.638   4.894  0.7674  1.9396 -2.4671
 6741SOL    HW221512   5.499   4.498   4.888 -0.3179  1.0853  2.7797
 6742SOL     OW21513   3.324   3.058   1.878  0.3611  0.3890  0.8705
 6742SOL    HW121514   3.323   3.146   1.840 -1.0507 -0.1017 -0.3095
 6742SOL    HW221515   3.331   2.999   1.803  2.2963 -0.5275  1.6984
 6743SOL     OW21516   5.206   7.813   6.359  0.2561 -0.1563  0.6388
 6743SOL    HW121517   5.274   7.874   6.329 -0.9560  0.9728  0.1096
 6743SOL    HW221518   5.222   7.804   6.453 -0.8218  2.7411  1.2062
 6744SOL     OW21519   2.303   6.164   4.069  0.2473 -0.1877  0.1824
 6744SOL    HW121520   2.266   6.102   4.132 -1.7531  0.2858 -0.4385
 6744SOL    HW221521   2.288   6.123   3.983 -0.2491  0.7233 -0.1745
 6745SOL     OW21522   4.922   4.955   2.770 -0.6219  0.3101 -0.3701
 6745SOL    HW121523   4.958   4.866   2.768 -2.6022 -0.5664  0.2997
 6745SOL    HW221524   4.879   4.965   2.685 -2.5987 -0.3918  0.5027
 6746SOL     OW21525   2.768   7.642   0.257 -0.1415  0.0421  0.2938
 6746SOL    HW121526   2.735   7.655   0.346  1.4994  0.4050  0.8802
 6746SOL    HW221527   2.717   7.703   0.204 -2.0171 -1.0645  0.7436
 6747SOL     OW21528   3.304   3.797   2.258 -0.2831  0.0578  0.2938
 6747SOL    HW121529   3.289   3.890   2.276  2.7172  0.6121  0.4013
 6747SOL    HW221530   3.306   3.756   2.344  1.0624  0.3963  0.4371
 6748SOL     OW21531   6.161   8.499   5.571  0.4435 -0.7197  0.2236
 6748SOL    HW121532   6.113   8.419   5.549  1.4988 -1.5083  0.7122
 6748SOL    HW221533   6.111   8.568   5.529 -1.1517 -1.4907  0.7588
 6749SOL     OW21534   1.645   7.928   4.529  0.3892  0.0324 -0.8898
 6749SOL    HW121535   1.606   7.978   4.601  1.0032  0.0344 -0.5483
 6749SOL    HW221536   1.626   7.980   4.451  0.7805  0.6722 -0.5733
 6750SOL     OW21537   6.916   6.545   1.182 -0.2617  0.3469 -0.1823
 6750SOL    HW121538   6.834   6.568   1.226  0.0478  0.5335  0.3124
 6750SOL    HW221539   6.889   6.511   1.097 -0.9149 -0.6946  0.4159
 6751SOL     OW21540   2.342   6.408   1.270  0.2584 -0.0805  0.5104
 6751SOL    HW121541   2.322   6.323   1.310  2.5534 -0.9332 -0.0400
 6751SOL    HW221542   2.418   6.392   1.215  2.3385  2.8225  2.2789
 6752SOL     OW21543   2.095   3.361   4.055 -0.0077 -0.7418 -0.6952
 6752SOL    HW121544   2.171   3.409   4.089  0.9330 -1.3047 -1.8859
 6752SOL    HW221545   2.085   3.393   3.966 -1.6006 -0.2216 -0.3524
 6753SOL     OW21546   1.850   6.460   3.936  0.2370  0.5788  0.0140
 6753SOL    HW121547   1.926   6.516   3.952  0.3902  1.0139 -2.0636
 6753SOL    HW221548   1.775   6.513   3.964  0.3790  1.9075 -1.9284
 6754SOL     OW21549   0.034   2.885   0.449  0.2748  0.0317 -0.6142
 6754SOL    HW121550   0.001   2.933   0.373  4.1787  1.0426 -1.9402
 6754SOL    HW221551   0.104   2.941   0.483  0.8910 -1.9659  1.6638
 6755SOL     OW21552   5.386   6.097   6.201 -0.2979 -0.2235 -0.1178
 6755SOL    HW121553   5.454   6.131   6.143 -0.9618  0.8259 -0.2992
 6755SOL    HW221554   5.390   6.002   6.190  0.3140 -0.0975 -1.0433
 6756SOL     OW21555   8.044   8.384   0.480  0.1660  0.5806 -0.3029
 6756SOL    HW121556   8.114   8.449   0.466  1.0305 -0.4474 -0.8950
 6756SOL    HW221557   8.035   8.341   0.395 -1.5708  1.0308 -0.3780
 6757SOL     OW21558   1.096   1.381   7.352  1.3467  0.1278 -0.4075
 6757SOL    HW121559   1.034   1.359   7.421  1.2563  0.3824 -0.4054
 6757SOL    HW221560   1.059   1.460   7.311  0.3703 -1.0918 -2.0057
 6758SOL     OW21561   4.802   2.926   1.268 -0.7406 -0.4186  0.2460
 6758SOL    HW121562   4.806   2.843   1.221  0.0452 -0.0103 -0.4368
 6758SOL    HW221563   4.855   2.911   1.347  0.9447 -0.0627 -0.7503
 6759SOL     OW21564   4.916   3.470   6.396 -0.6045  0.1841  0.0263
 6759SOL    HW121565   4.888   3.408   6.329  0.3516 -0.3066  0.0543
 6759SOL    HW221566   4.852   3.461   6.466 -0.8334 -0.3119 -0.2449
 6760SOL     OW21567   6.549   7.095   4.385  0.3673  0.1358  0.4066
 6760SOL    HW121568   6.591   7.075   4.469  0.8087  2.0847  0.7015
 6760SOL    HW221569   6.621   7.096   4.322  0.0821 -0.9826  0.0297
 6761SOL     OW21570   4.712   7.405   0.156  0.0982  0.0389  0.0541
 6761SOL    HW121571   4.757   7.370   0.079 -1.4665 -2.0811  0.0423
 6761SOL    HW221572   4.680   7.328   0.203 -2.2921  1.3775  0.8005
 6762SOL     OW21573   1.592   7.034   8.516 -0.1204  0.0113 -0.7491
 6762SOL    HW121574   1.647   7.003   8.588  0.6310  2.5550 -0.1409
 6762SOL    HW221575   1.503   7.008   8.542  0.2602 -0.0179  0.5924
 6763SOL     OW21576   4.710   8.591   6.437  0.1819 -0.2933  0.2074
 6763SOL    HW121577   4.627   8.558   6.402  0.2719  0.6072 -0.9150
 6763SOL    HW221578   4.685   8.660   6.497  0.0586 -1.3293  1.3847
 6764SOL     OW21579   0.862   5.368   7.360 -0.5718  0.2781 -0.2261
 6764SOL    HW121580   0.921   5.439   7.333 -0.6866  0.2207 -0.6348
 6764SOL    HW221581   0.869   5.366   7.455 -1.2148  1.3934 -0.1458
 6765SOL     OW21582   2.661   5.338   4.431 -0.3725  0.4775 -0.6381
 6765SOL    HW121583   2.667   5.319   4.338 -0.0218 -0.6521 -0.3923
 6765SOL    HW221584   2.694   5.260   4.475  0.2961  1.3188  0.4264
 6766SOL     OW21585   3.035   2.684   4.544  0.2347 -0.1347  0.4746
 6766SOL    HW121586   3.045   2.596   4.578 -1.4484 -0.6014 -0.1365
 6766SOL    HW221587   3.002   2.736   4.617 -1.8297 -0.7724  0.0640
 6767SOL     OW21588   1.811   1.093   3.589  0.0754 -0.5050 -0.2285
 6767SOL    HW121589   1.845   1.004   3.579 -1.3716 -1.0713 -0.2536
 6767SOL    HW221590   1.825   1.113   3.682  1.4847 -0.2849 -0.4689
 6768SOL     OW21591   7.559   8.307   1.870 -0.1941 -0.4666 -0.1076
 6768SOL    HW121592   7.591   8.391   1.837  0.8291 -0.5662  0.5796
 6768SOL    HW221593   7.484   8.287   1.815 -1.3766  1.5840  0.6078
 6769SOL     OW21594   5.289   4.921   3.983 -0.1991 -0.3410 -0.1838
 6769SOL    HW121595   5.313   4.912   4.075 -0.8172 -0.2695 -0.0130
 6769SOL    HW221596   5.227   4.995   3.981  0.2874  0.0682 -0.7410
 6770SOL     OW21597   2.286   1.021   6.791  0.2828 -0.2968 -0.4082
 6770SOL    HW121598   2.220   0.954   6.810 -0.2044  0.2435 -0.1956
 6770SOL    HW221599   2.353   0.974   6.740 -0.0363 -0.9529 -0.2366
 6771SOL     OW21600   3.504   7.445   6.705  0.1222 -0.2490 -0.1115
 6771SOL    HW121601   3.543   7.372   6.657 -0.5288  0.2977 -1.5334
 6771SOL    HW221602   3.414   7.418   6.722 -0.0254  0.0834 -0.3490
 6772SOL     OW21603   3.496   6.664   0.609  0.1025 -0.2201 -0.4631
 6772SOL    HW121604   3.452   6.592   0.654 -1.1155  0.2071 -0.9378
 6772SOL    HW221605   3.488   6.738   0.669 -0.7736  0.1289 -0.9903
 6773SOL     OW21606   1.121   2.917   5.586 -0.1414  0.3691  0.3048
 6773SOL    HW121607   1.048   2.877   5.634 -0.7382 -0.9606 -1.5582
 6773SOL    HW221608   1.194   2.914   5.647 -0.8034 -1.4243  1.1039
 6774SOL     OW21609   5.613   2.673   3.530  0.6099 -0.5207 -0.3425
 6774SOL    HW121610   5.541   2.704   3.585  0.9378 -0.0562 -0.1643
 6774SOL    HW221611   5.584   2.691   3.441 -0.1395 -1.7325 -0.3763
 6775SOL     OW21612   5.601   2.855   0.885 -0.3944  0.0811  0.1366
 6775SOL    HW121613   5.571   2.766   0.866 -1.4234  0.4060  0.2142
 6775SOL    HW221614   5.683   2.863   0.836  0.1573 -1.1918  0.7986
 6776SOL     OW21615   5.917   7.033   0.179  0.6784 -0.1770  0.0158
 6776SOL    HW121616   5.857   7.107   0.172 -1.0981 -1.6882 -2.2110
 6776SOL    HW221617   5.885   6.984   0.255  1.5741  0.9977  1.2077
 6777SOL     OW21618   5.298   1.320   1.384 -0.3987  0.0641 -0.3886
 6777SOL    HW121619   5.221   1.267   1.405 -1.2208  1.1449 -0.5876
 6777SOL    HW221620   5.275   1.365   1.303  1.3675 -1.3646 -1.7759
 6778SOL     OW21621   1.235   4.073   8.519 -0.2461  0.5227  0.4080
 6778SOL    HW121622   1.192   4.030   8.593  0.9253 -0.6385  0.4546
 6778SOL    HW221623   1.188   4.155   8.507 -0.5672  0.6505  2.3398
 6779SOL     OW21624   1.467   4.479   7.690 -0.3014 -0.8831  0.2271
 6779SOL    HW121625   1.526   4.461   7.616 -0.9190  1.9767 -1.1201
 6779SOL    HW221626   1.501   4.426   7.762  1.3801 -2.4739 -1.6148
 6780SOL     OW21627   3.151   4.772   2.952  0.0248  0.2908  0.4715
 6780SOL    HW121628   3.237   4.769   2.909  0.4538 -1.7439  1.3628
 6780SOL    HW221629   3.146   4.691   3.002 -3.1096 -0.4091 -0.7636
 6781SOL     OW21630   2.802   5.626   0.697  0.3407  0.0511 -0.3987
 6781SOL    HW121631   2.761   5.596   0.778 -0.8261 -0.3776 -1.1187
 6781SOL    HW221632   2.729   5.652   0.641  1.0249 -0.7505 -1.7328
 6782SOL     OW21633   8.468   7.708   0.321  0.5761  0.0815 -0.2371
 6782SOL    HW121634   8.454   7.711   0.226 -1.5655  1.4575  0.0354
 6782SOL    HW221635   8.537   7.773   0.336  0.5203  0.2891 -0.8170
 6783SOL     OW21636   5.036   7.262   0.362  0.6647  0.3481 -0.5688
 6783SOL    HW121637   4.963   7.233   0.308  1.6841  0.3144 -1.9793
 6783SOL    HW221638   4.996   7.311   0.434 -0.7112  0.6178 -1.4999
 6784SOL     OW21639   8.448   0.130   7.126  0.3314  0.4312  0.1257
 6784SOL    HW121640   8.404   0.215   7.125 -1.3521 -0.4030  0.3244
 6784SOL    HW221641   8.449   0.102   7.035 -1.4594 -0.4691  0.3540
 6785SOL     OW21642   5.295   3.270   7.827  0.1329  0.0863 -0.0494
 6785SOL    HW121643   5.232   3.298   7.761  0.3285  0.7548  0.0360
 6785SOL    HW221644   5.322   3.182   7.800  0.1615  0.3307 -0.8214
 6786SOL     OW21645   1.648   3.374   0.551  0.1820 -0.0620 -0.0684
 6786SOL    HW121646   1.688   3.415   0.475 -2.1327  1.6633 -0.4749
 6786SOL    HW221647   1.665   3.435   0.623  0.2254 -0.4277  0.2357
 6787SOL     OW21648   2.154   8.333   4.588 -0.4356  0.1410  0.0689
 6787SOL    HW121649   2.147   8.311   4.681  3.1972 -0.6224  0.3137
 6787SOL    HW221650   2.134   8.252   4.543 -0.6591  0.0769  0.2832
 6788SOL     OW21651   1.388   0.330   2.877  0.5365  0.1918  0.4576
 6788SOL    HW121652   1.356   0.265   2.814 -0.1797 -1.0008  1.9682
 6788SOL    HW221653   1.316   0.392   2.886  1.7941  2.2790 -2.1912
 6789SOL     OW21654   4.009   1.312   1.757 -0.2297 -0.0217  0.1066
 6789SOL    HW121655   4.095   1.299   1.718  0.0167  0.1518  0.5990
 6789SOL    HW221656   4.014   1.397   1.800 -0.6292 -0.0355  0.1845
 6790SOL     OW21657   1.558   4.980   2.025  0.0045 -0.1534  0.1229
 6790SOL    HW121658   1.637   4.938   2.058  0.6452  1.9426  1.4714
 6790SOL    HW221659   1.589   5.043   1.960 -0.8917 -1.3436 -1.5480
 6791SOL     OW21660   4.291   2.951   7.694 -0.1950 -0.2061  0.2730
 6791SOL    HW121661   4.315   2.902   7.773  1.3342  0.3029  0.1535
 6791SOL    HW221662   4.341   2.910   7.624  1.0473  1.4308  0.1541
 6792SOL     OW21663   8.709   4.804   8.311  0.2290  0.1626 -0.2443
 6792SOL    HW121664   8.794   4.767   8.289 -0.6380 -0.9954 -1.8312
 6792SOL    HW221665   8.711   4.812   8.407  2.6921  1.7152 -0.3212
 6793SOL     OW21666   4.695   7.205   5.171  0.3791  0.2951 -0.0890
 6793SOL    HW121667   4.714   7.272   5.238 -1.2756  1.0457 -0.3163
 6793SOL    HW221668   4.640   7.141   5.217  1.2208 -0.4460 -0.1113
 6794SOL     OW21669   3.625   5.648   7.776 -0.0353  0.4832  0.1636
 6794SOL    HW121670   3.568   5.593   7.722  0.6725 -0.5576  0.4688
 6794SOL    HW221671   3.622   5.734   7.733 -0.5269  0.0178 -0.7614
 6795SOL     OW21672   5.805   0.590   2.150  0.7394 -0.3487 -0.0556
 6795SOL    HW121673   5.812   0.502   2.112  0.9895 -0.9580  1.3408
 6795SOL    HW221674   5.714   0.614   2.137  0.9000 -0.3893 -1.3412
 6796SOL     OW21675   8.278   6.153   8.660  0.1590  0.7866  0.0168
 6796SOL    HW121676   8.355   6.125   8.709 -0.4483 -1.9153 -0.3911
 6796SOL    HW221677   8.204   6.125   8.714 -0.5148  0.5624 -0.9901
 6797SOL     OW21678   5.461   6.879   6.274 -0.2518  0.4400 -0.3391
 6797SOL    HW121679   5.388   6.829   6.238  1.6666 -3.2164  0.4266
 6797SOL    HW221680   5.442   6.886   6.367  0.4449 -0.8107 -0.0792
 6798SOL     OW21681   5.556   4.061   6.621  0.4713  0.2344  0.2014
 6798SOL    HW121682   5.632   4.089   6.569  0.5235  0.6149  0.4827
 6798SOL    HW221683   5.576   4.089   6.710  1.1132 -1.8017  0.7695
 6799SOL     OW21684   0.646   6.450   0.927 -0.3211  0.7773 -0.0390
 6799SOL    HW121685   0.565   6.404   0.905  0.9604 -1.0959 -1.1700
 6799SOL    HW221686   0.711   6.414   0.867  2.7519 -2.1316  4.4187
 6800SOL     OW21687   0.318   6.905   6.158  0.3856 -0.5999  0.2744
 6800SOL    HW121688   0.411   6.884   6.169  0.6159  0.0594 -0.3094
 6800SOL    HW221689   0.275   6.821   6.144  1.0690 -0.8131 -0.6197
 6801SOL     OW21690   8.550   4.571   8.492 -0.1523  0.0978  0.2972
 6801SOL    HW121691   8.534   4.484   8.455  0.2237  0.8556 -1.7732
 6801SOL    HW221692   8.497   4.630   8.439  0.3065  1.2507  1.0823
 6802SOL     OW21693   3.923   7.117   7.540 -0.2585 -0.0022  0.7813
 6802SOL    HW121694   3.875   7.095   7.620 -1.3230 -0.4889  0.0400
 6802SOL    HW221695   3.886   7.201   7.512 -2.2593 -1.3197 -0.8976
 6803SOL     OW21696   8.610   6.497   4.926  0.0114  0.4822 -0.3610
 6803SOL    HW121697   8.696   6.507   4.966  0.5536 -0.6931 -1.2031
 6803SOL    HW221698   8.627   6.460   4.840 -1.3902 -0.5821 -0.2129
 6804SOL     OW21699   1.352   5.614   7.677  0.0306  0.4207 -0.0685
 6804SOL    HW121700   1.433   5.648   7.637  0.7206  0.5729  1.4072
 6804SOL    HW221701   1.379   5.535   7.723 -0.8533 -0.0392 -0.3212
 6805SOL     OW21702   6.041   8.487   3.324  0.0177 -0.1074  0.1441
 6805SOL    HW121703   6.133   8.479   3.348 -0.1378 -0.6261  0.6065
 6805SOL    HW221704   6.032   8.434   3.245  0.3115  0.7355 -0.4686
 6806SOL     OW21705   3.500   5.685   1.910 -0.2014 -0.3405 -0.0241
 6806SOL    HW121706   3.417   5.639   1.895  0.1210 -0.3592 -2.0970
 6806SOL    HW221707   3.538   5.694   1.822  1.3816  0.8243  0.7364
 6807SOL     OW21708   3.554   3.451   4.468 -0.1611  0.1267 -0.3341
 6807SOL    HW121709   3.595   3.471   4.384  0.7827 -1.8490 -0.4040
 6807SOL    HW221710   3.607   3.498   4.533 -0.2543  0.8249 -0.7669
 6808SOL     OW21711   4.291   0.574   1.524 -0.1548  0.0672 -0.8359
 6808SOL    HW121712   4.199   0.551   1.512 -0.1336  0.3079 -1.4878
 6808SOL    HW221713   4.299   0.663   1.489 -0.1885  1.0305  1.4581
 6809SOL     OW21714   7.725   6.014   5.194  0.4627  0.4083 -0.1171
 6809SOL    HW121715   7.759   5.926   5.179 -0.0607  0.1962 -0.0852
 6809SOL    HW221716   7.784   6.071   5.144  0.4735 -0.0151 -0.6048
 6810SOL     OW21717   2.076   1.689   6.428  0.3832 -0.1123  0.3113
 6810SOL    HW121718   2.084   1.665   6.520 -1.3419 -3.0791 -0.1671
 6810SOL    HW221719   2.164   1.718   6.403  1.3039 -0.8079  2.5003
 6811SOL     OW21720   2.350   5.335   1.094 -0.3708 -0.1722  0.6058
 6811SOL    HW121721   2.320   5.398   1.028 -1.6928 -0.6076  0.7486
 6811SOL    HW221722   2.294   5.352   1.170  0.0712 -0.7237  1.0645
 6812SOL     OW21723   3.010   5.693   4.456 -0.2912  0.0678  0.0698
 6812SOL    HW121724   2.915   5.704   4.446 -0.3284  0.2956  0.6339
 6812SOL    HW221725   3.048   5.764   4.403 -0.4632  0.6505  0.7120
 6813SOL     OW21726   5.856   8.685   2.130  0.1071  0.5018  0.0919
 6813SOL    HW121727   5.941   8.717   2.160  0.5887  0.6286 -1.3238
 6813SOL    HW221728   5.814   8.651   2.209  0.2290  3.1403  1.4192
 6814SOL     OW21729   7.365   3.239   1.668 -0.3029  0.0767 -0.2808
 6814SOL    HW121730   7.310   3.252   1.745 -1.0765  0.1721 -0.8367
 6814SOL    HW221731   7.454   3.233   1.702 -0.5927  0.5750  0.5741
 6815SOL     OW21732   4.654   7.818   1.605 -0.2355  0.2511  0.1236
 6815SOL    HW121733   4.712   7.861   1.668  0.8543 -1.4870  0.3843
 6815SOL    HW221734   4.655   7.875   1.528  1.4384  0.5300  0.3219
 6816SOL     OW21735   8.366   1.266   0.494  0.0561  0.2648 -0.0587
 6816SOL    HW121736   8.334   1.212   0.567  0.7850  0.9966  0.8189
 6816SOL    HW221737   8.429   1.209   0.449  0.9934  0.4294  0.9971
 6817SOL     OW21738   1.420   5.030   8.525  0.7030 -0.4461  0.2759
 6817SOL    HW121739   1.465   5.060   8.446  0.1311  0.1694  0.1796
 6817SOL    HW221740   1.378   5.109   8.560  0.3183 -0.8682  0.7743
 6818SOL     OW21741   2.023   0.504   7.748 -0.4687 -0.2689 -0.1919
 6818SOL    HW121742   2.047   0.473   7.836  0.0822  1.7991  0.4339
 6818SOL    HW221743   1.944   0.455   7.727 -0.6522 -0.7699  1.4898
 6819SOL     OW21744   6.297   4.662   0.449  0.3067  0.9607 -0.5650
 6819SOL    HW121745   6.332   4.582   0.488  0.0580  0.9175 -0.4285
 6819SOL    HW221746   6.235   4.631   0.382 -0.4015  1.0353  0.0413
 6820SOL     OW21747   8.056   3.811   6.047 -0.5132  0.3821 -0.6326
 6820SOL    HW121748   8.027   3.897   6.075 -1.6979 -0.4506  0.8977
 6820SOL    HW221749   8.150   3.818   6.036 -0.5716  1.8038 -0.3039
 6821SOL     OW21750   0.122   2.675   6.250 -0.3299  0.3297 -0.4140
 6821SOL    HW121751   0.111   2.722   6.332  0.9928  1.5498 -0.8873
 6821SOL    HW221752   0.084   2.733   6.183 -0.8106 -0.3521 -0.7399
 6822SOL     OW21753   2.072   7.312   0.296 -0.0181  0.5363  0.1768
 6822SOL    HW121754   2.131   7.240   0.275 -0.4911  0.2618 -0.2603
 6822SOL    HW221755   2.000   7.303   0.233 -1.1996  0.0431  1.5502
 6823SOL     OW21756   4.786   0.666   5.185 -0.4007  0.7119  0.8750
 6823SOL    HW121757   4.808   0.592   5.242  1.3824 -0.8719 -1.6410
 6823SOL    HW221758   4.759   0.625   5.103  1.5065  2.8016 -0.9189
 6824SOL     OW21759   1.120   5.859   4.008  0.0967 -0.4966 -0.0479
 6824SOL    HW121760   1.144   5.830   4.096  0.3151  0.9303  0.3953
 6824SOL    HW221761   1.176   5.808   3.949  2.5352  0.9584  0.8300
 6825SOL     OW21762   8.674   3.829   0.224  0.1599 -0.3034  0.0918
 6825SOL    HW121763   8.664   3.780   0.306 -3.0649 -1.8071 -1.0175
 6825SOL    HW221764   8.658   3.920   0.248 -0.7321 -0.7256  1.1938
 6826SOL     OW21765   5.737   3.653   1.014  0.0748  0.2413  0.0275
 6826SOL    HW121766   5.694   3.583   1.062 -1.3699  1.0372 -0.0409
 6826SOL    HW221767   5.682   3.730   1.029  0.5577  0.9211 -1.4471
 6827SOL     OW21768   3.669   8.245   5.716 -0.3783 -0.4216 -0.4037
 6827SOL    HW121769   3.716   8.312   5.668 -0.1696  0.5039  1.0310
 6827SOL    HW221770   3.621   8.196   5.649  0.5997  0.2405 -1.6146
 6828SOL     OW21771   8.520   5.858   1.519 -0.0630 -0.1999 -0.2374
 6828SOL    HW121772   8.581   5.869   1.446  0.4022 -2.3590 -0.2317
 6828SOL    HW221773   8.575   5.826   1.591 -0.9537 -0.7661  0.2101
 6829SOL     OW21774   6.649   5.061   7.384 -0.0302  0.2868  0.2426
 6829SOL    HW121775   6.665   4.974   7.349  0.0654  0.0829  0.7848
 6829SOL    HW221776   6.562   5.056   7.423 -0.4521  0.7236 -0.6006
 6830SOL     OW21777   5.512   4.409   5.452  0.2988 -0.0591 -0.2387
 6830SOL    HW121778   5.542   4.368   5.371 -0.1233  1.2589 -1.0888
 6830SOL    HW221779   5.579   4.475   5.471  0.7420 -0.7932  0.8725
 6831SOL     OW21780   7.628   1.346   7.775 -0.1200 -0.0836  0.3517
 6831SOL    HW121781   7.588   1.279   7.720  0.6454 -0.3723  0.1308
 6831SOL    HW221782   7.703   1.378   7.723 -0.9161  1.4943  0.1133
 6832SOL     OW21783   0.367   0.534   1.780 -0.5063  0.0332 -0.5509
 6832SOL    HW121784   0.314   0.488   1.845  1.9542 -0.0600  1.5449
 6832SOL    HW221785   0.377   0.471   1.708 -1.8872 -0.5249 -0.2737
 6833SOL     OW21786   4.046   6.773   0.930  0.6467  0.2083  0.5473
 6833SOL    HW121787   3.958   6.803   0.908  0.7576 -0.3213 -0.7649
 6833SOL    HW221788   4.055   6.790   1.023 -0.1682  1.9644  0.3557
 6834SOL     OW21789   5.473   7.210   2.177 -0.3951  0.3590 -0.1988
 6834SOL    HW121790   5.471   7.114   2.186 -1.4892  0.4146  0.3403
 6834SOL    HW221791   5.426   7.242   2.254 -0.1974  1.3324 -0.4724
 6835SOL     OW21792   6.637   1.332   5.013 -0.6375  0.9650  0.2618
 6835SOL    HW121793   6.682   1.325   4.929  0.9213  2.1828  0.9462
 6835SOL    HW221794   6.544   1.341   4.990 -0.9816 -3.5511 -1.1697
 6836SOL     OW21795   8.712   4.299   2.509 -0.1671 -0.0063 -0.0008
 6836SOL    HW121796   8.619   4.280   2.515  0.0674 -0.7769  2.1471
 6836SOL    HW221797   8.754   4.213   2.509  0.5350  0.2985 -2.0369
 6837SOL     OW21798   7.429   4.019   7.095 -0.7829  0.0480 -0.3326
 6837SOL    HW121799   7.491   3.958   7.134  0.0293  1.1737  0.1948
 6837SOL    HW221800   7.407   3.980   7.010 -0.5113 -1.0985  0.1083
 6838SOL     OW21801   0.447   7.965   3.245  0.2439 -0.1227  0.0744
 6838SOL    HW121802   0.516   7.906   3.214 -0.0635  1.4365 -4.2322
 6838SOL    HW221803   0.488   8.051   3.246 -0.9422  0.4633  0.0206
 6839SOL     OW21804   1.622   2.560   1.937  0.2147  0.4574 -0.1393
 6839SOL    HW121805   1.692   2.561   1.871  0.4255 -0.2946  0.0581
 6839SOL    HW221806   1.591   2.650   1.941  0.9205  0.7225 -0.5062
 6840SOL     OW21807   3.679   7.748   7.241 -0.1870 -0.1530 -0.5616
 6840SOL    HW121808   3.651   7.668   7.196 -1.9537  0.2517 -0.2631
 6840SOL    HW221809   3.675   7.726   7.334 -0.4770  0.1993 -0.4856
 6841SOL     OW21810   3.816   1.709   5.768  0.1226 -0.0971  1.2009
 6841SOL    HW121811   3.869   1.786   5.790  1.2029 -0.1726 -0.8986
 6841SOL    HW221812   3.754   1.739   5.702  1.9234 -1.3602 -1.2311
 6842SOL     OW21813   0.641   8.603   5.737 -0.0709  0.1983 -0.3911
 6842SOL    HW121814   0.611   8.648   5.658  1.1017 -0.0994 -1.0204
 6842SOL    HW221815   0.616   8.511   5.724  1.3558 -0.1219 -1.0834
 6843SOL     OW21816   1.833   0.456   3.223 -0.2105  0.4859 -0.1027
 6843SOL    HW121817   1.906   0.402   3.252  1.0566  1.2645 -1.6790
 6843SOL    HW221818   1.820   0.518   3.294  0.0051 -0.2678  0.6159
 6844SOL     OW21819   2.625   2.924   0.500 -0.5859 -0.0029  0.1046
 6844SOL    HW121820   2.708   2.898   0.541  0.3383 -1.5473 -2.5069
 6844SOL    HW221821   2.625   3.020   0.507  1.2702  0.0224  0.4797
 6845SOL     OW21822   5.022   7.679   7.002 -0.2912  0.4053  0.1413
 6845SOL    HW121823   5.029   7.637   6.916 -2.2184 -0.0642  0.1668
 6845SOL    HW221824   4.986   7.766   6.983 -0.0401  0.5750  0.4312
 6846SOL     OW21825   3.876   8.605   6.172 -0.3146  0.4195  0.2157
 6846SOL    HW121826   3.968   8.614   6.195 -0.0847 -0.7181 -0.2136
 6846SOL    HW221827   3.875   8.555   6.091 -1.3425 -0.6842  0.8651
 6847SOL     OW21828   0.816   4.116   3.271 -0.9509  0.2306 -0.1226
 6847SOL    HW121829   0.783   4.093   3.184 -0.4760  0.4848 -0.3803
 6847SOL    HW221830   0.746   4.092   3.331 -0.6818 -1.4159 -0.4115
 6848SOL     OW21831   8.272   5.074   4.161 -0.1690  0.4395  0.1054
 6848SOL    HW121832   8.258   5.166   4.139 -0.7910  0.2631 -0.2536
 6848SOL    HW221833   8.189   5.046   4.200 -0.6516 -0.4734 -1.5174
 6849SOL     OW21834   3.881   2.854   1.309 -0.2161  0.7081 -0.0309
 6849SOL    HW121835   3.888   2.787   1.378 -0.3085  0.1886 -0.5140
 6849SOL    HW221836   3.788   2.855   1.288  0.2548 -2.7451 -3.5707
 6850SOL     OW21837   0.646   3.393   4.718 -0.4008 -0.2993 -0.4979
 6850SOL    HW121838   0.572   3.427   4.770  0.9233  1.5040  0.3219
 6850SOL    HW221839   0.614   3.396   4.628 -2.0594 -1.6137 -0.0183
 6851SOL     OW21840   8.281   7.381   2.246 -0.3701  0.3982  0.0732
 6851SOL    HW121841   8.247   7.406   2.332  0.1730  0.2310  0.3358
 6851SOL    HW221842   8.305   7.289   2.255 -0.6098  0.2907 -0.3515
 6852SOL     OW21843   3.528   7.146   2.642 -0.1548 -0.2049  0.4885
 6852SOL    HW121844   3.562   7.234   2.623 -0.7874 -0.1160 -0.2890
 6852SOL    HW221845   3.588   7.111   2.707 -0.8520  1.4484  2.1046
 6853SOL     OW21846   1.329   5.784   3.073 -0.0128  0.1028  0.0193
 6853SOL    HW121847   1.408   5.834   3.096 -0.4521  1.0296 -0.4710
 6853SOL    HW221848   1.316   5.800   2.980 -1.2948  0.7028  0.2760
 6854SOL     OW21849   7.270   1.269   8.292  0.5852 -0.3167 -0.6035
 6854SOL    HW121850   7.247   1.223   8.373  1.0862  2.2069  1.1134
 6854SOL    HW221851   7.228   1.219   8.223 -2.2963 -1.0525  1.4836
 6855SOL     OW21852   0.094   8.231   3.134  0.2475 -0.2847 -0.0326
 6855SOL    HW121853   0.094   8.282   3.053 -1.1219 -0.4954 -0.1938
 6855SOL    HW221854   0.131   8.147   3.110  0.0343 -0.2752 -0.3963
 6856SOL     OW21855   6.238   4.270   4.896 -0.0146  0.2475 -0.5275
 6856SOL    HW121856   6.273   4.211   4.963 -1.1663  0.3893  0.2204
 6856SOL    HW221857   6.219   4.212   4.822 -1.3303 -0.3911  0.2757
 6857SOL     OW21858   6.846   2.019   3.530  0.5082  0.6593  0.2225
 6857SOL    HW121859   6.812   2.044   3.444 -0.7458  0.0120  0.4994
 6857SOL    HW221860   6.926   1.969   3.511 -0.5542 -0.7993 -0.6847
 6858SOL     OW21861   4.438   5.185   3.416 -0.1345 -0.4392  0.5002
 6858SOL    HW121862   4.458   5.184   3.323  0.4398 -0.0777  0.6181
 6858SOL    HW221863   4.366   5.122   3.426 -0.0813 -0.6056 -0.1555
 6859SOL     OW21864   2.200   8.395   0.275 -0.0991 -0.4983  0.1593
 6859SOL    HW121865   2.280   8.394   0.328 -0.2593  0.9568  0.4748
 6859SOL    HW221866   2.131   8.422   0.335 -0.3627  0.7768 -0.6829
 6860SOL     OW21867   5.704   0.469   7.788  0.1712 -0.3340  0.2662
 6860SOL    HW121868   5.630   0.452   7.730 -0.0047 -0.7459  0.6136
 6860SOL    HW221869   5.691   0.560   7.816  1.6896  0.8330 -2.4259
 6861SOL     OW21870   3.337   5.440   6.567  0.0456 -0.0742 -0.6638
 6861SOL    HW121871   3.419   5.419   6.523  0.5386  1.3836 -0.5107
 6861SOL    HW221872   3.364   5.464   6.656 -0.8008 -1.7432  0.0815
 6862SOL     OW21873   7.120   1.951   3.481  0.0791 -0.8526 -0.3847
 6862SOL    HW121874   7.164   1.950   3.396  1.2821 -1.4089  0.2286
 6862SOL    HW221875   7.166   1.886   3.534  0.6062  0.7932  1.3082
 6863SOL     OW21876   7.793   3.156   6.419  0.1373 -0.6439  0.5800
 6863SOL    HW121877   7.857   3.170   6.489  2.0478 -3.2638 -0.5089
 6863SOL    HW221878   7.810   3.225   6.356  0.8450 -0.4118  1.0160
 6864SOL     OW21879   2.815   2.352   4.979 -0.1685  0.2219 -0.4783
 6864SOL    HW121880   2.754   2.415   4.941 -4.1726 -2.6539  0.4284
 6864SOL    HW221881   2.811   2.368   5.073 -0.3520 -0.6187 -0.3335
 6865SOL     OW21882   7.233   8.552   3.893  0.0944 -0.3500  0.1611
 6865SOL    HW121883   7.290   8.622   3.926  0.0181 -0.9028  1.5323
 6865SOL    HW221884   7.168   8.539   3.963  0.1798 -1.8720 -0.0071
 6866SOL     OW21885   6.781   7.830   4.063 -0.1137 -0.0098 -0.2651
 6866SOL    HW121886   6.709   7.784   4.020 -0.6833  0.9915 -0.4295
 6866SOL    HW221887   6.845   7.762   4.083 -0.3676 -0.6824 -1.6298
 6867SOL     OW21888   2.153   5.057   0.467 -0.6669 -0.0500  0.3541
 6867SOL    HW121889   2.220   5.103   0.518 -1.6319  0.5535  1.1197
 6867SOL    HW221890   2.108   5.125   0.417 -0.4933 -0.4904 -0.4159
 6868SOL     OW21891   5.424   7.960   4.032  0.4814 -0.4603  0.8205
 6868SOL    HW121892   5.516   7.948   4.055  0.0331 -0.7819  2.6380
 6868SOL    HW221893   5.386   8.003   4.109 -0.8698 -0.2812  0.0778
 6869SOL     OW21894   8.511   0.772   8.620 -0.3599 -0.4549  0.2399
 6869SOL    HW121895   8.468   0.777   8.705 -1.1456 -1.1445 -0.1115
 6869SOL    HW221896   8.488   0.686   8.585 -1.0365  0.2673 -1.1940
 6870SOL     OW21897   5.133   1.513   8.305  0.8360 -0.4314 -0.3969
 6870SOL    HW121898   5.168   1.590   8.260 -0.6460  0.3144 -0.3242
 6870SOL    HW221899   5.069   1.476   8.244 -1.4036  0.7559  1.1135
 6871SOL     OW21900   8.362   2.330   1.321  0.3481 -0.0113  0.8660
 6871SOL    HW121901   8.285   2.328   1.378  1.3971  0.0538  2.3586
 6871SOL    HW221902   8.346   2.261   1.257 -0.7149 -0.3703  1.4850
 6872SOL     OW21903   6.385   3.530   1.838  0.1041  0.3520 -0.2945
 6872SOL    HW121904   6.458   3.592   1.827 -1.5896  2.3182 -1.1556
 6872SOL    HW221905   6.370   3.495   1.751 -1.9025  2.3296 -0.8139
 6873SOL     OW21906   0.446   1.217   7.008  0.1106  0.1484  0.3682
 6873SOL    HW121907   0.522   1.230   7.064 -0.4641  2.2484  0.7436
 6873SOL    HW221908   0.464   1.135   6.962  2.3154  0.3011  0.8577
 6874SOL     OW21909   6.254   8.669   1.285 -0.1082  0.4924 -0.0033
 6874SOL    HW121910   6.227   8.739   1.226 -2.0980  0.0931  0.3540
 6874SOL    HW221911   6.192   8.598   1.268  1.7390 -1.1571 -0.2241
 6875SOL     OW21912   5.067   6.693   1.713 -0.0034  0.2820 -0.1248
 6875SOL    HW121913   5.096   6.750   1.784 -1.6473  0.3874  0.4877
 6875SOL    HW221914   5.124   6.616   1.719  0.3715  0.6167  0.8142
 6876SOL     OW21915   4.780   7.448   5.779  1.0146 -0.2626 -0.2831
 6876SOL    HW121916   4.796   7.531   5.825  1.6576 -0.0469 -0.8808
 6876SOL    HW221917   4.724   7.398   5.839  0.3662  0.7208 -0.0359
 6877SOL     OW21918   3.721   6.660   7.206 -0.3395 -0.2906 -0.0078
 6877SOL    HW121919   3.807   6.699   7.226 -1.2952  1.2401  1.3948
 6877SOL    HW221920   3.707   6.680   7.113  0.4037  0.3108 -0.0052
 6878SOL     OW21921   5.266   0.579   0.744  0.1858  0.3021  0.7191
 6878SOL    HW121922   5.335   0.645   0.742 -0.5697  1.0961 -1.1020
 6878SOL    HW221923   5.280   0.533   0.827  2.6575  0.6681  0.5990
 6879SOL     OW21924   1.768   4.821   4.546 -0.8203  0.0265 -0.7634
 6879SOL    HW121925   1.806   4.797   4.630  0.6973 -1.3204 -1.7637
 6879SOL    HW221926   1.727   4.740   4.515  1.2004 -0.3935 -2.5849
 6880SOL     OW21927   3.339   4.657   1.701 -0.3752  0.0991  0.4094
 6880SOL    HW121928   3.271   4.589   1.705 -1.3739  0.9969 -0.6785
 6880SOL    HW221929   3.291   4.737   1.682  1.1160  0.5338 -1.8541
 6881SOL     OW21930   2.423   1.381   1.718  0.2682 -0.3938 -0.4892
 6881SOL    HW121931   2.405   1.429   1.637  0.6677 -0.5614 -0.6782
 6881SOL    HW221932   2.418   1.288   1.692 -0.5243 -0.4615 -0.1216
 6882SOL     OW21933   3.642   3.288   3.355  0.3226  0.0544 -0.3480
 6882SOL    HW121934   3.681   3.335   3.281 -0.0453  1.6758  0.4379
 6882SOL    HW221935   3.670   3.337   3.432 -1.8256  0.2864  0.3608
 6883SOL     OW21936   2.147   0.784   1.722 -0.3214 -0.2651 -0.0496
 6883SOL    HW121937   2.196   0.756   1.645 -0.3434  0.3070 -0.2761
 6883SOL    HW221938   2.070   0.726   1.723 -0.3500 -0.2435 -0.4929
 6884SOL     OW21939   7.717   8.418   0.177 -0.0798  0.0319  0.1791
 6884SOL    HW121940   7.680   8.486   0.234 -0.8319  0.6191 -0.9744
 6884SOL    HW221941   7.687   8.336   0.216 -1.4097  0.4556  0.1101
 6885SOL     OW21942   6.802   0.948   3.139  0.5716 -0.3874  0.0627
 6885SOL    HW121943   6.807   0.913   3.050 -1.9376  1.2575 -0.8444
 6885SOL    HW221944   6.870   1.015   3.142  0.7786 -0.5607 -0.5723
 6886SOL     OW21945   0.287   7.721   2.699  0.4743 -0.2435  0.9394
 6886SOL    HW121946   0.300   7.698   2.607 -0.7541 -0.7834  0.8797
 6886SOL    HW221947   0.280   7.816   2.700 -1.0325 -0.3258  0.2440
 6887SOL     OW21948   5.798   5.247   8.524 -0.8414 -0.9634  0.4010
 6887SOL    HW121949   5.757   5.334   8.523  0.6930 -0.1980  0.4903
 6887SOL    HW221950   5.794   5.220   8.616 -0.1327 -0.3849  0.6058
 6888SOL     OW21951   6.671   2.896   5.681 -0.4379 -0.5088  0.1239
 6888SOL    HW121952   6.583   2.916   5.648 -1.1773 -0.6950  1.8666
 6888SOL    HW221953   6.697   2.975   5.729  0.0396 -0.7274  0.2318
 6889SOL     OW21954   1.778   6.295   8.426  0.8793 -0.4579 -0.1611
 6889SOL    HW121955   1.784   6.253   8.341  0.4346 -1.4785  0.2907
 6889SOL    HW221956   1.697   6.260   8.465  0.6067  0.6600  0.3255
 6890SOL     OW21957   1.032   1.608   6.651 -0.8061 -0.2233 -0.0816
 6890SOL    HW121958   0.937   1.599   6.643 -0.5836 -2.2447 -1.5158
 6890SOL    HW221959   1.060   1.525   6.691  0.3658  0.3362  0.2988
 6891SOL     OW21960   4.171   3.117   1.639 -0.0379 -0.5493 -0.1437
 6891SOL    HW121961   4.159   3.133   1.733 -1.5176  1.2203 -0.5799
 6891SOL    HW221962   4.122   3.036   1.622 -0.2881 -0.5337  0.4947
 6892SOL     OW21963   7.429   0.144   6.902  0.5187  0.2903 -0.3918
 6892SOL    HW121964   7.490   0.182   6.840  0.5350  2.7908  1.0374
 6892SOL    HW221965   7.355   0.205   6.904  0.8897  0.7900  2.6043
 6893SOL     OW21966   6.488   4.426   4.805  0.3719  0.3178  0.6775
 6893SOL    HW121967   6.506   4.472   4.886  0.4855 -0.6248  1.2043
 6893SOL    HW221968   6.401   4.387   4.818 -0.2222  1.2968 -0.1939
 6894SOL     OW21969   4.561   2.452   2.834 -0.3861  0.1200  1.1796
 6894SOL    HW121970   4.652   2.479   2.826 -0.5174  0.4006  0.6333
 6894SOL    HW221971   4.522   2.473   2.750 -0.9839  0.1048  1.4488
 6895SOL     OW21972   4.172   0.613   3.387 -0.0726  0.1816 -0.0194
 6895SOL    HW121973   4.143   0.681   3.448  1.4734  0.0233  0.9485
 6895SOL    HW221974   4.094   0.561   3.369 -0.6451  0.4663  1.5325
 6896SOL     OW21975   0.120   2.378   4.944  0.0711  0.3571 -0.0208
 6896SOL    HW121976   0.187   2.431   4.899  0.1641 -0.4290 -0.8336
 6896SOL    HW221977   0.097   2.310   4.881 -2.1065  1.0743 -0.0846
 6897SOL     OW21978   0.384   5.449   5.276 -0.3996 -0.4278 -0.2630
 6897SOL    HW121979   0.372   5.542   5.257  0.2183  0.0546  1.4557
 6897SOL    HW221980   0.467   5.446   5.324 -1.0579 -1.6814  0.8531
 6898SOL     OW21981   4.450   6.302   2.332 -0.4337 -0.0913 -0.0768
 6898SOL    HW121982   4.373   6.298   2.275 -1.1401 -0.5408  0.8741
 6898SOL    HW221983   4.430   6.372   2.394 -0.3262 -0.5672  0.5072
 6899SOL     OW21984   8.252   0.140   3.338  0.2657  0.0842 -0.2354
 6899SOL    HW121985   8.227   0.055   3.301  1.1650 -0.8986  1.2586
 6899SOL    HW221986   8.206   0.204   3.285 -3.1867 -1.4457  0.6434
 6900SOL     OW21987   8.489   5.129   2.875 -0.3426 -0.3196  0.1341
 6900SOL    HW121988   8.475   5.063   2.808 -2.8668 -1.7805  1.9058
 6900SOL    HW221989   8.572   5.104   2.916  0.7000 -0.0087 -1.6712
 6901SOL     OW21990   0.280   1.518   2.938  0.4744 -0.0304 -0.0874
 6901SOL    HW121991   0.253   1.516   3.029  0.1097  1.3008 -0.1602
 6901SOL    HW221992   0.225   1.452   2.895 -0.3448  0.3364  0.3851
 6902SOL     OW21993   4.114   2.785   7.217 -0.2519  0.5210 -0.0958
 6902SOL    HW121994   4.129   2.879   7.208  0.2353  0.5687  1.0234
 6902SOL    HW221995   4.050   2.778   7.288 -1.4485  0.0552 -1.1798
 6903SOL     OW21996   5.369   3.579   0.510  0.3423  0.8049  0.2310
 6903SOL    HW121997   5.283   3.618   0.496  0.3523  0.0390 -2.4711
 6903SOL    HW221998   5.354   3.508   0.571 -1.0077  0.5577 -0.3503
 6904SOL     OW21999   7.383   2.097   1.560  0.3846 -0.6308  0.7152
 6904SOL    HW122000   7.395   2.121   1.652  1.0424  0.7694  0.2888
 6904SOL    HW222001   7.289   2.112   1.544  0.3114 -0.6669  1.0917
 6905SOL     OW22002   3.325   1.056   0.252  0.0766 -0.0327  0.1895
 6905SOL    HW122003   3.371   1.026   0.174  0.3866 -0.3479  0.4882
 6905SOL    HW222004   3.374   1.133   0.281 -0.3494  0.4026 -0.2199
 6906SOL     OW22005   2.014   2.880   1.812  0.1285 -0.3418 -0.1056
 6906SOL    HW122006   2.102   2.845   1.797 -0.0264 -0.1898 -1.5685
 6906SOL    HW222007   2.000   2.870   1.906  0.9975 -2.0644 -0.1067
 6907SOL     OW22008   1.744   8.322   3.695  0.4563 -0.0863 -0.0865
 6907SOL    HW122009   1.837   8.301   3.701  0.3706 -0.1171  1.7406
 6907SOL    HW222010   1.734   8.399   3.751 -0.8901 -1.1558  1.2224
 6908SOL     OW22011   0.648   8.129   0.490  0.5859 -0.5382 -0.4036
 6908SOL    HW122012   0.611   8.210   0.455 -1.0586 -0.3224  1.6424
 6908SOL    HW222013   0.596   8.060   0.448 -1.0347 -0.3041  1.1193
 6909SOL     OW22014   1.216   3.081   2.227 -0.2119  0.3064  0.0640
 6909SOL    HW122015   1.285   3.143   2.205  0.8644 -0.9523 -0.2587
 6909SOL    HW222016   1.241   3.000   2.182 -0.4279 -0.9976  2.1449
 6910SOL     OW22017   4.456   4.866   0.039 -0.0398 -0.2658  0.1213
 6910SOL    HW122018   4.531   4.824   0.082 -1.0473 -2.2577  0.0061
 6910SOL    HW222019   4.416   4.919   0.108  1.1612  0.4222  0.3145
 6911SOL     OW22020   5.086   8.437   1.194  0.3641 -0.2917 -0.0956
 6911SOL    HW122021   5.003   8.451   1.148 -0.1794  1.1583  1.1994
 6911SOL    HW222022   5.086   8.344   1.217 -0.7644 -0.3867 -0.4059
 6912SOL     OW22023   3.988   6.030   4.385  0.3575  0.3224 -0.4718
 6912SOL    HW122024   4.008   5.954   4.332  1.5154 -0.1095  0.5411
 6912SOL    HW222025   4.068   6.046   4.436 -0.2689  1.4886  0.1909
 6913SOL     OW22026   8.581   6.700   1.297  0.2670  0.1339 -0.9226
 6913SOL    HW122027   8.649   6.634   1.315  0.8707  1.1168  0.6512
 6913SOL    HW222028   8.598   6.728   1.207  2.0892  0.4765 -0.5104
 6914SOL     OW22029   8.495   8.265   6.678 -0.3231  0.0862 -0.4587
 6914SOL    HW122030   8.434   8.262   6.604  0.0808  1.6160 -0.8767
 6914SOL    HW222031   8.462   8.335   6.734 -1.3782 -1.8524  1.5526
 6915SOL     OW22032   5.554   5.375   6.373 -0.7817  0.6484  0.0608
 6915SOL    HW122033   5.558   5.380   6.277 -0.9406  0.2827  0.0339
 6915SOL    HW222034   5.606   5.298   6.395  0.2355  1.3963  0.3511
 6916SOL     OW22035   0.463   3.284   6.845  0.3000  0.2168 -0.3268
 6916SOL    HW122036   0.368   3.278   6.854 -0.0810  2.3369 -1.9395
 6916SOL    HW222037   0.490   3.344   6.914  0.7262 -1.4900  1.0489
 6917SOL     OW22038   6.219   2.938   4.117  0.6422  0.0225 -0.3959
 6917SOL    HW122039   6.181   2.865   4.070  0.9365  1.0197 -2.2716
 6917SOL    HW222040   6.221   3.010   4.054  0.1521  1.7476  1.4293
 6918SOL     OW22041   5.646   6.922   0.799  0.3148  0.2571 -0.4245
 6918SOL    HW122042   5.729   6.892   0.836 -0.1496  1.1868  1.5003
 6918SOL    HW222043   5.588   6.845   0.804  0.3129  0.3121  0.7026
 6919SOL     OW22044   8.343   5.601   0.928 -0.2840 -0.2033 -0.1404
 6919SOL    HW122045   8.348   5.688   0.888  0.3208  0.0654  0.5120
 6919SOL    HW222046   8.313   5.544   0.857 -2.1827  0.7802 -0.2068
 6920SOL     OW22047   2.591   8.571   2.588 -0.2243  0.0928 -0.0514
 6920SOL    HW122048   2.512   8.532   2.551 -1.3140  2.4223 -0.3738
 6920SOL    HW222049   2.559   8.644   2.641  1.6683  0.5365  0.5564
 6921SOL     OW22050   5.750   8.059   5.087  0.2253 -0.1062 -0.1869
 6921SOL    HW122051   5.783   8.108   5.162  1.9446  0.5890 -1.3202
 6921SOL    HW222052   5.707   7.983   5.125  0.9960  0.2456  1.5113
 6922SOL     OW22053   6.813   5.471   2.037 -0.3544 -0.2115  0.2358
 6922SOL    HW122054   6.899   5.451   2.074 -0.3151  1.0191  0.8519
 6922SOL    HW222055   6.796   5.561   2.063 -2.5977 -0.9655  1.6040
 6923SOL     OW22056   5.645   5.639   0.813  0.1775  0.2056 -0.0349
 6923SOL    HW122057   5.640   5.600   0.726  0.6106 -1.0047  0.4608
 6923SOL    HW222058   5.715   5.591   0.857  0.1663  0.9937  0.8963
 6924SOL     OW22059   1.500   0.810   8.145 -0.2794  0.0304 -0.2783
 6924SOL    HW122060   1.520   0.852   8.061 -0.8694  0.7091 -0.0918
 6924SOL    HW222061   1.410   0.779   8.135 -0.7681  1.1354  0.4895
 6925SOL     OW22062   8.101   0.140   4.162 -0.4113  0.5757 -0.1176
 6925SOL    HW122063   8.150   0.220   4.181 -1.8815  1.5538 -0.3005
 6925SOL    HW222064   8.168   0.075   4.139  0.7617  1.9650 -0.7569
 6926SOL     OW22065   1.882   1.990   8.537  0.2823  0.0338  0.7423
 6926SOL    HW122066   1.846   1.952   8.457  1.4483  0.2057  0.1164
 6926SOL    HW222067   1.870   1.923   8.603  0.8271 -0.7827  0.0287
 6927SOL     OW22068   2.821   6.275   8.149 -0.2650  0.3797  0.1446
 6927SOL    HW122069   2.829   6.363   8.111  1.4659 -0.4215 -1.4998
 6927SOL    HW222070   2.844   6.216   8.078 -0.1813 -1.3584  1.5566
 6928SOL     OW22071   5.331   2.792   7.071 -0.2923  0.1322  0.1035
 6928SOL    HW122072   5.363   2.702   7.085 -1.2429 -0.3759 -0.8146
 6928SOL    HW222073   5.364   2.841   7.146  0.6312 -0.8797  0.3942
 6929SOL     OW22074   7.016   8.209   7.425  0.2643  0.1952  0.5678
 6929SOL    HW122075   6.965   8.290   7.432 -1.8775 -1.0161 -0.1775
 6929SOL    HW222076   7.005   8.166   7.510  0.5361  0.2068  0.6089
 6930SOL     OW22077   5.372   6.570   8.312 -0.4951  0.3374  0.6765
 6930SOL    HW122078   5.286   6.562   8.353 -0.2907 -1.6809  0.7938
 6930SOL    HW222079   5.427   6.608   8.380 -0.7582 -0.5623  1.4142
 6931SOL     OW22080   0.056   5.756   3.273  0.2213  0.6887  0.1000
 6931SOL    HW122081   0.121   5.788   3.335  0.7060 -0.1755  0.0482
 6931SOL    HW222082   0.104   5.695   3.216 -0.6250  0.0183  0.0740
 6932SOL     OW22083   5.016   3.384   6.700  0.0891 -0.3501  0.2183
 6932SOL    HW122084   4.930   3.390   6.660  0.7275 -1.3223 -1.3868
 6932SOL    HW222085   5.016   3.451   6.769 -2.0807 -0.6574  0.5727
 6933SOL     OW22086   7.683   4.108   5.935  0.1116 -0.1977 -1.0985
 6933SOL    HW122087   7.752   4.065   5.884 -0.2501 -1.7246 -0.3667
 6933SOL    HW222088   7.657   4.183   5.882  1.2951 -0.4466 -2.0845
 6934SOL     OW22089   6.876   5.089   7.160  0.4444  0.4082  0.0490
 6934SOL    HW122090   6.966   5.116   7.180  1.2942 -1.0849 -1.4657
 6934SOL    HW222091   6.826   5.113   7.238  1.5106  4.0025 -0.2061
 6935SOL     OW22092   7.429   6.982   1.143  0.4680 -0.8448  0.8088
 6935SOL    HW122093   7.426   7.072   1.110  0.5127 -0.7802  0.9768
 6935SOL    HW222094   7.380   6.931   1.079 -0.1585 -0.5841  1.0707
 6936SOL     OW22095   3.478   7.248   6.970  0.3086 -0.0668  0.3339
 6936SOL    HW122096   3.536   7.186   7.014  1.3843 -1.3681 -2.6289
 6936SOL    HW222097   3.531   7.327   6.959  0.4480 -0.1550  0.3672
 6937SOL     OW22098   8.225   6.311   4.551  0.1813  0.3910  0.1454
 6937SOL    HW122099   8.245   6.405   4.552  0.5933  0.3060  0.9448
 6937SOL    HW222100   8.141   6.304   4.596 -0.4219  0.4813 -0.9277
 6938SOL     OW22101   5.495   6.939   2.233  0.2404 -0.5397  0.4709
 6938SOL    HW122102   5.581   6.936   2.275  0.0901 -1.4187  0.7351
 6938SOL    HW222103   5.448   6.864   2.270 -1.1409  0.7418  1.4013
 6939SOL     OW22104   2.830   0.258   2.024 -0.0442  0.1697 -0.2921
 6939SOL    HW122105   2.913   0.267   2.072  0.3767  0.2276 -1.0231
 6939SOL    HW222106   2.819   0.164   2.013 -0.8595  0.0618  1.1278
 6940SOL     OW22107   1.738   4.695   1.277  0.1854  0.6069 -0.7034
 6940SOL    HW122108   1.717   4.698   1.371 -2.6073 -2.2607 -1.0623
 6940SOL    HW222109   1.830   4.667   1.274 -0.3864 -1.8539  1.2739
 6941SOL     OW22110   2.087   3.825   2.337 -0.2916  0.1332 -0.1678
 6941SOL    HW122111   2.064   3.762   2.405  0.0586 -0.2723 -0.4245
 6941SOL    HW222112   2.057   3.909   2.372 -0.5760 -0.1437  0.2633
 6942SOL     OW22113   4.123   4.974   0.168 -0.2813 -0.3775 -0.6342
 6942SOL    HW122114   4.129   4.879   0.158 -0.4229 -0.4400 -0.1123
 6942SOL    HW222115   4.205   4.999   0.210 -0.8702 -0.4576  0.6099
 6943SOL     OW22116   4.734   8.198   4.614  0.3607 -1.0141 -0.3254
 6943SOL    HW122117   4.726   8.280   4.566  0.9622 -0.8701 -0.1887
 6943SOL    HW222118   4.777   8.138   4.554 -0.1613 -1.2655 -0.4587
 6944SOL     OW22119   6.882   4.937   8.547  0.4663 -0.7127 -0.0268
 6944SOL    HW122120   6.801   4.986   8.533  0.3698 -1.2785 -1.7630
 6944SOL    HW222121   6.860   4.847   8.523  2.2050 -0.4332 -3.2037
 6945SOL     OW22122   1.937   4.150   3.184 -0.4313 -0.1294 -0.1741
 6945SOL    HW122123   1.926   4.065   3.228  1.7460 -1.4854 -1.9834
 6945SOL    HW222124   1.912   4.133   3.093 -0.6042  1.3651 -0.4296
 6946SOL     OW22125   2.410   3.139   2.650 -0.3999  0.1215 -0.2056
 6946SOL    HW122126   2.388   3.150   2.742 -0.5679 -0.5022 -0.1665
 6946SOL    HW222127   2.428   3.228   2.619 -1.3132  0.4520  0.1794
 6947SOL     OW22128   2.958   2.016   7.628  0.1208 -0.8687  0.1545
 6947SOL    HW122129   3.036   2.006   7.682  1.5640 -0.9913 -1.8602
 6947SOL    HW222130   2.972   2.098   7.579 -1.7308 -0.0773  0.8343
 6948SOL     OW22131   2.137   1.904   4.669  0.2052 -0.1344 -0.4840
 6948SOL    HW122132   2.108   1.960   4.597  1.1268  0.2888 -0.5385
 6948SOL    HW222133   2.102   1.817   4.647 -2.0095  0.5614  0.0570
 6949SOL     OW22134   5.813   8.241   6.709  0.6419  0.4278  0.0884
 6949SOL    HW122135   5.870   8.314   6.735  1.9124 -1.0361  1.6445
 6949SOL    HW222136   5.775   8.210   6.791 -2.4636  1.2910 -0.8808
 6950SOL     OW22137   5.231   6.222   2.932  0.1231  0.1764  0.3419
 6950SOL    HW122138   5.317   6.181   2.917 -0.9906 -3.3487  2.3828
 6950SOL    HW222139   5.238   6.262   3.019 -0.4562 -0.6996  0.8029
 6951SOL     OW22140   6.778   2.748   5.461  0.2610 -0.1978 -0.2213
 6951SOL    HW122141   6.746   2.752   5.551  0.5929 -1.1607 -0.0486
 6951SOL    HW222142   6.714   2.799   5.411 -0.4294 -0.4050  0.4194
 6952SOL     OW22143   3.911   2.205   2.994  0.2848  0.4433 -0.1655
 6952SOL    HW122144   3.956   2.128   3.029 -0.3548  0.9810  1.9278
 6952SOL    HW222145   3.903   2.265   3.067 -1.6256  1.3977 -1.0699
 6953SOL     OW22146   8.247   3.347   1.748 -0.0486 -0.4136  0.1508
 6953SOL    HW122147   8.341   3.340   1.728  0.6126  0.9164  2.4435
 6953SOL    HW222148   8.204   3.329   1.665  2.2285 -1.0824 -0.9804
 6954SOL     OW22149   6.858   0.078   3.085  0.0653  0.3598  0.4187
 6954SOL    HW122150   6.793   0.038   3.027  0.0323  1.2189 -0.1462
 6954SOL    HW222151   6.807   0.139   3.139  0.1694 -0.0888  1.0382
 6955SOL     OW22152   4.628   4.596   4.135  0.1813 -0.1613 -0.1691
 6955SOL    HW122153   4.709   4.581   4.086 -0.2903  2.6309 -2.0153
 6955SOL    HW222154   4.640   4.682   4.176 -1.8350  0.3567 -0.5532
 6956SOL     OW22155   0.643   2.699   7.323  0.1852 -0.0045  0.2287
 6956SOL    HW122156   0.665   2.656   7.240 -0.4801  0.0256  0.0247
 6956SOL    HW222157   0.650   2.630   7.389 -2.0953 -0.7992 -0.2670
 6957SOL     OW22158   0.837   4.306   4.085 -0.0841 -0.0896  0.0178
 6957SOL    HW122159   0.841   4.210   4.092 -3.3069 -0.2192  2.2168
 6957SOL    HW222160   0.745   4.325   4.066  0.3143  2.6239  0.4051
 6958SOL     OW22161   2.660   5.207   0.237  0.1032 -0.4720 -0.3708
 6958SOL    HW122162   2.602   5.238   0.307 -0.9318 -2.0809 -0.4499
 6958SOL    HW222163   2.677   5.284   0.183 -2.2023  0.0500 -0.4682
 6959SOL     OW22164   3.348   1.390   5.875  0.8290 -0.4518 -0.2933
 6959SOL    HW122165   3.441   1.377   5.889  1.3500 -0.0061 -2.8937
 6959SOL    HW222166   3.329   1.344   5.793 -0.8848  0.7488 -0.6265
 6960SOL     OW22167   7.167   0.852   7.725 -0.0535  0.0371  0.6129
 6960SOL    HW122168   7.193   0.926   7.779  1.9862 -1.0862  1.2715
 6960SOL    HW222169   7.249   0.809   7.702 -0.8080  0.4311 -3.4630
 6961SOL     OW22170   5.178   5.724   3.864 -0.0996  0.3430  0.1733
 6961SOL    HW122171   5.163   5.657   3.931  0.1962 -0.9783 -1.0332
 6961SOL    HW222172   5.106   5.786   3.876 -0.6740 -0.4588  1.0071
 6962SOL     OW22173   5.993   1.897   4.376  0.4669  0.5766  0.6191
 6962SOL    HW122174   6.085   1.912   4.356  0.5645 -0.6360  0.0131
 6962SOL    HW222175   5.978   1.806   4.350 -1.0925  0.9800 -0.0186
 6963SOL     OW22176   6.830   4.110   0.581  0.0794  0.3807 -0.2089
 6963SOL    HW122177   6.836   4.163   0.502  0.6980  0.7912  0.1019
 6963SOL    HW222178   6.771   4.039   0.558  0.0664  0.6255 -0.9644
 6964SOL     OW22179   4.487   7.664   3.282  0.4554 -0.2008  0.0903
 6964SOL    HW122180   4.513   7.755   3.296  2.7223 -0.7307 -0.1749
 6964SOL    HW222181   4.468   7.658   3.189 -0.8725  0.2397  0.3174
 6965SOL     OW22182   3.701   2.293   5.083 -0.3276 -0.2633 -0.0032
 6965SOL    HW122183   3.781   2.309   5.032 -0.0486  0.6547  0.6970
 6965SOL    HW222184   3.636   2.267   5.018  0.8006 -2.0849 -0.4878
 6966SOL     OW22185   6.201   8.127   4.272  0.7929 -0.4198 -0.2194
 6966SOL    HW122186   6.271   8.133   4.337 -0.4392  2.1037  0.9962
 6966SOL    HW222187   6.120   8.126   4.324 -0.1838  0.4303 -1.6587
 6967SOL     OW22188   6.789   4.692   5.061  0.7696 -0.6834  0.0433
 6967SOL    HW122189   6.834   4.699   5.146  2.9762  0.9966 -1.1473
 6967SOL    HW222190   6.806   4.603   5.033 -0.8558 -1.5943  1.7639
 6968SOL     OW22191   0.066   0.197   0.419 -0.2381  0.4127  0.7821
 6968SOL    HW122192   0.057   0.234   0.331 -2.2940  1.5173  1.3915
 6968SOL    HW222193   0.011   0.119   0.418 -0.0823  0.2993  1.0297
 6969SOL     OW22194   7.944   4.720   1.289  0.0344  0.1279 -0.6532
 6969SOL    HW122195   7.962   4.657   1.219  0.5322 -2.7113  1.8144
 6969SOL    HW222196   8.023   4.774   1.294 -0.3675  1.0469 -2.7576
 6970SOL     OW22197   8.639   4.331   0.256 -0.1656 -0.5435 -0.4124
 6970SOL    HW122198   8.568   4.394   0.271  0.8478  0.9872 -1.6639
 6970SOL    HW222199   8.718   4.378   0.283  0.3331 -2.7461  2.3815
 6971SOL     OW22200   4.975   7.386   7.450  0.6468 -0.2081  0.0948
 6971SOL    HW122201   5.069   7.370   7.461  0.6497 -0.9183 -0.8674
 6971SOL    HW222202   4.957   7.360   7.360 -0.6214 -0.8016  0.5006
 6972SOL     OW22203   4.557   1.341   1.723 -0.1700  0.4378  0.4408
 6972SOL    HW122204   4.608   1.308   1.649  1.3346  0.3613  1.4474
 6972SOL    HW222205   4.539   1.432   1.701 -0.2957  0.2379 -0.2967
 6973SOL     OW22206   0.661   0.885   4.590  0.2276 -0.2150  0.0833
 6973SOL    HW122207   0.682   0.933   4.510  2.4197 -0.6752  0.3222
 6973SOL    HW222208   0.639   0.797   4.559 -1.1751  0.2059 -0.1578
 6974SOL     OW22209   1.066   0.741   8.375  0.6110 -0.7481  0.3216
 6974SOL    HW122210   1.111   0.823   8.357 -0.1516 -0.4121 -0.0827
 6974SOL    HW222211   1.112   0.704   8.450  0.1377  0.6940  1.3592
 6975SOL     OW22212   2.549   4.683   5.402 -0.0282  0.1765  0.1506
 6975SOL    HW122213   2.579   4.765   5.364  0.9701 -0.5263 -0.6293
 6975SOL    HW222214   2.463   4.704   5.440  0.1043  1.5049 -0.2421
 6976SOL     OW22215   8.131   3.828   0.306 -0.3548  0.1087  0.6234
 6976SOL    HW122216   8.118   3.797   0.217 -0.8368  0.5411  0.5325
 6976SOL    HW222217   8.225   3.820   0.322 -0.1152  0.9582 -0.2839
 6977SOL     OW22218   4.801   1.781   0.175  0.0824 -0.6464 -0.0600
 6977SOL    HW122219   4.818   1.774   0.081 -1.0091 -0.9294 -0.2521
 6977SOL    HW222220   4.846   1.861   0.201 -1.0377  0.4058 -1.1964
 6978SOL     OW22221   2.270   8.629   1.413 -0.2659  0.0143  0.2825
 6978SOL    HW122222   2.242   8.551   1.365  0.0862 -0.1922  0.4078
 6978SOL    HW222223   2.364   8.633   1.397 -0.1257 -0.1234  1.0573
 6979SOL     OW22224   2.267   5.236   8.658 -0.1350  0.4330 -0.3528
 6979SOL    HW122225   2.191   5.266   8.610  2.1163  4.6604 -1.7906
 6979SOL    HW222226   2.306   5.168   8.603 -1.3527  0.1535 -0.8957
 6980SOL     OW22227   5.088   5.182   6.815  0.2748 -0.2474  0.3407
 6980SOL    HW122228   5.011   5.127   6.798  0.9112 -0.7185 -1.0945
 6980SOL    HW222229   5.091   5.188   6.911 -1.9151  0.3173  0.4431
 6981SOL     OW22230   1.375   5.219   6.999  0.0446 -0.0135 -0.0866
 6981SOL    HW122231   1.328   5.224   6.916 -0.1772  1.6737  0.1079
 6981SOL    HW222232   1.430   5.297   7.000  0.2972 -0.1929  1.2133
 6982SOL     OW22233   7.546   7.985   7.792 -0.0582  0.4294 -0.5071
 6982SOL    HW122234   7.514   7.896   7.807  3.1700 -1.4062 -3.0422
 6982SOL    HW222235   7.593   8.007   7.872 -1.4284  0.1925  0.4056
 6983SOL     OW22236   0.422   2.121   4.940 -0.2136  0.3522  0.1370
 6983SOL    HW122237   0.370   2.201   4.931 -2.4265 -1.0754 -0.7164
 6983SOL    HW222238   0.433   2.110   5.034 -1.4420  0.7522  0.3463
 6984SOL     OW22239   8.211   8.401   0.798 -0.4536 -0.0044  0.3691
 6984SOL    HW122240   8.129   8.352   0.813 -0.6221  0.1443 -0.0690
 6984SOL    HW222241   8.185   8.493   0.805 -0.1729  0.0365  0.9902
 6985SOL     OW22242   6.698   2.037   3.016  0.3348  0.0779  0.1912
 6985SOL    HW122243   6.782   2.002   2.989 -0.2663 -0.3974 -1.1615
 6985SOL    HW222244   6.703   2.131   2.999  0.2505 -0.1000 -0.8648
 6986SOL     OW22245   0.401   6.186   2.091  0.0722  0.0532 -0.4881
 6986SOL    HW122246   0.382   6.207   2.183 -0.9619 -0.0384 -0.6673
 6986SOL    HW222247   0.485   6.141   2.094 -0.7566 -1.5154  0.6279
 6987SOL     OW22248   3.634   7.822   0.756 -0.5923  0.4876 -0.0381
 6987SOL    HW122249   3.679   7.907   0.762  0.1004  0.1189  0.0654
 6987SOL    HW222250   3.574   7.832   0.683  0.4566  0.6315 -0.9093
 6988SOL     OW22251   4.181   3.459   4.785  0.1579 -0.4225  0.5113
 6988SOL    HW122252   4.130   3.470   4.705  1.9537 -1.0805 -0.7950
 6988SOL    HW222253   4.116   3.461   4.856 -1.7000 -1.5882 -1.0596
 6989SOL     OW22254   5.462   4.319   4.904  0.0132  0.1010 -0.4979
 6989SOL    HW122255   5.409   4.271   4.967  0.3846 -1.3313 -1.2305
 6989SOL    HW222256   5.489   4.253   4.840  0.6881  1.2642 -1.4600
 6990SOL     OW22257   4.476   6.824   4.851 -0.6951 -0.0074 -0.1899
 6990SOL    HW122258   4.423   6.745   4.847 -1.6764  0.6217  0.0487
 6990SOL    HW222259   4.552   6.799   4.904 -0.8321 -0.8679 -0.3772
 6991SOL     OW22260   3.485   5.689   8.469 -0.0835  0.0179  0.2864
 6991SOL    HW122261   3.550   5.730   8.411 -1.0888  1.5066  0.1712
 6991SOL    HW222262   3.527   5.687   8.555  0.9609 -1.1077 -0.2161
 6992SOL     OW22263   8.397   2.005   6.927 -0.7512 -0.3481  0.1703
 6992SOL    HW122264   8.475   2.029   6.877 -1.5179  1.3054 -0.2964
 6992SOL    HW222265   8.416   2.034   7.017 -1.4171  1.5511 -0.2617
 6993SOL     OW22266   1.038   5.855   7.909  0.1608 -0.2302 -0.3046
 6993SOL    HW122267   0.956   5.813   7.933  0.0880 -0.4100 -0.8416
 6993SOL    HW222268   1.014   5.947   7.895 -0.2493 -0.5454 -1.8463
 6994SOL     OW22269   4.888   7.740   3.389  0.2861  0.6463  0.1894
 6994SOL    HW122270   4.896   7.790   3.307  1.5050 -0.8727 -0.6736
 6994SOL    HW222271   4.896   7.806   3.457  2.2772  1.6534 -0.9075
 6995SOL     OW22272   7.226   3.644   7.834  0.3301  0.1567 -0.3102
 6995SOL    HW122273   7.241   3.550   7.828 -0.4896  0.0488 -0.7337
 6995SOL    HW222274   7.298   3.683   7.783  0.1872 -0.2743 -0.8522
 6996SOL     OW22275   7.368   2.791   6.863  0.1465  0.1577  0.1465
 6996SOL    HW122276   7.303   2.832   6.805  0.1999  2.2393  1.4527
 6996SOL    HW222277   7.366   2.698   6.839 -0.0066  0.8462 -2.9737
 6997SOL     OW22278   1.787   5.087   7.643 -0.1835  0.4656 -0.3721
 6997SOL    HW122279   1.877   5.119   7.649  1.7773 -3.6911 -2.7044
 6997SOL    HW222280   1.762   5.103   7.552 -0.9805 -0.2227 -0.2833
 6998SOL     OW22281   2.250   3.877   6.735  0.8504  0.4166 -0.2852
 6998SOL    HW122282   2.273   3.796   6.689 -0.2862 -0.0495 -0.0658
 6998SOL    HW222283   2.300   3.945   6.691  1.6005 -0.3576 -0.6661
 6999SOL     OW22284   5.522   4.216   1.410 -0.2606 -0.0233 -0.4354
 6999SOL    HW122285   5.537   4.172   1.327  1.6893  1.5876 -1.0230
 6999SOL    HW222286   5.579   4.293   1.407 -1.8451  1.3266  1.4492
 7000SOL     OW22287   3.521   4.082   7.707 -0.3561 -0.5035 -0.7933
 7000SOL    HW122288   3.443   4.052   7.755 -1.0812  1.0510 -0.9575
 7000SOL    HW222289   3.526   4.024   7.631  0.4038 -2.5621  0.7230
 7001SOL     OW22290   0.657   8.320   5.137 -0.3015  0.0274 -0.5878
 7001SOL    HW122291   0.752   8.325   5.126 -0.2141 -2.2658 -1.4144
 7001SOL    HW222292   0.624   8.399   5.096  1.2520  1.0804  0.0774
 7002SOL     OW22293   6.794   6.101   0.755 -0.6009 -0.0294 -0.3507
 7002SOL    HW122294   6.864   6.062   0.701 -0.6746 -1.9818  0.8666
 7002SOL    HW222295   6.749   6.161   0.695  1.6602  0.7916 -1.3685
 7003SOL     OW22296   3.252   7.302   4.120 -0.1116  0.7841  0.0990
 7003SOL    HW122297   3.297   7.300   4.036  0.0149 -1.4169  0.1443
 7003SOL    HW222298   3.307   7.250   4.178 -1.3371  0.3272  0.8979
 7004SOL     OW22299   1.779   5.862   7.391 -0.1373  0.3967  0.2280
 7004SOL    HW122300   1.719   5.933   7.367  0.0273  1.0443  1.6482
 7004SOL    HW222301   1.862   5.907   7.410 -0.4865  0.0544  2.8005
 7005SOL     OW22302   0.326   0.083   1.915  0.5222  0.1872 -0.1389
 7005SOL    HW122303   0.410   0.047   1.941  0.3437 -0.8155 -0.8533
 7005SOL    HW222304   0.331   0.089   1.819 -0.7432 -1.3822 -0.3579
 7006SOL     OW22305   1.511   0.014   0.462 -0.2341  0.0217  0.0265
 7006SOL    HW122306   1.492   0.102   0.430 -0.2001  0.0347  0.0428
 7006SOL    HW222307   1.449   0.001   0.534 -0.2486  0.0267  0.0150
 7007SOL     OW22308   4.184   3.898   8.246 -0.4889  0.0557  0.6595
 7007SOL    HW122309   4.170   3.803   8.248  0.8030 -0.1772 -0.2026
 7007SOL    HW222310   4.102   3.933   8.209  0.2332 -1.0631 -2.3179
 7008SOL     OW22311   0.770   2.075   5.131  0.0725 -0.1951  0.3579
 7008SOL    HW122312   0.751   1.982   5.125 -1.5785  0.1119  0.3446
 7008SOL    HW222313   0.685   2.116   5.152  1.0674  1.1255  2.1524
 7009SOL     OW22314   2.355   5.526   2.384  0.2561  0.0344 -0.5762
 7009SOL    HW122315   2.436   5.561   2.348  0.9852 -0.9488  0.0399
 7009SOL    HW222316   2.351   5.437   2.351  0.3367 -0.4938  0.7701
 7010SOL     OW22317   1.588   4.623   5.598 -0.2200 -0.0185 -0.5176
 7010SOL    HW122318   1.539   4.699   5.568  2.6019  2.0202 -0.3504
 7010SOL    HW222319   1.654   4.658   5.657  0.5388 -2.7704  0.4593
 7011SOL     OW22320   7.996   7.337   5.719 -0.3130 -0.2118 -0.2828
 7011SOL    HW122321   7.952   7.419   5.741  0.5959  0.4050 -0.6889
 7011SOL    HW222322   7.956   7.272   5.776 -1.4968  0.3929 -0.3993
 7012SOL     OW22323   5.433   3.018   0.390 -0.1922 -0.2847 -0.2177
 7012SOL    HW122324   5.422   3.105   0.353 -0.2870 -0.4930 -0.6918
 7012SOL    HW222325   5.455   2.963   0.315 -1.2510 -0.8840 -0.1100
 7013SOL     OW22326   1.205   4.117   5.861 -0.4989  0.2733 -0.0723
 7013SOL    HW122327   1.160   4.127   5.777 -1.3178 -0.1354  0.3018
 7013SOL    HW222328   1.222   4.207   5.890  0.8801  0.4112 -1.2199
 7014SOL     OW22329   5.643   4.263   0.814  0.0955 -0.0991 -0.0357
 7014SOL    HW122330   5.635   4.169   0.797 -1.0818 -0.2076  1.0071
 7014SOL    HW222331   5.704   4.269   0.888 -0.9707 -0.1630  0.8735
 7015SOL     OW22332   8.025   0.406   4.864  0.0763 -0.0599  0.1617
 7015SOL    HW122333   8.065   0.372   4.784  0.2226  0.1683  0.1365
 7015SOL    HW222334   8.089   0.470   4.898  0.3034 -0.6145  0.7999
 7016SOL     OW22335   6.593   3.857   7.793  0.5971 -0.4067  0.3914
 7016SOL    HW122336   6.526   3.810   7.842 -0.1958 -0.6285 -0.8586
 7016SOL    HW222337   6.634   3.915   7.858 -0.3447 -0.7537  1.3241
 7017SOL     OW22338   8.128   5.289   7.150 -0.4246  0.7110 -0.4274
 7017SOL    HW122339   8.122   5.195   7.169 -1.7481  0.6244 -1.2105
 7017SOL    HW222340   8.211   5.298   7.102  0.4652  0.1919  0.9490
 7018SOL     OW22341   4.882   6.647   6.567 -0.2207 -0.3622 -0.3558
 7018SOL    HW122342   4.939   6.608   6.634  0.2889 -1.0642 -1.1816
 7018SOL    HW222343   4.881   6.740   6.588 -1.1912 -0.7413  1.4641
 7019SOL     OW22344   4.620   8.133   7.214 -0.6811 -0.3380  0.7067
 7019SOL    HW122345   4.591   8.153   7.303 -1.8077  0.5249  0.1670
 7019SOL    HW222346   4.539   8.120   7.164 -0.1323  0.9818 -0.5945
 7020SOL     OW22347   6.748   8.593   5.900  0.4712 -0.0829 -0.3781
 7020SOL    HW122348   6.837   8.567   5.880  0.1059 -1.3340 -0.4607
 7020SOL    HW222349   6.700   8.511   5.909 -0.2075  0.4733  1.8477
 7021SOL     OW22350   0.243   6.646   2.740  0.6463  1.0611  0.2798
 7021SOL    HW122351   0.318   6.705   2.743  0.8394  0.8350  0.0085
 7021SOL    HW222352   0.275   6.564   2.779  0.4986  1.0071  0.2894
 7022SOL     OW22353   2.408   4.497   3.930 -0.2603 -0.1856 -0.5799
 7022SOL    HW122354   2.327   4.446   3.933 -0.4759 -0.2975 -4.0681
 7022SOL    HW222355   2.379   4.586   3.908  0.4676  0.2547  0.1806
 7023SOL     OW22356   7.012   3.305   0.472  0.1456  0.3465  0.7319
 7023SOL    HW122357   6.948   3.269   0.534 -0.7052  1.3616  0.4871
 7023SOL    HW222358   7.037   3.389   0.510 -1.0225  1.3795 -0.6578
 7024SOL     OW22359   4.206   4.706   7.838  0.5827  0.1745 -0.0872
 7024SOL    HW122360   4.250   4.790   7.822 -1.2089  1.0785 -0.5163
 7024SOL    HW222361   4.236   4.649   7.767 -0.5859  1.4714 -1.6975
 7025SOL     OW22362   5.152   1.853   3.793 -0.4739 -0.2508 -0.0832
 7025SOL    HW122363   5.151   1.944   3.825 -1.6590  0.4268 -1.8917
 7025SOL    HW222364   5.143   1.861   3.698 -0.5719 -2.2861 -0.2884
 7026SOL     OW22365   0.427   0.522   3.961 -0.7956 -0.3992 -0.2015
 7026SOL    HW122366   0.493   0.456   3.941 -0.1561  0.4033 -0.7912
 7026SOL    HW222367   0.476   0.594   4.001 -1.4667 -0.2286  0.3294
 7027SOL     OW22368   2.987   0.878   4.763 -0.2143 -0.2624 -0.5303
 7027SOL    HW122369   2.920   0.855   4.829 -0.5653  0.4953 -0.6191
 7027SOL    HW222370   2.964   0.966   4.736 -1.5082 -1.3683 -3.4324
 7028SOL     OW22371   1.951   5.991   7.081 -0.6823  0.0829 -0.1975
 7028SOL    HW122372   1.940   6.084   7.060 -2.0159 -0.3174 -1.4256
 7028SOL    HW222373   2.030   5.988   7.135 -1.5478  2.1328  1.3238
 7029SOL     OW22374   6.680   7.924   8.451 -0.2875  0.2222 -0.0722
 7029SOL    HW122375   6.614   7.911   8.382 -0.3996  0.6156 -0.0433
 7029SOL    HW222376   6.764   7.915   8.406 -0.3567  1.2345 -0.4177
 7030SOL     OW22377   6.447   5.631   6.908 -0.1454 -0.7189  0.0533
 7030SOL    HW122378   6.479   5.592   6.827  0.9176  0.9969 -0.4073
 7030SOL    HW222379   6.524   5.638   6.964 -0.5785 -0.5052  0.6395
 7031SOL     OW22380   3.455   6.749   0.014  0.6255  0.4452  0.3087
 7031SOL    HW122381   3.482   6.662   0.043  0.1959  0.3479  0.4202
 7031SOL    HW222382   3.521   6.774  -0.051  0.6809 -0.0104  0.1903
 7032SOL     OW22383   0.785   1.590   0.537  0.3574  0.1912  0.3566
 7032SOL    HW122384   0.773   1.524   0.470 -3.2039  1.5900 -0.6381
 7032SOL    HW222385   0.825   1.664   0.491  0.7773  0.0784  0.5377
 7033SOL     OW22386   2.159   0.973   3.968 -0.2503  0.0737 -0.0041
 7033SOL    HW122387   2.162   0.879   3.985 -2.3485 -0.1501 -0.6494
 7033SOL    HW222388   2.155   1.013   4.055  3.1296 -0.2041  0.4221
 7034SOL     OW22389   2.516   7.617   7.159 -0.1596 -0.2724 -0.6625
 7034SOL    HW122390   2.589   7.674   7.185 -0.6822  0.0728  0.0538
 7034SOL    HW222391   2.445   7.677   7.136 -1.4812 -0.5787  2.2352
 7035SOL     OW22392   4.834   3.410   7.448 -0.2811 -0.2267 -0.5763
 7035SOL    HW122393   4.853   3.449   7.363  0.1209 -0.1716 -0.4643
 7035SOL    HW222394   4.763   3.463   7.484 -0.2293 -0.0508 -0.7366
 7036SOL     OW22395   0.370   6.040   3.050 -0.1571  0.0701  0.7171
 7036SOL    HW122396   0.341   6.049   3.141 -0.7046  0.7453  0.4935
 7036SOL    HW222397   0.434   6.110   3.039  0.8839 -0.8348  0.9440
 7037SOL     OW22398   7.950   3.241   6.749 -0.5914  0.0450  0.4696
 7037SOL    HW122399   7.943   3.309   6.816  1.1966 -0.1588  0.9058
 7037SOL    HW222400   8.025   3.268   6.695 -1.8316  0.0789 -1.3364
 7038SOL     OW22401   7.791   3.405   5.697 -0.1906  0.5485  0.5747
 7038SOL    HW122402   7.821   3.479   5.645 -2.4789  1.5561  0.5518
 7038SOL    HW222403   7.856   3.337   5.683  0.9679  1.9063 -0.9640
 7039SOL     OW22404   2.344   3.279   0.163 -0.4691  0.0068 -0.0572
 7039SOL    HW122405   2.417   3.266   0.223 -1.4102 -1.5284  0.8354
 7039SOL    HW222406   2.269   3.295   0.221 -0.7292  2.4788 -0.9700
 7040SOL     OW22407   6.552   2.184   7.246  0.4014  0.1509  0.0584
 7040SOL    HW122408   6.605   2.172   7.167  1.4964  0.5226  0.7279
 7040SOL    HW222409   6.598   2.136   7.314  1.1401  2.2952  1.1742
 7041SOL     OW22410   4.727   4.220   6.331 -0.9012 -0.3888 -0.1227
 7041SOL    HW122411   4.689   4.135   6.309 -0.4865 -0.5682 -0.1642
 7041SOL    HW222412   4.793   4.235   6.263 -2.5715  1.0717 -1.5023
 7042SOL     OW22413   1.173   7.611   4.122  0.2634  0.2087 -0.0119
 7042SOL    HW122414   1.125   7.676   4.071 -1.0824  0.0414  1.0076
 7042SOL    HW222415   1.265   7.637   4.114  0.0227  0.6024 -1.8965
 7043SOL     OW22416   5.497   1.619   0.078 -0.2528 -0.3870  0.2387
 7043SOL    HW122417   5.465   1.530   0.089  2.8078 -1.4733  1.8161
 7043SOL    HW222418   5.461   1.667   0.153  0.6095 -1.2100  1.2202
 7044SOL     OW22419   6.417   6.505   5.711  0.0785  0.0442  0.0373
 7044SOL    HW122420   6.505   6.534   5.686  0.0864 -1.7407 -2.2571
 7044SOL    HW222421   6.366   6.513   5.631 -1.8188  0.7351  1.2546
 7045SOL     OW22422   2.709   3.050   3.957 -0.2084 -0.2650 -0.2025
 7045SOL    HW122423   2.672   2.998   4.029  0.2848 -0.5304 -0.1347
 7045SOL    HW222424   2.672   3.011   3.878 -0.1593 -0.4563 -0.1317
 7046SOL     OW22425   0.040   7.252   4.525  0.7312 -0.1518  0.5849
 7046SOL    HW122426   0.067   7.315   4.457 -1.6639  1.6836  1.2102
 7046SOL    HW222427   0.095   7.274   4.600  3.0657 -1.8815 -0.4977
 7047SOL     OW22428   1.705   2.711   0.806  0.1035 -0.2541  0.0514
 7047SOL    HW122429   1.643   2.757   0.863 -0.0941 -0.3680 -0.0698
 7047SOL    HW222430   1.707   2.764   0.726  0.5129  0.0012  0.2283
 7048SOL     OW22431   2.926   7.846   2.675  0.2813  0.2270 -0.4588
 7048SOL    HW122432   2.898   7.937   2.669 -0.7852 -0.0913 -0.5252
 7048SOL    HW222433   2.910   7.823   2.767 -1.0342 -0.3614 -0.8062
 7049SOL     OW22434   0.866   7.875   5.622 -0.1177  0.1848 -0.2842
 7049SOL    HW122435   0.832   7.862   5.533 -1.3298 -1.7586  0.3890
 7049SOL    HW222436   0.876   7.787   5.656 -0.3407  0.8969  1.7488
 7050SOL     OW22437   6.288   0.990   6.293  0.5894 -0.6538  0.8078
 7050SOL    HW122438   6.335   1.063   6.332 -0.2004 -0.6279  1.7455
 7050SOL    HW222439   6.204   0.987   6.340 -1.5559  1.0077 -2.5015
 7051SOL     OW22440   8.480   8.104   2.445  0.3936  0.2914 -0.3386
 7051SOL    HW122441   8.472   8.013   2.416 -1.4185  0.2127  0.2808
 7051SOL    HW222442   8.476   8.155   2.364  2.0952 -0.1564 -0.7592
 7052SOL     OW22443   7.146   3.853   1.615 -0.0289  0.0053  0.0681
 7052SOL    HW122444   7.105   3.776   1.656 -1.7762 -0.0588 -1.6533
 7052SOL    HW222445   7.100   3.928   1.653 -0.9880 -0.0115 -1.0190
 7053SOL     OW22446   0.915   5.082   0.788 -0.2746  0.6640  0.0684
 7053SOL    HW122447   0.966   5.131   0.724 -0.4245  0.1820 -0.4212
 7053SOL    HW222448   0.904   5.143   0.861  1.0531  0.7600  0.2140
 7054SOL     OW22449   6.996   1.606   0.654  0.4401  0.3059 -0.3987
 7054SOL    HW122450   6.989   1.562   0.569 -0.2984 -1.9020  0.7035
 7054SOL    HW222451   7.090   1.619   0.668  0.7051 -1.0762 -0.7577
 7055SOL     OW22452   5.515   8.132   0.144 -0.5792 -0.1146  0.2813
 7055SOL    HW122453   5.525   8.061   0.208  1.6538  0.2320  0.3978
 7055SOL    HW222454   5.493   8.087   0.063 -0.4862 -0.8405  0.6468
 7056SOL     OW22455   5.370   0.889   7.130 -0.1600  0.2227  0.0660
 7056SOL    HW122456   5.289   0.845   7.157  1.0829 -0.7596  2.4499
 7056SOL    HW222457   5.406   0.925   7.211  3.0304 -1.4951 -0.4172
 7057SOL     OW22458   5.600   8.690   2.977  0.3725  0.1235 -0.3901
 7057SOL    HW122459   5.687   8.653   2.964 -0.0846 -1.2397  0.2743
 7057SOL    HW222460   5.595   8.708   3.071 -0.4009 -0.7664 -0.2383
 7058SOL     OW22461   1.581   5.701   1.500  0.3507  0.3519 -0.1576
 7058SOL    HW122462   1.610   5.732   1.414 -2.3086  1.1453 -0.8684
 7058SOL    HW222463   1.548   5.612   1.483  1.6825 -0.2867  0.4903
 7059SOL     OW22464   2.081   3.360   4.894  0.2604 -0.2169 -0.1634
 7059SOL    HW122465   2.072   3.294   4.826  0.3042  0.9135 -1.3100
 7059SOL    HW222466   2.023   3.431   4.866 -1.4951 -0.5906  2.1369
 7060SOL     OW22467   6.125   5.266   1.485 -0.3301  0.2997  0.2662
 7060SOL    HW122468   6.153   5.199   1.547 -1.8818 -0.5182  0.1352
 7060SOL    HW222469   6.179   5.342   1.506  0.7009 -0.6393  1.1481
 7061SOL     OW22470   3.301   8.033   1.561 -0.5413  0.1904  0.2373
 7061SOL    HW122471   3.340   8.099   1.618 -0.2051  0.3519 -0.1693
 7061SOL    HW222472   3.374   7.973   1.540 -0.1235  1.2676 -1.6485
 7062SOL     OW22473   5.411   7.770   4.749  0.5620  0.1803 -0.6124
 7062SOL    HW122474   5.426   7.678   4.731 -2.3212 -0.3477 -0.8065
 7062SOL    HW222475   5.330   7.791   4.702 -0.2047  2.1445  1.4087
 7063SOL     OW22476   1.532   3.614   4.531 -0.3558 -0.2308 -0.8280
 7063SOL    HW122477   1.543   3.519   4.540 -2.8720 -0.5107  0.2320
 7063SOL    HW222478   1.473   3.625   4.457  0.1527  0.5354 -1.1295
 7064SOL     OW22479   0.006   7.196   1.210  0.5673  0.4056 -0.4143
 7064SOL    HW122480   0.033   7.138   1.281  0.3692  2.2419  1.2306
 7064SOL    HW222481   0.085   7.244   1.187  0.4757  0.2866 -0.9960
 7065SOL     OW22482   8.353   5.508   5.611  0.2152  0.2198  0.5035
 7065SOL    HW122483   8.400   5.475   5.535  1.9430  2.3534  0.5832
 7065SOL    HW222484   8.376   5.446   5.681  0.7273 -0.2693 -0.0818
 7066SOL     OW22485   3.203   2.691   2.313  0.6516  0.1354 -0.1665
 7066SOL    HW122486   3.274   2.754   2.327  1.2831 -0.4970 -0.4495
 7066SOL    HW222487   3.130   2.725   2.365  0.4470  1.9417 -1.5563
 7067SOL     OW22488   1.277   2.777   6.152  0.4901 -0.3947 -1.0453
 7067SOL    HW122489   1.320   2.747   6.072  0.2982 -0.2963 -1.1845
 7067SOL    HW222490   1.200   2.721   6.160  1.1201 -1.1921 -0.3055
 7068SOL     OW22491   7.855   2.729   5.057  0.0319 -0.8802 -0.2399
 7068SOL    HW122492   7.903   2.647   5.049  1.4868 -0.1615  0.8027
 7068SOL    HW222493   7.910   2.793   5.011 -0.4614 -0.2439  0.0504
 7069SOL     OW22494   4.285   0.674   1.798  0.0982  0.2144  0.2089
 7069SOL    HW122495   4.271   0.621   1.720 -0.4640  0.0037  0.4543
 7069SOL    HW222496   4.362   0.635   1.840  1.0331  0.9500 -0.7647
 7070SOL     OW22497   1.297   3.913   0.115  0.1551 -0.1786  0.1464
 7070SOL    HW122498   1.381   3.873   0.092  0.9780  0.7807  1.3903
 7070SOL    HW222499   1.232   3.845   0.094  1.0755 -0.4958 -2.0112
 7071SOL     OW22500   2.411   1.711   1.983  0.2416 -0.1798 -0.8134
 7071SOL    HW122501   2.496   1.683   2.017 -0.1189  1.0348  1.2745
 7071SOL    HW222502   2.431   1.787   1.927  0.4932  0.8383  0.5936
 7072SOL     OW22503   5.032   5.882   7.390  0.0642 -0.3729  0.1503
 7072SOL    HW122504   4.988   5.943   7.331 -0.6075 -1.1725 -0.1948
 7072SOL    HW222505   5.111   5.928   7.417 -0.4185  0.6431 -0.1136
 7073SOL     OW22506   5.417   3.321   5.598  0.0848 -0.6064  0.2157
 7073SOL    HW122507   5.348   3.267   5.560 -1.3194  1.3090 -0.1318
 7073SOL    HW222508   5.392   3.331   5.689  0.9815 -1.4736  0.5716
 7074SOL     OW22509   4.402   6.554   0.760  0.2862  0.1850 -0.5445
 7074SOL    HW122510   4.444   6.503   0.829  0.3548 -0.3537 -0.9831
 7074SOL    HW222511   4.466   6.555   0.689  0.0125  0.3308 -0.7881
 7075SOL     OW22512   1.292   7.802   7.067 -0.0927  0.6481 -0.4268
 7075SOL    HW122513   1.240   7.882   7.056 -0.9885  0.0297 -0.7818
 7075SOL    HW222514   1.235   7.732   7.037  0.7426 -0.1193 -0.2654
 7076SOL     OW22515   5.218   6.198   8.096  0.0094 -0.0947 -0.0118
 7076SOL    HW122516   5.293   6.258   8.096  1.3311 -1.6782 -0.6985
 7076SOL    HW222517   5.147   6.248   8.055  0.7609  1.3123  0.3392
 7077SOL     OW22518   4.470   2.839   4.481 -0.8884  0.3584  0.1522
 7077SOL    HW122519   4.438   2.752   4.458 -0.9544  0.6481 -0.9318
 7077SOL    HW222520   4.426   2.861   4.563 -1.0800 -0.5119  0.2863
 7078SOL     OW22521   4.507   8.199   4.184  0.2269 -0.3355  0.4296
 7078SOL    HW122522   4.588   8.150   4.173 -0.3252 -0.9806 -1.0422
 7078SOL    HW222523   4.440   8.133   4.200 -0.3791 -0.0327 -0.7028
 7079SOL     OW22524   4.216   4.423   0.410  0.4848  0.0662 -0.2617
 7079SOL    HW122525   4.144   4.482   0.430  0.9694  1.1784 -1.6753
 7079SOL    HW222526   4.230   4.374   0.492  0.1287  1.9448  0.9821
 7080SOL     OW22527   3.676   4.749   3.098 -0.2858 -0.3360 -0.0008
 7080SOL    HW122528   3.674   4.707   3.183 -3.3341  2.1436  1.3632
 7080SOL    HW222529   3.768   4.775   3.085  0.1156 -0.0618  2.9133
 7081SOL     OW22530   6.031   7.742   7.409 -0.1742 -0.0975  0.5569
 7081SOL    HW122531   6.075   7.756   7.325  0.2736 -0.5833  0.7070
 7081SOL    HW222532   6.087   7.785   7.473  0.9630 -2.0475  0.9569
 7082SOL     OW22533   3.152   0.882   0.347  0.1135  0.1414 -0.9726
 7082SOL    HW122534   3.194   0.950   0.294  1.0968  0.6584  0.3958
 7082SOL    HW222535   3.216   0.862   0.415 -1.7053  0.6932  1.0042
 7083SOL     OW22536   0.670   4.077   2.438 -0.4498  0.5053 -0.2431
 7083SOL    HW122537   0.689   4.171   2.427 -0.3085  0.4303 -0.6598
 7083SOL    HW222538   0.577   4.073   2.459 -0.2743  0.8020  0.6815
 7084SOL     OW22539   2.330   6.575   3.956 -0.0237  0.1810 -0.8188
 7084SOL    HW122540   2.339   6.521   4.035 -0.7905 -0.8765 -1.4141
 7084SOL    HW222541   2.237   6.600   3.955  0.8894  4.6815  1.3609
 7085SOL     OW22542   7.386   8.027   1.662 -0.1021 -0.0268  0.0964
 7085SOL    HW122543   7.326   8.101   1.651 -1.1194 -0.7865  0.3674
 7085SOL    HW222544   7.423   8.039   1.750  0.3254  0.5660 -0.1582
 7086SOL     OW22545   5.752   4.714   5.113 -0.6489  0.0652 -0.7030
 7086SOL    HW122546   5.834   4.736   5.068 -0.1370 -1.1954 -0.4462
 7086SOL    HW222547   5.684   4.761   5.065  0.1575  0.6573 -1.2874
 7087SOL     OW22548   2.965   2.792   7.731  0.3962 -0.8332  0.3815
 7087SOL    HW122549   2.897   2.752   7.785 -0.0063  1.7335  1.9101
 7087SOL    HW222550   3.017   2.845   7.791  2.3300 -0.8568 -1.1496
 7088SOL     OW22551   0.993   7.893   1.185 -0.3966 -0.3224  0.3528
 7088SOL    HW122552   1.050   7.944   1.128  1.6427 -2.2330  0.5745
 7088SOL    HW222553   0.905   7.904   1.146  0.4562  0.7599 -1.4180
 7089SOL     OW22554   7.683   0.476   7.992  0.2460  0.6627 -0.3826
 7089SOL    HW122555   7.627   0.520   8.056  1.8957  0.9201  0.9862
 7089SOL    HW222556   7.637   0.484   7.909  0.1917  4.6364 -0.1534
 7090SOL     OW22557   4.431   0.457   8.221 -0.4447 -0.1567  0.1861
 7090SOL    HW122558   4.346   0.495   8.201  0.5158  2.5362  0.8360
 7090SOL    HW222559   4.457   0.496   8.304  0.3870 -2.8643  1.3327
 7091SOL     OW22560   7.245   0.251   4.884  0.3279 -0.4544 -0.2424
 7091SOL    HW122561   7.324   0.302   4.904  0.9641 -0.6820 -1.9880
 7091SOL    HW222562   7.175   0.316   4.883  0.9025  0.1840 -1.0151
 7092SOL     OW22563   6.276   7.756   5.577 -0.2381  0.7840  0.1913
 7092SOL    HW122564   6.330   7.751   5.656 -1.6590 -1.1373  1.1517
 7092SOL    HW222565   6.334   7.791   5.509  2.4753 -1.9001  0.9229
 7093SOL     OW22566   4.636   3.191   7.792 -0.1148 -0.1656 -0.0903
 7093SOL    HW122567   4.558   3.246   7.790 -1.1538 -1.6125 -0.4009
 7093SOL    HW222568   4.665   3.187   7.701  0.8591  1.0460  0.1281
 7094SOL     OW22569   0.588   4.732   3.355  0.1615 -0.0350 -0.1912
 7094SOL    HW122570   0.675   4.726   3.316 -0.1688 -1.2525 -0.8096
 7094SOL    HW222571   0.600   4.782   3.435  1.4614 -0.3468 -0.1769
 7095SOL     OW22572   4.975   8.554   6.108  0.0735  0.1572 -0.3019
 7095SOL    HW122573   4.942   8.465   6.121 -2.6924  1.1061 -0.2374
 7095SOL    HW222574   4.923   8.607   6.167  2.3601  1.7455  0.3924
 7096SOL     OW22575   4.673   2.542   6.112 -0.0921  0.2325 -0.0343
 7096SOL    HW122576   4.684   2.450   6.136  0.1676  0.7572  2.0633
 7096SOL    HW222577   4.578   2.552   6.100 -0.0989 -0.3575 -0.5226
 7097SOL     OW22578   4.281   7.199   8.043 -0.2020  0.2932  0.0652
 7097SOL    HW122579   4.296   7.263   8.113 -0.5047  1.1333 -0.6337
 7097SOL    HW222580   4.358   7.142   8.047  0.0364  0.6457  0.7341
 7098SOL     OW22581   3.691   0.184   1.103  0.7174  0.4108 -0.1996
 7098SOL    HW122582   3.686   0.267   1.056  2.4519  1.8262  1.8915
 7098SOL    HW222583   3.627   0.191   1.173 -0.2378 -0.7199 -0.9204
 7099SOL     OW22584   0.241   3.075   0.587 -0.2017 -0.7052  0.2068
 7099SOL    HW122585   0.314   3.036   0.635 -0.6415 -1.2624  0.4290
 7099SOL    HW222586   0.201   3.135   0.650 -0.7437 -1.3933  0.5236
 7100SOL     OW22587   7.521   6.994   4.039 -0.5935  0.1890  0.7842
 7100SOL    HW122588   7.586   7.058   4.069  1.1016 -1.4551  0.8814
 7100SOL    HW222589   7.438   7.026   4.073 -0.2512  3.4719 -1.0111
 7101SOL     OW22590   7.930   3.798   3.474 -0.3387 -0.3297  0.2669
 7101SOL    HW122591   7.987   3.736   3.520  1.0931  1.3562  0.8908
 7101SOL    HW222592   7.952   3.785   3.381  0.1004 -0.6179  0.4067
 7102SOL     OW22593   8.679   4.651   7.181 -0.0090 -0.4872 -0.1639
 7102SOL    HW122594   8.714   4.658   7.092 -0.8155  0.4074 -0.4241
 7102SOL    HW222595   8.720   4.722   7.229 -0.6795 -0.0562 -0.2115
 7103SOL     OW22596   6.540   1.383   0.268  0.3521 -0.1186 -0.1935
 7103SOL    HW122597   6.487   1.412   0.193 -0.4339 -0.1985  0.3148
 7103SOL    HW222598   6.482   1.324   0.317  0.4673  0.7480  1.0405
 7104SOL     OW22599   8.432   4.205   4.675  0.0103 -0.1144  0.6314
 7104SOL    HW122600   8.366   4.136   4.682 -1.4556  1.0352 -0.9556
 7104SOL    HW222601   8.426   4.253   4.757  0.6094 -1.4448  1.4907
 7105SOL     OW22602   3.805   1.466   5.837  0.4672  0.3164 -0.2312
 7105SOL    HW122603   3.799   1.559   5.811 -1.7768  0.3400  0.2216
 7105SOL    HW222604   3.739   1.456   5.905 -0.6483 -2.0189 -1.5369
 7106SOL     OW22605   0.134   2.888   1.871 -0.7115  0.4398  0.3224
 7106SOL    HW122606   0.164   2.799   1.854 -1.3503  0.3854 -0.5776
 7106SOL    HW222607   0.044   2.877   1.902 -0.4952  0.7263  1.0910
 7107SOL     OW22608   1.856   6.510   0.947 -0.4576  0.3204 -0.7359
 7107SOL    HW122609   1.835   6.503   1.040 -2.3486  0.8585 -1.0889
 7107SOL    HW222610   1.823   6.428   0.909 -1.7049  1.0451 -1.2578
 7108SOL     OW22611   0.085   5.198   6.326 -0.3967 -0.4434  0.0947
 7108SOL    HW122612   0.163   5.206   6.381  0.0736  0.0742 -0.6328
 7108SOL    HW222613   0.022   5.259   6.365  0.2421  0.5853 -0.4419
 7109SOL     OW22614   3.612   4.101   1.926 -0.2321  0.4886  0.1289
 7109SOL    HW122615   3.620   4.006   1.925 -0.0498  0.4947  0.7142
 7109SOL    HW222616   3.685   4.132   1.873  0.6347  0.3545  1.2192
 7110SOL     OW22617   8.042   7.097   4.725  0.3226 -0.2837  0.1135
 7110SOL    HW122618   8.067   7.073   4.636 -1.2755 -3.5576  0.4113
 7110SOL    HW222619   8.124   7.110   4.772  1.1832  1.2750 -1.7186
 7111SOL     OW22620   3.064   2.930   4.968 -0.1019 -0.3076  0.2015
 7111SOL    HW122621   3.159   2.940   4.967 -0.1867  1.0944 -2.4018
 7111SOL    HW222622   3.049   2.842   5.002  2.0992 -0.4288  0.9743
 7112SOL     OW22623   2.287   6.423   5.229 -0.3958  0.3362  0.0990
 7112SOL    HW122624   2.305   6.349   5.287 -1.6008  0.4351  0.6374
 7112SOL    HW222625   2.204   6.458   5.261  1.1036  3.2327  1.2117
 7113SOL     OW22626   4.398   3.903   4.763  0.0582 -0.4472 -0.4973
 7113SOL    HW122627   4.320   3.849   4.752  0.4466 -0.9510 -0.8138
 7113SOL    HW222628   4.411   3.906   4.858 -1.3390  1.1021 -0.2943
 7114SOL     OW22629   1.332   4.912   6.199  0.2332  0.6835  0.4478
 7114SOL    HW122630   1.306   4.846   6.264 -0.7436  0.2342 -0.3845
 7114SOL    HW222631   1.423   4.889   6.178  0.2444  0.2451  0.9402
 7115SOL     OW22632   7.585   5.729   3.673 -0.0841  0.1669 -0.3278
 7115SOL    HW122633   7.572   5.817   3.709  1.5892  0.1421  0.4115
 7115SOL    HW222634   7.560   5.671   3.745  0.1086  0.0638 -0.3441
 7116SOL     OW22635   8.435   0.513   1.560  0.2801  0.0863  0.3418
 7116SOL    HW122636   8.420   0.608   1.565  1.2139  0.1715  3.6445
 7116SOL    HW222637   8.347   0.475   1.565  0.0134  0.7735  1.0769
 7117SOL     OW22638   5.786   1.502   1.373 -0.0922 -0.7248  0.0031
 7117SOL    HW122639   5.858   1.564   1.379 -0.3569 -0.4960  1.0780
 7117SOL    HW222640   5.818   1.423   1.417 -0.3772 -0.7233  0.2239
 7118SOL     OW22641   8.564   1.651   2.181 -0.1312  0.1289 -0.3265
 7118SOL    HW122642   8.534   1.604   2.259 -0.3640  1.1574  0.2210
 7118SOL    HW222643   8.497   1.631   2.115 -0.6012  0.2485  0.1020
 7119SOL     OW22644   3.697   2.451   2.755 -0.2731  0.1665 -0.2054
 7119SOL    HW122645   3.698   2.362   2.788 -1.0567  0.5546  0.9084
 7119SOL    HW222646   3.787   2.482   2.765  0.2879 -0.8336 -1.6505
 7120SOL     OW22647   3.407   7.941   4.946 -0.4154 -0.2157  0.4125
 7120SOL    HW122648   3.464   7.979   5.012  0.9292 -1.1936 -0.1346
 7120SOL    HW222649   3.455   7.952   4.864  0.1921 -3.2221  0.2496
 7121SOL     OW22650   4.875   2.454   6.873 -0.1723 -0.0699  0.2589
 7121SOL    HW122651   4.860   2.417   6.786 -1.0867 -0.4092  0.5596
 7121SOL    HW222652   4.963   2.493   6.867 -0.0356 -0.4980 -0.6679
 7122SOL     OW22653   6.985   8.618   4.557  0.0994 -0.6504 -0.0504
 7122SOL    HW122654   6.981   8.588   4.648  2.7723 -3.2516 -0.6476
 7122SOL    HW222655   7.039   8.697   4.559 -0.5708 -0.1970  0.6741
 7123SOL     OW22656   1.798   0.495   5.534  0.0772 -0.2519  0.0020
 7123SOL    HW122657   1.794   0.435   5.608 -0.0747  1.2825  1.2784
 7123SOL    HW222658   1.835   0.576   5.570 -0.4049  0.6776 -1.4975
 7124SOL     OW22659   0.247   3.253   1.967  0.6006  0.1404  0.3156
 7124SOL    HW122660   0.244   3.193   2.042 -0.4396  0.7653  0.7944
 7124SOL    HW222661   0.263   3.339   2.006  0.2313  0.4439 -0.1978
 7125SOL     OW22662   5.889   2.842   7.000  0.5740 -0.2321 -0.4928
 7125SOL    HW122663   5.861   2.780   7.067 -0.8561  1.3296  0.4152
 7125SOL    HW222664   5.956   2.896   7.043 -2.6183  2.9397  0.9672
 7126SOL     OW22665   4.389   2.306   5.822 -0.4043  0.2321  0.2249
 7126SOL    HW122666   4.418   2.269   5.739 -1.1403 -1.5718  0.7161
 7126SOL    HW222667   4.422   2.396   5.822  1.8065 -0.5245 -0.8860
 7127SOL     OW22668   8.421   8.440   7.087  0.1814 -0.2499  0.0936
 7127SOL    HW122669   8.329   8.457   7.070  0.0509 -0.3217  0.6954
 7127SOL    HW222670   8.459   8.421   7.001 -0.3037  0.0492 -0.1922
 7128SOL     OW22671   5.133   2.211   5.019 -0.0084 -0.3345  0.2724
 7128SOL    HW122672   5.117   2.259   4.938  0.2502 -0.9433 -0.1427
 7128SOL    HW222673   5.153   2.122   4.991 -0.6639 -0.7379  1.0433
 7129SOL     OW22674   8.169   0.369   3.210 -0.4004 -0.0043  0.0750
 7129SOL    HW122675   8.187   0.414   3.292  0.3805  0.6002 -0.4121
 7129SOL    HW222676   8.198   0.430   3.142  0.1755 -1.0035 -0.6130
 7130SOL     OW22677   7.520   8.640   3.189  0.2088 -0.3405  0.1787
 7130SOL    HW122678   7.454   8.574   3.168  0.5079 -0.6231  0.1263
 7130SOL    HW222679   7.500   8.713   3.131 -0.0612 -0.4194  0.1683
 7131SOL     OW22680   0.447   0.090   8.423 -0.1860  0.1387 -0.8733
 7131SOL    HW122681   0.518   0.150   8.400 -0.9074  1.1431 -0.5482
 7131SOL    HW222682   0.382   0.102   8.353 -0.2650 -0.3870 -0.8953
 7132SOL     OW22683   1.530   4.222   1.146  0.6737  0.0537 -0.2973
 7132SOL    HW122684   1.541   4.315   1.167 -1.3475  0.4915 -0.8792
 7132SOL    HW222685   1.466   4.190   1.209  1.3432 -0.9655 -0.1046
 7133SOL     OW22686   7.716   4.502   6.659  0.3101 -0.0072  0.0042
 7133SOL    HW122687   7.780   4.569   6.634  0.3945 -0.5958 -1.4400
 7133SOL    HW222688   7.631   4.543   6.641  0.3201  0.1574  0.3183
 7134SOL     OW22689   8.661   7.910   3.107  0.0714 -0.2366 -0.2633
 7134SOL    HW122690   8.749   7.947   3.110  0.0017 -0.1364  1.1053
 7134SOL    HW222691   8.633   7.920   3.015  1.8832 -1.2474 -0.9683
 7135SOL     OW22692   8.524   0.412   8.302  0.0361  0.1853 -0.4946
 7135SOL    HW122693   8.438   0.447   8.280 -0.2566 -0.9612 -1.2117
 7135SOL    HW222694   8.506   0.336   8.358  0.6167  0.3983 -0.0053
 7136SOL     OW22695   8.344   8.345   1.228  0.6784  0.2295  0.1396
 7136SOL    HW122696   8.438   8.342   1.245  0.7098 -1.9371 -0.1382
 7136SOL    HW222697   8.304   8.320   1.311  0.3674  0.4811  0.0673
 7137SOL     OW22698   8.316   4.376   0.539  0.1674 -0.0739  0.0542
 7137SOL    HW122699   8.327   4.425   0.457 -1.3142  1.5287  0.7541
 7137SOL    HW222700   8.403   4.343   0.559  0.7252  0.2012 -1.7274
 7138SOL     OW22701   8.028   3.021   2.356 -0.1578 -0.1317  0.0846
 7138SOL    HW122702   8.040   3.110   2.388 -0.3087 -0.1691  0.2533
 7138SOL    HW222703   7.972   3.031   2.279  0.0905 -0.0530 -0.0867
 7139SOL     OW22704   8.283   6.189   6.257  0.0179 -0.2956 -0.0687
 7139SOL    HW122705   8.264   6.267   6.204  1.5296  1.0947  1.3156
 7139SOL    HW222706   8.210   6.184   6.319 -0.8894 -0.9450 -1.1483
 7140SOL     OW22707   3.227   1.614   5.770 -0.3066  0.4971  0.1218
 7140SOL    HW122708   3.306   1.665   5.760  0.3074 -0.4989 -0.3134
 7140SOL    HW222709   3.253   1.539   5.824 -0.7577 -0.2006 -0.6049
 7141SOL     OW22710   2.518   2.560   5.924 -0.0283  0.0299 -0.2089
 7141SOL    HW122711   2.609   2.575   5.951  0.5360 -1.1506 -1.3431
 7141SOL    HW222712   2.469   2.553   6.006  0.9882  0.1993  0.4254
 7142SOL     OW22713   1.239   2.271   1.781  0.1292  0.4883  0.3946
 7142SOL    HW122714   1.189   2.261   1.699  0.6897  1.3170 -0.0643
 7142SOL    HW222715   1.223   2.362   1.807 -0.6070  0.0337  1.5960
 7143SOL     OW22716   4.191   6.599   0.522 -0.1319  0.2569 -0.0324
 7143SOL    HW122717   4.221   6.529   0.581 -0.5509 -1.8276 -2.1397
 7143SOL    HW222718   4.096   6.601   0.534 -0.3447 -0.8669 -1.2438
 7144SOL     OW22719   6.719   6.106   1.629  0.1904  0.4724 -0.3082
 7144SOL    HW122720   6.653   6.111   1.560  1.6477  0.4370 -1.7702
 7144SOL    HW222721   6.706   6.020   1.669 -1.3563  0.9223  0.2048
 7145SOL     OW22722   1.153   6.392   1.965  0.1201 -0.1850 -0.0100
 7145SOL    HW122723   1.098   6.457   2.008  0.5252 -0.0324  0.2866
 7145SOL    HW222724   1.209   6.359   2.035 -1.0872 -1.9384  0.1902
 7146SOL     OW22725   5.095   2.425   0.056  0.1094  0.1023 -0.0550
 7146SOL    HW122726   5.101   2.329   0.048 -1.3213 -0.1750  1.6116
 7146SOL    HW222727   5.002   2.444   0.047  0.2996  1.2790  0.2812
 7147SOL     OW22728   2.690   1.887   7.188 -0.3204  0.3571  0.2864
 7147SOL    HW122729   2.783   1.875   7.170 -0.2836 -0.2348  0.8363
 7147SOL    HW222730   2.688   1.940   7.268 -0.4805  2.7060 -1.1663
 7148SOL     OW22731   7.291   1.937   6.273 -0.3726  0.2278 -0.0260
 7148SOL    HW122732   7.273   1.961   6.182 -0.1449  0.0986 -0.1036
 7148SOL    HW222733   7.221   1.980   6.322 -1.8894 -1.5878 -0.4851
 7149SOL     OW22734   1.584   8.619   4.613 -0.4145 -0.1417 -0.3668
 7149SOL    HW122735   1.546   8.569   4.540  0.5055  0.6106 -1.3995
 7149SOL    HW222736   1.531   8.698   4.618 -1.5112 -0.9020  0.8990
 7150SOL     OW22737   2.776   0.529   4.697  0.2430  0.0598 -0.1275
 7150SOL    HW122738   2.733   0.499   4.777  1.0494  0.1569  0.3518
 7150SOL    HW222739   2.854   0.474   4.689 -0.9014 -1.4363 -2.0240
 7151SOL     OW22740   6.010   4.870   4.751  0.1722  0.3796 -0.5231
 7151SOL    HW122741   6.030   4.786   4.710 -0.0259 -0.6990  1.4694
 7151SOL    HW222742   5.959   4.847   4.829  1.2235  2.2487  0.7765
 7152SOL     OW22743   0.770   4.578   7.579 -0.2214  0.1941  0.2223
 7152SOL    HW122744   0.692   4.596   7.526 -1.0528  1.7014  1.8632
 7152SOL    HW222745   0.839   4.630   7.539 -0.1885 -0.6699 -0.8778
 7153SOL     OW22746   7.445   4.488   2.767  0.1703 -0.4564 -0.2972
 7153SOL    HW122747   7.481   4.532   2.690  1.0090 -0.6780 -0.0463
 7153SOL    HW222748   7.396   4.557   2.813 -1.0206 -0.5177 -1.4248
 7154SOL     OW22749   6.703   2.469   4.215  0.7548 -0.3807 -0.2278
 7154SOL    HW122750   6.794   2.441   4.223  1.2593  0.8905 -1.2114
 7154SOL    HW222751   6.708   2.557   4.176 -0.9231 -0.6086 -1.0442
 7155SOL     OW22752   3.209   1.157   5.057  0.5567 -0.0569  0.5716
 7155SOL    HW122753   3.193   1.157   4.962 -0.3473 -2.2211  0.6685
 7155SOL    HW222754   3.258   1.076   5.072  1.5050  0.7237  1.8560
 7156SOL     OW22755   2.154   0.253   6.050 -0.6346 -0.9520 -0.3754
 7156SOL    HW122756   2.093   0.315   6.012  0.0112 -0.5484 -0.7708
 7156SOL    HW222757   2.152   0.178   5.990 -2.1783 -1.7734  0.6414
 7157SOL     OW22758   8.226   8.499   6.563  0.0858 -0.2315 -0.7012
 7157SOL    HW122759   8.190   8.585   6.542  1.8042  0.7902  0.2733
 7157SOL    HW222760   8.317   8.503   6.533  0.7493 -0.9884  1.0267
 7158SOL     OW22761   0.579   8.696   1.961  0.1571  0.3258  0.0828
 7158SOL    HW122762   0.537   8.620   2.002  0.8152  0.4608  1.0205
 7158SOL    HW222763   0.665   8.701   2.001  0.2537  1.3659 -0.2270
 7159SOL     OW22764   7.127   7.005   6.647 -0.0568 -0.7733  0.1809
 7159SOL    HW122765   7.151   7.096   6.661  0.0193 -0.6132 -0.8714
 7159SOL    HW222766   7.045   6.994   6.694  0.1996 -0.3048  0.7435
 7160SOL     OW22767   6.593   0.289   4.009  0.3662 -0.5163 -0.0405
 7160SOL    HW122768   6.545   0.222   4.058  0.6553 -0.4344  0.3618
 7160SOL    HW222769   6.684   0.262   4.014  0.5080  0.0064  0.2840
 7161SOL     OW22770   2.777   6.538   5.701 -0.3212  0.3295 -0.0903
 7161SOL    HW122771   2.775   6.469   5.635  1.5410  0.2625 -0.1383
 7161SOL    HW222772   2.825   6.499   5.775 -1.5108  0.7287  0.9193
 7162SOL     OW22773   3.832   1.883   6.351 -0.5704  0.5950 -0.6036
 7162SOL    HW122774   3.839   1.934   6.431  0.1520 -0.4487  0.0052
 7162SOL    HW222775   3.818   1.793   6.380  1.4216 -0.0829 -1.5901
 7163SOL     OW22776   8.221   1.887   7.219  0.3225  0.8675  0.3696
 7163SOL    HW122777   8.174   1.936   7.152 -1.5057  2.3762  2.6007
 7163SOL    HW222778   8.155   1.868   7.285  2.1456 -0.0187  2.0340
 7164SOL     OW22779   5.744   4.301   0.537  0.5195 -0.6288 -0.3135
 7164SOL    HW122780   5.761   4.214   0.502  0.1827 -0.9623  0.3248
 7164SOL    HW222781   5.692   4.285   0.616  1.7539  0.0530  0.6769
 7165SOL     OW22782   6.562   6.048   6.761  0.1240 -0.5418 -0.0216
 7165SOL    HW122783   6.522   6.128   6.726  0.1096 -1.0669 -1.2475
 7165SOL    HW222784   6.493   5.982   6.755  0.6434 -1.0457 -0.5714
 7166SOL     OW22785   3.465   5.403   2.277 -0.4850 -0.6316 -1.2903
 7166SOL    HW122786   3.526   5.436   2.211  1.3915 -0.6839  0.3360
 7166SOL    HW222787   3.396   5.469   2.280  0.6276  0.6022 -1.6136
 7167SOL     OW22788   1.796   1.710   8.328  1.0331 -0.6704 -0.5734
 7167SOL    HW122789   1.705   1.733   8.311  1.4690  1.1614 -0.6915
 7167SOL    HW222790   1.841   1.727   8.245  1.7486  0.1713 -0.0379
 7168SOL     OW22791   3.182   5.948   6.571 -0.0693 -0.1477  0.3746
 7168SOL    HW122792   3.090   5.964   6.595  0.0175 -0.6485  1.0651
 7168SOL    HW222793   3.211   6.030   6.533 -0.6525  0.1874  0.6359
 7169SOL     OW22794   4.143   5.583   1.405 -0.0610  0.4138  0.1778
 7169SOL    HW122795   4.150   5.551   1.495  0.1974 -0.1350 -0.0305
 7169SOL    HW222796   4.093   5.664   1.412  1.3760  1.2802  1.0319
 7170SOL     OW22797   5.784   0.463   5.651 -0.0228  0.1232 -0.2583
 7170SOL    HW122798   5.766   0.482   5.743 -0.9455  1.4717 -0.6770
 7170SOL    HW222799   5.760   0.371   5.640 -0.8545  0.2118  0.6391
 7171SOL     OW22800   0.611   8.643   0.644 -0.3456  0.2163 -0.1113
 7171SOL    HW122801   0.587   8.571   0.703  1.1956 -0.6102 -0.4608
 7171SOL    HW222802   0.591   8.610   0.557 -1.1783  0.8599 -0.1796
 7172SOL     OW22803   7.644   7.786   2.555 -0.0320  0.4952  0.7914
 7172SOL    HW122804   7.588   7.734   2.614  0.6088  0.8980  1.7856
 7172SOL    HW222805   7.701   7.722   2.514 -0.6762  0.1726  0.3785
 7173SOL     OW22806   7.754   0.549   0.529  0.5744 -0.2194 -0.1540
 7173SOL    HW122807   7.794   0.560   0.615  0.7751  0.5353 -0.3367
 7173SOL    HW222808   7.701   0.628   0.517 -0.3356 -0.8284 -0.2551
 7174SOL     OW22809   0.772   3.721   6.034  0.3168 -0.0824  0.1461
 7174SOL    HW122810   0.864   3.711   6.056  0.3303 -2.6946 -0.7112
 7174SOL    HW222811   0.729   3.743   6.116  1.6039  0.5273  0.6727
 7175SOL     OW22812   2.638   7.104   6.739 -0.2156  0.0771 -0.2287
 7175SOL    HW122813   2.637   7.166   6.667  1.3979 -1.3504 -1.5483
 7175SOL    HW222814   2.545   7.091   6.761 -0.5946  3.4071  0.6103
 7176SOL     OW22815   3.790   3.443   0.214  0.0930 -0.3425 -0.5368
 7176SOL    HW122816   3.810   3.536   0.223 -0.4552 -0.3236  0.7753
 7176SOL    HW222817   3.780   3.412   0.304 -2.5672 -1.0274 -0.9747
 7177SOL     OW22818   7.484   3.774   8.569 -0.4833  0.1055 -0.7581
 7177SOL    HW122819   7.549   3.843   8.555  1.1599 -1.0318  0.7785
 7177SOL    HW222820   7.452   3.753   8.482  0.4673  1.3972 -1.4623
 7178SOL     OW22821   7.769   3.158   0.726 -0.2125  0.1615 -0.0657
 7178SOL    HW122822   7.748   3.130   0.815  0.4625 -1.2509 -0.3191
 7178SOL    HW222823   7.710   3.232   0.710 -2.4294 -1.3429  0.5333
 7179SOL     OW22824   1.989   5.563   1.160 -0.8910 -0.8478 -0.0298
 7179SOL    HW122825   2.059   5.621   1.131  0.0259 -2.6725 -1.6371
 7179SOL    HW222826   1.919   5.576   1.096 -1.2420 -0.5643  0.3952
 7180SOL     OW22827   2.774   2.699   6.828 -0.3366 -0.5406 -0.3750
 7180SOL    HW122828   2.742   2.767   6.770  0.9315  0.0540 -0.4122
 7180SOL    HW222829   2.862   2.680   6.796  0.0136 -0.8861  0.7524
 7181SOL     OW22830   3.191   0.329   8.073 -0.2403  0.0465  0.3354
 7181SOL    HW122831   3.106   0.298   8.105 -0.2948 -0.2794 -0.1086
 7181SOL    HW222832   3.217   0.264   8.007  0.5022 -0.0302  0.6927
 7182SOL     OW22833   2.064   5.419   2.144  0.0623  0.2113 -0.3838
 7182SOL    HW122834   2.009   5.477   2.091  0.9588  1.1083 -0.3640
 7182SOL    HW222835   2.151   5.457   2.138  0.5061 -0.6494  0.3637
 7183SOL     OW22836   2.816   2.324   7.215 -0.1921 -1.2991 -0.1203
 7183SOL    HW122837   2.872   2.308   7.139  0.5633 -1.8372  0.5315
 7183SOL    HW222838   2.785   2.414   7.204  0.8658 -0.9611 -0.4632
 7184SOL     OW22839   5.789   8.627   5.919 -0.4162  0.4342  0.6988
 7184SOL    HW122840   5.778   8.594   5.830 -0.1937  1.0527  0.4322
 7184SOL    HW222841   5.725   8.698   5.925 -0.7303  0.1126  1.1818
 7185SOL     OW22842   3.797   7.385   1.752  0.3507  0.6518 -0.5113
 7185SOL    HW122843   3.819   7.351   1.665 -1.2000 -1.8886  0.0064
 7185SOL    HW222844   3.835   7.321   1.812 -0.0909  1.4625  0.6489
 7186SOL     OW22845   0.947   7.565   2.563  0.5449  0.4162  0.5640
 7186SOL    HW122846   0.898   7.484   2.548 -0.9913  1.6353 -1.4247
 7186SOL    HW222847   1.007   7.571   2.489 -1.5679  2.5816 -1.1251
 7187SOL     OW22848   6.043   5.103   4.981 -0.7398  0.1222 -0.1013
 7187SOL    HW122849   5.960   5.061   4.960 -1.3057  0.6151  1.0903
 7187SOL    HW222850   6.027   5.196   4.966  0.3873  0.0340 -2.3379
 7188SOL     OW22851   2.355   2.914   5.297  0.6981  0.4173 -0.4780
 7188SOL    HW122852   2.330   2.841   5.240  1.7340  0.8129 -1.4680
 7188SOL    HW222853   2.425   2.879   5.352 -0.1980  0.0817  0.4877
 7189SOL     OW22854   1.183   3.054   1.085 -0.2238  0.0730  0.0618
 7189SOL    HW122855   1.096   3.087   1.063  0.0137  1.2962  0.8619
 7189SOL    HW222856   1.223   3.035   1.000 -0.9359  0.3881 -0.3552
 7190SOL     OW22857   4.273   2.523   5.629 -0.1438 -0.4318  0.4428
 7190SOL    HW122858   4.237   2.555   5.712 -1.1768 -1.8561  0.5693
 7190SOL    HW222859   4.368   2.520   5.644 -0.3286 -0.8312  1.6375
 7191SOL     OW22860   6.041   2.816   4.364  0.3469  0.0714  0.2406
 7191SOL    HW122861   6.109   2.867   4.320 -0.0598  2.1633  1.9027
 7191SOL    HW222862   5.960   2.843   4.323  0.2587 -0.3829  0.1110
 7192SOL     OW22863   2.299   3.592   8.521 -0.2619  0.4123  0.1533
 7192SOL    HW122864   2.267   3.681   8.503 -0.0449  0.2509 -1.1305
 7192SOL    HW222865   2.223   3.536   8.509 -0.3987  0.4115  0.9675
 7193SOL     OW22866   1.280   2.257   4.475 -0.0904  0.4466  0.0619
 7193SOL    HW122867   1.230   2.235   4.554 -0.3135  2.2814  0.4872
 7193SOL    HW222868   1.214   2.292   4.415  0.5123  1.9679  0.2533
 7194SOL     OW22869   0.023   8.671   2.798  0.0862  0.1558 -0.1145
 7194SOL    HW122870   0.117   8.690   2.799  0.1515 -0.1524 -0.3749
 7194SOL    HW222871  -0.010   8.712   2.877  0.4741  0.1005  0.0796
 7195SOL     OW22872   6.281   0.363   4.365 -0.4616  0.3277 -0.0481
 7195SOL    HW122873   6.300   0.278   4.325  2.0467  0.5014  0.6261
 7195SOL    HW222874   6.341   0.424   4.321 -1.7342  1.6563 -0.0304
 7196SOL     OW22875   0.953   7.523   6.771  0.3214  0.4554 -0.0877
 7196SOL    HW122876   1.018   7.541   6.703  0.9842 -0.4329  0.3017
 7196SOL    HW222877   0.873   7.567   6.740  1.4804  2.9082  0.1528
 7197SOL     OW22878   2.896   7.724   2.446 -0.2483  0.1193  0.3094
 7197SOL    HW122879   2.967   7.752   2.388 -0.8640  0.4282 -0.3052
 7197SOL    HW222880   2.911   7.773   2.527 -0.5702  1.2693 -0.3062
 7198SOL     OW22881   6.953   5.235   0.537  0.1812  0.4862 -0.2507
 7198SOL    HW122882   6.862   5.260   0.551  0.6390  1.2768  1.6831
 7198SOL    HW222883   7.003   5.315   0.555  1.2936 -0.0729 -0.7136
 7199SOL     OW22884   3.233   1.042   7.877  0.4961  0.2208 -0.1205
 7199SOL    HW122885   3.141   1.031   7.901  0.5803  1.2526  0.7955
 7199SOL    HW222886   3.262   0.956   7.848 -0.1626 -0.6518  1.7155
 7200SOL     OW22887   2.534   3.295   6.452  0.4093 -0.4886  0.1106
 7200SOL    HW122888   2.600   3.231   6.479  0.2887 -0.1256  1.3197
 7200SOL    HW222889   2.458   3.275   6.508 -0.0287 -0.0335 -0.3169
 7201SOL     OW22890   2.823   7.511   4.497 -0.2501  0.0240  0.0901
 7201SOL    HW122891   2.746   7.474   4.542 -0.2684  1.1100  1.0006
 7201SOL    HW222892   2.898   7.472   4.542 -0.2419 -1.0380 -0.8002
 7202SOL     OW22893   1.725   5.050   0.501 -0.2825 -0.2449  0.7968
 7202SOL    HW122894   1.712   4.983   0.569 -1.6555 -0.0583  0.7568
 7202SOL    HW222895   1.672   5.124   0.530 -2.3402 -0.7779 -1.2815
 7203SOL     OW22896   5.722   2.314   7.200 -0.1497  0.3100  0.0467
 7203SOL    HW122897   5.777   2.280   7.271 -0.7816  1.5351  1.1701
 7203SOL    HW222898   5.777   2.308   7.122  0.8251 -0.4055  0.7540
 7204SOL     OW22899   7.951   1.486   4.284 -0.1921 -0.6460 -0.7410
 7204SOL    HW122900   7.919   1.560   4.231  2.1045  2.1533  1.4586
 7204SOL    HW222901   7.987   1.527   4.362  1.8237 -4.1226  0.3348
 7205SOL     OW22902   4.894   2.989   4.072  0.2346 -0.2251 -0.0700
 7205SOL    HW122903   4.969   2.984   4.013 -0.4104  0.3505 -0.9596
 7205SOL    HW222904   4.910   3.069   4.123 -0.1205  0.2829 -0.7494
 7206SOL     OW22905   8.695   4.107   5.904  0.5785 -0.6867 -0.1876
 7206SOL    HW122906   8.730   4.105   5.815 -0.4914 -1.4820 -0.6073
 7206SOL    HW222907   8.739   4.035   5.949 -0.1582 -1.3856 -0.5773
 7207SOL     OW22908   3.867   1.842   5.199 -0.0327 -0.1662  0.1056
 7207SOL    HW122909   3.858   1.812   5.109 -1.1997  1.0955 -0.2315
 7207SOL    HW222910   3.785   1.819   5.241 -0.4260  1.2885  0.1916
 7208SOL     OW22911   2.237   8.504   8.699 -0.0343  0.0662 -0.5109
 7208SOL    HW122912   2.249   8.438   8.767 -0.0966  0.6947  0.1236
 7208SOL    HW222913   2.293   8.475   8.627  1.4463  0.3264  0.4873
 7209SOL     OW22914   0.478   8.394   8.008  0.0783 -0.3841 -0.7457
 7209SOL    HW122915   0.489   8.314   7.958 -0.2226 -0.5525 -0.5427
 7209SOL    HW222916   0.457   8.365   8.096 -3.2892 -0.1095 -1.3544
 7210SOL     OW22917   0.106   4.402   2.727 -0.3538  0.5021  0.2519
 7210SOL    HW122918   0.116   4.497   2.722  2.5773  0.1980 -2.1112
 7210SOL    HW222919   0.065   4.378   2.644 -3.4393 -0.2291  1.8187
 7211SOL     OW22920   7.328   0.289   5.370  0.1121  0.3292  0.1439
 7211SOL    HW122921   7.325   0.250   5.283  0.4636 -1.0821  0.7238
 7211SOL    HW222922   7.313   0.215   5.430  0.2406  1.1970  1.2911
 7212SOL     OW22923   0.870   1.225   2.795  0.7895  0.0451 -0.4616
 7212SOL    HW122924   0.938   1.160   2.778  3.2762  2.2090  0.5129
 7212SOL    HW222925   0.908   1.307   2.764 -2.0767  1.1623 -1.2981
 7213SOL     OW22926   0.003   7.034   4.073  0.1995  0.3239 -0.7464
 7213SOL    HW122927  -0.027   7.024   4.163 -1.2326 -0.0936 -1.2356
 7213SOL    HW222928   0.093   7.063   4.080 -0.4972  2.2996  0.8275
 7214SOL     OW22929   2.803   3.709   1.075 -0.4492  0.0673 -0.2492
 7214SOL    HW122930   2.851   3.743   0.999 -0.1130  2.1106  0.7902
 7214SOL    HW222931   2.772   3.788   1.120 -1.6771 -1.1266  1.0836
 7215SOL     OW22932   7.205   7.434   0.601 -0.5652 -0.3584  0.0436
 7215SOL    HW122933   7.120   7.392   0.594 -0.6276 -0.5066  1.4341
 7215SOL    HW222934   7.254   7.401   0.526 -0.8089 -2.4741  0.7447
 7216SOL     OW22935   1.705   1.371   2.519  0.4022  0.6937 -0.1495
 7216SOL    HW122936   1.641   1.336   2.458  1.5064  0.5167 -1.2510
 7216SOL    HW222937   1.790   1.341   2.486  1.0668  0.7933  1.3358
 7217SOL     OW22938   5.167   5.116   4.520 -0.2502  0.2102 -0.6356
 7217SOL    HW122939   5.172   5.166   4.602  0.7186 -0.6074 -0.1752
 7217SOL    HW222940   5.073   5.106   4.505 -0.4570  1.3053 -0.2208
 7218SOL     OW22941   0.868   0.682   0.420  0.2869  0.0936 -0.2695
 7218SOL    HW122942   0.878   0.631   0.340 -0.6390 -1.5004  0.5788
 7218SOL    HW222943   0.812   0.755   0.396  1.1784  0.4194 -1.3903
 7219SOL     OW22944   4.960   6.981   4.330 -0.0837  0.8344  0.3562
 7219SOL    HW122945   4.896   6.981   4.259  0.6541 -2.4270 -0.4570
 7219SOL    HW222946   5.032   7.036   4.297 -0.1148  0.0492 -1.1155
 7220SOL     OW22947   8.696   3.966   2.057 -0.2382  0.1324 -0.0642
 7220SOL    HW122948   8.776   4.005   2.022  0.3382 -0.8296  0.1513
 7220SOL    HW222949   8.647   3.938   1.979 -0.6987  1.3365 -0.2226
 7221SOL     OW22950   6.681   6.974   2.814 -0.2033  0.1509 -0.3392
 7221SOL    HW122951   6.619   6.998   2.882  0.6486 -0.2940  0.6221
 7221SOL    HW222952   6.725   6.896   2.847 -0.3897 -0.6073 -1.7978
 7222SOL     OW22953   8.140   3.247   1.015 -0.6539 -0.1924  0.4255
 7222SOL    HW122954   8.057   3.293   1.028 -0.5298  0.0510  0.3584
 7222SOL    HW222955   8.153   3.246   0.920 -2.1287 -2.9773  0.1762
 7223SOL     OW22956   1.448   5.831   7.916 -0.3190  0.5157  0.7036
 7223SOL    HW122957   1.463   5.749   7.963  0.5654  0.9840  1.2780
 7223SOL    HW222958   1.380   5.811   7.852 -0.1632 -0.6440  0.8879
 7224SOL     OW22959   2.252   1.460   2.582  0.2397 -0.0727  0.4920
 7224SOL    HW122960   2.227   1.517   2.655 -1.0737 -0.2159  0.1734
 7224SOL    HW222961   2.181   1.396   2.576  0.5316 -0.3125 -0.6448
 7225SOL     OW22962   2.892   5.060   0.862 -0.1535  0.3696 -0.2872
 7225SOL    HW122963   2.806   5.022   0.840 -0.8687  0.8677  1.4508
 7225SOL    HW222964   2.886   5.079   0.956  1.5978  1.1478 -0.2988
 7226SOL     OW22965   0.563   4.642   4.002  0.1753  0.2141  0.3487
 7226SOL    HW122966   0.550   4.736   4.011  0.6501  0.0918  2.7522
 7226SOL    HW222967   0.624   4.634   3.928  0.4430  1.8182  0.3562
 7227SOL     OW22968   7.788   0.596   1.087  0.2237  0.7490 -0.3923
 7227SOL    HW122969   7.873   0.552   1.078  0.3217  0.7902  0.2757
 7227SOL    HW222970   7.768   0.591   1.180 -1.7202 -1.4994 -0.8512
 7228SOL     OW22971   6.993   4.385   4.607  0.4215  0.0040 -0.0768
 7228SOL    HW122972   7.026   4.455   4.664  0.0864  1.4099 -1.5136
 7228SOL    HW222973   7.030   4.406   4.521 -0.8295 -0.7771 -0.8342
 7229SOL     OW22974   5.366   5.498   1.522 -0.1263 -0.2981 -0.1685
 7229SOL    HW122975   5.335   5.569   1.579  1.5129  2.6223 -2.6275
 7229SOL    HW222976   5.455   5.482   1.552 -0.3524 -1.0583  0.1073
 7230SOL     OW22977   0.150   1.112   6.818 -0.3076  0.8247 -0.1086
 7230SOL    HW122978   0.123   1.204   6.810 -1.0275  0.9674  2.8430
 7230SOL    HW222979   0.230   1.115   6.871 -0.0714 -0.2268 -0.3901
 7231SOL     OW22980   5.719   5.191   2.506  0.6665 -0.3175  0.0242
 7231SOL    HW122981   5.758   5.112   2.469  0.7891  0.1257 -0.8212
 7231SOL    HW222982   5.793   5.242   2.539  0.4571 -1.4409  2.4561
 7232SOL     OW22983   3.256   5.095   4.579 -0.1711  0.0766 -0.3439
 7232SOL    HW122984   3.315   5.113   4.506 -0.8670 -1.6982 -1.4104
 7232SOL    HW222985   3.225   5.181   4.607  0.4402  0.8205 -1.8427
 7233SOL     OW22986   2.465   8.188   6.288 -0.2580  0.2060  0.0065
 7233SOL    HW122987   2.527   8.148   6.228  0.1161  2.4500 -1.2350
 7233SOL    HW222988   2.412   8.116   6.322  0.8228 -1.3457 -1.5206
 7234SOL     OW22989   8.282   6.045   6.772  0.2156 -0.4427  0.0550
 7234SOL    HW122990   8.218   6.052   6.843  0.8684  1.7312  0.4998
 7234SOL    HW222991   8.362   6.014   6.815 -0.2657 -2.3638 -0.3588
 7235SOL     OW22992   3.746   1.072   1.728 -0.1719  0.5174  0.3083
 7235SOL    HW122993   3.683   1.066   1.799  0.2987 -1.4935  0.6247
 7235SOL    HW222994   3.815   1.129   1.761 -0.8713  1.1520  0.7008
 7236SOL     OW22995   8.508   8.693   8.196  0.4824  0.0567  0.1299
 7236SOL    HW122996   8.560   8.637   8.138 -2.1463 -1.9972 -0.4273
 7236SOL    HW222997   8.513   8.780   8.156 -0.0694 -0.9958 -2.4092
 7237SOL     OW22998   0.087   4.115   4.155 -0.5807  0.5164  0.0427
 7237SOL    HW122999   0.002   4.073   4.169 -0.4281 -0.2040 -1.0542
 7237SOL    HW223000   0.066   4.203   4.126 -0.9885  0.1023 -0.9720
 7238SOL     OW23001   2.015   0.333   4.316 -0.5142  0.4473 -0.0261
 7238SOL    HW123002   2.024   0.256   4.259  0.2393 -0.0192  0.6878
 7238SOL    HW223003   1.981   0.298   4.398  1.5323  0.5480  0.9310
 7239SOL     OW23004   7.917   7.140   2.286 -0.0776  0.4222 -0.5253
 7239SOL    HW123005   7.926   7.200   2.213  1.4612  1.9240  0.8035
 7239SOL    HW223006   8.007   7.112   2.306 -0.5275 -0.4856  0.3530
 7240SOL     OW23007   2.893   6.467   1.975 -0.0206  0.6057 -0.2739
 7240SOL    HW123008   2.848   6.466   2.059  0.5357  1.9278  0.0710
 7240SOL    HW223009   2.869   6.552   1.936 -0.1397  0.0872 -1.3778
 7241SOL     OW23010   4.852   1.667   6.709  0.1965  0.1637  0.8347
 7241SOL    HW123011   4.896   1.617   6.777 -0.1244 -1.6896 -0.2400
 7241SOL    HW223012   4.834   1.602   6.640 -2.1081  1.3192  0.2494
 7242SOL     OW23013   6.673   2.417   7.342  0.6034  0.4261  0.0155
 7242SOL    HW123014   6.729   2.408   7.265 -0.3752  1.2239 -0.8205
 7242SOL    HW223015   6.605   2.350   7.330  1.9575 -1.3392  1.6107
 7243SOL     OW23016   6.306   7.130   0.044  0.0798 -0.5114 -0.0951
 7243SOL    HW123017   6.235   7.163  -0.010  1.0938  0.5229 -0.8506
 7243SOL    HW223018   6.263   7.076   0.110 -1.2789 -0.9434 -1.2837
 7244SOL     OW23019   8.025   1.946   4.096 -0.0337 -0.1106  0.1176
 7244SOL    HW123020   8.102   1.939   4.153 -0.3927 -2.3894  0.4264
 7244SOL    HW223021   8.060   1.941   4.007  0.3733  1.6451  0.1448
 7245SOL     OW23022   0.391   8.708   7.977 -0.1676 -0.4704 -0.1214
 7245SOL    HW123023   0.317   8.682   7.923  1.1100 -1.1618 -1.6345
 7245SOL    HW223024   0.440   8.626   7.991  0.0596 -0.1152  1.2478
 7246SOL     OW23025   7.352   7.821   6.749  0.0983 -0.3311  0.3159
 7246SOL    HW123026   7.294   7.802   6.822 -0.9300 -1.8889 -0.8440
 7246SOL    HW223027   7.440   7.801   6.782 -0.2909 -0.4774  1.2826
 7247SOL     OW23028   1.728   6.376   4.317 -0.4833  0.1200  0.1021
 7247SOL    HW123029   1.679   6.317   4.259  0.2011 -0.9847  0.6233
 7247SOL    HW223030   1.819   6.367   4.289 -0.4423  1.5370 -0.3190
 7248SOL     OW23031   6.331   2.415   5.393  0.1449 -0.1123  0.3401
 7248SOL    HW123032   6.297   2.501   5.371 -0.0949 -0.4970 -0.8650
 7248SOL    HW223033   6.395   2.395   5.325 -1.0377 -1.5867 -0.4141
 7249SOL     OW23034   5.015   1.437   6.326 -0.3016  0.2097  0.2720
 7249SOL    HW123035   5.077   1.373   6.360 -1.2634 -1.7861 -1.5395
 7249SOL    HW223036   5.068   1.494   6.270  0.5014  0.8543  1.6296
 7250SOL     OW23037   7.715   5.073   0.680 -0.1771 -0.1396  0.3023
 7250SOL    HW123038   7.775   5.134   0.637  0.1326 -0.7127 -0.0752
 7250SOL    HW223039   7.660   5.040   0.609  0.8620 -1.7068  0.1999
 7251SOL     OW23040   8.550   3.193   8.041 -0.1386  0.6194 -0.0579
 7251SOL    HW123041   8.472   3.187   7.984  0.0641  1.3870 -0.4347
 7251SOL    HW223042   8.539   3.122   8.104 -1.2255  0.8084 -0.0134
 7252SOL     OW23043   8.070   2.892   1.831 -0.1899 -0.4280 -0.0999
 7252SOL    HW123044   8.136   2.914   1.896  0.2274 -0.6006 -0.4576
 7252SOL    HW223045   8.071   2.796   1.828 -0.2302 -0.4222 -0.3322
 7253SOL     OW23046   7.963   8.229   8.014 -0.3286  0.2069  0.1012
 7253SOL    HW123047   8.027   8.295   8.042  0.0848 -0.7193  1.4240
 7253SOL    HW223048   7.976   8.156   8.074 -1.6609 -0.5815 -0.5265
 7254SOL     OW23049   0.699   6.054   1.116  0.3130 -0.1074  0.1597
 7254SOL    HW123050   0.635   6.020   1.053 -1.9029 -1.6731  2.9959
 7254SOL    HW223051   0.766   5.986   1.121  1.1004  0.5375 -1.2527
 7255SOL     OW23052   8.108   5.720   3.441  0.0606 -0.3695 -0.4482
 7255SOL    HW123053   8.025   5.739   3.485 -0.1337 -1.2285 -0.4178
 7255SOL    HW223054   8.167   5.789   3.469 -0.9961  1.0300 -1.4851
 7256SOL     OW23055   7.487   1.015   7.295  0.8034  0.1323 -0.2323
 7256SOL    HW123056   7.397   1.046   7.304  1.1840  1.0685  0.5643
 7256SOL    HW223057   7.486   0.926   7.329  0.3963  0.5285  0.8168
 7257SOL     OW23058   8.064   5.538   1.093 -0.5577 -0.0065  0.4348
 7257SOL    HW123059   7.972   5.562   1.085 -1.1578 -2.1484  0.2636
 7257SOL    HW223060   8.110   5.598   1.034 -2.3430 -1.4781 -2.6884
 7258SOL     OW23061   1.893   0.865   3.803 -0.1059 -0.1807  0.6773
 7258SOL    HW123062   1.987   0.865   3.785 -0.2510  0.8081 -0.1716
 7258SOL    HW223063   1.864   0.778   3.778  0.4393 -0.1930  0.0462
 7259SOL     OW23064   8.307   0.193   7.938  0.2581  0.3745 -0.7069
 7259SOL    HW123065   8.233   0.228   7.988  0.6027 -0.4799  0.4404
 7259SOL    HW223066   8.382   0.202   7.997  0.7197 -0.4584 -1.1501
 7260SOL     OW23067   4.403   3.294   2.297  0.1797 -0.0753 -0.6064
 7260SOL    HW123068   4.466   3.328   2.361 -3.1609  1.2880  2.3325
 7260SOL    HW223069   4.412   3.352   2.221  2.7635 -0.3134 -0.5650
 7261SOL     OW23070   6.790   0.636   6.378 -0.7251  0.2306  0.2377
 7261SOL    HW123071   6.700   0.635   6.411 -0.4712 -0.7059  0.9441
 7261SOL    HW223072   6.781   0.623   6.284 -1.3819  1.3115  0.1413
 7262SOL     OW23073   8.185   6.822   0.017  0.3081  0.3536  0.2436
 7262SOL    HW123074   8.161   6.908   0.052 -0.5777 -0.7700  2.5402
 7262SOL    HW223075   8.207   6.770   0.094  0.4500 -1.6148 -1.0695
 7263SOL     OW23076   3.341   8.173   5.526 -0.1252  0.3405 -0.0720
 7263SOL    HW123077   3.288   8.173   5.605  0.3260 -0.7084  0.2557
 7263SOL    HW223078   3.394   8.093   5.532  0.7811  0.8478 -0.8527
 7264SOL     OW23079   5.544   2.963   8.583  0.0808 -0.1516  0.0115
 7264SOL    HW123080   5.458   2.946   8.544  0.9148 -0.2433 -1.8959
 7264SOL    HW223081   5.591   2.880   8.573  0.3068 -0.2139  1.3742
 7265SOL     OW23082   1.112   3.637   4.055  0.3152 -0.4903  0.2827
 7265SOL    HW123083   1.081   3.655   3.966 -2.0348 -0.5472  1.0334
 7265SOL    HW223084   1.182   3.573   4.043  0.1822 -0.3531 -1.5262
 7266SOL     OW23085   4.560   5.258   8.475 -0.6026 -0.1591  0.3682
 7266SOL    HW123086   4.592   5.222   8.392 -0.8414  0.1733  0.1289
 7266SOL    HW223087   4.585   5.193   8.540  0.0845 -0.1581  0.1150
 7267SOL     OW23088   6.525   3.911   6.795  0.0993  0.0996 -0.4473
 7267SOL    HW123089   6.514   4.004   6.774  0.3892  0.4818  1.0429
 7267SOL    HW223090   6.609   3.905   6.840 -0.5332 -0.6599  0.6845
 7268SOL     OW23091   7.340   6.643   0.694 -0.2063  0.3578  0.5819
 7268SOL    HW123092   7.303   6.723   0.731 -1.3511  0.4043 -0.5822
 7268SOL    HW223093   7.389   6.672   0.618 -2.4198 -0.1515 -1.1693
 7269SOL     OW23094   0.275   6.478   3.279  0.4788  0.3041 -0.7162
 7269SOL    HW123095   0.255   6.564   3.241  1.5774  0.8408 -0.1275
 7269SOL    HW223096   0.216   6.418   3.234 -1.0376  1.5029 -0.4257
 7270SOL     OW23097   2.292   0.884   1.942  0.5735  0.2168 -0.0921
 7270SOL    HW123098   2.291   0.843   2.029 -1.4177 -0.6612 -0.4746
 7270SOL    HW223099   2.272   0.812   1.882 -0.6592  1.3026 -1.0203
 7271SOL     OW23100   1.579   2.025   4.523  0.1077  0.4013  0.1762
 7271SOL    HW123101   1.530   2.072   4.590 -1.6370  0.9975 -1.4040
 7271SOL    HW223102   1.512   1.971   4.479  1.1648  0.0740 -1.0924
 7272SOL     OW23103   6.914   7.099   3.784  0.2511  0.5755 -0.3637
 7272SOL    HW123104   6.966   7.174   3.757  2.2887 -0.2223  1.0950
 7272SOL    HW223105   6.976   7.026   3.787 -0.5040 -0.1037  2.9677
 7273SOL     OW23106   4.597   1.344   3.687  0.0067  0.1615  0.2023
 7273SOL    HW123107   4.517   1.369   3.641 -1.1153 -0.5415  1.6786
 7273SOL    HW223108   4.651   1.423   3.686 -1.3801  1.1564  0.5435
 7274SOL     OW23109   1.303   2.969   3.755  0.2323 -0.2992  0.0998
 7274SOL    HW123110   1.230   2.959   3.816 -1.3514 -1.7535 -1.9146
 7274SOL    HW223111   1.353   3.043   3.790 -1.5958  0.0865  2.1166
 7275SOL     OW23112   4.042   4.593   3.273  0.2915  0.1876 -0.2916
 7275SOL    HW123113   4.114   4.652   3.296 -1.2183  1.9377  0.1088
 7275SOL    HW223114   3.963   4.642   3.293 -1.0639 -1.2211 -1.8915
 7276SOL     OW23115   3.453   0.956   0.037  0.6545  0.0280 -0.3094
 7276SOL    HW123116   3.494   0.891   0.094 -0.0622 -1.1969 -1.1381
 7276SOL    HW223117   3.521   0.978  -0.027  0.5221 -0.8220 -0.7470
 7277SOL     OW23118   8.028   7.943   7.567 -0.5398 -0.0156  0.2906
 7277SOL    HW123119   8.027   7.862   7.617  0.5148 -0.5429 -0.5016
 7277SOL    HW223120   7.979   7.922   7.487  1.3619 -0.5008 -0.7957
 7278SOL     OW23121   2.136   4.375   8.541  0.1182 -0.4532  0.1535
 7278SOL    HW123122   2.180   4.428   8.475  0.2708  0.3652  0.8999
 7278SOL    HW223123   2.187   4.388   8.620 -1.1230  0.0443  0.8929
 7279SOL     OW23124   0.938   6.388   4.599 -0.0745  0.1770  0.5669
 7279SOL    HW123125   0.954   6.403   4.692 -0.5092  0.9420  0.5221
 7279SOL    HW223126   0.989   6.455   4.554  0.2281 -0.2648  0.2449
 7280SOL     OW23127   5.362   0.240   8.419 -0.2247 -0.2553  0.0680
 7280SOL    HW123128   5.417   0.166   8.446  0.6745  0.5944  0.6053
 7280SOL    HW223129   5.291   0.199   8.368 -1.1814 -1.7704  2.4208
 7281SOL     OW23130   6.637   3.008   6.321  0.4112 -0.1030  0.0349
 7281SOL    HW123131   6.713   3.040   6.369  0.0642  1.1802 -0.2238
 7281SOL    HW223132   6.672   2.945   6.258  1.0457 -0.6891  0.9487
 7282SOL     OW23133   2.545   4.521   1.092  0.2710 -0.4936 -0.3545
 7282SOL    HW123134   2.517   4.530   1.001 -1.0333 -2.7689 -0.2435
 7282SOL    HW223135   2.530   4.429   1.113 -0.1405  0.1156  2.3950
 7283SOL     OW23136   2.227   6.909   7.162 -0.4781 -0.1566 -0.2842
 7283SOL    HW123137   2.184   6.962   7.229  2.4515  1.2580  0.6434
 7283SOL    HW223138   2.182   6.933   7.081 -0.8449  1.9872  0.4719
 7284SOL     OW23139   4.462   6.176   0.416  0.3477  0.2943  0.0206
 7284SOL    HW123140   4.490   6.131   0.336 -0.2458  0.3587 -0.2322
 7284SOL    HW223141   4.452   6.106   0.480  1.1094  0.2757  0.1283
 7285SOL     OW23142   6.638   0.690   2.091  0.9953  0.6284 -0.6307
 7285SOL    HW123143   6.726   0.704   2.125  1.0542  1.2258 -1.0252
 7285SOL    HW223144   6.581   0.711   2.165  1.1794  0.0815 -0.3239
 7286SOL     OW23145   5.063   4.328   1.869  0.1916 -0.2429 -0.2052
 7286SOL    HW123146   5.148   4.362   1.897 -0.7050  1.5624  0.4994
 7286SOL    HW223147   5.080   4.237   1.847  1.8393 -0.6220  2.1950
 7287SOL     OW23148   3.234   5.569   4.071 -0.1760 -0.4212  0.0210
 7287SOL    HW123149   3.185   5.504   4.122 -2.0562  1.6313  1.0162
 7287SOL    HW223150   3.320   5.573   4.113 -0.0850 -2.0617  0.0638
 7288SOL     OW23151   3.997   2.833   2.677 -0.0809  0.3241 -0.4996
 7288SOL    HW123152   3.990   2.904   2.742  0.4914 -0.1920  0.1362
 7288SOL    HW223153   3.914   2.787   2.684 -1.6223  2.4776 -2.8088
 7289SOL     OW23154   4.564   1.721   2.385  0.9964  0.5527 -0.4536
 7289SOL    HW123155   4.600   1.649   2.333  0.6360  0.0890 -0.0695
 7289SOL    HW223156   4.621   1.795   2.365 -0.4266  1.0410 -3.2568
 7290SOL     OW23157   1.302   8.074   6.857 -0.2255  0.1457 -0.4466
 7290SOL    HW123158   1.351   8.066   6.775 -1.5566 -0.5235 -1.2108
 7290SOL    HW223159   1.369   8.075   6.925  0.8968  0.4236 -1.5167
 7291SOL     OW23160   5.901   6.570   8.044 -0.3908 -0.6713 -0.3672
 7291SOL    HW123161   5.848   6.650   8.046  0.3473 -0.1706  1.3606
 7291SOL    HW223162   5.963   6.583   7.973 -0.6728  0.0302 -0.4948
 7292SOL     OW23163   3.149   7.560   5.486  0.3605 -0.1462 -0.7099
 7292SOL    HW123164   3.104   7.488   5.442  1.9226 -0.8111 -1.2926
 7292SOL    HW223165   3.169   7.527   5.573  0.5610 -0.2207 -0.7821
 7293SOL     OW23166   4.314   3.618   8.212 -1.0300  0.1443  0.8409
 7293SOL    HW123167   4.363   3.562   8.152 -1.4925  1.0617 -0.4429
 7293SOL    HW223168   4.349   3.597   8.299  0.1901 -0.6733  0.1802
 7294SOL     OW23169   5.992   0.218   6.626 -0.0890  0.1450  0.3422
 7294SOL    HW123170   6.068   0.174   6.666  1.9946  2.4744 -0.7518
 7294SOL    HW223171   6.011   0.217   6.532 -2.4287 -0.8274 -0.1947
 7295SOL     OW23172   5.802   3.742   1.393  0.2598  0.0597 -0.2639
 7295SOL    HW123173   5.884   3.710   1.431 -0.1286 -0.8810 -0.1858
 7295SOL    HW223174   5.749   3.663   1.380  0.8876  0.0844 -4.0947
 7296SOL     OW23175   1.793   8.321   4.620  0.3438 -0.0793  0.5959
 7296SOL    HW123176   1.713   8.311   4.673 -0.2264  0.6093 -0.1110
 7296SOL    HW223177   1.826   8.232   4.610 -0.1673 -0.3423  1.1614
 7297SOL     OW23178   2.292   5.230   0.639  0.5786  0.4600  0.2617
 7297SOL    HW123179   2.317   5.186   0.720 -1.4514 -2.9349 -0.7325
 7297SOL    HW223180   2.220   5.288   0.663 -1.0160 -1.6346  0.7640
 7298SOL     OW23181   1.211   6.494   2.252  0.8489  0.1791  0.4283
 7298SOL    HW123182   1.234   6.565   2.192  0.6054 -0.7351 -0.7950
 7298SOL    HW223183   1.133   6.524   2.297  1.1802  0.9888  0.4759
 7299SOL     OW23184   1.932   7.027   3.383  0.6469 -0.4393 -0.2506
 7299SOL    HW123185   1.878   7.003   3.459  0.4158  1.0472  0.1000
 7299SOL    HW223186   1.926   6.952   3.324 -2.4169 -0.0855 -0.5564
 7300SOL     OW23187   7.268   4.690   0.281  0.4686  0.3845 -0.5412
 7300SOL    HW123188   7.323   4.628   0.233  0.2778  0.2280 -0.5623
 7300SOL    HW223189   7.182   4.683   0.239  0.1830 -0.0817  0.1105
 7301SOL     OW23190   1.648   6.451   7.572  0.1185 -0.2460  0.5458
 7301SOL    HW123191   1.715   6.394   7.609  1.4995  1.4173  0.7467
 7301SOL    HW223192   1.679   6.471   7.484 -0.7738 -0.4341  0.1699
 7302SOL     OW23193   7.537   8.689   8.509  0.3021  0.3840 -0.5472
 7302SOL    HW123194   7.597   8.626   8.549 -0.1392  0.9570  1.1276
 7302SOL    HW223195   7.538   8.668   8.416  2.1090 -0.4283 -0.3863
 7303SOL     OW23196   6.139   7.549   1.018  0.7303  0.9014  0.0210
 7303SOL    HW123197   6.064   7.493   1.039  0.3024  1.4260 -0.0726
 7303SOL    HW223198   6.164   7.524   0.929 -0.3748  1.8340 -0.5786
 7304SOL     OW23199   7.616   0.235   2.146  0.3504  0.0618 -0.4390
 7304SOL    HW123200   7.665   0.157   2.172  1.5951  1.4973  1.8659
 7304SOL    HW223201   7.597   0.280   2.229  0.3950  2.5932 -1.7124
 7305SOL     OW23202   1.148   4.851   8.441  0.2679  0.0711 -0.0609
 7305SOL    HW123203   1.140   4.835   8.535 -1.9222 -0.8722 -0.3464
 7305SOL    HW223204   1.229   4.806   8.415  0.3594 -0.5257  1.2029
 7306SOL     OW23205   6.142   0.244   3.633 -0.0163 -0.4519  0.4340
 7306SOL    HW123206   6.176   0.174   3.577 -1.1471  0.4637 -1.4983
 7306SOL    HW223207   6.056   0.264   3.596 -0.4651  0.7624  2.0396
 7307SOL     OW23208   2.867   1.255   0.165  1.0019  0.7896 -0.0934
 7307SOL    HW123209   2.875   1.300   0.081  0.6916  1.4695  0.2327
 7307SOL    HW223210   2.951   1.269   0.208  2.4276 -2.2707 -1.5504
 7308SOL     OW23211   0.737   4.519   8.641  0.1206  0.4364 -0.1865
 7308SOL    HW123212   0.762   4.589   8.581  0.2021  0.8565  0.3409
 7308SOL    HW223213   0.646   4.500   8.618  0.1268  0.6466 -0.3923
 7309SOL     OW23214   2.545   1.112   6.450 -0.3732  0.3899  0.3929
 7309SOL    HW123215   2.638   1.087   6.453 -0.6278 -0.5291  2.5355
 7309SOL    HW223216   2.522   1.108   6.358  1.0366 -2.0484  0.0604
 7310SOL     OW23217   3.966   6.290   3.357 -0.1600 -0.2101  0.0185
 7310SOL    HW123218   3.885   6.262   3.401 -0.1358  0.6943  0.6753
 7310SOL    HW223219   4.022   6.322   3.428  0.1231  0.7049 -0.5921
 7311SOL     OW23220   3.748   2.433   6.947 -0.2603 -0.1098 -0.8985
 7311SOL    HW123221   3.661   2.453   6.980 -0.0304 -0.9495  0.2697
 7311SOL    HW223222   3.805   2.500   6.985 -0.1283 -0.6046 -0.1891
 7312SOL     OW23223   2.613   4.921   7.731 -0.0812  0.6867  0.4784
 7312SOL    HW123224   2.573   4.995   7.687  2.0325  0.3956 -2.1624
 7312SOL    HW223225   2.555   4.847   7.713 -0.0836  0.9094 -0.4425
 7313SOL     OW23226   8.016   5.527   5.291 -0.2209  0.0222  0.2887
 7313SOL    HW123227   7.966   5.448   5.270  1.3680 -1.1614  0.7086
 7313SOL    HW223228   8.029   5.522   5.386  0.3634  0.5058  0.2399
 7314SOL     OW23229   6.325   7.888   6.613 -0.1773  0.0145  0.1847
 7314SOL    HW123230   6.255   7.948   6.640  0.1236  0.9651 -1.0538
 7314SOL    HW223231   6.321   7.817   6.677 -0.5244  1.3518  1.7175
 7315SOL     OW23232   1.562   7.783   7.132  0.1636  0.6447 -0.5159
 7315SOL    HW123233   1.470   7.792   7.107 -0.0579  2.2755  0.7199
 7315SOL    HW223234   1.567   7.694   7.169 -1.0658  0.7383 -0.0489
 7316SOL     OW23235   1.081   7.978   7.114  0.1757  0.0198  0.3856
 7316SOL    HW123236   1.037   8.036   7.052  0.2732  0.5963  0.8518
 7316SOL    HW223237   1.033   7.895   7.108 -0.7669  0.5365  0.6504
 7317SOL     OW23238   3.316   0.630   1.896  0.0773 -0.0488 -0.1463
 7317SOL    HW123239   3.245   0.603   1.838  0.6742 -0.1876 -0.8417
 7317SOL    HW223240   3.369   0.690   1.842 -0.2068  1.0614  0.7687
 7318SOL     OW23241   3.565   6.811   4.187  0.0229  0.8972 -0.4576
 7318SOL    HW123242   3.530   6.845   4.269 -0.3081 -0.5449  0.0127
 7318SOL    HW223243   3.649   6.772   4.211 -0.3154  0.0003 -0.6948
 7319SOL     OW23244   2.320   6.948   5.981  0.5496 -0.1260 -0.0490
 7319SOL    HW123245   2.342   6.864   5.941 -0.5982  0.5146 -2.1898
 7319SOL    HW223246   2.244   6.979   5.932  0.7136  1.9848  0.9130
 7320SOL     OW23247   2.584   3.987   6.306 -0.0645 -0.0040  0.0256
 7320SOL    HW123248   2.535   3.906   6.323  0.6176 -0.8643 -1.8695
 7320SOL    HW223249   2.643   3.996   6.381 -0.9416 -0.6350  0.8092
 7321SOL     OW23250   4.338   2.828   8.467  0.1119  0.3114 -0.7026
 7321SOL    HW123251   4.382   2.820   8.383  0.0823  0.7603 -0.7611
 7321SOL    HW223252   4.360   2.747   8.513 -0.0465 -0.0332 -1.2209
 7322SOL     OW23253   0.756   3.798   5.062 -0.6416  0.2200  0.6664
 7322SOL    HW123254   0.764   3.746   5.142 -3.3768  0.3850  1.1423
 7322SOL    HW223255   0.753   3.889   5.092 -0.2354  0.3887  0.2217
 7323SOL     OW23256   0.258   4.810   0.531  0.4130 -0.1930 -0.3489
 7323SOL    HW123257   0.351   4.791   0.514  0.0931 -1.4336 -0.8581
 7323SOL    HW223258   0.216   4.724   0.525 -0.9573  0.5259 -1.3267
 7324SOL     OW23259   4.525   3.758   7.818 -0.3524 -0.9713  0.2026
 7324SOL    HW123260   4.500   3.786   7.730 -0.5735  0.1228  0.5951
 7324SOL    HW223261   4.478   3.675   7.831 -0.0923 -1.2920 -0.8024
 7325SOL     OW23262   3.703   5.635   0.990 -0.0122 -0.0312 -0.0294
 7325SOL    HW123263   3.611   5.611   0.977 -0.5670  1.6298  0.5951
 7325SOL    HW223264   3.728   5.589   1.070 -0.1285 -0.8576 -0.4461
 7326SOL     OW23265   7.765   8.372   8.134  0.2068  0.6295 -0.4423
 7326SOL    HW123266   7.797   8.462   8.137  1.4170  0.2022  0.8647
 7326SOL    HW223267   7.820   8.329   8.068 -1.2499  1.1166 -2.0444
 7327SOL     OW23268   2.599   6.344   6.345  0.1130 -0.0165 -0.1468
 7327SOL    HW123269   2.613   6.395   6.266 -1.8344  0.0530 -0.4816
 7327SOL    HW223270   2.516   6.376   6.381  0.2307 -1.0492  1.1371
 7328SOL     OW23271   5.358   3.562   3.317 -0.0442 -0.6396 -0.0200
 7328SOL    HW123272   5.374   3.649   3.353 -1.8568 -0.3397  0.1381
 7328SOL    HW223273   5.404   3.562   3.233  0.5951  0.2032  0.3237
 7329SOL     OW23274   7.280   3.930   5.126 -0.8769  0.3044  0.1337
 7329SOL    HW123275   7.283   3.847   5.174  0.7431  0.3392  0.1238
 7329SOL    HW223276   7.325   3.992   5.183 -0.4215  0.7387 -0.6945
 7330SOL     OW23277   4.109   8.122   3.276 -0.3831 -0.4356  0.0340
 7330SOL    HW123278   4.141   8.205   3.241 -0.9773 -0.3289 -0.2747
 7330SOL    HW223279   4.170   8.057   3.243  1.5756  0.1062  2.2736
 7331SOL     OW23280   6.006   4.516   7.553 -0.5825 -0.2896  0.4201
 7331SOL    HW123281   5.999   4.562   7.470  2.5757  0.5043  0.4572
 7331SOL    HW223282   5.983   4.580   7.619 -0.3011 -0.0338  0.2720
 7332SOL     OW23283   1.333   3.485   3.562  0.1430  0.3904 -0.2178
 7332SOL    HW123284   1.267   3.424   3.597  0.9640  0.1272  0.9381
 7332SOL    HW223285   1.285   3.539   3.500 -0.9068 -0.5645 -0.2747
 7333SOL     OW23286   2.622   7.231   3.405 -0.2672  0.1215  0.0633
 7333SOL    HW123287   2.643   7.155   3.350  0.3056 -0.3423  0.8949
 7333SOL    HW223288   2.533   7.214   3.435  0.4194 -1.0796  1.5616
 7334SOL     OW23289   0.868   5.730   2.455  0.1447  0.1621  0.2543
 7334SOL    HW123290   0.856   5.805   2.513 -0.2416  1.4297 -1.3811
 7334SOL    HW223291   0.948   5.749   2.407  1.4276 -1.7129  1.5154
 7335SOL     OW23292   2.288   6.740   8.203 -0.6592 -0.4264 -0.2023
 7335SOL    HW123293   2.334   6.742   8.119  1.4796 -0.9459  0.8887
 7335SOL    HW223294   2.334   6.673   8.254 -1.8563 -0.0648  1.4268
 7336SOL     OW23295   6.876   8.008   1.085  0.9723  0.1632 -0.3472
 7336SOL    HW123296   6.882   7.964   1.170 -1.0404  1.2724  0.4366
 7336SOL    HW223297   6.924   8.090   1.098 -0.0733  0.7318  0.0341
 7337SOL     OW23298   8.305   5.712   3.016 -0.4322 -0.1658  0.0446
 7337SOL    HW123299   8.380   5.675   3.063 -0.4921  0.5238  0.7059
 7337SOL    HW223300   8.230   5.693   3.073 -0.3144  1.9802  1.0115
 7338SOL     OW23301   2.810   0.279   5.710 -0.2737  0.3488 -0.1743
 7338SOL    HW123302   2.814   0.191   5.747 -2.3906 -0.3026 -1.3234
 7338SOL    HW223303   2.902   0.303   5.695  0.3476 -2.3005 -1.2550
 7339SOL     OW23304   3.992   6.115   6.299  0.0993 -0.1205  0.2056
 7339SOL    HW123305   3.930   6.178   6.264 -0.0383 -0.8244 -0.8524
 7339SOL    HW223306   3.964   6.102   6.390 -1.3138 -0.4394 -0.2564
 7340SOL     OW23307   6.480   6.461   0.807 -0.0449 -0.9249 -0.3459
 7340SOL    HW123308   6.466   6.387   0.866 -1.3589 -1.6543 -1.5342
 7340SOL    HW223309   6.423   6.530   0.842 -0.7329 -1.3173 -0.6665
 7341SOL     OW23310   3.645   0.192   1.445 -0.0434  0.0864  0.0989
 7341SOL    HW123311   3.581   0.186   1.516  1.1619 -1.6747  1.1255
 7341SOL    HW223312   3.633   0.112   1.395  0.3963  0.4183 -0.5477
 7342SOL     OW23313   6.335   0.264   0.501  0.3812 -0.0457 -0.6912
 7342SOL    HW123314   6.351   0.275   0.595 -2.0436  0.4283 -0.2780
 7342SOL    HW223315   6.365   0.346   0.462 -0.4481  0.5888 -0.0321
 7343SOL     OW23316   1.857   0.779   2.693 -0.3801 -0.0860  0.0215
 7343SOL    HW123317   1.846   0.874   2.694 -2.3088 -0.1953 -1.9803
 7343SOL    HW223318   1.801   0.749   2.621 -0.1920 -2.7873  0.8689
 7344SOL     OW23319   2.726   3.094   5.970  0.2872  0.4706 -0.2497
 7344SOL    HW123320   2.786   3.125   6.038 -0.3216  0.1114  0.4662
 7344SOL    HW223321   2.647   3.069   6.018  0.6595 -1.9941 -0.7973
 7345SOL     OW23322   0.794   3.571   1.765 -0.0716  0.2260  0.8919
 7345SOL    HW123323   0.853   3.538   1.698 -0.2956  1.2941  0.1496
 7345SOL    HW223324   0.719   3.512   1.762 -0.1623  0.3724  0.0632
 7346SOL     OW23325   0.544   4.276   7.596  0.0968 -0.2181  0.0382
 7346SOL    HW123326   0.541   4.199   7.652 -0.1567 -0.4619 -0.3075
 7346SOL    HW223327   0.596   4.340   7.646 -1.2517  0.0600  1.1557
 7347SOL     OW23328   5.098   3.777   5.010 -0.4608 -0.4464  0.5163
 7347SOL    HW123329   5.056   3.695   4.984 -1.1735 -0.6926  2.3024
 7347SOL    HW223330   5.162   3.751   5.076  0.7429  0.2301 -0.3570
 7348SOL     OW23331   6.609   6.864   0.521 -0.2222  0.1319 -0.0243
 7348SOL    HW123332   6.609   6.863   0.425 -2.1535  0.4317 -0.0769
 7348SOL    HW223333   6.573   6.779   0.546 -0.4130  0.3387  0.4138
 7349SOL     OW23334   7.902   3.531   8.211 -0.0887 -0.1390 -0.1508
 7349SOL    HW123335   7.961   3.532   8.286 -1.1464 -0.3481  0.7177
 7349SOL    HW223336   7.827   3.584   8.238 -1.2372 -1.5478 -0.4055
 7350SOL     OW23337   2.560   3.641   4.384  0.3094 -0.3204 -0.3903
 7350SOL    HW123338   2.638   3.654   4.438 -1.1996 -0.0051  1.8219
 7350SOL    HW223339   2.542   3.728   4.347  0.1202 -0.0285  0.3731
 7351SOL     OW23340   5.912   6.273   1.481  0.1792 -0.1067 -0.4187
 7351SOL    HW123341   5.946   6.343   1.425 -2.0474  2.3990  1.0832
 7351SOL    HW223342   5.966   6.276   1.559  0.6856 -0.7634 -0.7356
 7352SOL     OW23343   2.273   4.499   1.860 -0.5236 -0.6361  0.0153
 7352SOL    HW123344   2.221   4.565   1.906 -1.1338 -2.3301  1.8983
 7352SOL    HW223345   2.221   4.479   1.781  0.8361  2.7412 -1.9596
 7353SOL     OW23346   2.126   3.904   1.789  0.2523 -0.2371  0.2214
 7353SOL    HW123347   2.032   3.892   1.775  0.7345 -4.9924 -0.5691
 7353SOL    HW223348   2.164   3.902   1.701  1.1984  1.0849  0.5684
 7354SOL     OW23349   7.349   3.529   1.036 -0.2778  0.0869 -0.3168
 7354SOL    HW123350   7.282   3.590   1.065  0.0497  0.6357 -0.7028
 7354SOL    HW223351   7.320   3.444   1.069 -0.5344  0.5034  0.5565
 7355SOL     OW23352   7.179   0.760   5.497 -0.5546 -0.0747  0.0327
 7355SOL    HW123353   7.178   0.682   5.442  1.2767  0.3772 -0.7067
 7355SOL    HW223354   7.209   0.830   5.440  0.2699  0.6472  1.2882
 7356SOL     OW23355   8.099   3.759   1.946  0.2845  0.4470  0.0251
 7356SOL    HW123356   8.152   3.835   1.921 -1.3935  1.5809 -0.2223
 7356SOL    HW223357   8.012   3.794   1.963 -0.1094 -1.1691  1.7188
 7357SOL     OW23358   0.612   1.822   8.040 -0.4986  0.0314  0.6144
 7357SOL    HW123359   0.533   1.769   8.050 -0.7255  0.2652  0.0746
 7357SOL    HW223360   0.620   1.869   8.123 -0.7869 -0.1758  0.7622
 7358SOL     OW23361   2.561   2.852   4.878  0.2451 -0.1703  0.6103
 7358SOL    HW123362   2.499   2.886   4.942  0.5794 -0.4079  1.0645
 7358SOL    HW223363   2.629   2.919   4.871 -0.2917  0.3103 -0.2431
 7359SOL     OW23364   2.847   7.535   3.321 -0.4762 -0.6611 -0.5091
 7359SOL    HW123365   2.861   7.446   3.287  0.0583 -0.4531 -0.8420
 7359SOL    HW223366   2.917   7.587   3.282 -0.5072 -0.1869  0.0617
 7360SOL     OW23367   6.819   3.042   6.844 -0.6064  0.3007  0.1405
 7360SOL    HW123368   6.869   3.071   6.768  0.2914 -1.4964 -0.0117
 7360SOL    HW223369   6.868   3.076   6.919  2.3808 -3.2280  0.1204
 7361SOL     OW23370   2.341   4.470   4.899  0.3141 -0.5343 -0.1559
 7361SOL    HW123371   2.302   4.410   4.835  0.2538 -0.9017  0.2218
 7361SOL    HW223372   2.313   4.435   4.984  0.8571 -0.3712  0.0922
 7362SOL     OW23373   3.428   8.600   2.897  0.2953  0.2942  0.0984
 7362SOL    HW123374   3.457   8.517   2.935  1.3040  1.0423  1.0346
 7362SOL    HW223375   3.394   8.649   2.971 -2.6726 -0.1821 -0.8176
 7363SOL     OW23376   5.198   6.779   6.181  0.1601  0.0856  0.9905
 7363SOL    HW123377   5.164   6.735   6.259  0.8209 -0.5470  0.9425
 7363SOL    HW223378   5.163   6.728   6.108  1.1121 -0.5259  0.9401
 7364SOL     OW23379   5.233   7.224   8.048  0.1166  0.0029 -0.2553
 7364SOL    HW123380   5.265   7.141   8.013 -2.3019 -2.1171  2.0729
 7364SOL    HW223381   5.311   7.268   8.083  1.2521 -2.2872  0.2884
 7365SOL     OW23382   5.475   6.661   5.372 -0.3500  0.0551 -0.0055
 7365SOL    HW123383   5.549   6.698   5.324  0.7949 -0.7442  1.0712
 7365SOL    HW223384   5.514   6.593   5.427 -1.8625 -0.2330  0.7628
 7366SOL     OW23385   8.479   7.471   6.100 -0.0252  0.1394 -0.0994
 7366SOL    HW123386   8.488   7.390   6.151  1.7897 -0.8158 -1.7927
 7366SOL    HW223387   8.397   7.460   6.052  1.1072 -1.6114 -1.7436
 7367SOL     OW23388   5.322   8.548   1.164  0.3236  0.0090  0.2970
 7367SOL    HW123389   5.297   8.616   1.101 -0.1743 -0.9373 -0.5666
 7367SOL    HW223390   5.238   8.518   1.201  0.6068  0.4854  1.3481
 7368SOL     OW23391   6.363   8.072   2.313  0.3201 -0.1754 -0.5426
 7368SOL    HW123392   6.340   8.163   2.295 -0.7117 -0.1111  0.9227
 7368SOL    HW223393   6.456   8.075   2.337  0.1012  0.6244  0.2718
 7369SOL     OW23394   6.540   5.030   4.340 -0.1179 -0.1627 -0.0915
 7369SOL    HW123395   6.502   4.973   4.407  1.3426 -2.6848 -1.2529
 7369SOL    HW223396   6.534   4.979   4.259  0.0763  1.9222 -1.4991
 7370SOL     OW23397   0.086   6.849   0.916  0.2757  0.2546 -0.2652
 7370SOL    HW123398   0.096   6.783   0.847  1.7159  0.2818 -0.1159
 7370SOL    HW223399   0.001   6.829   0.956 -0.0684 -0.4618 -1.3061
 7371SOL     OW23400   0.957   0.833   2.669  0.0845 -0.0400  0.1480
 7371SOL    HW123401   0.898   0.793   2.732  0.4686 -0.3231  0.3326
 7371SOL    HW223402   1.009   0.760   2.635 -1.2753 -0.1820 -1.7938
 7372SOL     OW23403   0.643   1.528   7.756 -0.6805  0.3968  0.1247
 7372SOL    HW123404   0.654   1.606   7.702 -1.8480  1.3073  1.1504
 7372SOL    HW223405   0.676   1.554   7.842  1.5200 -1.1555 -0.1579
 7373SOL     OW23406   1.004   5.120   6.398 -0.1076 -0.0033  0.1168
 7373SOL    HW123407   1.071   5.178   6.361 -0.3894  0.7724  0.7888
 7373SOL    HW223408   0.998   5.146   6.490 -0.5270 -0.8371  0.3348
 7374SOL     OW23409   5.124   2.560   6.854  0.8070 -0.0890  0.4119
 7374SOL    HW123410   5.126   2.645   6.809 -0.3932 -0.4975 -0.4526
 7374SOL    HW223411   5.125   2.582   6.947  0.9439  0.8569  0.1950
 7375SOL     OW23412   5.246   2.951   3.445  0.2610  0.4883 -0.7776
 7375SOL    HW123413   5.168   3.003   3.464  0.4720  0.3672  0.4911
 7375SOL    HW223414   5.302   3.010   3.394 -1.1189  0.1899 -2.7875
 7376SOL     OW23415   2.079   6.671   4.951  0.5083 -0.6776  0.3795
 7376SOL    HW123416   2.017   6.651   4.881  0.3943  0.0199  0.2741
 7376SOL    HW223417   2.159   6.625   4.926  0.1454 -1.3082  0.3447
 7377SOL     OW23418   1.981   7.431   3.557  0.4182  0.7057 -0.1631
 7377SOL    HW123419   1.995   7.461   3.467 -1.0951 -0.6452 -0.9083
 7377SOL    HW223420   2.031   7.492   3.611  3.0152  0.4141 -2.0402
 7378SOL     OW23421   4.467   2.930   3.417  0.3018  0.0555 -0.1944
 7378SOL    HW123422   4.508   2.897   3.497 -1.7905 -0.3539  0.7706
 7378SOL    HW223423   4.444   2.851   3.368 -0.5793  0.2050 -0.0399
 7379SOL     OW23424   5.695   8.564   4.270 -0.3091 -0.0322 -0.1170
 7379SOL    HW123425   5.671   8.476   4.300 -0.7295  0.3791  0.7917
 7379SOL    HW223426   5.785   8.575   4.301 -0.4093  0.0192  0.1642
 7380SOL     OW23427   6.511   2.227   3.408 -0.2067  0.1823 -0.6929
 7380SOL    HW123428   6.561   2.286   3.464 -0.1001 -0.3126 -0.2534
 7380SOL    HW223429   6.471   2.284   3.343  1.1324  0.5735 -1.2187
 7381SOL     OW23430   4.419   6.466   6.150 -0.4249  0.0710  0.0895
 7381SOL    HW123431   4.344   6.444   6.204 -2.6021  0.8176 -2.4342
 7381SOL    HW223432   4.407   6.416   6.069  2.0021 -0.0382 -0.3059
 7382SOL     OW23433   8.105   3.315   3.083  0.0981 -0.0908  0.5879
 7382SOL    HW123434   8.130   3.356   3.001  1.0012  0.7094  1.2333
 7382SOL    HW223435   8.180   3.258   3.105 -0.1093 -0.2493  0.8863
 7383SOL     OW23436   6.084   5.389   4.990 -0.1386 -0.2506 -0.2430
 7383SOL    HW123437   6.020   5.433   5.047  0.4111 -0.3543  0.4670
 7383SOL    HW223438   6.152   5.455   4.976 -0.0398 -0.3827 -0.3809
 7384SOL     OW23439   7.132   7.068   1.305 -0.1553 -0.2965 -0.6594
 7384SOL    HW123440   7.107   7.161   1.308 -0.7421 -0.4056 -1.7551
 7384SOL    HW223441   7.220   7.068   1.267  0.0493 -0.1611 -0.1954
 7385SOL     OW23442   0.357   0.936   2.400 -0.0840  0.1647 -0.3072
 7385SOL    HW123443   0.364   0.955   2.307  0.2507  1.3753 -0.0577
 7385SOL    HW223444   0.389   1.015   2.443 -0.1015 -0.4257  0.8376
 7386SOL     OW23445   1.939   3.483   5.862  0.3571 -0.2890  0.2917
 7386SOL    HW123446   1.974   3.518   5.944 -0.9391 -0.3015  0.8790
 7386SOL    HW223447   1.844   3.497   5.869  0.2098 -0.4684 -1.1226
 7387SOL     OW23448   5.251   4.080   4.637 -0.2536  0.1638  0.3686
 7387SOL    HW123449   5.257   4.000   4.688 -0.3587 -0.6657 -0.8790
 7387SOL    HW223450   5.329   4.080   4.582 -1.6656 -0.6025 -1.7301
 7388SOL     OW23451   8.654   1.659   4.946 -0.4848 -0.1573  0.0059
 7388SOL    HW123452   8.708   1.645   5.024 -0.0397  0.8475 -0.1112
 7388SOL    HW223453   8.651   1.573   4.904  0.3693 -0.4074  0.4293
 7389SOL     OW23454   4.499   0.411   6.956 -0.4287 -0.2310  0.0301
 7389SOL    HW123455   4.470   0.502   6.968 -2.5544 -1.0058  1.4851
 7389SOL    HW223456   4.425   0.359   6.987  1.1518 -2.4740  0.2568
 7390SOL     OW23457   1.605   7.899   8.596  0.1878  0.3406  0.2930
 7390SOL    HW123458   1.515   7.866   8.604 -0.7807  2.0525 -2.0828
 7390SOL    HW223459   1.649   7.837   8.538  0.0093  0.4048  0.0884
 7391SOL     OW23460   6.305   5.593   2.788  0.2079  0.2883 -0.8597
 7391SOL    HW123461   6.230   5.646   2.816 -2.6885 -4.3450  1.6119
 7391SOL    HW223462   6.312   5.609   2.694 -2.2995  2.7564 -0.7714
 7392SOL     OW23463   0.270   6.963   4.969  0.1095  0.0988 -0.7646
 7392SOL    HW123464   0.286   6.932   5.058 -3.2300  1.8402  0.6125
 7392SOL    HW223465   0.356   6.994   4.939  1.3189 -0.4078  1.8696
 7393SOL     OW23466   5.816   7.093   8.535  0.0676 -0.5829  0.3069
 7393SOL    HW123467   5.823   7.065   8.444  0.1069 -1.9726  0.7118
 7393SOL    HW223468   5.754   7.166   8.533 -1.2792 -1.6926 -0.6186
 7394SOL     OW23469   7.890   7.420   1.814  0.2334 -0.1974 -0.5238
 7394SOL    HW123470   7.877   7.334   1.775 -0.9052  0.7459 -2.3804
 7394SOL    HW223471   7.963   7.458   1.765  0.6468 -0.0535  0.1942
 7395SOL     OW23472   6.800   1.255   4.801  0.7206 -0.0826  0.1500
 7395SOL    HW123473   6.776   1.325   4.739  1.7866 -1.1131 -1.5182
 7395SOL    HW223474   6.895   1.263   4.809  1.0044 -1.8812 -0.8451
 7396SOL     OW23475   7.591   4.138   0.410 -0.2415  0.4106  1.1485
 7396SOL    HW123476   7.586   4.070   0.477  2.2782 -0.8839  0.1308
 7396SOL    HW223477   7.499   4.162   0.394 -1.1094 -1.6695  2.5860
 7397SOL     OW23478   5.445   8.597   4.135 -0.0589  0.6953 -0.6465
 7397SOL    HW123479   5.485   8.587   4.221  1.9032  2.0909 -1.3287
 7397SOL    HW223480   5.507   8.558   4.074 -0.7157  1.0556 -1.5724
 7398SOL     OW23481   1.429   4.509   3.855 -0.2552  0.0764  0.0109
 7398SOL    HW123482   1.374   4.511   3.934 -0.0623  2.1265  0.1305
 7398SOL    HW223483   1.518   4.516   3.889 -0.1129  0.0236 -0.3555
 7399SOL     OW23484   1.767   2.916   2.738  0.1346 -0.0333  0.2258
 7399SOL    HW123485   1.791   2.824   2.725  0.4159 -0.0886  1.0627
 7399SOL    HW223486   1.851   2.963   2.740  0.0387  0.1245  0.6255
 7400SOL     OW23487   0.951   4.007   8.524  0.2997  0.4139 -0.6289
 7400SOL    HW123488   0.879   4.028   8.584  1.5922  0.2436  1.0759
 7400SOL    HW223489   0.988   4.091   8.501  2.4663  0.4388  2.3523
 7401SOL     OW23490   3.153   3.386   8.280  0.0154 -0.4824  0.4415
 7401SOL    HW123491   3.237   3.362   8.240  0.7182 -0.0688  1.6004
 7401SOL    HW223492   3.163   3.362   8.372 -1.0695 -0.2386  0.6292
 7402SOL     OW23493   3.634   0.003   6.235 -0.6705 -0.6177  0.1971
 7402SOL    HW123494   3.718  -0.019   6.194 -0.7327 -0.1412 -0.1963
 7402SOL    HW223495   3.578  -0.072   6.218 -0.2931 -0.9863  0.5564
 7403SOL     OW23496   2.610   3.834   0.524 -0.1050 -0.3160 -0.6318
 7403SOL    HW123497   2.550   3.881   0.583 -0.0259  0.0416 -0.8323
 7403SOL    HW223498   2.623   3.749   0.566 -0.9287 -0.4822 -0.6999
 7404SOL     OW23499   6.761   4.646   4.510 -0.3210  0.4572 -0.0997
 7404SOL    HW123500   6.665   4.646   4.512 -0.3353  0.5925 -0.8442
 7404SOL    HW223501   6.786   4.580   4.575 -0.9134  0.5529  0.2307
 7405SOL     OW23502   6.878   0.146   6.742 -0.6764 -0.0775 -0.9160
 7405SOL    HW123503   6.827   0.068   6.720 -1.8902  0.3739  0.1424
 7405SOL    HW223504   6.966   0.113   6.757 -0.9861 -1.1277 -1.2955
 7406SOL     OW23505   1.842   4.337   8.584  0.1026 -0.1146  0.0377
 7406SOL    HW123506   1.841   4.243   8.604 -0.3635 -0.3470 -1.0298
 7406SOL    HW223507   1.929   4.366   8.612  0.6649 -1.0923 -0.6406
 7407SOL     OW23508   2.373   6.754   4.295  0.3067  0.4688 -0.3124
 7407SOL    HW123509   2.291   6.705   4.304  0.8453 -0.3274  0.4514
 7407SOL    HW223510   2.373   6.785   4.204 -1.2860  1.3250 -0.0495
 7408SOL     OW23511   6.981   5.815   3.347 -0.5369  0.7016 -0.4535
 7408SOL    HW123512   6.991   5.778   3.434 -0.3144  4.0614  1.1262
 7408SOL    HW223513   7.068   5.812   3.308 -0.7339 -1.2464 -0.8280
 7409SOL     OW23514   2.371   6.271   0.437 -0.4396 -0.4019 -0.8954
 7409SOL    HW123515   2.434   6.315   0.493 -1.1958  0.5224 -0.7446
 7409SOL    HW223516   2.355   6.332   0.366 -0.6520 -0.9159 -1.3021
 7410SOL     OW23517   8.193   8.540   1.531 -0.2352  0.2616 -0.0594
 7410SOL    HW123518   8.280   8.568   1.502  0.8590 -1.7695  1.0254
 7410SOL    HW223519   8.193   8.445   1.521 -2.2565  0.1815  0.2138
 7411SOL     OW23520   3.331   5.039   7.163 -0.5558 -0.2003 -0.1529
 7411SOL    HW123521   3.242   5.071   7.147 -0.1811  1.5960  0.9907
 7411SOL    HW223522   3.373   5.109   7.213  1.7141 -0.7028 -1.1962
 7412SOL     OW23523   4.473   5.960   1.537 -0.0608  0.5151  0.3035
 7412SOL    HW123524   4.428   5.882   1.506  3.3153 -2.0132  1.1791
 7412SOL    HW223525   4.442   5.972   1.627  0.1165 -0.4755  0.5045
 7413SOL     OW23526   7.032   7.991   1.599  0.4646  0.6667  0.0439
 7413SOL    HW123527   6.984   8.044   1.662 -0.5040 -1.6987  1.4018
 7413SOL    HW223528   7.079   7.926   1.651  0.6557 -0.5722 -1.5643
 7414SOL     OW23529   7.068   2.762   4.478  0.1927  0.0480  0.7484
 7414SOL    HW123530   7.098   2.671   4.473 -0.7073 -0.2054 -1.0126
 7414SOL    HW223531   6.974   2.757   4.457  0.3001  1.4370 -0.1859
 7415SOL     OW23532   3.074   1.969   3.843  0.3937  0.1024  0.0262
 7415SOL    HW123533   3.093   1.950   3.935  1.2231 -0.0033 -0.1541
 7415SOL    HW223534   3.018   2.047   3.845  1.2152  0.6989  0.5970
 7416SOL     OW23535   3.760   8.621   0.123  1.0421  0.3391 -0.5308
 7416SOL    HW123536   3.852   8.634   0.101  1.0118  0.4713 -0.5830
 7416SOL    HW223537   3.761   8.578   0.208  1.1396  1.3959  0.0131
 7417SOL     OW23538   7.923   6.714   0.003 -0.2371  0.4401 -0.0127
 7417SOL    HW123539   7.887   6.759  -0.073  0.6197 -0.9608 -1.2815
 7417SOL    HW223540   7.993   6.772   0.034  0.9007  0.0238 -1.6734
 7418SOL     OW23541   4.394   1.499   1.223 -0.3188 -1.0789  0.7318
 7418SOL    HW123542   4.429   1.422   1.267  0.2948 -1.5448 -0.5219
 7418SOL    HW223543   4.370   1.467   1.136  0.3688  0.2461  0.0370
 7419SOL     OW23544   7.001   4.490   1.515  0.2548 -0.1112  0.3655
 7419SOL    HW123545   6.931   4.461   1.574 -1.4894  1.1442 -0.9935
 7419SOL    HW223546   6.974   4.459   1.429  0.7201  1.4733 -0.3806
 7420SOL     OW23547   6.293   6.888   3.201  0.0729  0.1644 -0.1235
 7420SOL    HW123548   6.323   6.865   3.289  0.4183 -1.9161 -0.7283
 7420SOL    HW223549   6.198   6.880   3.205  0.1760 -1.4524 -0.2917
 7421SOL     OW23550   1.542   3.686   8.066  0.2107 -0.1733 -0.2539
 7421SOL    HW123551   1.501   3.602   8.084 -0.6413  0.1250 -0.7245
 7421SOL    HW223552   1.633   3.664   8.044  0.4806 -0.7933  1.3488
 7422SOL     OW23553   4.726   2.900   5.316  0.3134 -0.1748 -0.1758
 7422SOL    HW123554   4.764   2.855   5.391 -0.2271 -0.6878 -0.2066
 7422SOL    HW223555   4.649   2.945   5.350 -0.9571 -1.8402 -0.7311
 7423SOL     OW23556   7.362   2.589   6.588  0.5326  0.2543  0.3923
 7423SOL    HW123557   7.456   2.591   6.571  0.3518 -1.7072 -1.2192
 7423SOL    HW223558   7.343   2.498   6.611 -1.2184  0.1693 -1.1259
 7424SOL     OW23559   5.462   6.233   7.200 -0.0765  0.4067 -0.1899
 7424SOL    HW123560   5.394   6.275   7.252 -0.4083  1.7652 -1.6262
 7424SOL    HW223561   5.540   6.234   7.255 -1.2944 -1.7695  1.7453
 7425SOL     OW23562   4.106   7.300   0.465 -0.7434 -0.5546  0.4490
 7425SOL    HW123563   4.111   7.381   0.414  0.5851 -0.5800  0.4929
 7425SOL    HW223564   4.134   7.232   0.405  1.2747 -0.5288  1.2650
 7426SOL     OW23565   6.828   7.047   5.867  0.6715  0.0126  0.3702
 7426SOL    HW123566   6.779   7.128   5.878  0.2775 -0.1768  0.0410
 7426SOL    HW223567   6.896   7.068   5.802  0.2579 -0.0501 -0.0908
 7427SOL     OW23568   4.019   5.202   1.235  0.1841 -0.0170  0.1335
 7427SOL    HW123569   4.103   5.161   1.254  0.5767 -0.1391 -1.7498
 7427SOL    HW223570   3.994   5.244   1.318  1.2990 -1.3381  1.1786
 7428SOL     OW23571   2.618   0.319   3.727 -0.4129  0.1128  0.1234
 7428SOL    HW123572   2.681   0.363   3.784 -0.2960  1.1323 -0.7545
 7428SOL    HW223573   2.573   0.257   3.784  2.6577 -2.0287  0.4035
 7429SOL     OW23574   2.237   3.241   6.171 -0.5071 -0.1680 -0.1725
 7429SOL    HW123575   2.228   3.330   6.205  1.0710  0.3627 -1.0582
 7429SOL    HW223576   2.162   3.230   6.113 -2.4135 -0.5520  2.1936
 7430SOL     OW23577   4.711   2.933   4.396  0.3441  0.4922  0.0386
 7430SOL    HW123578   4.746   2.894   4.315  1.5898 -1.2912  1.3552
 7430SOL    HW223579   4.627   2.888   4.408  0.2472  0.6183 -0.1545
 7431SOL     OW23580   0.560   4.699   6.882 -0.0867 -0.0576 -0.4065
 7431SOL    HW123581   0.510   4.779   6.899 -0.1286 -0.3115  0.7501
 7431SOL    HW223582   0.502   4.628   6.908  0.1712 -0.4411 -0.8651
 7432SOL     OW23583   7.530   6.888   1.768  0.5668  0.3901 -0.4284
 7432SOL    HW123584   7.438   6.897   1.791  0.6597  3.4272 -0.7699
 7432SOL    HW223585   7.567   6.835   1.838 -1.2939 -0.3810  0.0373
 7433SOL     OW23586   5.573   2.378   5.521 -0.0834 -0.1038  0.0910
 7433SOL    HW123587   5.635   2.451   5.513 -0.6980  0.7078  2.0833
 7433SOL    HW223588   5.628   2.302   5.541  0.4546  0.1246 -0.4969
 7434SOL     OW23589   3.335   2.472   6.587  0.0750  0.2261  0.2314
 7434SOL    HW123590   3.350   2.564   6.612 -0.8277  0.2606  0.7064
 7434SOL    HW223591   3.322   2.475   6.492  1.7413  0.3463 -0.0096
 7435SOL     OW23592   2.758   7.335   2.721 -0.1228 -0.0039 -0.0307
 7435SOL    HW123593   2.800   7.409   2.677 -2.9074  1.7505  0.0733
 7435SOL    HW223594   2.749   7.269   2.652 -1.7086  1.5639 -1.4279
 7436SOL     OW23595   1.478   6.696   2.210  0.6165 -0.4118 -0.1748
 7436SOL    HW123596   1.552   6.702   2.150  0.7625  0.4666  0.0895
 7436SOL    HW223597   1.400   6.702   2.154  0.7041 -1.9971 -0.5335
 7437SOL     OW23598   7.980   7.658   6.035  0.3574  0.6899  0.4070
 7437SOL    HW123599   8.052   7.722   6.038  1.2394 -0.2536  0.0928
 7437SOL    HW223600   7.971   7.629   6.126  0.1433  1.0618  0.5040
 7438SOL     OW23601   1.810   6.139   5.521 -0.2972 -0.7256  0.4335
 7438SOL    HW123602   1.780   6.089   5.598 -0.0496  0.4982  1.3606
 7438SOL    HW223603   1.785   6.230   5.541 -0.6661 -0.4498 -1.1686
 7439SOL     OW23604   1.242   2.674   8.127 -0.4107 -0.1348 -0.2520
 7439SOL    HW123605   1.303   2.644   8.060  1.3577  1.1291  0.7091
 7439SOL    HW223606   1.158   2.680   8.082  0.1220 -1.9932 -1.6057
 7440SOL     OW23607   5.851   1.060   8.429  0.5795 -0.5297 -0.3999
 7440SOL    HW123608   5.839   1.097   8.342 -0.3335 -1.7349 -0.8059
 7440SOL    HW223609   5.939   1.023   8.428  2.1934  2.8760  0.5366
 7441SOL     OW23610   2.981   8.185   2.420  0.0993  0.0915  0.1658
 7441SOL    HW123611   2.989   8.106   2.366  1.8709 -0.7456  1.5401
 7441SOL    HW223612   2.964   8.255   2.357  2.0202 -0.8577 -1.5369
 7442SOL     OW23613   1.986   0.765   2.358 -0.0837  0.0193  0.6197
 7442SOL    HW123614   2.072   0.736   2.327 -0.1680 -0.1247  0.5177
 7442SOL    HW223615   1.925   0.701   2.321 -0.6197  1.9138 -2.0547
 7443SOL     OW23616   4.916   0.488   1.821  0.5044  0.7878 -0.4250
 7443SOL    HW123617   4.856   0.446   1.760  0.1805  0.9856 -0.2438
 7443SOL    HW223618   4.999   0.441   1.809  0.1740  0.1537 -0.2845
 7444SOL     OW23619   6.241   4.175   6.959  0.0074 -0.1175  0.1182
 7444SOL    HW123620   6.166   4.120   6.978 -0.6217  1.1477  1.5626
 7444SOL    HW223621   6.316   4.127   6.993 -0.3049 -0.8173 -0.1725
 7445SOL     OW23622   6.877   1.581   5.307 -0.3239 -0.5043  0.1961
 7445SOL    HW123623   6.875   1.676   5.318 -0.2379 -0.4871  0.0749
 7445SOL    HW223624   6.877   1.546   5.396  1.2298 -0.3509  0.2856
 7446SOL     OW23625   6.072   4.769   1.256  0.1970 -0.1573 -0.0337
 7446SOL    HW123626   6.031   4.831   1.317 -0.2929 -0.6527  0.1486
 7446SOL    HW223627   6.027   4.784   1.173  0.0502 -0.2921  0.0204
 7447SOL     OW23628   1.207   7.014   2.015 -0.0980 -0.3245 -0.2325
 7447SOL    HW123629   1.246   7.017   2.103 -0.2077  1.5688 -0.1953
 7447SOL    HW223630   1.271   7.058   1.959 -1.0390  0.5513 -0.6476
 7448SOL     OW23631   4.507   4.929   2.638 -0.0429  0.4177 -0.0189
 7448SOL    HW123632   4.458   4.961   2.714  0.1546  1.3170 -0.2643
 7448SOL    HW223633   4.439   4.903   2.575 -0.3408 -3.1098  1.4733
 7449SOL     OW23634   1.118   1.903   6.112  0.0288  0.0416  0.1976
 7449SOL    HW123635   1.115   1.808   6.102 -0.8256 -0.1041  1.6006
 7449SOL    HW223636   1.210   1.922   6.129  0.4564 -0.3480 -1.5365
 7450SOL     OW23637   6.797   8.278   8.325 -0.6542  0.1546  0.0153
 7450SOL    HW123638   6.821   8.233   8.405 -1.4164  0.1544  0.2459
 7450SOL    HW223639   6.744   8.352   8.354  0.8387  1.4176 -0.3233
 7451SOL     OW23640   3.033   4.513   6.582 -0.2444  0.2798 -0.7502
 7451SOL    HW123641   3.058   4.470   6.663  1.0369  0.2209 -1.1663
 7451SOL    HW223642   2.938   4.523   6.589 -0.3359 -0.9848  0.1277
 7452SOL     OW23643   8.468   1.915   7.846 -0.3602 -0.5668 -0.1843
 7452SOL    HW123644   8.450   2.007   7.826 -1.9390 -0.6780  0.6109
 7452SOL    HW223645   8.554   1.917   7.890 -0.4754  0.5584  0.0224
 7453SOL     OW23646   7.476   4.551   0.159  0.0499  0.0419  0.0353
 7453SOL    HW123647   7.566   4.527   0.181 -0.1448 -0.8652 -0.1230
 7453SOL    HW223648   7.457   4.503   0.079 -0.0698  1.4193 -0.7931
 7454SOL     OW23649   7.956   7.665   1.457  0.0580  0.3573  0.8311
 7454SOL    HW123650   7.998   7.598   1.403 -0.4402 -0.4021  1.3630
 7454SOL    HW223651   7.872   7.682   1.414  0.9387  2.0058 -0.3327
 7455SOL     OW23652   1.019   6.961   6.100 -0.0375 -0.0446  0.3623
 7455SOL    HW123653   1.056   6.984   6.015 -0.2060  0.2978  0.3810
 7455SOL    HW223654   0.958   6.890   6.081  2.0448 -2.0016  0.5824
 7456SOL     OW23655   1.914   6.903   2.365 -0.0901 -0.3844  0.7210
 7456SOL    HW123656   1.962   6.828   2.401 -0.4681 -0.1197  1.8162
 7456SOL    HW223657   1.941   6.977   2.420  1.1372  0.5450 -1.0187
 7457SOL     OW23658   4.658   6.036   2.494  0.6501  0.4276 -0.4602
 7457SOL    HW123659   4.700   5.974   2.434  0.8230 -0.1916  0.2674
 7457SOL    HW223660   4.719   6.041   2.568  0.6211  1.4552 -0.5014
 7458SOL     OW23661   0.224   3.786   7.810 -0.7019  0.1563 -0.2581
 7458SOL    HW123662   0.165   3.722   7.849  0.7850 -1.1594 -0.0716
 7458SOL    HW223663   0.167   3.842   7.757 -2.3382  0.0402  1.2806
 7459SOL     OW23664   2.388   1.045   2.522  0.0790 -0.2136 -0.3679
 7459SOL    HW123665   2.356   1.085   2.442 -0.0542 -0.3980 -0.4059
 7459SOL    HW223666   2.315   1.049   2.583  0.6374  1.2986  0.2481
 7460SOL     OW23667   6.058   4.815   6.561  0.5395  0.0801 -0.1096
 7460SOL    HW123668   6.103   4.819   6.645 -0.4349 -0.0391  0.4271
 7460SOL    HW223669   6.029   4.724   6.553  0.6538  0.0821 -0.5927
 7461SOL     OW23670   4.446   6.156   7.130  0.0288  0.1284 -0.5446
 7461SOL    HW123671   4.508   6.085   7.142  1.9201  1.9321  1.0911
 7461SOL    HW223672   4.432   6.190   7.218 -1.7215  1.0869 -1.1480
 7462SOL     OW23673   2.542   6.175   2.680  0.6232 -0.3014  0.3106
 7462SOL    HW123674   2.618   6.216   2.722  0.9514 -0.1645 -0.4156
 7462SOL    HW223675   2.579   6.106   2.625  0.0839 -1.7287  1.6210
 7463SOL     OW23676   2.812   2.301   2.359 -0.0276 -0.4608  0.5395
 7463SOL    HW123677   2.815   2.397   2.357 -1.3217 -0.3895 -1.5557
 7463SOL    HW223678   2.873   2.275   2.290 -1.4765 -1.0150 -0.5794
 7464SOL     OW23679   4.571   3.673   4.344  0.3059  0.4187 -0.3890
 7464SOL    HW123680   4.515   3.746   4.321 -1.2462 -0.7777 -0.5655
 7464SOL    HW223681   4.519   3.621   4.406  2.8468  1.4902  2.9175
 7465SOL     OW23682   0.621   7.776   3.158  0.1656 -0.0238 -0.1676
 7465SOL    HW123683   0.686   7.780   3.088 -0.9214 -2.0935 -1.3679
 7465SOL    HW223684   0.671   7.752   3.236  1.0222 -0.2523 -0.7802
 7466SOL     OW23685   6.317   2.878   3.563  0.5665  0.1252  0.5372
 7466SOL    HW123686   6.375   2.846   3.493  0.2133 -0.0872  0.3340
 7466SOL    HW223687   6.347   2.967   3.581  1.3290 -0.1937  0.8478
 7467SOL     OW23688   1.401   0.118   3.637 -0.6055  0.1440 -0.5050
 7467SOL    HW123689   1.385   0.210   3.615  2.1027  0.9313  0.4607
 7467SOL    HW223690   1.496   0.110   3.640 -0.7553 -2.1126  1.7195
 7468SOL     OW23691   1.917   3.655   0.537  0.3550 -0.3562  0.2449
 7468SOL    HW123692   1.867   3.592   0.485 -0.0031 -1.4352  1.8186
 7468SOL    HW223693   1.909   3.737   0.489 -1.0602 -1.0043 -0.7068
 7469SOL     OW23694   5.070   4.625   7.197  0.3690  0.1897 -0.4877
 7469SOL    HW123695   5.147   4.570   7.213 -0.6062 -0.7895  1.1565
 7469SOL    HW223696   4.996   4.572   7.229 -0.6161  2.4897  1.3151
 7470SOL     OW23697   8.028   2.561   4.362  0.2957  0.1063 -0.6839
 7470SOL    HW123698   7.972   2.538   4.288  2.4890 -0.5752 -2.2266
 7470SOL    HW223699   8.105   2.601   4.323  1.7787 -0.7618  1.1939
 7471SOL     OW23700   6.088   3.600   0.396 -0.6620  0.7562 -0.0995
 7471SOL    HW123701   6.052   3.590   0.484  0.7894  0.2664  0.4619
 7471SOL    HW223702   6.122   3.513   0.374  2.8873  1.7907  0.6716
 7472SOL     OW23703   7.748   4.397   0.034  0.3491  0.2296  0.4687
 7472SOL    HW123704   7.696   4.398  -0.047  0.7451  1.2757  0.2101
 7472SOL    HW223705   7.716   4.321   0.082  0.2697 -0.5486 -0.7732
 7473SOL     OW23706   7.843   3.977   7.071  0.5055  0.5687  0.8657
 7473SOL    HW123707   7.792   4.053   7.099  0.6975  1.8006 -1.8543
 7473SOL    HW223708   7.934   4.004   7.083  0.6027 -0.4012  2.6398
 7474SOL     OW23709   3.647   5.785   5.330  0.4971 -0.2888 -0.0181
 7474SOL    HW123710   3.589   5.781   5.406 -0.1930  1.5894 -0.3969
 7474SOL    HW223711   3.687   5.872   5.335  3.3402 -1.5029  0.2210
 7475SOL     OW23712   1.944   5.195   0.347 -0.0286  0.8663 -0.6781
 7475SOL    HW123713   1.895   5.215   0.267  0.2296 -1.3251 -1.4773
 7475SOL    HW223714   1.882   5.147   0.402  0.2528  0.9955 -0.2412
 7476SOL     OW23715   5.515   5.102   7.149  0.1046  0.2467 -0.0206
 7476SOL    HW123716   5.475   5.186   7.127 -1.8704 -0.5533  0.3013
 7476SOL    HW223717   5.448   5.037   7.128  1.5173 -1.2562 -0.0977
 7477SOL     OW23718   0.347   5.745   5.819 -0.0771 -0.0953  0.3669
 7477SOL    HW123719   0.288   5.802   5.768 -0.1982  1.2494  1.9370
 7477SOL    HW223720   0.431   5.751   5.773 -0.7622 -0.8835 -1.0675
 7478SOL     OW23721   3.103   6.219   4.910  0.1127  0.0516  0.7081
 7478SOL    HW123722   3.068   6.305   4.889  1.3127  0.4729  0.3862
 7478SOL    HW223723   3.041   6.157   4.871 -0.6228  0.7671  0.7328
 7479SOL     OW23724   6.354   2.910   7.208 -0.6334  0.2256 -0.1109
 7479SOL    HW123725   6.439   2.952   7.216 -0.2652 -0.1905 -1.5984
 7479SOL    HW223726   6.364   2.825   7.251  0.1621 -0.4239 -1.5233
 7480SOL     OW23727   7.710   8.511   1.509 -0.2576 -0.4876 -0.2595
 7480SOL    HW123728   7.774   8.452   1.470  0.7830  0.2173  0.3361
 7480SOL    HW223729   7.669   8.555   1.434 -1.7292 -2.5784 -0.7754
 7481SOL     OW23730   0.363   3.065   1.790 -0.0723  0.1279 -0.0829
 7481SOL    HW123731   0.332   3.128   1.855 -1.6237  1.1884 -1.7426
 7481SOL    HW223732   0.311   2.986   1.805 -0.4367  0.3753 -0.0433
 7482SOL     OW23733   0.269   3.532   6.913  0.3474  0.0516 -0.3382
 7482SOL    HW123734   0.268   3.627   6.916 -0.3376  0.0369  2.0505
 7482SOL    HW223735   0.357   3.507   6.941  0.0610  0.0011  0.5536
 7483SOL     OW23736   1.076   2.504   5.287 -0.3642 -0.0722  0.2130
 7483SOL    HW123737   1.037   2.568   5.228 -1.9228  0.2119  1.4778
 7483SOL    HW223738   1.011   2.433   5.292  0.6496 -1.0467  0.0293
 7484SOL     OW23739   7.071   4.972   0.487  0.8504 -0.3101  0.3284
 7484SOL    HW123740   7.070   5.060   0.525 -0.1311 -0.2044  0.0798
 7484SOL    HW223741   7.118   4.982   0.405 -0.6547  0.3425 -0.4900
 7485SOL     OW23742   1.640   5.817   1.238 -0.1123 -0.0888  0.1341
 7485SOL    HW123743   1.561   5.861   1.268 -2.5010 -4.3206  0.9341
 7485SOL    HW223744   1.617   5.784   1.151  0.8744 -1.0525  0.2154
 7486SOL     OW23745   8.279   8.491   1.801  0.3772  0.2050 -0.5140
 7486SOL    HW123746   8.285   8.490   1.897 -0.7658 -0.3275 -0.4421
 7486SOL    HW223747   8.334   8.418   1.773 -1.8701 -1.7597 -0.0778
 7487SOL     OW23748   2.119   7.749   3.970 -0.1551  0.3962  0.0966
 7487SOL    HW123749   2.097   7.828   4.019 -0.2788  1.4828 -1.6179
 7487SOL    HW223750   2.210   7.730   3.995  0.0117  1.3329  0.2414
 7488SOL     OW23751   3.718   4.497   7.544 -0.2524 -0.0883 -0.0031
 7488SOL    HW123752   3.792   4.535   7.592 -1.1493  0.2973  1.1033
 7488SOL    HW223753   3.675   4.573   7.505  0.7818 -0.4321 -1.9542
 7489SOL     OW23754   4.743   5.454   8.180  0.0704 -0.0329 -0.3467
 7489SOL    HW123755   4.776   5.496   8.260  0.3930  0.9120 -0.9568
 7489SOL    HW223756   4.694   5.378   8.212 -0.3324  0.6637  0.7965
 7490SOL     OW23757   2.814   6.281   7.674 -0.3845  0.1145 -0.5908
 7490SOL    HW123758   2.816   6.351   7.739 -0.3718  0.5683 -1.0723
 7490SOL    HW223759   2.862   6.316   7.599  1.8710 -1.3571  0.0582
 7491SOL     OW23760   2.816   5.853   2.276 -0.3984 -0.2912 -0.0587
 7491SOL    HW123761   2.883   5.873   2.342  0.3220 -1.2966 -0.4556
 7491SOL    HW223762   2.774   5.937   2.257  1.4650  0.5693 -0.5619
 7492SOL     OW23763   4.583   5.983   8.284  0.3934 -0.4816 -0.2143
 7492SOL    HW123764   4.621   6.066   8.310 -1.0377  0.2688 -0.3939
 7492SOL    HW223765   4.643   5.917   8.318  1.4243  0.6118  0.1477
 7493SOL     OW23766   3.952   4.713   7.282 -0.3525  0.6134 -0.3750
 7493SOL    HW123767   3.950   4.808   7.282 -0.2589  0.6352  0.8757
 7493SOL    HW223768   3.868   4.686   7.319 -0.4428  0.2010 -0.8589
 7494SOL     OW23769   6.236   4.371   4.357 -0.0342  0.0077  0.4856
 7494SOL    HW123770   6.306   4.306   4.361  0.1206  0.1166 -0.2273
 7494SOL    HW223771   6.162   4.325   4.318 -1.0898 -0.7078  3.1912
 7495SOL     OW23772   6.113   0.415   8.558  0.7418  0.3567  0.6427
 7495SOL    HW123773   6.092   0.340   8.614 -0.9736  1.2217  1.2020
 7495SOL    HW223774   6.200   0.395   8.524 -0.2036 -2.5818 -0.3521
 7496SOL     OW23775   2.025   1.627   2.752  0.1141  0.1255 -0.2901
 7496SOL    HW123776   2.018   1.531   2.747 -0.6608 -0.0664  2.6839
 7496SOL    HW223777   1.934   1.657   2.746 -0.0616  0.3369  2.3956
 7497SOL     OW23778   2.630   6.939   1.668  0.3578 -0.0570 -0.0154
 7497SOL    HW123779   2.648   6.845   1.672  0.9344  0.0768  0.7700
 7497SOL    HW223780   2.554   6.947   1.611  0.0691 -1.0319  0.2273
 7498SOL     OW23781   5.571   3.078   8.137 -0.2235 -0.4924  0.0808
 7498SOL    HW123782   5.655   3.068   8.091  0.2796  0.3755  0.7639
 7498SOL    HW223783   5.559   3.173   8.143  0.3831 -0.5115  2.8397
 7499SOL     OW23784   0.739   2.589   0.509 -0.5017 -0.3748  0.2047
 7499SOL    HW123785   0.693   2.597   0.593 -0.7307 -0.7701  0.1177
 7499SOL    HW223786   0.829   2.568   0.533  0.5797  3.7219  0.5479
 7500SOL     OW23787   2.832   0.029   0.968  0.2425 -0.7048  0.6508
 7500SOL    HW123788   2.902   0.087   0.937 -1.3434  1.0611  0.2125
 7500SOL    HW223789   2.792  -0.005   0.887 -1.5897  1.0581  0.7552
 7501SOL     OW23790   3.264   1.354   7.094  0.4080  0.1191 -0.1493
 7501SOL    HW123791   3.325   1.282   7.077  0.3215 -0.1582  0.6547
 7501SOL    HW223792   3.269   1.409   7.016  0.8408 -0.5014 -0.5676
 7502SOL     OW23793   0.667   8.409   5.462 -0.2259 -0.2227  0.5043
 7502SOL    HW123794   0.641   8.323   5.497  0.5251 -0.7878 -0.2770
 7502SOL    HW223795   0.657   8.400   5.368 -1.2899  0.9633  0.4781
 7503SOL     OW23796   6.304   8.216   4.778  0.3749  0.1641  0.2147
 7503SOL    HW123797   6.357   8.207   4.858 -0.1207  1.0136  0.6508
 7503SOL    HW223798   6.322   8.305   4.748  1.4725 -0.5243 -1.3071
 7504SOL     OW23799   4.305   0.066   6.038 -0.2054  0.0551 -0.6461
 7504SOL    HW123800   4.387   0.018   6.028 -0.4408 -0.4846 -0.0859
 7504SOL    HW223801   4.241  -0.001   6.063 -0.8685  0.4302 -1.2954
 7505SOL     OW23802   7.809   0.224   7.684  0.4500 -0.4590  0.7216
 7505SOL    HW123803   7.866   0.165   7.634  1.6999 -1.4703  3.1845
 7505SOL    HW223804   7.721   0.189   7.671  0.8933 -1.4305  0.2212
 7506SOL     OW23805   4.535   5.637   0.341  0.2839  0.2528  0.3168
 7506SOL    HW123806   4.497   5.648   0.254  2.5966 -0.6461 -0.9078
 7506SOL    HW223807   4.572   5.722   0.362 -1.4526  0.8605  1.0904
 7507SOL     OW23808   8.535   0.092   5.152 -0.2146  0.4358  0.5063
 7507SOL    HW123809   8.617   0.065   5.194 -0.5416  0.5844  1.2509
 7507SOL    HW223810   8.553   0.180   5.118 -0.5236  1.0937  2.0014
 7508SOL     OW23811   6.752   6.224   7.503  0.6758  0.3221  0.3573
 7508SOL    HW123812   6.803   6.264   7.433 -0.0592 -1.5173 -1.3445
 7508SOL    HW223813   6.814   6.210   7.574  1.8057  0.8337 -0.5098
 7509SOL     OW23814   2.901   5.280   2.888 -0.0374 -0.7345 -0.4508
 7509SOL    HW123815   2.976   5.222   2.905 -0.1120 -0.5761  0.4454
 7509SOL    HW223816   2.923   5.361   2.933 -0.6941 -0.6389 -0.2936
 7510SOL     OW23817   3.880   6.272   8.116 -0.2355  0.0710  0.0423
 7510SOL    HW123818   3.892   6.365   8.135 -0.6536 -0.0460  0.9506
 7510SOL    HW223819   3.959   6.246   8.070  0.7570  0.4543  1.4594
 7511SOL     OW23820   4.690   5.931   1.948  0.5025  0.2000 -0.1881
 7511SOL    HW123821   4.628   5.905   2.016 -0.3607  0.7743 -0.7459
 7511SOL    HW223822   4.659   6.015   1.917  0.9098 -0.0252 -1.2686
 7512SOL     OW23823   1.702   0.725   0.500  0.0175  0.0515 -0.0430
 7512SOL    HW123824   1.716   0.701   0.591 -0.1319 -1.8733 -0.4870
 7512SOL    HW223825   1.652   0.807   0.504 -1.6537 -0.9664  1.6188
 7513SOL     OW23826   8.586   8.046   0.838  0.5117 -0.1544  0.1912
 7513SOL    HW123827   8.614   8.057   0.747 -0.6882  0.7908 -0.0889
 7513SOL    HW223828   8.491   8.048   0.835  0.4430  1.3079  1.6094
 7514SOL     OW23829   1.541   5.015   3.052  0.0436  0.7407  0.5196
 7514SOL    HW123830   1.598   5.087   3.076  0.3918  0.5763  0.2004
 7514SOL    HW223831   1.488   5.049   2.980  0.2827  0.6529  0.2961
 7515SOL     OW23832   4.656   2.695   6.378 -0.0607  0.3892  0.2076
 7515SOL    HW123833   4.740   2.680   6.334 -0.6572 -0.7027 -0.5754
 7515SOL    HW223834   4.600   2.735   6.311 -0.5612 -0.0581  0.3558
 7516SOL     OW23835   0.380   5.799   4.544  0.1288  0.2332  0.1020
 7516SOL    HW123836   0.427   5.770   4.466  0.8994  2.4957 -0.3302
 7516SOL    HW223837   0.439   5.780   4.616 -0.0160 -0.5915  0.0230
 7517SOL     OW23838   6.227   6.347   0.913 -0.0794  0.2574  0.2637
 7517SOL    HW123839   6.143   6.303   0.901 -0.0900  0.6948 -1.7265
 7517SOL    HW223840   6.219   6.427   0.861  1.5427  0.3094  0.0433
 7518SOL     OW23841   5.672   6.125   3.177  0.6801 -0.1381  0.2139
 7518SOL    HW123842   5.624   6.049   3.211 -0.5691  0.3750 -0.3427
 7518SOL    HW223843   5.606   6.195   3.172  1.4300  0.5282 -0.8055
 7519SOL     OW23844   7.347   5.304   2.402  0.1161  0.1217  0.1940
 7519SOL    HW123845   7.392   5.220   2.415 -1.3962 -0.7837 -0.0481
 7519SOL    HW223846   7.279   5.305   2.469  0.0387  1.1114  0.1178
 7520SOL     OW23847   4.037   3.911   6.257 -0.1987 -0.0151  0.1185
 7520SOL    HW123848   4.129   3.899   6.232  0.1471 -0.7032  1.6257
 7520SOL    HW223849   3.994   3.938   6.176  1.7122  2.5064 -0.1872
 7521SOL     OW23850   6.552   4.712   5.271  0.3192 -0.0266 -0.3911
 7521SOL    HW123851   6.461   4.688   5.256  0.6356 -1.6507  0.0728
 7521SOL    HW223852   6.585   4.644   5.330  2.1846 -0.2278 -1.5983
 7522SOL     OW23853   5.287   8.334   5.752  0.3827  0.1067 -0.2623
 7522SOL    HW123854   5.285   8.238   5.753  0.6231  0.1019 -0.2280
 7522SOL    HW223855   5.366   8.356   5.705  0.8301  0.2806  0.5482
 7523SOL     OW23856   4.906   6.479   3.064 -0.3061  0.0925  0.1823
 7523SOL    HW123857   4.978   6.475   3.001 -1.0052 -1.3929 -0.5809
 7523SOL    HW223858   4.839   6.531   3.021  0.0468  0.9595  0.6454
 7524SOL     OW23859   5.486   2.392   4.323 -0.2041  0.2819  0.1755
 7524SOL    HW123860   5.515   2.484   4.318  1.0799 -0.0082  1.4923
 7524SOL    HW223861   5.541   2.346   4.260 -0.0062  0.2454  0.3704
 7525SOL     OW23862   8.530   7.670   2.840  0.0498 -0.2197  0.1298
 7525SOL    HW123863   8.516   7.703   2.751 -0.0269 -0.7854 -0.0719
 7525SOL    HW223864   8.460   7.709   2.892 -1.4556 -1.8522 -0.5622
 7526SOL     OW23865   1.957   0.376   2.976  0.4088 -0.3032 -0.1974
 7526SOL    HW123866   1.981   0.460   2.936 -1.9976  0.6950  0.3154
 7526SOL    HW223867   1.909   0.400   3.055 -1.0400 -2.1481 -0.4541
 7527SOL     OW23868   1.167   4.789   8.696 -0.0796  0.2671  0.3864
 7527SOL    HW123869   1.136   4.703   8.724  0.0199  0.7374  2.0566
 7527SOL    HW223870   1.214   4.824   8.772 -2.4553  2.9524  0.7868
 7528SOL     OW23871   1.566   0.266   3.065 -0.0897  0.5514  0.1785
 7528SOL    HW123872   1.484   0.255   3.017  0.8832 -0.5714 -1.3146
 7528SOL    HW223873   1.573   0.360   3.080 -0.6537  0.8973 -1.5254
 7529SOL     OW23874   4.928   2.100   6.826  0.1058 -0.5906  0.3922
 7529SOL    HW123875   4.902   2.090   6.918  1.0356  0.8068  0.8465
 7529SOL    HW223876   4.853   2.068   6.776 -1.1015  0.1374  1.6473
 7530SOL     OW23877   7.989   5.122   6.727 -0.1600  0.0801 -0.1923
 7530SOL    HW123878   7.970   5.143   6.819  1.4823 -1.8551  0.6645
 7530SOL    HW223879   7.962   5.030   6.718 -1.9775  0.7332 -2.1981
 7531SOL     OW23880   8.276   5.846   0.214 -0.1668  0.3257 -0.4147
 7531SOL    HW123881   8.323   5.813   0.137  0.4556  0.2103  0.0106
 7531SOL    HW223882   8.345   5.880   0.272 -0.4260 -1.4481  1.0059
 7532SOL     OW23883   3.824   2.949   4.383  0.0279 -0.4770  0.4179
 7532SOL    HW123884   3.913   2.919   4.401 -0.3766 -2.4262 -0.6187
 7532SOL    HW223885   3.778   2.940   4.467  0.2976 -1.4036  0.4719
 7533SOL     OW23886   3.631   7.065   0.355 -0.0714  0.5573  0.5962
 7533SOL    HW123887   3.656   7.035   0.443 -0.2447  0.7778  0.7239
 7533SOL    HW223888   3.704   7.122   0.328  0.4683 -0.3076  0.1709
 7534SOL     OW23889   2.417   2.472   1.375 -0.4610  0.1314  0.0708
 7534SOL    HW123890   2.475   2.465   1.299  0.3323 -1.1651  0.7538
 7534SOL    HW223891   2.354   2.401   1.363 -0.5398  0.1360  0.4538
 7535SOL     OW23892   5.134   3.936   3.453  0.3344  0.1099  0.8457
 7535SOL    HW123893   5.068   3.867   3.447 -0.1612  0.7199 -3.5513
 7535SOL    HW223894   5.100   3.996   3.519 -2.6982 -0.4370 -0.0821
 7536SOL     OW23895   0.300   0.097   4.710  0.3264  0.1532  0.3594
 7536SOL    HW123896   0.257   0.175   4.674 -0.1983 -0.1796  0.2673
 7536SOL    HW223897   0.394   0.114   4.697  0.1991  0.6141  0.0199
 7537SOL     OW23898   5.110   1.017   0.629  0.5423  0.5846 -0.0589
 7537SOL    HW123899   5.090   1.068   0.708 -0.7198 -0.2281  0.1749
 7537SOL    HW223900   5.033   1.028   0.574 -0.3207 -2.0077  0.5061
 7538SOL     OW23901   3.208   0.813   6.373  0.6376 -0.4363  0.1004
 7538SOL    HW123902   3.180   0.805   6.464  2.8518 -0.0634  0.8521
 7538SOL    HW223903   3.191   0.726   6.336  0.3189 -0.7887  1.0385
 7539SOL     OW23904   7.026   4.608   7.577  0.4780  0.4034  0.1237
 7539SOL    HW123905   7.035   4.650   7.492  2.1381 -1.6319 -0.8102
 7539SOL    HW223906   6.968   4.533   7.561  0.0451  0.5318  1.0188
 7540SOL     OW23907   4.105   8.678   2.421  0.0115  0.5177 -0.7046
 7540SOL    HW123908   4.058   8.683   2.504 -0.0973  1.1041 -0.7933
 7540SOL    HW223909   4.156   8.759   2.417  1.1584 -0.1723 -0.5414
 7541SOL     OW23910   0.593   2.777   0.700 -0.0590  0.0275  0.2702
 7541SOL    HW123911   0.527   2.786   0.632  1.0049  0.6314 -0.7136
 7541SOL    HW223912   0.563   2.835   0.770 -0.5800  0.2675 -0.1465
 7542SOL     OW23913   8.065   1.306   2.591 -0.0109 -0.6544  0.2428
 7542SOL    HW123914   8.036   1.348   2.672 -1.1962 -0.8043 -0.0881
 7542SOL    HW223915   8.150   1.346   2.572 -1.0410  1.5533 -0.0162
 7543SOL     OW23916   5.103   8.036   2.152 -0.4571 -0.3707 -0.1345
 7543SOL    HW123917   5.071   8.064   2.238 -2.7464 -0.8503 -0.7608
 7543SOL    HW223918   5.078   8.107   2.093 -1.2071 -1.1471 -0.7882
 7544SOL     OW23919   3.694   4.321   3.302  0.2868  0.2090  0.3537
 7544SOL    HW123920   3.624   4.387   3.298  0.6952  0.8607  2.7898
 7544SOL    HW223921   3.774   4.372   3.313  0.9216 -0.6398 -0.2253
 7545SOL     OW23922   0.818   1.966   3.135  0.1155  0.1822  0.0995
 7545SOL    HW123923   0.832   2.053   3.098  1.6006  0.1013  0.3803
 7545SOL    HW223924   0.765   1.981   3.213 -0.0995  0.7640 -0.1511
 7546SOL     OW23925   6.147   1.128   8.086  0.5704 -0.0697  0.0270
 7546SOL    HW123926   6.101   1.196   8.037  0.2492 -0.7242 -0.5868
 7546SOL    HW223927   6.157   1.166   8.174 -0.0984  0.5464 -0.1478
 7547SOL     OW23928   7.298   7.292   1.490 -0.6170  0.0921  0.4324
 7547SOL    HW123929   7.392   7.308   1.504 -0.0813 -0.8251 -1.8274
 7547SOL    HW223930   7.283   7.204   1.524 -0.2137 -0.5050 -0.8732
 7548SOL     OW23931   1.343   3.329   5.424  0.2306  0.2640  0.3059
 7548SOL    HW123932   1.333   3.243   5.384 -1.8153  0.7210 -0.2678
 7548SOL    HW223933   1.292   3.324   5.505  1.6257  0.3949  1.2397
 7549SOL     OW23934   1.079   2.506   2.254  0.4914 -0.0270 -0.3839
 7549SOL    HW123935   1.167   2.539   2.233  0.7379 -0.3671  0.0875
 7549SOL    HW223936   1.068   2.431   2.195  0.9761 -0.6659  0.3097
 7550SOL     OW23937   6.982   7.163   4.800 -0.0162 -0.2652  0.8434
 7550SOL    HW123938   6.957   7.165   4.893 -1.0482 -1.3069  0.6181
 7550SOL    HW223939   6.899   7.153   4.753  0.5491 -0.3782 -0.1524
 7551SOL     OW23940   1.607   8.487   7.729 -0.0368  0.0403 -0.4596
 7551SOL    HW123941   1.695   8.471   7.695 -0.5241  0.1494 -1.8470
 7551SOL    HW223942   1.554   8.505   7.651 -1.2902 -0.0107  0.3490
 7552SOL     OW23943   1.716   8.267   8.193  0.3930 -0.1476 -0.5326
 7552SOL    HW123944   1.639   8.263   8.249  0.4587  0.4944 -0.3947
 7552SOL    HW223945   1.790   8.277   8.253  0.4825  0.3506 -0.7256
 7553SOL     OW23946   1.625   1.952   5.156 -0.5111 -0.3003 -0.1880
 7553SOL    HW123947   1.639   2.007   5.079  0.6698  0.4963  0.5554
 7553SOL    HW223948   1.637   1.863   5.125  0.6262  0.0470 -0.8099
 7554SOL     OW23949   3.721   6.627   0.839  0.3481 -0.3869  0.0619
 7554SOL    HW123950   3.734   6.596   0.928  2.7192  0.7847  0.2121
 7554SOL    HW223951   3.751   6.554   0.784 -1.0169 -1.0710  0.1938
 7555SOL     OW23952   4.542   0.948   3.142 -0.4659 -0.5171  0.1430
 7555SOL    HW123953   4.627   0.989   3.156 -1.0892  1.2230 -0.8903
 7555SOL    HW223954   4.493   0.969   3.222 -0.3077 -0.5345  0.2461
 7556SOL     OW23955   6.159   6.186   2.271 -0.0083  0.2878 -0.2360
 7556SOL    HW123956   6.165   6.246   2.345  0.9234  0.6975 -0.6314
 7556SOL    HW223957   6.250   6.167   2.247 -0.2705 -1.2179 -0.1772
 7557SOL     OW23958   5.494   6.699   4.018 -0.0397  0.0443 -0.0991
 7557SOL    HW123959   5.549   6.629   4.055 -0.6768 -0.5709 -0.2992
 7557SOL    HW223960   5.556   6.755   3.972  0.3003 -1.3159 -1.3813
 7558SOL     OW23961   7.491   0.595   1.335 -0.2746  0.4981  0.1117
 7558SOL    HW123962   7.579   0.583   1.371  0.0932  0.3553 -0.8065
 7558SOL    HW223963   7.460   0.677   1.374 -0.1197  0.0586  1.1833
 7559SOL     OW23964   0.781   5.478   0.795 -0.1470  0.7712 -0.0199
 7559SOL    HW123965   0.821   5.415   0.855  0.1927  2.1474  1.2706
 7559SOL    HW223966   0.852   5.504   0.736 -0.5730 -0.8632 -1.3189
 7560SOL     OW23967   5.595   0.286   7.168  1.1810 -0.3879  0.6884
 7560SOL    HW123968   5.563   0.372   7.143  1.2184 -0.2532  1.0942
 7560SOL    HW223969   5.654   0.261   7.097  1.4214  0.0627  0.7240
 7561SOL     OW23970   3.824   6.083   4.180 -0.7614 -0.1579  0.2269
 7561SOL    HW123971   3.835   6.056   4.272 -1.0768 -0.9718  0.0393
 7561SOL    HW223972   3.867   6.168   4.175  0.4199 -0.6877  0.8313
 7562SOL     OW23973   5.290   6.386   4.023 -0.0410  0.1792  0.1553
 7562SOL    HW123974   5.200   6.417   4.014  0.1259  0.8666  0.8375
 7562SOL    HW223975   5.323   6.381   3.933 -1.1920 -1.4274 -0.2240
 7563SOL     OW23976   8.629   6.104   3.290 -0.1988  0.2187  0.2680
 7563SOL    HW123977   8.554   6.155   3.320 -1.5346 -1.3713 -0.2379
 7563SOL    HW223978   8.591   6.028   3.247  1.7034 -0.0897 -0.9941
 7564SOL     OW23979   8.508   4.590   8.028  0.4466  0.6341 -0.2987
 7564SOL    HW123980   8.478   4.673   8.065  1.3713  1.5720 -1.5423
 7564SOL    HW223981   8.478   4.523   8.090 -2.7506  1.6025 -0.6191
 7565SOL     OW23982   3.719   2.181   4.611  0.3246 -0.5928  0.6704
 7565SOL    HW123983   3.737   2.154   4.521  1.5264 -0.4819  0.8708
 7565SOL    HW223984   3.623   2.188   4.615  0.2444 -0.8659 -0.5145
 7566SOL     OW23985   4.779   6.678   4.144  0.4858 -0.0620 -0.4344
 7566SOL    HW123986   4.762   6.771   4.134 -0.8921 -0.2536 -0.0237
 7566SOL    HW223987   4.730   6.636   4.074 -0.3310 -0.5895  0.4188
 7567SOL     OW23988   0.583   3.041   7.681 -0.5259  0.1695  0.4610
 7567SOL    HW123989   0.603   2.955   7.719 -0.5481  0.6086  1.5078
 7567SOL    HW223990   0.669   3.079   7.661 -0.5340 -0.7652 -1.6488
 7568SOL     OW23991   0.746   4.449   3.102  0.4729  0.0889 -0.0964
 7568SOL    HW123992   0.752   4.463   3.007 -0.8557  0.6629 -0.1315
 7568SOL    HW223993   0.819   4.499   3.138  0.0691  1.1998 -0.7386
 7569SOL     OW23994   0.882   4.385   5.542  0.2725 -0.4855 -0.1943
 7569SOL    HW123995   0.871   4.333   5.621 -0.1382 -1.7593 -1.0697
 7569SOL    HW223996   0.961   4.436   5.558  1.3705 -2.2445  0.2334
 7570SOL     OW23997   3.647   0.204   2.442 -0.4794 -0.8631 -0.7901
 7570SOL    HW123998   3.572   0.249   2.482 -1.0392 -0.9918 -1.6817
 7570SOL    HW223999   3.723   0.238   2.491 -1.2092 -1.8156  1.0958
 7571SOL     OW24000   3.267   8.482   3.852  0.1111 -0.2975 -0.2592
 7571SOL    HW124001   3.258   8.416   3.782 -0.3773 -0.5896  0.0724
 7571SOL    HW224002   3.280   8.431   3.931  3.1395  0.0641 -0.4318
 7572SOL     OW24003   1.691   7.114   2.105  0.1160  1.1158 -0.5311
 7572SOL    HW124004   1.769   7.166   2.125  1.3539 -0.7812 -0.1499
 7572SOL    HW224005   1.632   7.130   2.178  1.4932  0.1212  0.8523
 7573SOL     OW24006   7.829   3.118   7.175 -0.5381 -0.4406  0.1675
 7573SOL    HW124007   7.826   3.213   7.185 -1.6764 -0.4752  0.3172
 7573SOL    HW224008   7.845   3.085   7.264  1.1334 -0.3721 -0.0708
 7574SOL     OW24009   4.256   5.910   6.822  0.1542  0.4472  0.7484
 7574SOL    HW124010   4.207   5.919   6.741 -0.4115  1.2537  1.1703
 7574SOL    HW224011   4.249   5.817   6.844 -1.4241  0.5835  0.9395
 7575SOL     OW24012   2.068   1.616   4.509 -0.1984  0.3977  0.2387
 7575SOL    HW124013   2.076   1.588   4.600 -1.1851  1.7010  0.7575
 7575SOL    HW224014   2.007   1.552   4.470 -0.1531  0.1183  0.6252
 7576SOL     OW24015   2.976   6.558   8.372  0.0056 -0.0920  0.3246
 7576SOL    HW124016   3.038   6.523   8.437  0.8547  1.3128  0.3095
 7576SOL    HW224017   2.954   6.645   8.404 -1.5258 -0.3344  0.0026
 7577SOL     OW24018   6.422   5.401   1.081  0.0472 -0.2899  0.1608
 7577SOL    HW124019   6.513   5.426   1.098  0.0575 -0.3805  0.2402
 7577SOL    HW224020   6.373   5.440   1.153  0.4141 -2.8798  1.9428
 7578SOL     OW24021   0.664   5.862   6.267 -0.0200 -0.2373  0.2818
 7578SOL    HW124022   0.699   5.774   6.251 -1.0724 -0.8656  1.2945
 7578SOL    HW224023   0.672   5.906   6.183  1.8646 -0.8051  0.0984
 7579SOL     OW24024   7.511   1.459   7.989  0.3140  0.1906  0.2993
 7579SOL    HW124025   7.546   1.430   7.905  1.6793  0.1576  0.8618
 7579SOL    HW224026   7.586   1.495   8.036 -0.5610  0.8656  1.2366
 7580SOL     OW24027   6.616   4.014   6.101  0.3736  0.3999 -0.1149
 7580SOL    HW124028   6.535   4.066   6.108 -0.7327 -1.2300 -0.2926
 7580SOL    HW224029   6.648   4.008   6.191 -1.2197 -1.2011  0.3992
 7581SOL     OW24030   7.183   2.146   2.107 -0.2369  0.2373 -0.0573
 7581SOL    HW124031   7.268   2.180   2.081  0.0039  0.8931  1.4832
 7581SOL    HW224032   7.198   2.053   2.125  0.5090  0.6421  1.5793
 7582SOL     OW24033   8.196   7.324   2.849  0.1403  0.4243 -0.4529
 7582SOL    HW124034   8.206   7.232   2.875 -2.0167  0.7844  2.1483
 7582SOL    HW224035   8.281   7.364   2.866  0.8322 -0.8748 -0.7353
 7583SOL     OW24036   2.500   4.727   4.372 -0.2861 -0.1071 -0.6362
 7583SOL    HW124037   2.567   4.768   4.427 -0.8518  0.9238 -0.6744
 7583SOL    HW224038   2.459   4.801   4.325 -1.3381 -0.7191 -0.7270
 7584SOL     OW24039   7.385   0.603   8.522 -0.4601  0.8008 -0.1468
 7584SOL    HW124040   7.415   0.693   8.508 -0.8649  0.9281 -0.2073
 7584SOL    HW224041   7.440   0.570   8.592 -1.7075  1.7973  1.3657
 7585SOL     OW24042   8.204   5.006   6.434  0.0483  0.2948 -0.0844
 7585SOL    HW124043   8.298   5.008   6.416  0.6734  1.2297  2.7709
 7585SOL    HW224044   8.187   5.089   6.479 -2.1316  0.0794 -0.4131
 7586SOL     OW24045   0.349   2.907   0.855 -0.6595  0.2365  0.2632
 7586SOL    HW124046   0.257   2.923   0.875 -0.1443  0.6398  2.5386
 7586SOL    HW224047   0.389   2.994   0.855 -0.0230 -0.0455  0.7955
 7587SOL     OW24048   8.405   4.181   7.125 -0.1057  0.2434 -0.1448
 7587SOL    HW124049   8.445   4.107   7.080 -0.5090 -1.3247  1.9002
 7587SOL    HW224050   8.325   4.145   7.165 -0.4686  1.8393  0.6912
 7588SOL     OW24051   4.631   3.092   4.140 -0.1167  0.0401 -0.0160
 7588SOL    HW124052   4.582   3.078   4.059 -2.4182 -2.3936  1.6398
 7588SOL    HW224053   4.717   3.056   4.123  0.1898  1.5024 -1.9836
 7589SOL     OW24054   5.144   2.454   2.302 -0.0763  0.0553  0.2711
 7589SOL    HW124055   5.096   2.418   2.376  0.0373 -3.1353 -1.0396
 7589SOL    HW224056   5.083   2.514   2.259 -1.6850 -1.3744  0.5133
 7590SOL     OW24057   5.652   4.247   6.805 -0.1043 -0.1416  0.0396
 7590SOL    HW124058   5.718   4.277   6.742 -0.6844 -0.5269 -0.7650
 7590SOL    HW224059   5.703   4.203   6.874  0.6291  1.2869  0.4419
 7591SOL     OW24060   1.446   3.485   7.720  0.6186  0.3650  0.0215
 7591SOL    HW124061   1.445   3.479   7.624 -0.0309 -1.5971  0.1092
 7591SOL    HW224062   1.474   3.398   7.749 -0.9135  0.3607  1.6233
 7592SOL     OW24063   1.426   4.756   8.541 -0.4259  0.2483  0.6714
 7592SOL    HW124064   1.420   4.733   8.633  2.4437  1.2014  1.1826
 7592SOL    HW224065   1.419   4.851   8.539 -3.6923  0.1157 -0.5387
 7593SOL     OW24066   4.178   7.796   7.840  0.6486 -0.4119  0.1851
 7593SOL    HW124067   4.227   7.736   7.784  3.9865  1.6072  0.6685
 7593SOL    HW224068   4.163   7.746   7.921  0.6304 -1.5283 -0.4796
 7594SOL     OW24069   4.099   0.252   8.053 -0.5070 -0.3252 -0.0146
 7594SOL    HW124070   4.176   0.308   8.042  0.8465 -1.9994  0.5292
 7594SOL    HW224071   4.034   0.290   7.994  0.9795  0.7103 -1.0718
 7595SOL     OW24072   1.404   4.056   2.164  0.4373 -0.7105 -0.1168
 7595SOL    HW124073   1.426   4.148   2.178 -0.3786 -0.7214  1.4501
 7595SOL    HW224074   1.336   4.057   2.097 -0.2572 -0.0923  0.5889
 7596SOL     OW24075   6.799   6.333   6.647  0.4477  0.0972 -0.5688
 7596SOL    HW124076   6.851   6.399   6.693 -0.2654 -0.2327  0.7463
 7596SOL    HW224077   6.821   6.251   6.690 -3.7097  0.3205  2.5806
 7597SOL     OW24078   3.200   8.444   1.457  0.3540 -0.1236 -0.0021
 7597SOL    HW124079   3.194   8.351   1.435  1.6737 -0.1689 -0.2188
 7597SOL    HW224080   3.281   8.452   1.508 -0.1748  0.7787  0.7350
 7598SOL     OW24081   6.564   5.376   3.325 -0.2357 -0.3049 -0.0707
 7598SOL    HW124082   6.650   5.381   3.283 -0.6527  2.5898 -0.8124
 7598SOL    HW224083   6.583   5.364   3.418  0.9092 -0.9512 -0.3678
 7599SOL     OW24084   5.299   0.758   2.694  0.2155  0.2516  0.3625
 7599SOL    HW124085   5.299   0.780   2.787 -0.2334  3.6580 -0.2954
 7599SOL    HW224086   5.389   0.735   2.674  0.1861 -1.2000  1.7207
 7600SOL     OW24087   3.711   5.433   1.475 -0.3518 -0.2724  0.4681
 7600SOL    HW124088   3.675   5.508   1.522 -0.2917 -0.1139  0.2589
 7600SOL    HW224089   3.668   5.357   1.515  0.8645 -0.2698  1.8791
 7601SOL     OW24090   1.775   5.799   1.998 -0.1049  0.2469 -0.3367
 7601SOL    HW124091   1.701   5.752   1.959  0.2886  1.2208 -2.3846
 7601SOL    HW224092   1.831   5.821   1.924  2.2384 -0.3757  1.1468
 7602SOL     OW24093   2.264   4.992   1.979  0.2155 -0.3256  0.7041
 7602SOL    HW124094   2.346   4.944   1.987  0.2673 -0.3605  0.0201
 7602SOL    HW224095   2.197   4.923   1.976  0.2281 -0.3294  0.4821
 7603SOL     OW24096   7.481   7.916   6.252 -0.4930  0.1322 -0.0877
 7603SOL    HW124097   7.386   7.921   6.246 -0.8181 -2.8865  0.7362
 7603SOL    HW224098   7.506   7.851   6.187  0.9746  0.6201 -0.0463
 7604SOL     OW24099   2.387   8.294   7.492  0.2442  0.2429  0.1833
 7604SOL    HW124100   2.457   8.281   7.556  0.0431  0.7964  0.5309
 7604SOL    HW224101   2.431   8.329   7.415  0.5584 -0.9043 -0.1687
 7605SOL     OW24102   4.993   3.870   0.066  0.4699 -0.0499  0.0517
 7605SOL    HW124103   5.088   3.860   0.078  0.6464 -0.2068 -1.3497
 7605SOL    HW224104   4.957   3.786   0.092  0.6790  0.0875  0.8244
 7606SOL     OW24105   5.669   5.908   6.837  0.4671  1.0788 -0.3314
 7606SOL    HW124106   5.731   5.969   6.879 -0.6821  1.3404  1.0382
 7606SOL    HW224107   5.599   5.897   6.901  0.0967 -0.8444 -1.0169
 7607SOL     OW24108   4.405   5.816   2.578  0.3349 -0.2844  0.6009
 7607SOL    HW124109   4.309   5.816   2.575  0.3529 -1.4086 -0.2885
 7607SOL    HW224110   4.428   5.908   2.594 -0.8834 -0.0282  0.9977
 7608SOL     OW24111   0.553   8.687   1.679 -0.3093 -0.1194 -0.0337
 7608SOL    HW124112   0.549   8.690   1.774  0.1223 -2.0267  0.0864
 7608SOL    HW224113   0.524   8.599   1.657 -4.3885  1.4499 -1.9591
 7609SOL     OW24114   4.079   8.595   4.834  0.8280  0.0511  0.1580
 7609SOL    HW124115   4.127   8.673   4.806  1.5735 -0.5113 -0.1933
 7609SOL    HW224116   4.148   8.534   4.863  0.3011 -0.6711 -0.0804
 7610SOL     OW24117   8.292   0.777   5.865  0.2018 -1.1320  0.1381
 7610SOL    HW124118   8.318   0.843   5.802 -0.7846  0.6483  1.5064
 7610SOL    HW224119   8.364   0.775   5.929 -0.3388 -0.3913  0.7970
 7611SOL     OW24120   0.659   2.684   8.102  0.7353  0.1035  0.2304
 7611SOL    HW124121   0.639   2.591   8.101  0.2174  0.2089 -1.1227
 7611SOL    HW224122   0.587   2.723   8.151  0.1092 -0.0516 -0.5427
 7612SOL     OW24123   4.405   7.489   4.118  0.3345 -0.0192  0.1161
 7612SOL    HW124124   4.378   7.518   4.031 -1.0800 -2.4419 -0.3593
 7612SOL    HW224125   4.323   7.473   4.165  1.0022 -1.6949  0.7979
 7613SOL     OW24126   7.990   6.729   5.649 -0.4307 -0.1642 -0.7248
 7613SOL    HW124127   8.036   6.792   5.705 -0.0784 -0.8337 -0.2367
 7613SOL    HW224128   7.898   6.745   5.666 -0.3815  1.1160 -1.6216
 7614SOL     OW24129   5.879   7.503   0.671 -0.1648 -0.3378 -0.4135
 7614SOL    HW124130   5.856   7.411   0.657  1.5122 -0.6302 -1.4766
 7614SOL    HW224131   5.911   7.533   0.586  0.5322  0.8591  0.2416
 7615SOL     OW24132   4.553   1.382   2.468 -0.1275  0.0723  0.4773
 7615SOL    HW124133   4.467   1.393   2.427 -0.7595 -1.4298  1.3118
 7615SOL    HW224134   4.533   1.352   2.556  1.2620  0.4629  0.9391
 7616SOL     OW24135   6.694   4.743   2.649 -0.5516 -0.0767 -0.3836
 7616SOL    HW124136   6.732   4.659   2.623 -0.1002 -0.3649  1.1260
 7616SOL    HW224137   6.607   4.743   2.608 -0.1254 -0.7671 -1.3392
 7617SOL     OW24138   8.045   2.727   7.582 -1.0063  0.1099  0.1244
 7617SOL    HW124139   8.093   2.718   7.664 -1.8589 -0.1596  0.6080
 7617SOL    HW224140   8.016   2.638   7.562  1.5432 -0.3656 -1.9648
 7618SOL     OW24141   2.174   2.997   6.859  0.2262 -0.4171 -0.5388
 7618SOL    HW124142   2.259   2.964   6.831  1.0044  2.9665 -2.7650
 7618SOL    HW224143   2.114   2.971   6.790 -0.3148 -1.5907  0.3363
 7619SOL     OW24144   5.668   8.416   0.674  0.3018 -0.1123  0.2935
 7619SOL    HW124145   5.685   8.452   0.587  1.4606 -0.1525  0.4903
 7619SOL    HW224146   5.596   8.355   0.661  0.2260  0.1494 -0.5710
 7620SOL     OW24147   2.876   8.339   4.279  0.0039 -0.6029  0.6028
 7620SOL    HW124148   2.803   8.278   4.280  0.7328 -1.5567 -0.7458
 7620SOL    HW224149   2.940   8.301   4.339  0.8922 -1.7932 -1.0228
 7621SOL     OW24150   3.088   8.122   7.070  0.6297 -0.3053 -0.0459
 7621SOL    HW124151   3.110   8.140   7.162  0.3512  0.8210 -0.1767
 7621SOL    HW224152   3.151   8.174   7.020  1.0096 -1.1935 -0.5111
 7622SOL     OW24153   2.360   1.530   3.102  0.2727 -0.3576 -0.2128
 7622SOL    HW124154   2.318   1.558   3.020  1.5574 -0.1154 -0.8084
 7622SOL    HW224155   2.401   1.447   3.080  2.4329  0.7104 -0.4620
 7623SOL     OW24156   2.161   6.826   0.014  0.4867  0.6411 -0.6840
 7623SOL    HW124157   2.227   6.849  -0.052  0.5009  2.4375 -0.1000
 7623SOL    HW224158   2.212   6.790   0.087  0.5920 -0.1287 -1.1323
 7624SOL     OW24159   3.043   1.968   0.692 -0.1704  0.0427  0.7568
 7624SOL    HW124160   2.951   1.954   0.670 -0.1398  0.0070  0.6509
 7624SOL    HW224161   3.065   1.895   0.750 -0.3212  0.2765  1.1091
 7625SOL     OW24162   8.348   1.494   8.071  0.0575 -0.0916  0.3602
 7625SOL    HW124163   8.329   1.552   8.145  0.4965  0.5324 -0.0065
 7625SOL    HW224164   8.261   1.471   8.037 -0.2789 -2.1275  2.3406
 7626SOL     OW24165   8.708   2.267   8.330  0.2084 -0.3599 -0.5618
 7626SOL    HW124166   8.794   2.301   8.356 -0.6191  0.5204  1.1514
 7626SOL    HW224167   8.665   2.340   8.287  0.8919 -1.2911 -2.9583
 7627SOL     OW24168   0.158   0.094   5.959 -0.3322 -0.0217  0.3653
 7627SOL    HW124169   0.084   0.064   5.906  0.2900  1.2629 -1.3032
 7627SOL    HW224170   0.214   0.017   5.968 -1.9235 -1.1020  1.8997
 7628SOL     OW24171   0.793   3.289   3.618 -0.0736 -0.0001  0.4395
 7628SOL    HW124172   0.843   3.221   3.664 -0.3141 -0.4501  0.0440
 7628SOL    HW224173   0.737   3.241   3.558  0.5351  0.5884 -0.6392
 7629SOL     OW24174   0.166   2.497   0.408 -0.3710 -0.0299  0.3027
 7629SOL    HW124175   0.163   2.434   0.481  0.3393 -0.1506  0.2314
 7629SOL    HW224176   0.143   2.581   0.449 -0.5204 -0.1908  0.5567
 7630SOL     OW24177   1.864   2.599   3.162  0.2242  0.4819 -0.0613
 7630SOL    HW124178   1.809   2.653   3.106  0.7918  0.5851 -0.5263
 7630SOL    HW224179   1.880   2.654   3.239  0.7078  0.9346 -0.4817
 7631SOL     OW24180   0.558   6.899   7.238 -0.4277 -0.2042 -0.2964
 7631SOL    HW124181   0.508   6.826   7.201 -0.2115 -0.8139  0.5827
 7631SOL    HW224182   0.580   6.953   7.162 -1.1328 -0.7142 -0.8853
 7632SOL     OW24183   5.105   1.454   5.361 -0.2129 -0.6001 -0.1996
 7632SOL    HW124184   5.106   1.541   5.400 -1.4872 -1.1913  1.2448
 7632SOL    HW224185   5.159   1.463   5.282 -0.3502  1.4844 -0.1212
 7633SOL     OW24186   2.251   3.612   6.600 -0.0879  0.1507 -0.1825
 7633SOL    HW124187   2.212   3.537   6.556  0.3021 -0.5222  0.5881
 7633SOL    HW224188   2.318   3.575   6.657  1.4543  1.2582 -1.2090
 7634SOL     OW24189   0.575   6.983   5.308 -0.1624 -0.3436 -1.3666
 7634SOL    HW124190   0.600   7.051   5.246 -0.9768  0.8964 -0.3685
 7634SOL    HW224191   0.654   6.969   5.361  0.0355 -0.2625 -1.6331
 7635SOL     OW24192   8.669   5.931   2.950  0.2956  0.7939  0.0328
 7635SOL    HW124193   8.745   5.980   2.919  1.5848 -0.9490  0.2478
 7635SOL    HW224194   8.676   5.846   2.905 -0.2165 -0.2221  1.7732
 7636SOL     OW24195   0.937   3.763   6.692 -0.0635  0.9764  0.0459
 7636SOL    HW124196   1.017   3.763   6.641 -0.1067 -3.5063 -0.4002
 7636SOL    HW224197   0.945   3.687   6.751 -4.3793 -0.5577 -0.9387
 7637SOL     OW24198   6.480   4.552   4.539 -0.3156  0.6960  0.5556
 7637SOL    HW124199   6.401   4.525   4.494 -1.1834  1.8885  1.3038
 7637SOL    HW224200   6.488   4.492   4.612  0.4637 -0.5186 -0.4814
 7638SOL     OW24201   5.503   7.137   5.443 -0.1473  0.3373 -0.5665
 7638SOL    HW124202   5.575   7.093   5.398  1.8655  1.7640  1.1222
 7638SOL    HW224203   5.537   7.157   5.530 -3.6544 -1.7832  1.5480
 7639SOL     OW24204   3.002   7.545   3.647 -0.1063  0.4006 -0.1244
 7639SOL    HW124205   2.946   7.487   3.596  2.1341 -1.5614 -0.4958
 7639SOL    HW224206   2.948   7.570   3.722 -1.8065 -0.5852 -0.9684
 7640SOL     OW24207   1.083   4.576   5.483 -0.1071  0.1867  0.3623
 7640SOL    HW124208   1.172   4.541   5.486  0.4786  1.1859 -2.2774
 7640SOL    HW224209   1.094   4.670   5.475 -1.1876  0.1919 -2.5416
 7641SOL     OW24210   7.734   6.259   0.698  0.3271 -0.6600  0.7431
 7641SOL    HW124211   7.651   6.303   0.716  0.2412 -0.8104  0.7129
 7641SOL    HW224212   7.784   6.323   0.648 -0.1379 -0.9165 -0.0714
 7642SOL     OW24213   1.896   3.820   1.672 -0.4244 -0.2217 -1.0308
 7642SOL    HW124214   1.842   3.842   1.596 -2.3343 -1.0207  0.0109
 7642SOL    HW224215   1.957   3.754   1.640  0.1026  0.8477 -2.2984
 7643SOL     OW24216   6.186   1.936   6.669  0.2265  0.3318 -0.1470
 7643SOL    HW124217   6.186   2.021   6.624 -0.3981  0.5262  0.2177
 7643SOL    HW224218   6.137   1.878   6.610  0.6945  0.2028 -0.4191
 7644SOL     OW24219   1.698   4.385   2.924  0.3489 -0.2655 -0.3216
 7644SOL    HW124220   1.752   4.413   2.999  0.5992 -0.4048 -0.4508
 7644SOL    HW224221   1.714   4.291   2.917  1.0870 -0.0884 -1.1598
 7645SOL     OW24222   0.050   4.113   0.469  0.4831  0.7290  0.4414
 7645SOL    HW124223   0.076   4.166   0.394  1.2306  0.3288  0.4140
 7645SOL    HW224224   0.131   4.075   0.502 -0.2160 -2.6355 -1.2053
 7646SOL     OW24225   0.021   5.992   1.398  0.4545  0.0306  0.1578
 7646SOL    HW124226   0.041   6.019   1.308  0.1535 -0.8736 -0.1930
 7646SOL    HW224227   0.064   6.058   1.453  1.8045 -0.1580 -0.6273
 7647SOL     OW24228   2.213   1.381   1.929  0.1128  0.0454  0.0926
 7647SOL    HW124229   2.252   1.406   1.845  0.6588 -1.3045 -0.0825
 7647SOL    HW224230   2.206   1.463   1.977  2.3925  0.5094 -0.2198
 7648SOL     OW24231   6.611   7.623   4.538  0.2721  0.0491 -0.6970
 7648SOL    HW124232   6.676   7.576   4.590  0.3986  2.7669  1.8225
 7648SOL    HW224233   6.663   7.680   4.481  0.0843  0.0494 -0.8704
 7649SOL     OW24234   2.241   6.150   0.069  0.2181  0.3812 -0.0103
 7649SOL    HW124235   2.153   6.168   0.102  0.2545  0.7821 -0.1331
 7649SOL    HW224236   2.262   6.063   0.105 -0.1414  0.3743  0.1921
 7650SOL     OW24237   4.211   1.575   2.774 -0.2515  0.0472 -0.2244
 7650SOL    HW124238   4.229   1.493   2.819 -0.7309  0.0129 -0.0896
 7650SOL    HW224239   4.231   1.558   2.682 -0.5222 -0.2729 -0.2238
 7651SOL     OW24240   1.725   2.103   6.512 -0.1236 -0.0248 -0.1749
 7651SOL    HW124241   1.716   2.191   6.549 -0.8449 -0.3902  0.5618
 7651SOL    HW224242   1.641   2.061   6.529  0.4160 -1.0614  0.0337
 7652SOL     OW24243   1.663   2.394   0.808  0.5443 -0.2017 -0.0860
 7652SOL    HW124244   1.663   2.388   0.904  0.4139 -1.3478 -0.1349
 7652SOL    HW224245   1.706   2.477   0.789 -1.6057  1.2656  1.0242
 7653SOL     OW24246   6.750   5.952   2.273  0.2996 -0.3218 -0.1191
 7653SOL    HW124247   6.673   6.003   2.250 -0.1322 -0.2730  1.2998
 7653SOL    HW224248   6.798   6.008   2.334  0.2530 -1.2583  0.8109
 7654SOL     OW24249   1.521   8.066   2.232  0.0765 -1.0876  0.3781
 7654SOL    HW124250   1.593   8.077   2.294 -1.4565 -0.6588  2.1475
 7654SOL    HW224251   1.448   8.115   2.269 -0.3496  1.0146 -2.8503
 7655SOL     OW24252   0.932   7.018   8.206  0.1613 -0.6487 -0.2688
 7655SOL    HW124253   0.959   6.940   8.158  1.1512 -1.3097  1.3167
 7655SOL    HW224254   1.014   7.065   8.223  0.0199 -1.1367  1.9569
 7656SOL     OW24255   5.050   0.515   5.049 -0.2359  0.2530  0.5057
 7656SOL    HW124256   4.965   0.549   5.079 -0.9445 -1.7207  0.8913
 7656SOL    HW224257   5.114   0.570   5.093 -1.2877 -0.6802  3.4778
 7657SOL     OW24258   3.099   7.536   2.892 -0.1777  0.3522  0.4207
 7657SOL    HW124259   3.034   7.596   2.929 -0.2944  0.6187 -0.1965
 7657SOL    HW224260   3.168   7.531   2.958 -0.9844 -0.2194  1.2447
 7658SOL     OW24261   2.283   0.216   2.244  0.3852  0.2735 -0.0132
 7658SOL    HW124262   2.248   0.142   2.195 -0.2013  1.3144 -1.2252
 7658SOL    HW224263   2.279   0.290   2.183  0.4392  1.4346  1.3277
 7659SOL     OW24264   6.741   7.294   3.061  0.4655 -0.3889  0.3372
 7659SOL    HW124265   6.665   7.349   3.044  0.3205 -0.1170  1.6888
 7659SOL    HW224266   6.707   7.221   3.113  0.6495 -1.8154 -1.4491
 7660SOL     OW24267   7.006   5.193   2.229  0.2241 -0.9795 -0.1442
 7660SOL    HW124268   6.998   5.103   2.261 -0.8569 -0.0949  2.4017
 7660SOL    HW224269   6.926   5.209   2.180 -0.4141 -0.9011  0.8967
 7661SOL     OW24270   5.548   4.221   3.736 -0.3038  0.3468 -0.0067
 7661SOL    HW124271   5.464   4.251   3.770 -0.5152 -1.3097  1.0460
 7661SOL    HW224272   5.606   4.220   3.813  0.1999 -0.1155 -0.3828
 7662SOL     OW24273   6.498   2.676   1.295 -0.4497  0.3682 -0.5898
 7662SOL    HW124274   6.559   2.749   1.292  1.6577 -1.2998 -1.4996
 7662SOL    HW224275   6.492   2.653   1.388  2.1174 -0.7409 -0.6018
 7663SOL     OW24276   1.517   8.280   1.270  0.0271 -0.1191 -0.0782
 7663SOL    HW124277   1.572   8.308   1.197  1.9777 -1.2634  0.8604
 7663SOL    HW224278   1.577   8.274   1.344 -1.6327 -0.2531  1.3294
 7664SOL     OW24279   6.652   8.698   4.123  0.5004 -0.0811 -0.3677
 7664SOL    HW124280   6.711   8.630   4.089  0.4588 -0.3809  0.1370
 7664SOL    HW224281   6.583   8.650   4.168  0.4887  0.2902  0.0291
 7665SOL     OW24282   1.425   7.606   2.048 -0.0072  0.1840 -0.0354
 7665SOL    HW124283   1.394   7.686   2.090  2.0192  0.1081  1.8119
 7665SOL    HW224284   1.516   7.625   2.024  0.1998 -1.2421 -0.4750
 7666SOL     OW24285   3.534   4.678   6.249 -0.0092  0.0228  0.2285
 7666SOL    HW124286   3.532   4.736   6.173  0.8307  1.2863  1.1248
 7666SOL    HW224287   3.624   4.646   6.252 -0.2934 -0.8142  0.1421
 7667SOL     OW24288   3.841   1.145   1.407  0.6834  0.4359 -0.5341
 7667SOL    HW124289   3.853   1.238   1.424  1.5453  0.3748 -0.7506
 7667SOL    HW224290   3.788   1.141   1.327  0.9407  0.7375 -0.7175
 7668SOL     OW24291   6.750   3.970   4.271  0.3639  0.2969  0.1088
 7668SOL    HW124292   6.674   4.003   4.223 -0.0852  0.2041  0.7279
 7668SOL    HW224293   6.813   4.041   4.271 -0.1194  0.7308  0.4158
 7669SOL     OW24294   6.091   4.601   3.333 -0.1751  0.5379 -0.1980
 7669SOL    HW124295   6.083   4.662   3.406 -1.3185 -2.2980  2.3044
 7669SOL    HW224296   6.003   4.596   3.296 -0.1734  0.2028 -0.1660
 7670SOL     OW24297   6.578   5.097   5.752  0.3231  0.0509  0.0846
 7670SOL    HW124298   6.591   5.007   5.721 -0.7623  0.0870 -0.5237
 7670SOL    HW224299   6.541   5.086   5.840 -0.8262 -0.1423 -0.3993
 7671SOL     OW24300   7.263   5.258   6.627 -0.4056  0.0627 -0.2586
 7671SOL    HW124301   7.300   5.173   6.605  1.0449  0.6141 -0.0687
 7671SOL    HW224302   7.339   5.315   6.640 -1.3228  1.5975 -1.1674
 7672SOL     OW24303   6.471   4.255   6.138  0.6535 -0.2708 -0.3096
 7672SOL    HW124304   6.542   4.318   6.127 -0.7191  1.5535  0.5754
 7672SOL    HW224305   6.428   4.281   6.219 -0.7052 -1.6276 -0.5391
 7673SOL     OW24306   1.637   7.840   5.796  0.2503  1.0559  0.3887
 7673SOL    HW124307   1.548   7.817   5.770  0.7045 -0.0520 -0.2385
 7673SOL    HW224308   1.693   7.775   5.753  1.3693  1.7491  0.7458
 7674SOL     OW24309   1.194   6.266   6.762  0.2025  0.6095 -0.0270
 7674SOL    HW124310   1.187   6.249   6.668 -1.9722 -0.0656  0.1888
 7674SOL    HW224311   1.262   6.207   6.793 -0.0546 -0.2060 -0.9749
 7675SOL     OW24312   1.077   5.453   0.660 -0.5975  0.8736  0.5128
 7675SOL    HW124313   1.107   5.513   0.592  1.8830  0.6419  1.3241
 7675SOL    HW224314   1.102   5.494   0.742  2.3831 -1.7188  1.0850
 7676SOL     OW24315   7.429   7.832   4.138  0.0868 -0.3286  0.1146
 7676SOL    HW124316   7.427   7.886   4.060  0.6249 -0.2772  0.1341
 7676SOL    HW224317   7.488   7.760   4.117 -1.1927 -1.3270 -0.1749
 7677SOL     OW24318   4.470   7.029   5.555  0.2115  0.1885  0.2054
 7677SOL    HW124319   4.500   7.011   5.466  0.0097  1.0369 -0.0450
 7677SOL    HW224320   4.543   7.004   5.611  1.0887  1.4602 -0.3299
 7678SOL     OW24321   3.518   4.096   7.349  0.1812  0.5794 -0.0068
 7678SOL    HW124322   3.505   4.024   7.411  0.7284  1.3616  1.0407
 7678SOL    HW224323   3.611   4.094   7.328  0.2761  1.2192  0.3333
 7679SOL     OW24324   2.289   7.791   1.604  0.1730  0.5361  0.0113
 7679SOL    HW124325   2.350   7.748   1.664 -0.5931  0.9487  1.1369
 7679SOL    HW224326   2.205   7.749   1.623  0.1547 -0.3225 -1.8058
 7680SOL     OW24327   6.137   0.115   3.924 -0.0099 -0.3211  0.3046
 7680SOL    HW124328   6.117   0.102   3.831 -0.7197  0.8790  0.2702
 7680SOL    HW224329   6.053   0.105   3.969 -0.0360  0.9348  0.5878
 7681SOL     OW24330   1.824   5.944   4.638 -0.2685 -0.0681 -0.0536
 7681SOL    HW124331   1.772   5.997   4.700 -1.2613  0.7644 -1.5116
 7681SOL    HW224332   1.850   5.867   4.688 -1.2849  0.4248  1.3174
 7682SOL     OW24333   2.138   2.253   1.689 -0.0051 -0.7955 -0.1370
 7682SOL    HW124334   2.067   2.313   1.667  2.1775  2.7455  1.5415
 7682SOL    HW224335   2.188   2.245   1.609  0.4617  0.9261 -0.0572
 7683SOL     OW24336   5.895   1.117   8.685  0.2850 -0.2945 -0.0818
 7683SOL    HW124337   5.878   1.098   8.593  0.6661  0.2598 -0.2720
 7683SOL    HW224338   5.882   1.034   8.730  0.1214 -0.5727 -0.6414
 7684SOL     OW24339   3.221   7.903   5.160 -0.2938 -0.2983  0.4786
 7684SOL    HW124340   3.274   7.926   5.084 -1.5506  0.8305 -0.0847
 7684SOL    HW224341   3.213   7.808   5.156  0.0416 -0.2950 -0.5410
 7685SOL     OW24342   0.132   4.483   6.707  0.1256  0.0131 -0.4199
 7685SOL    HW124343   0.106   4.496   6.616 -2.5116 -0.0112  0.2403
 7685SOL    HW224344   0.092   4.400   6.732 -1.5138  1.2455  1.4367
 7686SOL     OW24345   6.131   1.725   2.876 -0.6604  0.4326 -0.2823
 7686SOL    HW124346   6.209   1.766   2.837  0.1667 -1.1825 -0.4130
 7686SOL    HW224347   6.152   1.632   2.879 -2.6147 -0.0534 -0.3184
 7687SOL     OW24348   6.042   8.515   1.290  0.0625  0.6555 -0.3017
 7687SOL    HW124349   5.978   8.581   1.264 -0.8352  0.4157  1.1624
 7687SOL    HW224350   6.017   8.436   1.243  1.5143  1.4309 -2.5571
 7688SOL     OW24351   7.475   5.310   5.804  0.2322  0.1070 -0.4162
 7688SOL    HW124352   7.492   5.308   5.899 -0.2193 -2.8957 -0.3059
 7688SOL    HW224353   7.431   5.394   5.790  0.4992  0.7461  1.9813
 7689SOL     OW24354   2.857   5.913   5.714  0.0997 -0.1531 -0.4273
 7689SOL    HW124355   2.891   5.941   5.630 -0.9865  0.4959 -0.6660
 7689SOL    HW224356   2.840   5.994   5.762 -1.7660 -0.4024 -0.6019
 7690SOL     OW24357   4.031   7.065   7.992  0.0891 -0.4525  0.2983
 7690SOL    HW124358   4.124   7.084   8.001  0.0763 -0.3974  0.3155
 7690SOL    HW224359   3.993   7.091   8.076 -0.2932  1.6364 -0.4629
 7691SOL     OW24360   8.360   5.587   3.450  0.2455  0.1738  0.3265
 7691SOL    HW124361   8.267   5.608   3.444 -0.0258 -0.9034  0.4688
 7691SOL    HW224362   8.402   5.647   3.388 -0.5945  0.3880 -0.0588
 7692SOL     OW24363   7.995   1.147   4.457  0.6733 -0.1085  0.2472
 7692SOL    HW124364   7.917   1.127   4.509  1.3404 -2.4529  0.4871
 7692SOL    HW224365   7.971   1.224   4.406 -1.3383 -0.0050  1.2409
 7693SOL     OW24366   1.838   0.838   0.118  0.2826 -0.5312 -0.2970
 7693SOL    HW124367   1.839   0.901   0.046 -1.6780  1.4107  1.2239
 7693SOL    HW224368   1.924   0.847   0.159  0.4299  0.3530 -0.7803
 7694SOL     OW24369   3.789   0.264   7.425 -0.0728  0.6562  0.6516
 7694SOL    HW124370   3.882   0.242   7.427 -0.7000 -2.4311  0.5395
 7694SOL    HW224371   3.785   0.353   7.459  3.0529  1.5337 -0.9100
 7695SOL     OW24372   5.944   6.112   0.971  0.3095  0.0778 -0.6558
 7695SOL    HW124373   6.020   6.122   1.029  0.2538  1.7370 -0.8072
 7695SOL    HW224374   5.925   6.202   0.942 -0.8753 -0.4864 -1.6902
 7696SOL     OW24375   4.865   0.022   7.982 -0.3565  0.7499  0.0661
 7696SOL    HW124376   4.935  -0.022   7.934 -1.1306 -1.4342  0.8087
 7696SOL    HW224377   4.908   0.060   8.058  0.0292 -0.9404  0.7430
 7697SOL     OW24378   5.190   7.134   2.517  0.2666 -0.5125  0.0273
 7697SOL    HW124379   5.127   7.172   2.456 -0.4507 -0.1049  1.0049
 7697SOL    HW224380   5.266   7.193   2.513  0.2213 -0.4830 -0.4567
 7698SOL     OW24381   7.610   0.367   2.899  0.0040 -0.0031 -0.0251
 7698SOL    HW124382   7.593   0.451   2.857 -0.6536 -0.1327 -0.0356
 7698SOL    HW224383   7.673   0.386   2.968 -0.9099  0.6914  0.6446
 7699SOL     OW24384   1.847   8.565   0.993 -0.5925  0.0155 -0.7895
 7699SOL    HW124385   1.914   8.501   1.016  0.5730  0.3303 -2.9874
 7699SOL    HW224386   1.836   8.618   1.072 -0.6944 -2.0812  0.6658
 7700SOL     OW24387   2.697   0.654   6.595 -0.3403  0.1961  0.2858
 7700SOL    HW124388   2.657   0.731   6.557 -0.1586  0.8350  1.3416
 7700SOL    HW224389   2.767   0.689   6.651 -2.0817 -0.4914  3.0769
 7701SOL     OW24390   4.080   0.624   4.346  0.0639  0.4424  0.1339
 7701SOL    HW124391   3.988   0.650   4.339 -0.3138 -0.9284 -0.2451
 7701SOL    HW224392   4.092   0.605   4.439 -0.1185  0.3484  0.1394
 7702SOL     OW24393   5.646   3.922   0.083  0.3784 -0.6191 -0.1095
 7702SOL    HW124394   5.636   4.011   0.050  1.0790  0.0024  1.2626
 7702SOL    HW224395   5.646   3.867   0.005 -0.8266  0.5017 -0.9288
 7703SOL     OW24396   5.525   5.843   3.017 -0.6178  0.1540  0.0236
 7703SOL    HW124397   5.563   5.758   3.040 -1.5175 -0.3901 -0.4073
 7703SOL    HW224398   5.478   5.871   3.095 -0.1298  0.3694  0.2418
 7704SOL     OW24399   5.921   3.501   6.474  0.5760  0.0671  0.2165
 7704SOL    HW124400   5.829   3.520   6.454  0.6769  1.8626  1.2983
 7704SOL    HW224401   5.958   3.473   6.390 -1.1563 -1.7337 -0.0479
 7705SOL     OW24402   0.168   7.456   6.177  0.1082  0.1231  0.2066
 7705SOL    HW124403   0.088   7.410   6.203  0.2437 -1.1907 -1.4977
 7705SOL    HW224404   0.219   7.390   6.129  0.9922  1.6552 -1.0618
 7706SOL     OW24405   8.187   0.355   7.353  0.1205 -1.1872 -0.6642
 7706SOL    HW124406   8.105   0.306   7.358 -1.4981  1.3807  0.0633
 7706SOL    HW224407   8.225   0.347   7.440 -2.3626  2.1738  0.9502
 7707SOL     OW24408   7.522   7.809   0.807 -0.7695  0.1359  0.2338
 7707SOL    HW124409   7.491   7.721   0.789 -0.3464 -0.2682  1.3677
 7707SOL    HW224410   7.578   7.831   0.733 -0.5318 -0.7239  0.1543
 7708SOL     OW24411   7.774   1.719   0.560  0.4667 -0.6939 -0.1224
 7708SOL    HW124412   7.802   1.728   0.469 -0.1396  1.8840 -0.1265
 7708SOL    HW224413   7.715   1.643   0.559  0.3844 -0.6552 -1.8899
 7709SOL     OW24414   4.691   5.427   1.168 -0.3578  0.3779  0.7962
 7709SOL    HW124415   4.677   5.516   1.200 -0.5682  0.6753 -0.1099
 7709SOL    HW224416   4.603   5.394   1.148 -0.2242  0.2118  0.4792
 7710SOL     OW24417   0.417   5.832   2.441  0.5038 -0.1689 -0.5665
 7710SOL    HW124418   0.384   5.917   2.470  0.6576 -0.1048 -0.5826
 7710SOL    HW224419   0.381   5.821   2.353 -2.1414 -1.5026  0.5326
 7711SOL     OW24420   4.254   5.594   8.002 -0.3005  0.5062  0.2875
 7711SOL    HW124421   4.221   5.514   8.044  0.2827  0.2231  0.2108
 7711SOL    HW224422   4.265   5.656   8.074  0.4324  0.1108  0.5222
 7712SOL     OW24423   7.496   4.374   5.443 -0.0069  0.2112  0.1824
 7712SOL    HW124424   7.445   4.377   5.362  1.3282 -1.2430 -0.7774
 7712SOL    HW224425   7.461   4.445   5.496 -1.0915  1.0495 -1.5600
 7713SOL     OW24426   4.935   7.954   0.498  0.0646  0.0260  0.0761
 7713SOL    HW124427   4.864   7.911   0.545  1.2464 -0.2789  1.6663
 7713SOL    HW224428   5.012   7.941   0.553  1.4643 -0.0138 -1.7738
 7714SOL     OW24429   8.471   4.914   5.281  0.1823  0.2247 -0.4567
 7714SOL    HW124430   8.470   5.002   5.241 -0.5105  0.7936  0.7692
 7714SOL    HW224431   8.424   4.859   5.218  0.3138  0.8033 -1.0768
 7715SOL     OW24432   3.507   1.647   0.862  0.1249  0.2416 -0.1407
 7715SOL    HW124433   3.452   1.623   0.936 -0.1020 -0.0480 -0.4030
 7715SOL    HW224434   3.573   1.578   0.856 -0.3389 -0.1595 -0.6996
 7716SOL     OW24435   0.571   3.387   7.987  0.0964 -0.1321 -0.3941
 7716SOL    HW124436   0.655   3.402   7.942  0.1421  2.2814  0.3541
 7716SOL    HW224437   0.508   3.437   7.935 -0.3628  0.3004  0.5553
 7717SOL     OW24438   1.925   3.427   6.305 -0.0265 -0.5349  0.1387
 7717SOL    HW124439   1.945   3.338   6.275  1.0779 -1.4405  3.1760
 7717SOL    HW224440   1.835   3.422   6.337  0.4933 -1.0250  1.6200
 7718SOL     OW24441   2.687   2.823   6.196 -0.2021 -0.6023 -0.0100
 7718SOL    HW124442   2.697   2.776   6.114  1.2994  0.8795 -0.7465
 7718SOL    HW224443   2.665   2.913   6.170 -0.8535 -0.3649  1.2501
 7719SOL     OW24444   4.196   5.214   0.691 -0.9180  0.1435 -0.0052
 7719SOL    HW124445   4.140   5.283   0.727  0.4152  1.0507  0.4045
 7719SOL    HW224446   4.208   5.238   0.599 -0.8091  0.2218  0.0292
 7720SOL     OW24447   6.555   6.270   7.316  0.0750 -0.0272  0.0844
 7720SOL    HW124448   6.624   6.242   7.376  0.8263 -0.5228 -0.9768
 7720SOL    HW224449   6.530   6.190   7.270 -1.1124  0.1810  0.3497
 7721SOL     OW24450   7.406   5.004   6.382 -0.0595 -0.1643  0.1255
 7721SOL    HW124451   7.347   5.046   6.320 -0.0396 -0.5951 -0.1881
 7721SOL    HW224452   7.352   4.938   6.426  0.2727 -0.8304 -0.4399
 7722SOL     OW24453   0.963   6.017   1.387  0.0650 -0.4192 -0.1604
 7722SOL    HW124454   0.886   6.075   1.388  1.2419  1.2093  1.2886
 7722SOL    HW224455   0.938   5.943   1.443 -0.6044 -0.1377 -0.0748
 7723SOL     OW24456   6.298   5.929   0.829  0.4825  0.2302  0.1486
 7723SOL    HW124457   6.226   5.969   0.779  1.3309  0.7367 -0.7188
 7723SOL    HW224458   6.370   5.924   0.766  0.9607 -1.0273  0.7671
 7724SOL     OW24459   2.909   0.476   8.637 -0.1145 -0.4689 -0.5608
 7724SOL    HW124460   2.838   0.540   8.638 -0.3145 -0.5541  2.6430
 7724SOL    HW224461   2.989   0.528   8.644 -0.2682 -0.4498  1.8664
 7725SOL     OW24462   8.674   3.134   5.090 -0.0091 -0.1430 -0.7936
 7725SOL    HW124463   8.731   3.070   5.133 -0.5277 -0.0382  0.0804
 7725SOL    HW224464   8.712   3.219   5.114 -0.2333 -0.0856 -0.6458
 7726SOL     OW24465   5.201   6.702   6.881 -0.1998 -0.3023  0.3399
 7726SOL    HW124466   5.287   6.676   6.848 -0.1098 -0.2495  0.5335
 7726SOL    HW224467   5.208   6.694   6.976  0.2517  1.6629  0.5221
 7727SOL     OW24468   5.557   2.667   5.190 -0.3723 -0.5010 -0.3308
 7727SOL    HW124469   5.582   2.711   5.271 -1.4415  0.2253 -0.3737
 7727SOL    HW224470   5.495   2.599   5.218 -0.5727 -0.3940 -0.5083
 7728SOL     OW24471   5.009   0.477   7.646  0.2016  0.0820  0.0437
 7728SOL    HW124472   4.946   0.406   7.646  0.3640 -0.0612  0.0223
 7728SOL    HW224473   4.955   0.557   7.648  0.0231 -0.0405  0.1106
 7729SOL     OW24474   1.614   1.058   6.071 -0.0957 -0.1806  0.0248
 7729SOL    HW124475   1.544   1.106   6.028  0.0374 -1.3498 -1.6332
 7729SOL    HW224476   1.686   1.059   6.008  1.2964  0.7106  1.5464
 7730SOL     OW24477   1.335   5.769   0.793  0.6967 -0.2010 -0.6733
 7730SOL    HW124478   1.299   5.830   0.729  0.6687 -0.1804 -0.6378
 7730SOL    HW224479   1.401   5.720   0.744  0.8585 -0.0050 -0.6497
 7731SOL     OW24480   0.349   3.459   0.503  0.6099 -0.0547  0.1991
 7731SOL    HW124481   0.382   3.543   0.473 -0.1120  0.2382  0.2033
 7731SOL    HW224482   0.393   3.394   0.448  2.9992  0.1298  1.7408
 7732SOL     OW24483   3.695   3.563   5.166  0.2069  0.3333 -0.0671
 7732SOL    HW124484   3.648   3.588   5.086 -1.9032 -1.3910  0.5355
 7732SOL    HW224485   3.759   3.498   5.136  0.1830  0.5155 -0.5163
 7733SOL     OW24486   0.063   4.862   4.270  0.2241 -0.2039 -0.4654
 7733SOL    HW124487  -0.032   4.861   4.269  0.1890 -1.7642  0.7614
 7733SOL    HW224488   0.089   4.818   4.189 -0.0702  0.6055 -1.0102
 7734SOL     OW24489   6.673   5.303   0.537  0.0910 -0.3814  0.1780
 7734SOL    HW124490   6.634   5.270   0.618  1.2535 -0.5637  0.6778
 7734SOL    HW224491   6.635   5.247   0.469 -1.9951  0.6813  0.3805
 7735SOL     OW24492   5.333   3.199   8.397 -0.4853  0.1998 -0.0260
 7735SOL    HW124493   5.377   3.182   8.314 -0.5126  0.4024 -0.0820
 7735SOL    HW224494   5.299   3.113   8.424 -0.3538  0.1068 -0.1525
 7736SOL     OW24495   4.283   6.499   2.538  0.2867 -0.2368  0.2302
 7736SOL    HW124496   4.307   6.501   2.445 -0.1518 -0.6248  0.1045
 7736SOL    HW224497   4.345   6.558   2.580  0.9469 -0.5956 -0.2119
 7737SOL     OW24498   2.344   3.550   5.633  0.1366 -0.0238  0.3052
 7737SOL    HW124499   2.416   3.535   5.695  1.2523 -0.4036 -1.0290
 7737SOL    HW224500   2.348   3.475   5.574  0.6075  1.4548 -1.6253
 7738SOL     OW24501   0.937   4.654   8.123 -0.4709 -0.1981 -0.4136
 7738SOL    HW124502   0.887   4.575   8.143 -0.0559 -0.4853 -0.5049
 7738SOL    HW224503   0.951   4.650   8.028  0.7643 -0.7373 -0.2205
 7739SOL     OW24504   7.116   6.202   7.315 -0.6305 -0.1036  0.0034
 7739SOL    HW124505   7.065   6.146   7.256 -0.0203  1.2051 -1.8630
 7739SOL    HW224506   7.076   6.288   7.306  0.3706  0.4174  0.4093
 7740SOL     OW24507   6.272   7.000   7.189  0.2994 -0.3730  0.6214
 7740SOL    HW124508   6.358   7.012   7.149  0.0458  0.0530  0.1959
 7740SOL    HW224509   6.282   6.922   7.244  1.1242  0.0220  1.0541
 7741SOL     OW24510   2.039   4.766   8.273  0.4463 -0.4985 -0.3288
 7741SOL    HW124511   2.104   4.712   8.319 -0.5272 -1.6560 -0.2565
 7741SOL    HW224512   2.039   4.849   8.321  1.1706 -0.8248  0.2710
 7742SOL     OW24513   0.435   5.836   2.827 -0.0868  0.0781 -0.0865
 7742SOL    HW124514   0.512   5.781   2.841 -0.7382 -0.4727  1.5221
 7742SOL    HW224515   0.468   5.911   2.776  1.2174 -0.8010 -0.5885
 7743SOL     OW24516   5.523   7.520   1.096 -0.2213  0.1753  0.2855
 7743SOL    HW124517   5.548   7.599   1.145 -1.1858  0.3467  0.5165
 7743SOL    HW224518   5.602   7.466   1.096  0.4593  1.1435  0.1193
 7744SOL     OW24519   5.468   5.268   3.741  0.4742  0.2585 -0.3494
 7744SOL    HW124520   5.507   5.354   3.722  0.9100  0.0483 -0.4170
 7744SOL    HW224521   5.374   5.282   3.730  0.6199  0.4511 -1.4608
 7745SOL     OW24522   7.147   7.969   5.420 -0.4113 -0.0059  0.3246
 7745SOL    HW124523   7.223   7.917   5.394 -0.2475  0.9595 -1.2531
 7745SOL    HW224524   7.072   7.911   5.405 -0.0388 -0.8560  1.6088
 7746SOL     OW24525   2.013   1.499   7.602 -0.0892  0.2509 -0.0056
 7746SOL    HW124526   2.021   1.411   7.565 -0.4489  0.7186 -1.2576
 7746SOL    HW224527   1.919   1.509   7.618 -0.1197  0.5903 -0.3708
 7747SOL     OW24528   0.686   1.249   2.576  0.1106 -0.4100 -0.0672
 7747SOL    HW124529   0.769   1.203   2.587 -1.1780 -2.9224 -0.1634
 7747SOL    HW224530   0.663   1.278   2.665  0.1127 -1.5470  0.3187
 7748SOL     OW24531   2.500   7.606   4.265  0.2090  0.8653 -0.0271
 7748SOL    HW124532   2.517   7.656   4.345 -0.5529  0.7516  0.2121
 7748SOL    HW224533   2.461   7.524   4.296  0.4547  0.5748 -0.4805
 7749SOL     OW24534   7.427   2.979   7.074  0.4683  0.6314 -0.1432
 7749SOL    HW124535   7.414   2.902   7.018 -0.2484 -0.3504  1.2939
 7749SOL    HW224536   7.352   3.035   7.056 -0.9283 -0.6681  1.2954
 7750SOL     OW24537   2.626   7.007   8.037 -0.0292 -0.1195  0.4676
 7750SOL    HW124538   2.708   7.046   8.067 -0.1760  0.7274 -0.2018
 7750SOL    HW224539   2.575   7.081   8.003 -0.2814 -0.8814 -0.8986
 7751SOL     OW24540   4.901   1.798   2.699 -0.1307  0.5210 -0.2297
 7751SOL    HW124541   4.902   1.872   2.638  1.8855  0.8293  0.1073
 7751SOL    HW224542   4.835   1.823   2.764 -1.3473  0.8005 -1.5041
 7752SOL     OW24543   4.130   8.113   1.384 -0.1812 -0.1129  0.0259
 7752SOL    HW124544   4.059   8.173   1.408 -1.5274 -2.1120  1.3480
 7752SOL    HW224545   4.153   8.069   1.466  2.1748 -0.0241 -0.5125
 7753SOL     OW24546   5.859   4.432   2.341 -0.0402 -0.5543 -0.1132
 7753SOL    HW124547   5.875   4.357   2.399  1.4032 -0.6759 -0.6324
 7753SOL    HW224548   5.929   4.494   2.362 -0.7360  0.3136 -0.2751
 7754SOL     OW24549   3.501   4.477   2.868 -0.1991  0.0525 -0.0920
 7754SOL    HW124550   3.473   4.389   2.894 -0.7574  0.3190  0.2175
 7754SOL    HW224551   3.596   4.469   2.856 -0.5194 -1.1744 -2.3689
 7755SOL     OW24552   0.742   6.030   7.600  0.4174  0.6650 -0.1406
 7755SOL    HW124553   0.775   6.120   7.603  1.4341  0.2989  0.2345
 7755SOL    HW224554   0.821   5.976   7.598 -0.1674 -0.1908 -2.0042
 7756SOL     OW24555   1.343   7.461   6.932  0.1189 -0.4415 -0.1306
 7756SOL    HW124556   1.270   7.519   6.954  0.8195 -0.0050  1.2200
 7756SOL    HW224557   1.388   7.505   6.860 -0.2897 -0.1297 -0.1978
 7757SOL     OW24558   5.249   0.651   5.152  0.0161  0.1453 -0.2929
 7757SOL    HW124559   5.336   0.632   5.117 -0.1346 -2.0701  0.4322
 7757SOL    HW224560   5.259   0.642   5.247 -0.8774  0.4905 -0.1560
 7758SOL     OW24561   4.016   3.892   5.222  0.9117  0.2603 -0.6532
 7758SOL    HW124562   3.966   3.973   5.210  0.3388  0.2519  1.3166
 7758SOL    HW224563   3.952   3.830   5.257  2.1838  0.1614  1.6907
 7759SOL     OW24564   0.285   7.905   7.106 -0.4057  0.5794  0.0959
 7759SOL    HW124565   0.342   7.879   7.179 -0.1748  5.0810  1.8128
 7759SOL    HW224566   0.202   7.861   7.124  0.6144 -1.0185  1.1645
 7760SOL     OW24567   4.268   1.998   8.690  0.2567  0.1116  0.0591
 7760SOL    HW124568   4.218   1.936   8.636  0.8432  1.7921 -2.5862
 7760SOL    HW224569   4.332   1.944   8.736  1.1959 -1.2488 -2.6710
 7761SOL     OW24570   0.704   1.641   5.326  0.0101  0.3913  0.4559
 7761SOL    HW124571   0.719   1.684   5.410  0.9165 -1.0651  1.0750
 7761SOL    HW224572   0.765   1.567   5.325 -1.6095 -1.0153 -0.4736
 7762SOL     OW24573   3.385   4.657   5.152 -0.4884 -0.2233  0.2852
 7762SOL    HW124574   3.468   4.646   5.198 -0.4740  1.0507  0.6082
 7762SOL    HW224575   3.402   4.624   5.063 -0.1436 -1.5126  0.8135
 7763SOL     OW24576   8.610   0.092   7.505 -0.4842  0.5408  0.6690
 7763SOL    HW124577   8.612   0.126   7.415  2.4709  0.8643  0.7769
 7763SOL    HW224578   8.575   0.003   7.496 -1.6635  1.0746 -0.5485
 7764SOL     OW24579   7.425   5.421   0.194 -0.0455  0.0643 -0.3970
 7764SOL    HW124580   7.432   5.329   0.217 -0.6964  0.3656  1.0895
 7764SOL    HW224581   7.498   5.436   0.133  0.9867 -1.0828  0.5060
 7765SOL     OW24582   1.778   3.457   1.035 -0.0713  0.0552 -0.3312
 7765SOL    HW124583   1.828   3.495   0.963  0.0941  0.2828 -0.0989
 7765SOL    HW224584   1.736   3.380   0.997  0.1931  0.0476 -0.6136
 7766SOL     OW24585   2.499   4.334   8.487  0.3184 -0.0914 -0.5535
 7766SOL    HW124586   2.485   4.293   8.573  2.0499  1.7044  0.6878
 7766SOL    HW224587   2.450   4.279   8.426 -0.3026 -1.9303  1.4566
 7767SOL     OW24588   1.342   1.581   0.242  0.0059 -0.2658  0.1745
 7767SOL    HW124589   1.381   1.565   0.328 -0.0697  0.4660  0.3540
 7767SOL    HW224590   1.410   1.557   0.180  0.6882  0.7908  0.4795
 7768SOL     OW24591   4.693   5.118   2.084 -0.1396  0.4287 -0.1297
 7768SOL    HW124592   4.743   5.076   2.154 -2.1861 -1.4251  0.3448
 7768SOL    HW224593   4.749   5.110   2.006  1.1650  0.3677  0.7817
 7769SOL     OW24594   1.761   4.774   2.909 -0.4000  0.2985  0.4216
 7769SOL    HW124595   1.771   4.869   2.916 -1.0223  0.4178 -0.2172
 7769SOL    HW224596   1.698   4.751   2.977 -0.5920  0.4035  0.2789
 7770SOL     OW24597   6.363   6.503   3.803 -0.0571  0.5772  0.4517
 7770SOL    HW124598   6.345   6.580   3.857  0.8131  0.2225  1.2945
 7770SOL    HW224599   6.434   6.530   3.745  2.2526 -0.2963  2.6278
 7771SOL     OW24600   6.823   4.903   1.693 -0.0507 -0.0420 -0.2962
 7771SOL    HW124601   6.826   4.857   1.609 -1.1841  3.2521 -2.3768
 7771SOL    HW224602   6.905   4.953   1.695  0.1009 -0.3241  0.7191
 7772SOL     OW24603   0.858   3.615   0.716 -0.9071  0.7102 -0.0656
 7772SOL    HW124604   0.804   3.664   0.655 -4.3635  0.1227  2.2147
 7772SOL    HW224605   0.847   3.524   0.691 -2.1853  0.4809  1.1713
 7773SOL     OW24606   2.557   0.345   1.503  0.4366  0.3415  0.0664
 7773SOL    HW124607   2.522   0.434   1.507  1.5840  0.8279 -0.3304
 7773SOL    HW224608   2.568   0.329   1.409  1.1054  0.1333  0.1818
 7774SOL     OW24609   2.634   7.516   5.865  0.0387 -0.1351 -0.6415
 7774SOL    HW124610   2.624   7.605   5.830  0.6836  0.4553  0.5892
 7774SOL    HW224611   2.550   7.497   5.906 -0.2533 -0.2805 -1.2973
 7775SOL     OW24612   6.618   0.933   0.865 -0.4443 -0.1207  0.0829
 7775SOL    HW124613   6.573   0.849   0.864  1.3940 -1.1741  0.9164
 7775SOL    HW224614   6.547   0.998   0.869 -1.8911 -1.6771  1.5741
 7776SOL     OW24615   3.755   1.774   4.558  0.5132 -0.2060 -0.1508
 7776SOL    HW124616   3.714   1.762   4.473 -0.2925 -1.0518  0.3338
 7776SOL    HW224617   3.687   1.813   4.613 -0.4193 -3.3955  1.2064
 7777SOL     OW24618   7.439   6.405   1.307  0.0637  0.0587  0.4367
 7777SOL    HW124619   7.499   6.479   1.315  0.3164 -0.0379 -0.3949
 7777SOL    HW224620   7.354   6.444   1.291  0.2329  0.1742 -0.2062
 7778SOL     OW24621   3.972   6.686   4.088 -0.3226  0.0261  0.2080
 7778SOL    HW124622   3.912   6.643   4.028  0.0900 -2.7431  1.5829
 7778SOL    HW224623   3.928   6.767   4.114 -1.4830  0.1747 -2.0361
 7779SOL     OW24624   3.600   1.451   6.858 -0.0641  0.0935 -0.2410
 7779SOL    HW124625   3.677   1.417   6.811 -0.7892 -1.8685 -0.1127
 7779SOL    HW224626   3.633   1.473   6.945  0.4625 -0.1948 -0.3636
 7780SOL     OW24627   3.939   2.931   8.652 -0.3617  0.1683  0.4354
 7780SOL    HW124628   4.000   2.857   8.643 -1.4335 -0.9643  1.8702
 7780SOL    HW224629   3.982   2.989   8.715 -0.3574 -0.1803  0.7587
 7781SOL     OW24630   5.137   2.114   1.695  0.0578  0.2638  0.1204
 7781SOL    HW124631   5.200   2.051   1.729 -0.4311  0.3114  1.1350
 7781SOL    HW224632   5.059   2.102   1.748 -0.6835  0.4392 -0.8979
 7782SOL     OW24633   5.492   2.210   0.052  0.4166  0.3837  0.1102
 7782SOL    HW124634   5.508   2.294   0.096  1.2679  0.4165 -0.2549
 7782SOL    HW224635   5.446   2.234  -0.029  1.7144  0.6225 -0.5784
 7783SOL     OW24636   1.426   2.334   5.118  0.0337  0.5010  0.2619
 7783SOL    HW124637   1.486   2.271   5.158 -0.6922 -0.3573  0.0268
 7783SOL    HW224638   1.468   2.359   5.036 -0.1088 -0.4173 -0.1074
 7784SOL     OW24639   1.161   8.567   2.487 -0.5350 -0.2990 -0.2612
 7784SOL    HW124640   1.214   8.640   2.520 -1.8947  0.8931 -0.5930
 7784SOL    HW224641   1.143   8.513   2.564  0.9638 -0.6329 -0.1090
 7785SOL     OW24642   2.014   8.461   8.324 -0.0953 -0.1850  0.6448
 7785SOL    HW124643   1.964   8.400   8.379 -0.7319 -0.1943  0.0746
 7785SOL    HW224644   2.084   8.409   8.287 -0.4835 -0.5189  0.3669
 7786SOL     OW24645   7.355   6.882   7.766 -0.1149  0.9051 -0.0690
 7786SOL    HW124646   7.419   6.920   7.827 -0.8010  0.4230  0.9595
 7786SOL    HW224647   7.326   6.802   7.808 -1.7499  1.3461 -0.2980
 7787SOL     OW24648   7.767   4.647   2.741  0.0353 -0.0302 -0.2040
 7787SOL    HW124649   7.853   4.684   2.720  0.0897 -0.0972 -0.1025
 7787SOL    HW224650   7.784   4.589   2.815  0.2410 -1.4491 -1.3086
 7788SOL     OW24651   2.416   6.729   3.089  0.7693 -0.2009 -0.3038
 7788SOL    HW124652   2.428   6.669   3.016 -0.1453  0.5534 -1.1080
 7788SOL    HW224653   2.433   6.816   3.053  0.1117  0.2066  0.3134
 7789SOL     OW24654   7.104   3.258   6.348 -0.3048 -0.3763  0.2543
 7789SOL    HW124655   7.127   3.336   6.298  2.1132 -1.0292  0.2545
 7789SOL    HW224656   7.163   3.190   6.316 -1.7789 -2.0281  0.8445
 7790SOL     OW24657   1.183   2.051   3.016  0.3743  0.6309  0.4134
 7790SOL    HW124658   1.187   2.088   3.104  1.0896  1.7975 -0.0956
 7790SOL    HW224659   1.245   1.978   3.017 -0.8410 -0.4371  1.3380
 7791SOL     OW24660   2.082   4.361   0.910 -0.3070 -0.3994 -0.3313
 7791SOL    HW124661   2.173   4.337   0.928 -0.1788  0.5198  0.3200
 7791SOL    HW224662   2.036   4.344   0.993 -0.4324  0.4863 -0.2081
 7792SOL     OW24663   1.568   8.082   6.792 -0.3516  0.0442 -1.0707
 7792SOL    HW124664   1.568   8.176   6.770 -0.1437  0.1787 -0.4991
 7792SOL    HW224665   1.661   8.058   6.792 -0.1558  0.5089  1.5693
 7793SOL     OW24666   5.423   7.691   8.462  0.1931  0.4186  0.5210
 7793SOL    HW124667   5.370   7.747   8.519  0.0659  0.3484  0.4715
 7793SOL    HW224668   5.388   7.603   8.476 -0.7170  0.5824 -0.6654
 7794SOL     OW24669   6.593   6.453   7.114 -0.1770  0.0671 -0.2113
 7794SOL    HW124670   6.578   6.382   7.177  1.8942 -1.9222 -1.8049
 7794SOL    HW224671   6.560   6.419   7.031 -0.7088  1.6860 -0.6825
 7795SOL     OW24672   8.573   6.192   4.895 -0.0162 -0.1755  0.0334
 7795SOL    HW124673   8.547   6.284   4.883  1.1557 -0.0090 -1.5900
 7795SOL    HW224674   8.507   6.142   4.846 -0.1139 -0.1350  0.1228
 7796SOL     OW24675   6.966   3.620   1.320 -0.6340  0.7521  0.0123
 7796SOL    HW124676   7.039   3.681   1.308  0.0838 -0.0729  0.1094
 7796SOL    HW224677   6.998   3.537   1.285 -0.3173 -0.4728  2.9081
 7797SOL     OW24678   6.078   3.647   2.734 -0.1472  0.4086  0.2370
 7797SOL    HW124679   6.170   3.668   2.718  0.2133 -0.1744  1.4267
 7797SOL    HW224680   6.060   3.573   2.675  0.3064  0.1854  0.3735
 7798SOL     OW24681   7.246   1.960   0.627  0.3519  0.0971 -0.0404
 7798SOL    HW124682   7.154   1.973   0.602  0.3650 -1.3043 -0.9320
 7798SOL    HW224683   7.268   2.039   0.676 -0.8654  1.1925 -1.1515
 7799SOL     OW24684   8.193   4.552   7.353 -0.8084  0.0262  0.5088
 7799SOL    HW124685   8.157   4.626   7.403 -0.9581 -0.0328  0.4885
 7799SOL    HW224686   8.204   4.483   7.419 -0.1632  0.2393  0.6342
 7800SOL     OW24687   4.219   3.115   5.378  0.0033  0.4695 -0.1555
 7800SOL    HW124688   4.257   3.028   5.385  1.4743  1.1484  0.7072
 7800SOL    HW224689   4.142   3.113   5.435 -0.1959 -0.3714 -0.4508
 7801SOL     OW24690   0.895   3.249   8.652 -0.5530  0.3351  0.0410
 7801SOL    HW124691   0.972   3.276   8.702 -0.5026  0.1179  0.0794
 7801SOL    HW224692   0.892   3.310   8.579 -0.9498  1.0251  0.6123
 7802SOL     OW24693   5.619   6.238   2.086 -0.1764  0.2818 -0.1814
 7802SOL    HW124694   5.593   6.215   1.996  2.9241 -0.2802 -1.0351
 7802SOL    HW224695   5.698   6.188   2.102  0.6360  2.1046  2.0643
 7803SOL     OW24696   0.691   6.351   1.731 -0.2558 -0.5923 -0.1459
 7803SOL    HW124697   0.768   6.370   1.676 -0.4762  0.7643 -0.0006
 7803SOL    HW224698   0.717   6.273   1.780  0.9907 -0.2309 -0.1829
 7804SOL     OW24699   1.753   0.594   8.358  0.0205  0.5470  0.0590
 7804SOL    HW124700   1.785   0.505   8.369  1.5117  0.8402 -1.4156
 7804SOL    HW224701   1.725   0.599   8.267 -2.4924  0.9035  0.7829
 7805SOL     OW24702   7.326   8.652   2.777  0.1460 -0.1094  0.4660
 7805SOL    HW124703   7.243   8.692   2.751  1.0343  0.4989 -1.6593
 7805SOL    HW224704   7.379   8.652   2.697  1.1097 -3.3114  0.9599
 7806SOL     OW24705   6.448   2.693   5.250  0.2527 -0.3657  0.0811
 7806SOL    HW124706   6.510   2.624   5.276 -1.3073 -2.4229 -1.3112
 7806SOL    HW224707   6.500   2.757   5.203  2.1929  0.7469  3.3907
 7807SOL     OW24708   7.433   2.316   8.189 -0.2554 -0.3973  0.3331
 7807SOL    HW124709   7.347   2.286   8.218  0.1231 -0.9191  0.9442
 7807SOL    HW224710   7.425   2.411   8.185 -1.0964 -0.4827 -0.4025
 7808SOL     OW24711   3.867   0.774   2.093 -0.0423 -0.1626 -0.0458
 7808SOL    HW124712   3.790   0.825   2.070  0.5089  1.3274  1.2544
 7808SOL    HW224713   3.845   0.684   2.067 -1.8528  0.3650 -0.4681
 7809SOL     OW24714   1.763   0.153   4.413  0.9803  0.0719 -0.4266
 7809SOL    HW124715   1.808   0.074   4.384  0.2735 -0.3278 -0.4503
 7809SOL    HW224716   1.712   0.125   4.489  0.6566  0.4797 -0.4889
 7810SOL     OW24717   5.798   3.146   6.100 -0.3630 -0.4185 -0.0529
 7810SOL    HW124718   5.726   3.208   6.088 -0.7271 -0.9861 -0.8950
 7810SOL    HW224719   5.776   3.097   6.179 -0.0533  0.5405  0.6452
 7811SOL     OW24720   0.858   2.370   5.920  0.0588  0.1930  0.0983
 7811SOL    HW124721   0.781   2.426   5.908  1.9128  2.8762 -0.3326
 7811SOL    HW224722   0.875   2.373   6.014 -0.9409 -1.3627  0.3720
 7812SOL     OW24723   1.368   3.726   0.761 -0.4633 -0.2087  0.7347
 7812SOL    HW124724   1.297   3.745   0.700  0.0444  0.2511  0.2776
 7812SOL    HW224725   1.373   3.630   0.763  1.5734 -0.3291 -2.4425
 7813SOL     OW24726   6.319   3.636   5.754 -1.6696  0.1002 -0.2480
 7813SOL    HW124727   6.312   3.644   5.659  2.7025  0.0834 -0.7806
 7813SOL    HW224728   6.340   3.544   5.769 -0.4811  0.4639  0.4914
 7814SOL     OW24729   7.910   5.928   1.485  0.3501 -0.2962 -0.3556
 7814SOL    HW124730   7.895   5.834   1.484  0.3282 -0.2903 -1.6163
 7814SOL    HW224731   7.825   5.966   1.505  0.6329 -0.5644  1.5603
 7815SOL     OW24732   2.149   3.114   7.431  0.5437 -0.0075  0.2803
 7815SOL    HW124733   2.101   3.194   7.408  2.0160  0.3605 -1.7390
 7815SOL    HW224734   2.198   3.137   7.510  1.6874  1.4434 -0.8087
 7816SOL     OW24735   4.084   7.287   5.199 -0.0103  0.2693 -0.0884
 7816SOL    HW124736   4.093   7.235   5.119  0.7811 -1.4758  1.0947
 7816SOL    HW224737   4.174   7.300   5.230 -0.3646 -0.4968  1.3655
 7817SOL     OW24738   1.137   7.315   7.512 -0.1162 -0.2843  0.4639
 7817SOL    HW124739   1.222   7.278   7.489  0.2772  0.3201  0.9180
 7817SOL    HW224740   1.146   7.343   7.603 -0.8878 -0.4634  0.5996
 7818SOL     OW24741   1.957   5.296   6.015  0.2744  0.4369 -0.3460
 7818SOL    HW124742   1.940   5.390   6.027 -0.3714  0.2304  0.4429
 7818SOL    HW224743   1.999   5.268   6.096 -0.6828 -0.2006 -0.0470
 7819SOL     OW24744   3.190   8.178   7.304  0.1882 -0.1707  0.0840
 7819SOL    HW124745   3.128   8.226   7.358  1.9333  1.0523  1.1030
 7819SOL    HW224746   3.266   8.236   7.297  1.0544 -1.4001 -1.5064
 7820SOL     OW24747   0.852   4.712   8.415 -0.1814  0.5111  0.2892
 7820SOL    HW124748   0.930   4.663   8.390 -0.6007  0.5447 -1.1886
 7820SOL    HW224749   0.863   4.798   8.374 -1.2037  0.3488 -0.3591
 7821SOL     OW24750   0.574   1.908   2.326  0.3280  0.3338  0.3834
 7821SOL    HW124751   0.565   1.850   2.251 -0.3415 -0.5664  1.1388
 7821SOL    HW224752   0.547   1.994   2.294 -0.4570 -0.1437 -0.2628
 7822SOL     OW24753   5.216   2.508   7.354  0.9207 -0.0680 -0.3503
 7822SOL    HW124754   5.201   2.439   7.418  0.6446  1.7148  1.5857
 7822SOL    HW224755   5.207   2.464   7.269  0.1825 -2.2637  0.7958
 7823SOL     OW24756   0.036   1.702   3.087 -0.3944 -0.1458  0.0004
 7823SOL    HW124757   0.094   1.705   3.011  1.4163 -0.6855  1.2966
 7823SOL    HW224758   0.047   1.787   3.129 -0.4447 -0.2927  0.3141
 7824SOL     OW24759   2.172   3.561   7.565  0.1856  0.2886  0.1069
 7824SOL    HW124760   2.176   3.528   7.475 -0.3547  1.2616 -0.2966
 7824SOL    HW224761   2.133   3.489   7.615 -1.3361  0.4259 -0.8165
 7825SOL     OW24762   8.290   1.442   2.579 -0.0527  0.3445 -0.0207
 7825SOL    HW124763   8.382   1.424   2.559 -0.1427  0.1268 -0.2432
 7825SOL    HW224764   8.293   1.508   2.649  0.2799 -0.3630  0.6546
 7826SOL     OW24765   3.212   8.581   3.117  0.2585 -0.0440  0.1461
 7826SOL    HW124766   3.193   8.506   3.061 -2.2411  0.2269  0.5195
 7826SOL    HW224767   3.175   8.656   3.070 -0.7519  0.3695  1.5487
 7827SOL     OW24768   1.381   5.496   1.103  0.4520  0.3161 -0.1095
 7827SOL    HW124769   1.428   5.487   1.186  0.5821  2.1091  0.0606
 7827SOL    HW224770   1.345   5.584   1.106  0.0108  0.2220 -1.7442
 7828SOL     OW24771   4.236   2.394   4.329 -0.1408  0.2433 -0.5198
 7828SOL    HW124772   4.232   2.477   4.281 -0.2346  1.1752  1.0213
 7828SOL    HW224773   4.327   2.387   4.357 -0.1274 -0.1926 -0.6678
 7829SOL     OW24774   6.426   6.920   2.175  0.0471 -0.0515 -0.3585
 7829SOL    HW124775   6.477   6.840   2.187 -0.0736 -0.0091  0.4806
 7829SOL    HW224776   6.492   6.987   2.157  0.1373 -0.3590 -1.2274
 7830SOL     OW24777   5.777   6.336   7.091  0.2738  0.2492  0.4803
 7830SOL    HW124778   5.870   6.337   7.111  0.1241 -0.5476  1.2788
 7830SOL    HW224779   5.734   6.352   7.175 -0.3116  0.3302  0.1713
 7831SOL     OW24780   7.111   2.073   3.822  0.7412 -0.6579 -0.4937
 7831SOL    HW124781   7.197   2.032   3.833  0.3079 -1.1780  1.2196
 7831SOL    HW224782   7.050   1.999   3.813  0.3984 -0.3053 -1.1482
 7832SOL     OW24783   2.568   7.080   5.932  0.1189  0.2650 -0.1573
 7832SOL    HW124784   2.477   7.050   5.936 -0.0452  0.4288 -1.9814
 7832SOL    HW224785   2.575   7.125   5.848  1.5201  1.5345  0.5935
 7833SOL     OW24786   5.059   5.636   1.943 -0.4189 -0.0850  0.0973
 7833SOL    HW124787   4.970   5.603   1.952 -0.6535  0.6897  0.7563
 7833SOL    HW224788   5.052   5.730   1.963  0.3479  0.2196 -0.9734
 7834SOL     OW24789   5.600   8.623   7.125 -0.1576 -0.0767 -0.1100
 7834SOL    HW124790   5.576   8.625   7.218 -0.3036 -0.5576 -0.1308
 7834SOL    HW224791   5.695   8.608   7.125 -0.0416  0.6480 -0.0349
 7835SOL     OW24792   4.561   8.565   0.412  0.0011 -0.3479 -0.3540
 7835SOL    HW124793   4.626   8.506   0.374  1.3127  0.7447  0.0823
 7835SOL    HW224794   4.580   8.650   0.371  1.3494  0.8377  2.4395
 7836SOL     OW24795   1.120   4.480   0.533 -0.5311  0.0791  0.1301
 7836SOL    HW124796   1.133   4.563   0.487  2.7999 -0.1918  0.3636
 7836SOL    HW224797   1.027   4.480   0.555 -1.1720  2.5848 -2.0367
 7837SOL     OW24798   2.424   8.685   0.684  0.0910 -0.2337 -0.8084
 7837SOL    HW124799   2.470   8.718   0.761 -0.2441 -2.5106  0.4506
 7837SOL    HW224800   2.367   8.757   0.657  1.9676  1.4866 -0.4542
 7838SOL     OW24801   2.178   3.102   5.030  0.1524  0.0726  0.7375
 7838SOL    HW124802   2.144   3.179   5.076  1.8261  0.1244  1.9867
 7838SOL    HW224803   2.273   3.105   5.045  0.4592 -1.3197 -0.6253
 7839SOL     OW24804   3.576   8.051   1.784  0.1308 -0.2519 -0.0015
 7839SOL    HW124805   3.661   8.055   1.827  0.4359 -0.7439 -0.5555
 7839SOL    HW224806   3.532   8.132   1.810  0.2099 -0.6301  1.4361
 7840SOL     OW24807   5.459   1.824   5.007  0.0597  0.1348 -0.0222
 7840SOL    HW124808   5.549   1.816   4.974 -0.6298 -0.5860 -1.8454
 7840SOL    HW224809   5.439   1.737   5.042  1.0262  1.0563  3.2320
 7841SOL     OW24810   7.611   7.129   8.147 -0.0141  0.6695 -0.1633
 7841SOL    HW124811   7.568   7.047   8.169 -0.4983  0.6252 -1.2193
 7841SOL    HW224812   7.589   7.144   8.055  1.9885  0.7847 -0.6719
 7842SOL     OW24813   7.699   8.522   2.187 -0.1912 -0.0806  0.1278
 7842SOL    HW124814   7.632   8.577   2.229 -0.8290  0.4386 -1.5089
 7842SOL    HW224815   7.776   8.577   2.182  1.3887 -1.4598  4.3702
 7843SOL     OW24816   2.887   4.173   8.221  0.1891 -0.0406 -0.4326
 7843SOL    HW124817   2.898   4.132   8.306 -0.8037 -1.6594 -1.0380
 7843SOL    HW224818   2.966   4.151   8.172  0.6142  0.6190 -0.0598
 7844SOL     OW24819   7.878   2.833   5.363  0.2504  0.0773  0.4510
 7844SOL    HW124820   7.822   2.774   5.312  0.2932  1.5747 -1.4736
 7844SOL    HW224821   7.967   2.814   5.331  0.3206  0.8033  0.2150
 7845SOL     OW24822   6.640   2.058   6.244 -0.6641  0.3226 -0.1593
 7845SOL    HW124823   6.593   2.002   6.183  0.9610  0.3559 -1.5358
 7845SOL    HW224824   6.653   2.140   6.196  1.9531 -0.1699 -0.4464
 7846SOL     OW24825   2.165   2.455   2.192  0.0953  0.2408  0.1678
 7846SOL    HW124826   2.193   2.415   2.110 -2.0653  0.1142 -0.5677
 7846SOL    HW224827   2.196   2.546   2.186  1.2495 -0.1510 -0.0908
 7847SOL     OW24828   7.636   8.166   5.933  0.2991 -0.1851 -0.0155
 7847SOL    HW124829   7.717   8.192   5.976 -0.1602  0.3585  0.5293
 7847SOL    HW224830   7.584   8.246   5.929 -1.8286 -1.2307  3.1711
 7848SOL     OW24831   8.140   0.027   0.696  0.3388  0.3137 -0.4659
 7848SOL    HW124832   8.070   0.065   0.643  0.4946  1.8554  0.3913
 7848SOL    HW224833   8.110   0.037   0.787 -0.0403 -2.4889 -0.1797
 7849SOL     OW24834   5.195   7.285   3.597  0.2014 -0.7459  0.8130
 7849SOL    HW124835   5.172   7.335   3.519  0.0099 -0.0135  1.3331
 7849SOL    HW224836   5.219   7.351   3.663  1.4561 -1.3860  1.0363
 7850SOL     OW24837   5.556   3.611   7.080  0.4118 -0.1866 -0.1314
 7850SOL    HW124838   5.606   3.693   7.074  2.3065 -1.2229  0.6799
 7850SOL    HW224839   5.543   3.598   7.173 -1.1330 -0.1195 -0.3173
 7851SOL     OW24840   1.959   1.198   2.855 -0.0855 -0.0858  0.2350
 7851SOL    HW124841   1.980   1.132   2.922  0.8078  2.6026  2.8366
 7851SOL    HW224842   1.866   1.217   2.867 -0.3720 -0.8920 -0.5954
 7852SOL     OW24843   1.528   4.375   6.087 -0.2668 -0.1981  0.4428
 7852SOL    HW124844   1.456   4.367   6.149 -0.5474 -0.5494  0.0770
 7852SOL    HW224845   1.607   4.369   6.140 -0.5048 -0.6459  0.7458
 7853SOL     OW24846   1.015   3.959   7.423  0.2982 -0.1028  0.4268
 7853SOL    HW124847   1.040   3.958   7.515  0.2660  0.9445  0.4525
 7853SOL    HW224848   1.088   3.915   7.379  0.1756 -0.8747  0.9690
 7854SOL     OW24849   4.909   4.562   1.835 -0.2704 -0.2237 -0.1630
 7854SOL    HW124850   4.935   4.477   1.871 -1.8759 -0.6410  0.0795
 7854SOL    HW224851   4.853   4.601   1.902  0.0636  0.8383 -0.4767
 7855SOL     OW24852   0.795   2.883   0.537 -0.4286  0.4874  0.1524
 7855SOL    HW124853   0.871   2.834   0.506  1.0208  2.4211  0.4750
 7855SOL    HW224854   0.740   2.817   0.580  0.6740 -1.0829 -0.7212
 7856SOL     OW24855   3.302   6.193   6.404  0.3994 -0.8426  0.0681
 7856SOL    HW124856   3.385   6.146   6.389  1.3284  0.2564  1.4602
 7856SOL    HW224857   3.319   6.282   6.374 -0.3601 -0.6552  0.1824
 7857SOL     OW24858   0.990   5.132   2.959  0.1210  0.2011 -0.0073
 7857SOL    HW124859   0.997   5.228   2.962  0.8400  0.2209 -1.3340
 7857SOL    HW224860   1.044   5.107   2.884 -1.9405 -1.0343 -1.1784
 7858SOL     OW24861   7.746   8.466   7.758  0.2025 -0.0117 -0.0110
 7858SOL    HW124862   7.828   8.460   7.708  0.5812 -0.4683  0.6510
 7858SOL    HW224863   7.698   8.387   7.735 -0.2766  0.4744 -0.7558
 7859SOL     OW24864   3.483   4.715   6.518  0.2922 -0.2992  0.3978
 7859SOL    HW124865   3.397   4.672   6.512  1.0604 -2.0912  1.3395
 7859SOL    HW224866   3.515   4.718   6.427 -0.6512  0.2038  0.0658
 7860SOL     OW24867   6.426   0.985   0.001  0.0976 -0.3905  0.4804
 7860SOL    HW124868   6.427   0.892  -0.024  2.1060 -0.0526 -0.9975
 7860SOL    HW224869   6.516   1.014  -0.016 -0.9545  2.2930 -0.9650
 7861SOL     OW24870   0.656   3.201   3.366 -0.3899 -0.0388 -0.4651
 7861SOL    HW124871   0.619   3.289   3.364 -0.8338 -0.0900  1.8654
 7861SOL    HW224872   0.588   3.147   3.408 -0.3751 -1.6452 -2.3688
 7862SOL     OW24873   8.312   8.219   3.912 -0.3706  0.4350 -0.2397
 7862SOL    HW124874   8.283   8.198   3.823 -1.8703  3.4252 -0.5907
 7862SOL    HW224875   8.377   8.289   3.900  0.3128  0.0454  1.0037
 7863SOL     OW24876   6.541   3.276   1.354  0.4002  0.1623 -0.1816
 7863SOL    HW124877   6.635   3.259   1.362  0.0922 -1.1741  0.9414
 7863SOL    HW224878   6.515   3.233   1.273  0.5312 -0.5817  0.1652
 7864SOL     OW24879   4.308   0.155   2.364 -0.3589 -0.2967 -0.6110
 7864SOL    HW124880   4.314   0.247   2.390 -3.7246 -0.5687  1.8551
 7864SOL    HW224881   4.304   0.157   2.269  0.7813  1.9805 -0.6677
 7865SOL     OW24882   1.726   6.111   6.453  0.1336 -0.3168 -0.2852
 7865SOL    HW124883   1.743   6.017   6.452  0.8109 -0.2339  1.4054
 7865SOL    HW224884   1.631   6.118   6.458  0.1492 -0.9856  2.0173
 7866SOL     OW24885   3.416   2.172   0.968  0.7740  0.2705 -0.1350
 7866SOL    HW124886   3.489   2.110   0.975 -0.0924 -0.7687 -0.0807
 7866SOL    HW224887   3.439   2.227   0.893  1.7592  0.1611  0.0727
 7867SOL     OW24888   8.515   7.836   8.531  0.0065 -0.2647  0.1853
 7867SOL    HW124889   8.475   7.889   8.600  0.8579  0.4606  0.1390
 7867SOL    HW224890   8.608   7.858   8.534 -0.0154  0.2597 -1.5976
 7868SOL     OW24891   6.908   5.667   7.258  0.3706  0.2450 -0.0512
 7868SOL    HW124892   6.906   5.755   7.295  0.1015 -0.7148  2.4060
 7868SOL    HW224893   6.859   5.674   7.176  0.3402  2.3565  0.1033
 7869SOL     OW24894   5.457   7.491   4.514 -0.3691 -0.3625  0.5529
 7869SOL    HW124895   5.526   7.519   4.574  0.7808 -2.8107  0.5075
 7869SOL    HW224896   5.503   7.470   4.433 -1.4052 -0.5884  0.0066
 7870SOL     OW24897   1.829   2.734   3.873  0.0727  0.1370 -0.2220
 7870SOL    HW124898   1.912   2.696   3.845  0.4843  0.1023  0.9966
 7870SOL    HW224899   1.782   2.751   3.792  0.1527 -2.3102 -0.8516
 7871SOL     OW24900   7.001   6.428   0.091  0.0942  0.2750  0.1578
 7871SOL    HW124901   6.908   6.416   0.071  0.3476 -2.7888  0.3924
 7871SOL    HW224902   7.047   6.366   0.034  2.0946  2.1418 -0.3865
 7872SOL     OW24903   4.854   2.072   3.282  0.0160 -0.0590  0.0783
 7872SOL    HW124904   4.771   2.084   3.328  0.6569  1.0884  1.0143
 7872SOL    HW224905   4.855   2.141   3.215 -0.3732 -0.9459 -0.8577
 7873SOL     OW24906   2.056   3.510   8.184 -0.2292  0.2829  0.0879
 7873SOL    HW124907   1.981   3.530   8.239 -0.0626  0.3979  0.2709
 7873SOL    HW224908   2.113   3.586   8.191 -0.3370  0.4176 -0.4599
 7874SOL     OW24909   4.110   7.218   4.572 -0.0942  0.1018  0.6259
 7874SOL    HW124910   4.121   7.163   4.650  0.5666  0.1877  0.5993
 7874SOL    HW224911   4.197   7.254   4.556 -0.1707 -0.1189 -0.3116
 7875SOL     OW24912   2.884   3.022   1.454 -0.5184 -0.6102 -0.2779
 7875SOL    HW124913   2.868   3.110   1.420  1.1761 -1.0475 -2.4144
 7875SOL    HW224914   2.798   2.993   1.486 -1.3554  1.3813 -0.5768
 7876SOL     OW24915   4.258   0.958   1.678 -0.3614  0.2257  0.2539
 7876SOL    HW124916   4.163   0.962   1.667 -0.2164 -0.4472 -1.6694
 7876SOL    HW224917   4.272   0.888   1.741 -1.1257 -0.8559 -0.7225
 7877SOL     OW24918   4.790   5.843   8.503 -0.5544  0.4077 -0.1993
 7877SOL    HW124919   4.753   5.811   8.586 -0.9568 -1.2207 -0.9496
 7877SOL    HW224920   4.882   5.862   8.524 -0.2978 -1.2432  0.3568
 7878SOL     OW24921   1.007   3.801   3.513 -0.7235  0.0130  0.1814
 7878SOL    HW124922   1.064   3.875   3.535 -0.6478  0.1855 -0.5729
 7878SOL    HW224923   0.975   3.821   3.425 -0.0637 -1.2458 -0.3644
 7879SOL     OW24924   4.889   0.331   1.463  0.5321 -0.1564  1.1297
 7879SOL    HW124925   4.831   0.389   1.412  0.3794 -0.1315  1.3303
 7879SOL    HW224926   4.839   0.311   1.542  0.2492 -1.2071  0.7107
 7880SOL     OW24927   0.481   2.147   2.269  0.3970  0.2495  0.2292
 7880SOL    HW124928   0.512   2.211   2.205 -0.0589 -1.1700 -1.5081
 7880SOL    HW224929   0.389   2.167   2.282  0.4457  0.4326  0.2833
 7881SOL     OW24930   8.433   0.956   3.195 -0.4330  0.4371  0.5327
 7881SOL    HW124931   8.521   0.924   3.176 -0.9166  0.4281 -2.1585
 7881SOL    HW224932   8.434   1.048   3.166 -1.6703  0.0076 -1.0124
 7882SOL     OW24933   7.746   1.338   5.923  0.6173  0.2702  0.6982
 7882SOL    HW124934   7.691   1.299   5.856  2.3153  0.6588 -1.0233
 7882SOL    HW224935   7.715   1.301   6.005 -0.4169 -1.5893 -0.4672
 7883SOL     OW24936   5.688   7.715   7.048  0.4402  0.5944 -0.6333
 7883SOL    HW124937   5.733   7.654   7.107 -0.2122 -0.7798 -1.4936
 7883SOL    HW224938   5.740   7.712   6.967  1.9332  3.2505  0.0973
 7884SOL     OW24939   5.285   0.457   2.940 -0.1408  0.1448  0.3319
 7884SOL    HW124940   5.341   0.532   2.919  0.0321 -0.1041 -0.1182
 7884SOL    HW224941   5.248   0.431   2.855 -0.3789 -0.1327  0.5205
 7885SOL     OW24942   1.024   7.796   3.848 -0.7856 -0.1720 -0.4978
 7885SOL    HW124943   0.937   7.805   3.887 -1.7062 -1.4468 -2.1154
 7885SOL    HW224944   1.049   7.885   3.824 -1.6295  0.2074 -0.0188
 7886SOL     OW24945   0.178   2.339   7.440  0.1066  0.2751  0.0408
 7886SOL    HW124946   0.258   2.345   7.388 -0.6466 -0.0388 -1.1822
 7886SOL    HW224947   0.203   2.374   7.526  2.3094 -2.2424  0.5891
 7887SOL     OW24948   0.072   4.418   8.220  0.5006 -0.2902  0.2477
 7887SOL    HW124949   0.038   4.349   8.163  0.3234  0.3144 -0.3854
 7887SOL    HW224950   0.073   4.496   8.166  1.6436  0.0034  0.6547
 7888SOL     OW24951   1.200   5.570   7.329  0.5523  0.0122 -0.0658
 7888SOL    HW124952   1.239   5.484   7.343 -1.3331 -1.3364 -2.4252
 7888SOL    HW224953   1.269   5.621   7.288  0.8373 -1.3399 -1.3594
 7889SOL     OW24954   2.173   5.523   1.565 -0.0868 -0.5486 -0.0998
 7889SOL    HW124955   2.112   5.503   1.636  0.7493  0.0615  0.8323
 7889SOL    HW224956   2.189   5.618   1.573 -1.1687 -0.1496 -2.1059
 7890SOL     OW24957   7.485   4.756   4.016 -0.0603  0.1926  0.1876
 7890SOL    HW124958   7.500   4.661   4.018 -0.1034  0.0753 -2.2206
 7890SOL    HW224959   7.392   4.766   4.034  0.0917 -0.1204  1.2647
 7891SOL     OW24960   1.247   2.543   4.647  0.0963 -0.0463 -0.2051
 7891SOL    HW124961   1.206   2.587   4.572  0.8366 -0.1593 -0.6862
 7891SOL    HW224962   1.338   2.529   4.620  0.7738  1.2213  1.2732
 7892SOL     OW24963   2.246   0.712   8.098  0.2158  0.0626 -0.4246
 7892SOL    HW124964   2.313   0.723   8.166 -1.6323  0.8674  1.3761
 7892SOL    HW224965   2.245   0.618   8.081  1.9321  0.0514 -0.6854
 7893SOL     OW24966   2.764   0.682   0.946  0.5383  0.0841 -0.3211
 7893SOL    HW124967   2.742   0.597   0.985 -0.2295  0.6123  0.4368
 7893SOL    HW224968   2.858   0.690   0.958  0.7816 -1.0791 -1.2751
 7894SOL     OW24969   7.181   2.949   4.623 -0.2682 -0.0977 -0.4657
 7894SOL    HW124970   7.156   2.865   4.583 -0.9545  0.1452 -0.5579
 7894SOL    HW224971   7.175   2.934   4.717  0.1993 -0.3227 -0.4666
 7895SOL     OW24972   4.623   8.705   2.090  0.1964  0.4774  0.0744
 7895SOL    HW124973   4.678   8.628   2.076  1.0566  1.0582  0.1433
 7895SOL    HW224974   4.542   8.686   2.042 -0.6616 -1.5365  2.1611
 7896SOL     OW24975   2.238   6.460   6.160 -0.4821 -0.3424 -0.0034
 7896SOL    HW124976   2.201   6.374   6.182 -0.1780 -0.7283 -0.9366
 7896SOL    HW224977   2.163   6.519   6.161 -1.1908 -1.1236 -1.9210
 7897SOL     OW24978   7.698   3.961   6.189 -0.5819  0.2600 -0.1458
 7897SOL    HW124979   7.712   3.981   6.282  3.6612 -2.7512  0.1601
 7897SOL    HW224980   7.731   4.037   6.142  0.5431  0.3914  0.8401
 7898SOL     OW24981   0.862   6.527   5.534 -0.2780  0.0729 -0.0309
 7898SOL    HW124982   0.823   6.592   5.475 -0.5360  1.4715  1.5871
 7898SOL    HW224983   0.933   6.574   5.577  1.0231 -1.4416 -0.4442
 7899SOL     OW24984   0.438   5.548   2.040  0.3661 -0.4279  0.0776
 7899SOL    HW124985   0.463   5.469   1.993  1.8192  0.3639 -0.5790
 7899SOL    HW224986   0.461   5.530   2.131 -1.3782 -1.5434  0.3250
 7900SOL     OW24987   0.813   0.471   5.262  0.1561 -0.6101  0.3093
 7900SOL    HW124988   0.904   0.451   5.283 -0.1152 -0.8501  1.3461
 7900SOL    HW224989   0.802   0.563   5.290  0.7391  0.2784 -2.1617
 7901SOL     OW24990   5.025   6.675   5.485 -0.0783  0.2216 -0.1129
 7901SOL    HW124991   4.953   6.737   5.473 -0.0286  1.0387  2.9043
 7901SOL    HW224992   5.103   6.731   5.491  0.7256 -0.5769 -2.2686
 7902SOL     OW24993   6.485   6.273   4.595 -0.4367  0.2835 -0.3632
 7902SOL    HW124994   6.556   6.294   4.535  0.3943  1.4809  0.9799
 7902SOL    HW224995   6.464   6.356   4.638 -2.5861 -0.0550 -0.6231
 7903SOL     OW24996   4.051   7.636   7.360  0.2832  0.4922 -0.8938
 7903SOL    HW124997   3.975   7.581   7.380  0.7261  0.3039  0.3408
 7903SOL    HW224998   4.017   7.726   7.363 -0.0431  0.3804 -1.1154
 7904SOL     OW24999   3.701   7.298   5.475 -0.2741  0.0953 -0.3923
 7904SOL    HW125000   3.676   7.226   5.532 -0.4883  0.6989  0.2887
 7904SOL    HW225001   3.796   7.291   5.467 -0.2620 -0.0800 -0.0938
 7905SOL     OW25002   7.964   3.492   0.365 -0.8771  0.1233  0.7593
 7905SOL    HW125003   7.954   3.511   0.272  0.5328  2.8655  1.0667
 7905SOL    HW225004   7.912   3.558   0.410 -1.3459 -1.0005  1.9677
 7906SOL     OW25005   4.357   5.993   6.001  0.3939 -0.0120 -0.8888
 7906SOL    HW125006   4.324   6.075   5.964  0.8237  0.6153  0.0680
 7906SOL    HW225007   4.423   6.020   6.064  0.8935 -1.1290 -0.9007
 7907SOL     OW25008   3.364   6.178   7.058 -0.0268  0.3817 -0.4238
 7907SOL    HW125009   3.388   6.204   7.147  2.5277  1.9871 -1.4584
 7907SOL    HW225010   3.351   6.261   7.011 -1.1886 -0.4189 -1.6069
 7908SOL     OW25011   5.732   1.860   6.069  0.1030  0.4682 -0.4569
 7908SOL    HW125012   5.793   1.810   6.014 -1.2638 -1.8952  0.0387
 7908SOL    HW225013   5.788   1.898   6.137  1.5034  1.5505 -2.1255
 7909SOL     OW25014   7.606   8.253   2.158  0.6739 -0.0213  0.3526
 7909SOL    HW125015   7.630   8.346   2.164  2.5085 -0.4287  0.0004
 7909SOL    HW225016   7.575   8.242   2.068  1.4366  0.0569  0.0741
 7910SOL     OW25017   4.615   7.506   1.348  0.3684 -0.0113 -0.3943
 7910SOL    HW125018   4.695   7.504   1.401 -0.0124  2.9528  0.4820
 7910SOL    HW225019   4.626   7.583   1.292 -0.5641 -1.3603 -2.5905
 7911SOL     OW25020   2.133   6.018   4.278  0.1143  0.0545 -0.0862
 7911SOL    HW125021   2.116   6.026   4.372  0.1874  0.6592 -0.1222
 7911SOL    HW225022   2.048   5.998   4.240 -0.5723  2.7942 -0.2381
 7912SOL     OW25023   0.877   2.112   6.678 -0.4789  0.1569 -0.0805
 7912SOL    HW125024   0.905   2.126   6.588  0.0801  2.0928  0.3408
 7912SOL    HW225025   0.814   2.040   6.674  1.1392 -1.2296 -1.6997
 7913SOL     OW25026   6.620   2.244   3.778  0.2354 -0.0662 -0.2182
 7913SOL    HW125027   6.619   2.314   3.713 -0.6416  0.1587  0.0216
 7913SOL    HW225028   6.561   2.178   3.743 -1.0168  0.4821  0.7851
 7914SOL     OW25029   0.623   7.418   4.872 -0.1687 -0.1057  0.2188
 7914SOL    HW125030   0.565   7.475   4.923 -2.6902 -1.7228 -0.6459
 7914SOL    HW225031   0.579   7.410   4.787  1.5976 -1.0697 -0.6442
 7915SOL     OW25032   6.048   8.333   6.266 -0.0764  0.3890 -0.2412
 7915SOL    HW125033   5.957   8.303   6.276 -0.0998  0.0945 -1.2253
 7915SOL    HW225034   6.055   8.357   6.174  0.8476  0.4129 -0.1751
 7916SOL     OW25035   1.166   6.459   5.984  0.0024 -0.0782  0.1951
 7916SOL    HW125036   1.107   6.485   6.055  0.3878 -0.6729  0.7428
 7916SOL    HW225037   1.251   6.449   6.026 -0.1303 -2.2582  0.0501
 7917SOL     OW25038   2.329   0.023   8.511 -0.0283  0.3735  0.0499
 7917SOL    HW125039   2.357   0.011   8.420 -0.6014  0.5967 -0.1647
 7917SOL    HW225040   2.243  -0.018   8.515  0.7203 -1.1938  0.9511
 7918SOL     OW25041   6.503   3.062   3.401 -0.3050 -0.0770 -0.1909
 7918SOL    HW125042   6.528   3.071   3.309  1.0603 -0.3307  0.1330
 7918SOL    HW225043   6.571   3.109   3.449 -1.6917  1.1755  0.6471
 7919SOL     OW25044   8.558   5.174   5.530  0.2474 -0.4436 -0.8063
 7919SOL    HW125045   8.561   5.269   5.541 -0.3940 -0.7317  3.5841
 7919SOL    HW225046   8.473   5.157   5.490 -0.3908  0.7766 -0.0116
 7920SOL     OW25047   8.659   6.017   7.530 -0.2573 -0.1040  0.3396
 7920SOL    HW125048   8.614   6.102   7.530 -0.6506 -0.2760  1.7922
 7920SOL    HW225049   8.589   5.953   7.544  0.1227 -0.6152 -0.0713
 7921SOL     OW25050   7.587   1.398   4.775  0.1274  0.5446  0.2114
 7921SOL    HW125051   7.567   1.438   4.860  2.1083  1.9412  0.0944
 7921SOL    HW225052   7.649   1.328   4.795  1.4776  1.5954 -0.1243
 7922SOL     OW25053   0.760   6.621   0.148  0.2131 -0.0693  0.3770
 7922SOL    HW125054   0.769   6.534   0.187 -1.3304 -0.5909 -0.3451
 7922SOL    HW225055   0.666   6.629   0.129  0.0203  2.4756  2.0347
 7923SOL     OW25056   2.670   6.017   1.752 -0.5117  0.2346  0.1125
 7923SOL    HW125057   2.725   6.068   1.693 -0.4715  1.9945  1.5844
 7923SOL    HW225058   2.582   6.051   1.739 -0.6184  0.1373  0.5483
 7924SOL     OW25059   7.196   1.993   0.114 -0.2355 -0.5741 -0.0947
 7924SOL    HW125060   7.162   1.957   0.196  0.0410  0.1775  0.3611
 7924SOL    HW225061   7.289   2.009   0.131 -0.2964  0.1196 -0.3563
 7925SOL     OW25062   5.801   5.339   1.500  0.3252  0.3339  0.0614
 7925SOL    HW125063   5.767   5.265   1.449  0.3741 -0.2438  0.8403
 7925SOL    HW225064   5.895   5.320   1.508  0.2942  0.3540  0.4718
 7926SOL     OW25065   7.522   4.890   7.555 -0.8161  0.1096 -0.2793
 7926SOL    HW125066   7.456   4.952   7.587 -1.1376 -1.1815  1.7120
 7926SOL    HW225067   7.489   4.862   7.470 -2.1163  0.5610  0.0539
 7927SOL     OW25068   4.232   3.749   5.819 -0.0011  0.2601 -0.2848
 7927SOL    HW125069   4.256   3.829   5.772 -0.8876  0.3961 -0.5311
 7927SOL    HW225070   4.306   3.690   5.807  0.5619  0.9510 -0.3077
 7928SOL     OW25071   0.867   2.227   4.916  0.3613 -0.5197  0.1780
 7928SOL    HW125072   0.836   2.203   5.003  1.7367 -0.4877  0.7148
 7928SOL    HW225073   0.865   2.146   4.866  1.1232 -0.9170  0.7600
 7929SOL     OW25074   4.120   5.729   2.412  0.0501  0.0462  0.8779
 7929SOL    HW125075   4.040   5.752   2.459 -0.5728 -1.1379  0.4361
 7929SOL    HW225076   4.130   5.798   2.347 -2.4474 -1.4060 -1.2305
 7930SOL     OW25077   0.262   1.909   0.361 -0.6715 -0.6803  0.4621
 7930SOL    HW125078   0.261   1.830   0.414  0.3850  0.7493  2.7971
 7930SOL    HW225079   0.175   1.947   0.373 -0.3829 -0.2713  1.4251
 7931SOL     OW25080   5.159   8.602   1.703 -0.2013  0.5058 -0.2593
 7931SOL    HW125081   5.231   8.540   1.718 -0.8712 -0.1118  0.4977
 7931SOL    HW225082   5.088   8.549   1.667 -1.2124  0.5646  1.5368
 7932SOL     OW25083   5.870   7.709   0.838  0.3091  0.3876 -0.2880
 7932SOL    HW125084   5.950   7.752   0.811 -1.1787  2.7836 -1.1874
 7932SOL    HW225085   5.858   7.637   0.776  1.5523  0.2058 -0.3278
 7933SOL     OW25086   6.604   0.535   5.600 -0.4879 -0.2765 -0.1253
 7933SOL    HW125087   6.559   0.462   5.557 -2.2502 -0.2760  1.5687
 7933SOL    HW225088   6.615   0.506   5.690 -0.0215  1.0291  0.2551
 7934SOL     OW25089   1.747   0.807   7.095 -0.3282  0.8198  0.0915
 7934SOL    HW125090   1.834   0.846   7.092  0.0881 -0.0935 -0.1640
 7934SOL    HW225091   1.696   0.867   7.149 -0.3692  2.9386 -2.1389
 7935SOL     OW25092   0.571   4.601   8.356 -0.0676  0.7670  0.1771
 7935SOL    HW125093   0.523   4.681   8.379  1.6447  2.5795 -2.2044
 7935SOL    HW225094   0.662   4.628   8.352  1.1625 -2.2772  3.1441
 7936SOL     OW25095   4.458   8.627   8.200 -0.2386 -0.5049 -0.8431
 7936SOL    HW125096   4.453   8.721   8.179  0.0215 -0.6374 -1.5469
 7936SOL    HW225097   4.444   8.623   8.294  2.0968  0.4652 -0.3741
 7937SOL     OW25098   7.419   6.683   2.196 -0.0633 -0.4392  0.1546
 7937SOL    HW125099   7.355   6.738   2.149 -0.6883 -0.9142  0.4275
 7937SOL    HW225100   7.469   6.745   2.249 -0.7331 -0.1248  0.4365
 7938SOL     OW25101   1.942   3.061   4.017 -0.0678 -0.5738 -0.4437
 7938SOL    HW125102   2.019   3.102   4.055  0.8820 -1.5839 -1.2306
 7938SOL    HW225103   1.934   3.099   3.930 -0.5161 -0.4077 -0.3320
 7939SOL     OW25104   8.642   7.950   2.853  0.0324 -0.0999  0.3385
 7939SOL    HW125105   8.626   7.879   2.791 -1.4970 -0.6083  1.2514
 7939SOL    HW225106   8.663   8.026   2.799  0.5400 -0.9565 -0.6963
 7940SOL     OW25107   4.264   0.774   2.424 -0.6023  0.0476  0.1844
 7940SOL    HW125108   4.239   0.778   2.516  0.4299 -0.7930  0.5139
 7940SOL    HW225109   4.195   0.722   2.383 -0.1974 -1.0229  0.8148
 7941SOL     OW25110   6.073   2.341   0.256  0.7416 -0.1789  0.2150
 7941SOL    HW125111   6.103   2.359   0.346  2.2765 -1.7267  0.0691
 7941SOL    HW225112   6.153   2.346   0.203  0.1858 -1.1833 -0.7609
 7942SOL     OW25113   0.302   7.444   2.800 -0.2392 -0.6731 -0.1851
 7942SOL    HW125114   0.397   7.446   2.793 -0.3695  0.2572 -2.3344
 7942SOL    HW225115   0.270   7.441   2.710 -2.2562 -1.2938  0.4811
 7943SOL     OW25116   0.105   1.383   4.467  0.0979 -0.6708  0.1746
 7943SOL    HW125117   0.047   1.309   4.486  0.4398 -1.0446 -0.2127
 7943SOL    HW225118   0.180   1.344   4.423  0.2192 -0.0692 -0.1630
 7944SOL     OW25119   3.057   2.951   6.762  0.4753 -0.0167  0.1780
 7944SOL    HW125120   3.042   2.858   6.743  0.5233 -0.1884  0.9182
 7944SOL    HW225121   3.152   2.959   6.767  0.5602  0.4507 -1.5976
 7945SOL     OW25122   2.780   2.311   1.522  0.2835  0.6449  0.1725
 7945SOL    HW125123   2.692   2.283   1.498  1.2693 -4.4550  1.2465
 7945SOL    HW225124   2.829   2.312   1.439  0.1311 -1.0181  0.0268
 7946SOL     OW25125   5.277   3.693   4.104 -0.0283 -0.0266 -0.6308
 7946SOL    HW125126   5.271   3.783   4.071  0.0746  0.0804 -0.3611
 7946SOL    HW225127   5.198   3.650   4.073 -0.3565  0.3167 -0.2767
 7947SOL     OW25128   8.225   0.588   3.999  0.2534 -0.1602  0.7707
 7947SOL    HW125129   8.213   0.682   4.012  3.0580  0.1893  1.5404
 7947SOL    HW225130   8.295   0.582   3.934 -1.5826 -1.8063 -1.1950
 7948SOL     OW25131   1.063   4.530   3.208  0.3633  0.3842  0.6390
 7948SOL    HW125132   1.120   4.453   3.204 -1.6231 -1.1922  0.8292
 7948SOL    HW225133   1.086   4.581   3.130  0.4068 -1.4215 -0.5912
 7949SOL     OW25134   5.247   2.635   0.118 -0.0434 -0.1699 -0.1925
 7949SOL    HW125135   5.208   2.548   0.109  0.9924 -0.6768  0.0613
 7949SOL    HW225136   5.176   2.695   0.098 -1.0343 -1.0567  0.5325
 7950SOL     OW25137   7.295   6.673   7.959  0.5386 -0.2767 -0.1747
 7950SOL    HW125138   7.255   6.598   7.913  0.2903  0.4777 -1.2211
 7950SOL    HW225139   7.260   6.668   8.048  0.4801 -1.3706 -0.2448
 7951SOL     OW25140   4.967   0.758   7.583  0.2645 -0.0627 -0.4149
 7951SOL    HW125141   4.910   0.764   7.507 -0.5300 -1.8201 -0.0076
 7951SOL    HW225142   5.052   0.790   7.552 -0.2823  0.1716 -1.7421
 7952SOL     OW25143   1.699   6.569   2.105  0.3836 -0.1670  0.0672
 7952SOL    HW125144   1.640   6.519   2.049  0.3066 -0.7843  0.6778
 7952SOL    HW225145   1.765   6.605   2.046  1.0518 -1.8640 -0.2730
 7953SOL     OW25146   2.881   4.679   3.953 -0.3742  0.0572  0.6259
 7953SOL    HW125147   2.943   4.720   4.014 -0.8978  1.2375  0.3791
 7953SOL    HW225148   2.932   4.666   3.873 -0.2113  0.2356  0.6993
 7954SOL     OW25149   6.807   5.860   7.613  0.4516  0.7812 -0.2369
 7954SOL    HW125150   6.846   5.792   7.668 -1.6660  0.2066  0.6413
 7954SOL    HW225151   6.727   5.820   7.578 -0.6851  2.6951  0.0571
 7955SOL     OW25152   4.153   4.580   3.861 -0.7195 -0.1557 -0.0747
 7955SOL    HW125153   4.206   4.504   3.837  1.1669  0.6003  1.4918
 7955SOL    HW225154   4.090   4.547   3.925  0.3046 -0.3781  0.8471
 7956SOL     OW25155   4.739   4.379   2.181 -0.5985  0.0782  0.1239
 7956SOL    HW125156   4.667   4.389   2.243 -1.0696 -2.0716  0.0136
 7956SOL    HW225157   4.702   4.409   2.097 -0.8800  0.3776  0.3537
 7957SOL     OW25158   7.868   5.576   2.838 -0.2610 -0.9257 -0.4253
 7957SOL    HW125159   7.806   5.539   2.901 -0.8941  1.0527  0.2145
 7957SOL    HW225160   7.814   5.629   2.780  0.6858 -0.1063 -0.5923
 7958SOL     OW25161   0.063   8.246   0.952 -0.2073 -0.1403  0.0179
 7958SOL    HW125162  -0.010   8.189   0.930 -0.4037 -0.7778  2.0863
 7958SOL    HW225163   0.125   8.235   0.879 -0.4467 -2.6666  0.1086
 7959SOL     OW25164   1.213   5.121   3.578 -0.6668 -0.8377 -0.1344
 7959SOL    HW125165   1.151   5.052   3.601 -3.0556  0.9517 -0.7392
 7959SOL    HW225166   1.177   5.160   3.498  0.7680  0.8683 -0.0246
 7960SOL     OW25167   6.830   7.790   0.290  0.3391 -0.7318  0.7272
 7960SOL    HW125168   6.821   7.695   0.290 -3.2605 -0.5226  0.4259
 7960SOL    HW225169   6.895   7.808   0.358  0.4712 -3.3254  1.3901
 7961SOL     OW25170   7.598   2.728   5.128 -0.1172 -0.0938  0.6672
 7961SOL    HW125171   7.566   2.651   5.082  0.6510  1.0148 -1.8989
 7961SOL    HW225172   7.688   2.740   5.095  0.9314  0.1536  3.3518
 7962SOL     OW25173   5.533   4.376   6.419 -0.6770 -0.1697  0.0574
 7962SOL    HW125174   5.546   4.324   6.339  1.3781  0.5033 -0.1085
 7962SOL    HW225175   5.473   4.323   6.472  3.5445 -4.5131  1.2699
 7963SOL     OW25176   0.099   8.553   5.812 -0.9953  0.9603 -0.4694
 7963SOL    HW125177   0.094   8.630   5.755  1.1036  0.4731 -1.4153
 7963SOL    HW225178   0.131   8.483   5.755 -0.4814  0.0132  0.9345
 7964SOL     OW25179   3.028   1.206   0.579  0.3932  0.1520  0.2070
 7964SOL    HW125180   2.952   1.223   0.634  0.1087 -0.2549 -0.0556
 7964SOL    HW225181   3.096   1.177   0.641 -0.2734 -1.4584  0.2468
 7965SOL     OW25182   3.464   3.909   2.643  0.2306  0.3858 -0.6323
 7965SOL    HW125183   3.540   3.947   2.600  1.2320  0.6312  1.2442
 7965SOL    HW225184   3.488   3.907   2.736 -2.9840  2.7833  0.4213
 7966SOL     OW25185   4.330   7.592   7.369 -0.1563 -0.0179 -0.4006
 7966SOL    HW125186   4.235   7.592   7.363 -0.2968 -0.2935  1.2322
 7966SOL    HW225187   4.349   7.649   7.444  0.7321 -2.6720  1.5416
 7967SOL     OW25188   1.876   3.305   4.284 -0.5374 -0.1402  0.2305
 7967SOL    HW125189   1.928   3.287   4.206  0.3528 -0.2681  0.8443
 7967SOL    HW225190   1.842   3.394   4.269  1.1708  0.6065  0.5102
 7968SOL     OW25191   0.883   3.813   5.464 -0.0296 -0.0356 -0.4351
 7968SOL    HW125192   0.844   3.743   5.412 -0.5247 -0.3075  0.2786
 7968SOL    HW225193   0.809   3.860   5.502  0.2872 -0.8028  1.2622
 7969SOL     OW25194   5.578   4.961   1.338  0.1265  0.7189  0.6859
 7969SOL    HW125195   5.605   4.951   1.247 -2.3259  1.8353 -0.2558
 7969SOL    HW225196   5.599   5.053   1.358 -1.3695  1.1358  0.4542
 7970SOL     OW25197   3.222   7.724   1.719 -0.0623 -0.1682  0.4671
 7970SOL    HW125198   3.305   7.733   1.765 -0.8003  0.7051  1.6978
 7970SOL    HW225199   3.246   7.705   1.629  1.4837  0.4741  0.7187
 7971SOL     OW25200   4.966   7.512   3.099  0.0163 -0.3472  0.2700
 7971SOL    HW125201   4.891   7.508   3.158  0.7968 -0.8164  1.2692
 7971SOL    HW225202   5.005   7.598   3.115 -1.3194  0.6714 -1.5859
 7972SOL     OW25203   5.315   0.460   6.340  0.5617 -0.5073  0.7506
 7972SOL    HW125204   5.252   0.427   6.275  0.7177  0.2147  0.2109
 7972SOL    HW225205   5.400   0.434   6.307  0.7047  0.6290  0.1776
 7973SOL     OW25206   4.063   0.293   3.035  0.5176  1.0585  0.2035
 7973SOL    HW125207   4.100   0.217   2.990 -0.7938  0.7180 -0.3681
 7973SOL    HW225208   4.138   0.337   3.074  1.3088 -0.5114  0.5257
 7974SOL     OW25209   6.251   0.913   2.131  1.0302  0.1908 -0.3809
 7974SOL    HW125210   6.271   0.977   2.200  1.2183  0.6900 -0.8909
 7974SOL    HW225211   6.163   0.882   2.152  1.1752  0.1655  0.2110
 7975SOL     OW25212   7.356   6.885   5.467  0.2763  0.0028  0.3337
 7975SOL    HW125213   7.334   6.812   5.409  0.5532 -0.6208  0.9926
 7975SOL    HW225214   7.351   6.962   5.411  2.2572 -0.7436 -1.0135
 7976SOL     OW25215   6.252   1.978   0.243  0.1378 -0.2087 -0.0134
 7976SOL    HW125216   6.269   1.944   0.156 -0.2818 -1.7299  0.4769
 7976SOL    HW225217   6.295   1.917   0.302  1.0468  1.2083  0.8398
 7977SOL     OW25218   6.700   1.603   6.319  0.0924 -0.1192 -0.3956
 7977SOL    HW125219   6.616   1.570   6.287 -0.1511 -0.9857  1.0483
 7977SOL    HW225220   6.685   1.697   6.331 -0.2326 -0.0202 -1.4231
 7978SOL     OW25221   1.070   5.405   1.223  0.1455  0.5921 -0.2416
 7978SOL    HW125222   1.082   5.493   1.259 -0.7259  0.1954  1.0996
 7978SOL    HW225223   1.008   5.363   1.283  1.4068 -1.3210 -0.1872
 7979SOL     OW25224   1.535   8.137   4.709  0.3870 -0.0140 -0.0530
 7979SOL    HW125225   1.504   8.155   4.798  0.0819 -1.8292  0.2382
 7979SOL    HW225226   1.455   8.130   4.657  0.5175  0.0153 -0.2552
 7980SOL     OW25227   6.063   6.868   7.480  0.2260  0.2636  0.1330
 7980SOL    HW125228   6.005   6.812   7.429  0.2800  0.2927  0.0384
 7980SOL    HW225229   6.009   6.944   7.504  0.4428  0.6632 -0.6188
 7981SOL     OW25230   5.335   1.114   8.179 -0.2085  0.1348  1.2398
 7981SOL    HW125231   5.382   1.096   8.261  0.3242 -0.6694  0.7703
 7981SOL    HW225232   5.317   1.027   8.143  0.9730  0.4820 -0.2775
 7982SOL     OW25233   0.839   5.806   1.091 -0.4924 -0.3654  0.1644
 7982SOL    HW125234   0.910   5.848   1.043  1.2127  0.1632  2.8706
 7982SOL    HW225235   0.883   5.762   1.164 -2.6415 -3.2443 -0.1022
 7983SOL     OW25236   8.343   2.298   1.658  0.0457  0.0288 -0.2657
 7983SOL    HW125237   8.420   2.351   1.638  0.3863 -0.5522 -0.5139
 7983SOL    HW225238   8.298   2.346   1.728  0.7913  0.2198  0.0886
 7984SOL     OW25239   7.045   3.347   1.562  0.6477 -0.3598  0.3861
 7984SOL    HW125240   7.076   3.380   1.477  0.9633 -1.0243  0.2403
 7984SOL    HW225241   7.118   3.361   1.621  0.8198 -0.8852  0.3008
 7985SOL     OW25242   5.784   5.633   6.908 -0.0180 -0.2250  0.1331
 7985SOL    HW125243   5.750   5.717   6.877  0.9131 -0.3040 -1.1596
 7985SOL    HW225244   5.711   5.595   6.957 -1.0689  0.5544 -0.7604
 7986SOL     OW25245   1.983   1.028   5.088 -0.2003  0.1231 -0.4510
 7986SOL    HW125246   2.070   0.987   5.091 -1.0451 -1.7494  0.6950
 7986SOL    HW225247   1.985   1.092   5.159 -0.1584 -0.9011  0.5087
 7987SOL     OW25248   8.305   2.516   5.008 -0.2004 -0.3963  0.4503
 7987SOL    HW125249   8.286   2.469   5.089 -1.2312 -0.2072  0.3353
 7987SOL    HW225250   8.270   2.604   5.023  1.0078  0.1214  0.3727
 7988SOL     OW25251   6.176   4.306   1.610 -0.1003  0.0216 -0.0789
 7988SOL    HW125252   6.134   4.224   1.637 -2.2470  1.2292  0.4177
 7988SOL    HW225253   6.169   4.363   1.686 -1.0609  1.5506 -1.2413
 7989SOL     OW25254   4.263   5.884   1.155  0.0302  0.2935  0.6092
 7989SOL    HW125255   4.172   5.911   1.145 -0.5179 -1.7900 -0.5979
 7989SOL    HW225256   4.291   5.859   1.067  1.0010 -1.2480  1.2959
 7990SOL     OW25257   5.915   2.800   2.870 -0.3448 -0.1037  0.4077
 7990SOL    HW125258   5.907   2.806   2.775 -1.9840  0.7585  0.5619
 7990SOL    HW225259   5.947   2.886   2.897 -1.1450  0.1114  0.7188
 7991SOL     OW25260   7.495   7.078   7.889 -0.2024  0.2004  0.6268
 7991SOL    HW125261   7.453   7.112   7.810 -0.9533  0.2241  1.0277
 7991SOL    HW225262   7.424   7.074   7.954 -0.0316 -1.5833  0.7588
 7992SOL     OW25263   0.145   7.445   2.561  0.0966 -0.6540 -1.0218
 7992SOL    HW125264   0.175   7.517   2.504 -0.7033 -0.3390 -1.0490
 7992SOL    HW225265   0.194   7.369   2.530  0.7609 -0.1793 -1.1662
 7993SOL     OW25266   6.169   0.742   7.951 -0.0690 -0.4150  0.2828
 7993SOL    HW125267   6.078   0.745   7.921  0.6163  0.1768 -1.9625
 7993SOL    HW225268   6.209   0.820   7.914  1.0371  0.1710  2.5296
 7994SOL     OW25269   7.335   4.224   4.414 -0.5462 -0.5839  0.2940
 7994SOL    HW125270   7.369   4.142   4.448 -3.2597 -2.1857 -0.4833
 7994SOL    HW225271   7.409   4.266   4.370  0.8770 -2.7143  0.5476
 7995SOL     OW25272   2.182   3.038   2.453  0.3840  0.0280  0.5490
 7995SOL    HW125273   2.224   3.124   2.452 -0.6567  0.5981  2.2681
 7995SOL    HW225274   2.094   3.054   2.421  0.1805 -0.3972  0.8846
 7996SOL     OW25275   5.814   5.105   2.012  0.4988  0.0981  0.0972
 7996SOL    HW125276   5.723   5.078   2.001  0.4469 -0.3011  1.3194
 7996SOL    HW225277   5.812   5.201   2.005 -0.0442  0.1010  0.2815
 7997SOL     OW25278   1.627   8.292   3.432  0.3143  0.1243  0.0724
 7997SOL    HW125279   1.660   8.295   3.522  0.7411 -0.3356 -0.0652
 7997SOL    HW225280   1.599   8.381   3.413  1.7656  0.5985  0.0860
 7998SOL     OW25281   8.224   4.856   1.338 -0.1893 -0.2094 -0.2159
 7998SOL    HW125282   8.184   4.943   1.327  1.3522  0.4934 -0.5807
 7998SOL    HW225283   8.310   4.874   1.376  1.0007 -1.3865 -2.1880
 7999SOL     OW25284   0.845   5.337   5.016 -0.2319 -0.3771  0.2973
 7999SOL    HW125285   0.894   5.260   5.047 -0.6987  0.5107  3.6420
 7999SOL    HW225286   0.755   5.307   5.009 -0.0468 -0.7142 -0.8406
 8000SOL     OW25287   1.636   1.174   7.060 -0.6448  0.1666 -0.1803
 8000SOL    HW125288   1.646   1.129   7.143 -1.6632  0.7815  0.2970
 8000SOL    HW225289   1.542   1.168   7.040 -1.1313  3.1934  0.6239
 8001SOL     OW25290   6.876   2.688   7.396  0.2327 -0.3008  0.0398
 8001SOL    HW125291   6.935   2.614   7.384  0.2472 -0.5567  1.4801
 8001SOL    HW225292   6.911   2.735   7.472 -1.3214 -0.4033  0.8823
 8002SOL     OW25293   6.746   4.259   6.819  0.5251  0.3183  0.2922
 8002SOL    HW125294   6.779   4.280   6.731  0.4100 -1.0902 -0.1303
 8002SOL    HW225295   6.657   4.228   6.804  0.4317  0.2609  0.9360
 8003SOL     OW25296   7.637   3.558   1.315  0.1620  0.3278 -0.3437
 8003SOL    HW125297   7.714   3.585   1.265  1.5313 -1.0035  0.9660
 8003SOL    HW225298   7.616   3.470   1.282  0.1109  0.0892  0.3051
 8004SOL     OW25299   2.521   4.274   6.304  0.3341 -0.2086 -0.2099
 8004SOL    HW125300   2.548   4.185   6.284  0.2159 -0.4490  0.6949
 8004SOL    HW225301   2.597   4.314   6.346  1.2669  0.8929 -2.7244
 8005SOL     OW25302   1.891   5.599   7.451  0.1288  0.2876  0.1862
 8005SOL    HW125303   1.852   5.678   7.414 -2.6054 -1.4258 -0.8834
 8005SOL    HW225304   1.894   5.615   7.546 -1.9514  1.0602  0.1635
 8006SOL     OW25305   1.625   5.927   2.271  0.8709 -0.2199 -0.2159
 8006SOL    HW125306   1.569   5.993   2.312  0.7490 -0.2170 -0.3862
 8006SOL    HW225307   1.679   5.976   2.209  2.8068  0.1704  1.6738
 8007SOL     OW25308   7.174   7.446   4.164 -0.4263  0.4964 -0.4315
 8007SOL    HW125309   7.138   7.358   4.151  0.3499  0.0644  0.2543
 8007SOL    HW225310   7.141   7.473   4.249 -0.9933  1.0466 -0.8169
 8008SOL     OW25311   8.330   8.092   3.653  0.1276  0.3331 -0.0074
 8008SOL    HW125312   8.311   8.016   3.599 -0.5674  0.8171 -0.4475
 8008SOL    HW225313   8.272   8.161   3.621 -0.1551  0.6941  1.2103
 8009SOL     OW25314   2.398   4.508   8.091  0.0103 -0.3637 -0.3393
 8009SOL    HW125315   2.435   4.567   8.026  0.8003  0.0901  0.4935
 8009SOL    HW225316   2.445   4.529   8.172 -1.9246  0.0931  0.7356
 8010SOL     OW25317   3.036   0.150   4.388 -0.1190 -0.2212 -0.2951
 8010SOL    HW125318   3.016   0.207   4.314 -0.2721  0.5697  0.3500
 8010SOL    HW225319   2.987   0.070   4.370 -3.6697  1.4531  1.0003
 8011SOL     OW25320   6.823   2.321   7.130 -0.5252  0.3383  0.5130
 8011SOL    HW125321   6.780   2.240   7.102  2.6184 -0.9883 -0.9108
 8011SOL    HW225322   6.829   2.374   7.050  2.2816 -0.4725  0.0824
 8012SOL     OW25323   5.501   6.580   1.437 -0.0049 -0.0934 -0.4745
 8012SOL    HW125324   5.558   6.506   1.456 -0.4903 -0.2249  0.5094
 8012SOL    HW225325   5.527   6.648   1.499  1.1277  0.9603 -2.0351
 8013SOL     OW25326   0.035   3.583   4.848  0.3799 -0.3454 -0.3987
 8013SOL    HW125327   0.100   3.520   4.881  1.1740 -0.1526 -1.5446
 8013SOL    HW225328   0.001   3.625   4.927  0.8670 -1.2112  0.2958
 8014SOL     OW25329   2.858   2.489   6.975 -0.7276 -0.0944 -0.1269
 8014SOL    HW125330   2.889   2.433   6.905  0.0497 -0.7274  0.6975
 8014SOL    HW225331   2.837   2.572   6.932  0.9527 -0.0464 -0.9197
 8015SOL     OW25332   6.214   2.413   1.255 -0.0640 -0.1606  0.3820
 8015SOL    HW125333   6.135   2.370   1.222 -0.7578 -0.5451  2.3855
 8015SOL    HW225334   6.183   2.496   1.291  1.0060  1.3136 -1.8680
 8016SOL     OW25335   3.497   3.703   3.892 -0.2733  0.0830  0.3473
 8016SOL    HW125336   3.591   3.696   3.902 -0.2625 -1.8724 -0.5731
 8016SOL    HW225337   3.483   3.787   3.849  1.3323 -0.7747 -2.0432
 8017SOL     OW25338   1.494   6.058   1.866  0.0335 -0.3203 -0.0139
 8017SOL    HW125339   1.537   5.996   1.807  1.3161  0.0603  0.4956
 8017SOL    HW225340   1.438   6.003   1.921  0.1031 -0.8661 -0.4788
 8018SOL     OW25341   1.853   0.239   0.138  0.2633  0.2230  0.3426
 8018SOL    HW125342   1.920   0.308   0.141  0.3413  0.1484  0.3161
 8018SOL    HW225343   1.842   0.221   0.045  0.9772 -0.5139  0.3883
 8019SOL     OW25344   8.495   5.374   5.987 -0.1931  0.1266 -0.3200
 8019SOL    HW125345   8.500   5.451   6.043 -1.8524  0.0165  0.0086
 8019SOL    HW225346   8.545   5.399   5.908  0.6168  0.9357  0.4221
 8020SOL     OW25347   2.687   6.518   2.184 -0.3595  0.3224 -0.0923
 8020SOL    HW125348   2.601   6.487   2.159 -0.3226 -0.9630  1.2765
 8020SOL    HW225349   2.685   6.523   2.280  1.2642 -0.3825  0.0264
 8021SOL     OW25350   2.600   0.863   1.627  0.1885 -0.2101  0.2381
 8021SOL    HW125351   2.647   0.780   1.642  1.4227  0.3710 -0.2742
 8021SOL    HW225352   2.562   0.883   1.712  1.9630 -0.0737  1.0539
 8022SOL     OW25353   8.475   4.508   0.038 -0.4131 -0.5614 -0.2335
 8022SOL    HW125354   8.453   4.601   0.033 -0.6335 -0.5946  0.1382
 8022SOL    HW225355   8.512   4.488  -0.048 -0.6711 -0.2100 -0.4284
 8023SOL     OW25356   5.660   7.168   4.086  0.3079 -0.0887 -0.0649
 8023SOL    HW125357   5.575   7.190   4.126  0.8169  1.1094  0.4337
 8023SOL    HW225358   5.717   7.151   4.161  1.0633  1.3510 -0.2717
 8024SOL     OW25359   3.029   8.091   0.666  0.0787  0.4457 -0.5168
 8024SOL    HW125360   2.965   8.150   0.706 -0.0324 -0.6376  1.0094
 8024SOL    HW225361   2.976   8.018   0.634  0.4198  0.1875 -0.4904
 8025SOL     OW25362   3.628   6.780   0.407 -0.3310  0.0632 -0.6068
 8025SOL    HW125363   3.590   6.744   0.487  0.0532 -1.1038 -0.9338
 8025SOL    HW225364   3.567   6.849   0.380 -0.8433 -0.0358  0.2788
 8026SOL     OW25365   4.669   5.128   1.274  0.4993  0.1576  0.1544
 8026SOL    HW125366   4.762   5.129   1.296  0.8645 -0.3676 -1.2318
 8026SOL    HW225367   4.653   5.214   1.234  1.3314 -0.9974 -2.9663
 8027SOL     OW25368   6.848   0.042   2.258 -0.1552 -0.2620  0.0024
 8027SOL    HW125369   6.882  -0.037   2.299 -1.4097 -1.0993 -0.4864
 8027SOL    HW225370   6.925   0.093   2.235  0.6434 -0.9247  1.1513
 8028SOL     OW25371   0.001   0.495   3.341 -0.1257 -0.2657 -0.1252
 8028SOL    HW125372  -0.016   0.511   3.248  0.8252 -0.1260 -0.2860
 8028SOL    HW225373   0.096   0.482   3.346 -0.0243  0.7261  0.9687
 8029SOL     OW25374   0.221   6.161   8.358 -0.1412  0.0028 -0.4889
 8029SOL    HW125375   0.196   6.077   8.319 -0.3734 -0.3149  0.3205
 8029SOL    HW225376   0.260   6.210   8.286  0.3629 -0.9540 -0.8954
 8030SOL     OW25377   1.474   2.079   4.762  0.1618 -0.2789  0.6330
 8030SOL    HW125378   1.510   2.010   4.817 -0.0474  0.4292  1.7056
 8030SOL    HW225379   1.379   2.072   4.774  0.0479 -0.7854 -0.4867
 8031SOL     OW25380   4.703   7.093   1.553  0.1380 -0.0674 -0.0771
 8031SOL    HW125381   4.632   7.080   1.490  0.5217  1.6882 -0.9241
 8031SOL    HW225382   4.783   7.092   1.501  0.4977  0.9683  0.4214
 8032SOL     OW25383   5.275   1.076   5.187 -0.3512  0.4647  0.1546
 8032SOL    HW125384   5.297   1.084   5.280 -1.3988 -0.3225  0.4899
 8032SOL    HW225385   5.209   1.007   5.184 -0.6213  0.7536 -1.1340
 8033SOL     OW25386   8.000   5.469   8.178 -0.2567 -0.2966  0.9168
 8033SOL    HW125387   8.008   5.561   8.205  1.8098  0.0927 -0.7428
 8033SOL    HW225388   7.916   5.465   8.132  0.4886  1.3122 -0.7105
 8034SOL     OW25389   0.965   5.947   2.683 -0.3015  0.2493 -0.1690
 8034SOL    HW125390   0.875   5.943   2.651 -0.2319  0.8804 -0.4455
 8034SOL    HW225391   0.959   5.910   2.772 -1.1012  1.5883  0.3686
 8035SOL     OW25392   3.087   5.010   0.160  0.2129  0.4311  0.1680
 8035SOL    HW125393   3.075   5.057   0.243  0.2944  1.1474 -0.2165
 8035SOL    HW225394   2.999   4.978   0.138  0.0692  0.7792  0.2190
 8036SOL     OW25395   4.263   4.119   4.595  0.1124  0.1713  0.2739
 8036SOL    HW125396   4.293   4.048   4.652  0.9782  0.5004  0.2307
 8036SOL    HW225397   4.328   4.124   4.526 -0.4113  0.4348 -0.2113
 8037SOL     OW25398   4.892   8.231   1.844  0.3620  0.0767 -0.1502
 8037SOL    HW125399   4.976   8.187   1.835 -0.2086 -1.2496  0.6652
 8037SOL    HW225400   4.870   8.223   1.937 -1.7434 -1.7420 -0.7140
 8038SOL     OW25401   1.494   3.715   6.524 -0.2241  0.3148 -0.0928
 8038SOL    HW125402   1.471   3.808   6.531  0.8830  0.8109 -2.2276
 8038SOL    HW225403   1.533   3.707   6.437 -0.1657 -2.1421  0.1074
 8039SOL     OW25404   4.417   2.305   6.947  0.2349  0.2005 -0.5304
 8039SOL    HW125405   4.408   2.300   6.852  0.0457  2.1672 -0.6548
 8039SOL    HW225406   4.510   2.288   6.964  0.7188  1.8875 -1.2866
 8040SOL     OW25407   6.687   4.733   8.156 -0.1880 -0.0929  0.2867
 8040SOL    HW125408   6.772   4.731   8.112  0.9599  1.3202  2.2710
 8040SOL    HW225409   6.654   4.643   8.148  1.5982 -0.7358 -0.3550
 8041SOL     OW25410   6.363   1.270   7.072  0.0353 -0.0923 -0.2032
 8041SOL    HW125411   6.322   1.317   7.144 -0.0215 -1.2172  0.5205
 8041SOL    HW225412   6.342   1.323   6.994 -0.9599  0.4825  0.4259
 8042SOL     OW25413   7.320   3.605   6.431 -0.0909 -0.2915  0.0095
 8042SOL    HW125414   7.400   3.596   6.482 -1.2392 -0.3770  1.9216
 8042SOL    HW225415   7.349   3.615   6.341  2.0015 -1.9404  0.4294
 8043SOL     OW25416   2.190   0.418   4.628 -0.1294 -0.0300 -0.3066
 8043SOL    HW125417   2.115   0.359   4.633 -1.8643  1.8678 -2.1056
 8043SOL    HW225418   2.175   0.482   4.697 -0.1636  0.3332 -0.6470
 8044SOL     OW25419   7.061   2.114   0.508  0.5338 -0.0573  0.3747
 8044SOL    HW125420   7.035   2.201   0.479 -1.0747 -0.3944  0.6902
 8044SOL    HW225421   7.077   2.065   0.427 -3.1120 -0.7557 -0.1241
 8045SOL     OW25422   5.653   7.928   6.054  0.4400 -0.0053  0.5063
 8045SOL    HW125423   5.629   8.011   6.012 -0.8671 -0.3691  0.4982
 8045SOL    HW225424   5.656   7.949   6.147  0.0158  0.0452  0.5137
 8046SOL     OW25425   0.245   3.383   8.568 -0.3748 -0.2348  0.4848
 8046SOL    HW125426   0.338   3.368   8.556 -0.7238 -1.1414 -1.4291
 8046SOL    HW225427   0.210   3.397   8.480 -1.9347  0.8382  1.2223
 8047SOL     OW25428   5.410   1.004   8.413  0.1039 -0.2622  0.4571
 8047SOL    HW125429   5.493   0.990   8.460  0.3761 -0.3874 -0.0528
 8047SOL    HW225430   5.364   0.921   8.420  1.6269 -1.5011 -2.3899
 8048SOL     OW25431   8.120   1.096   5.194  0.0907  0.1916 -0.3844
 8048SOL    HW125432   8.144   1.183   5.163  0.0324 -0.4843 -2.5066
 8048SOL    HW225433   8.025   1.092   5.184  0.0437  0.0247  0.0980
 8049SOL     OW25434   0.153   7.355   5.479  0.5038 -0.3963 -0.2511
 8049SOL    HW125435   0.059   7.335   5.480 -0.1037  2.0406 -1.3639
 8049SOL    HW225436   0.192   7.288   5.535 -2.1991 -0.0571  2.3428
 8050SOL     OW25437   7.185   5.772   8.333  0.2089 -0.0617 -0.4485
 8050SOL    HW125438   7.233   5.696   8.366 -1.3987 -0.2143  1.7321
 8050SOL    HW225439   7.094   5.743   8.328 -0.2063  1.2586 -1.1071
 8051SOL     OW25440   8.329   4.418   0.980 -0.0893  0.2640 -0.2745
 8051SOL    HW125441   8.409   4.399   1.029 -0.3940 -0.6503 -0.1080
 8051SOL    HW225442   8.360   4.458   0.899  0.3738  2.6564  0.9980
 8052SOL     OW25443   0.114   5.894   8.005 -0.3174 -0.7496  0.2401
 8052SOL    HW125444   0.138   5.829   7.939  3.0459  0.0078  0.5431
 8052SOL    HW225445   0.097   5.843   8.084  2.4403 -1.3450  0.5214
 8053SOL     OW25446   8.144   4.353   3.857 -0.5446  0.1721 -0.2968
 8053SOL    HW125447   8.179   4.432   3.816  0.6853 -0.0393  0.2948
 8053SOL    HW225448   8.202   4.338   3.932 -1.9547 -0.1867  0.7516
 8054SOL     OW25449   1.818   2.584   5.137  0.4494 -0.2671  0.4197
 8054SOL    HW125450   1.743   2.642   5.128  0.0558 -0.8638 -0.2809
 8054SOL    HW225451   1.870   2.599   5.058  2.3221  1.8231  1.9181
 8055SOL     OW25452   4.605   0.549   8.413  0.3526  0.5106 -0.0218
 8055SOL    HW125453   4.599   0.644   8.405 -0.7458  0.3056 -2.9621
 8055SOL    HW225454   4.695   0.534   8.441  0.6971  2.3949  0.0476
 8056SOL     OW25455   1.044   3.707   8.158 -0.4820  0.2453 -0.4258
 8056SOL    HW125456   1.088   3.633   8.117  0.5258 -0.0375  1.0732
 8056SOL    HW225457   0.954   3.702   8.127  0.1200 -0.1864 -2.2128
 8057SOL     OW25458   5.052   3.060   0.773 -0.3741 -0.3320  0.2145
 8057SOL    HW125459   4.980   3.083   0.713  1.1257  0.0317 -1.5403
 8057SOL    HW225460   5.129   3.054   0.716  1.0485 -0.4350  2.0724
 8058SOL     OW25461   7.417   1.044   4.092 -0.0535  0.3966 -0.4281
 8058SOL    HW125462   7.340   1.097   4.072 -0.1381  0.1465 -0.7793
 8058SOL    HW225463   7.464   1.038   4.009 -0.1278 -0.2086 -0.4300
 8059SOL     OW25464   3.951   4.677   6.627 -0.0117 -0.0418 -0.1607
 8059SOL    HW125465   3.992   4.662   6.542  0.5837 -2.6181  0.4892
 8059SOL    HW225466   3.861   4.644   6.617 -0.6402  1.6561 -0.3688
 8060SOL     OW25467   3.814   3.030   3.405  0.5988  0.2770 -0.2576
 8060SOL    HW125468   3.761   3.103   3.373  0.1410 -1.0543 -2.8115
 8060SOL    HW225469   3.892   3.071   3.441  0.7279  2.0374 -2.3683
 8061SOL     OW25470   2.710   4.400   6.449 -0.3846  0.0245  0.0883
 8061SOL    HW125471   2.714   4.353   6.532  0.7770  2.1925  1.3487
 8061SOL    HW225472   2.713   4.493   6.474  0.3977  0.7316 -2.3937
 8062SOL     OW25473   1.510   1.322   1.180  0.3673 -0.0288 -0.0932
 8062SOL    HW125474   1.442   1.317   1.247 -1.7339  0.4635 -2.0792
 8062SOL    HW225475   1.518   1.415   1.161  1.7232 -0.0685  0.1732
 8063SOL     OW25476   1.357   7.377   6.254 -0.7400 -0.1310  0.0310
 8063SOL    HW125477   1.284   7.315   6.257 -0.3716 -0.5521  0.4637
 8063SOL    HW225478   1.323   7.451   6.204 -1.5643 -0.1967  0.4748
 8064SOL     OW25479   7.736   7.390   2.098 -0.4144 -0.4247 -0.0492
 8064SOL    HW125480   7.827   7.401   2.069 -0.4810 -0.1464 -0.1609
 8064SOL    HW225481   7.683   7.411   2.020 -0.6349  1.6116  0.5717
 8065SOL     OW25482   8.424   0.553   5.581  0.2073 -0.0094 -0.1275
 8065SOL    HW125483   8.411   0.466   5.545 -0.0595  0.0577 -0.1981
 8065SOL    HW225484   8.517   0.573   5.565  0.3704 -0.4429  0.2576
 8066SOL     OW25485   6.924   0.717   2.192 -0.5051  0.0376 -0.0394
 8066SOL    HW125486   6.990   0.667   2.239  1.3702  1.4327 -1.0890
 8066SOL    HW225487   6.934   0.807   2.224 -1.9162  0.2884 -0.2166
 8067SOL     OW25488   1.513   3.742   2.416 -0.4387  0.0506  0.3569
 8067SOL    HW125489   1.507   3.836   2.428 -0.3611 -0.1587  2.3588
 8067SOL    HW225490   1.606   3.723   2.423 -0.6664 -0.5292  3.9477
 8068SOL     OW25491   1.965   6.515   8.495 -0.9487 -0.0756 -0.1978
 8068SOL    HW125492   1.896   6.452   8.475 -2.6409  1.3373  0.9992
 8068SOL    HW225493   1.935   6.597   8.457  1.0123  0.2108 -1.3226
 8069SOL     OW25494   0.695   2.886   5.262  0.4509  0.3844  0.0777
 8069SOL    HW125495   0.769   2.886   5.322 -0.9571 -1.3924  1.9477
 8069SOL    HW225496   0.631   2.826   5.302 -0.5371 -1.0313 -3.2218
 8070SOL     OW25497   7.971   1.966   2.059  0.1248  0.1891 -0.2654
 8070SOL    HW125498   8.030   2.040   2.073 -1.1435  1.3436 -0.7588
 8070SOL    HW225499   8.028   1.889   2.056  1.5112  1.1802 -0.0666
 8071SOL     OW25500   2.367   0.450   5.819  0.4207  0.4562  0.5501
 8071SOL    HW125501   2.363   0.512   5.746  2.2007 -1.4974 -1.3232
 8071SOL    HW225502   2.275   0.429   5.838 -0.0844  1.2196 -0.9292
 8072SOL     OW25503   7.809   7.291   2.629 -0.0623  0.3814 -0.1102
 8072SOL    HW125504   7.852   7.362   2.677 -0.3035  0.5801 -0.1867
 8072SOL    HW225505   7.775   7.333   2.550  0.5705  0.0046 -0.5923
 8073SOL     OW25506   8.305   5.744   2.273  0.4705  0.3082  0.3007
 8073SOL    HW125507   8.266   5.708   2.353 -0.0239  0.0152 -0.0706
 8073SOL    HW225508   8.256   5.824   2.257 -2.1996 -1.5553 -1.8778
 8074SOL     OW25509   2.692   7.306   6.544  0.1149 -0.3052 -0.0944
 8074SOL    HW125510   2.787   7.293   6.548  0.1416 -0.2996 -0.6522
 8074SOL    HW225511   2.680   7.369   6.473 -0.3217 -0.4875 -0.1818
 8075SOL     OW25512   2.924   3.389   1.613  0.0564 -0.0123  0.9584
 8075SOL    HW125513   2.878   3.446   1.552 -0.9580 -1.2611  0.5102
 8075SOL    HW225514   2.990   3.344   1.560  0.7589  0.6226  1.2804
 8076SOL     OW25515   5.614   2.321   1.857 -0.3603  0.3076  0.0963
 8076SOL    HW125516   5.649   2.262   1.923 -0.2604  1.6837  1.3442
 8076SOL    HW225517   5.605   2.268   1.778 -1.9517 -1.8347  1.6096
 8077SOL     OW25518   0.034   6.994   3.593  0.2554 -0.1589 -0.1253
 8077SOL    HW125519  -0.045   7.008   3.646  0.7779  0.9759  0.3897
 8077SOL    HW225520   0.029   6.902   3.568 -0.7438 -0.3574  0.7004
 8078SOL     OW25521   8.264   6.670   7.908  0.3731  0.6717  0.1069
 8078SOL    HW125522   8.292   6.692   7.819 -0.9339  0.0193 -0.4905
 8078SOL    HW225523   8.240   6.577   7.904  1.4197  0.3147  1.4452
 8079SOL     OW25524   3.300   4.972   6.485 -0.1244 -0.5640 -0.9540
 8079SOL    HW125525   3.291   4.879   6.509 -0.0165 -0.3755 -0.1795
 8079SOL    HW225526   3.242   4.982   6.409 -2.0701 -0.7125  0.4180
 8080SOL     OW25527   4.916   3.272   0.602 -0.0309  0.2361 -0.6485
 8080SOL    HW125528   4.863   3.225   0.666  0.8021 -0.2067 -0.2665
 8080SOL    HW225529   4.909   3.364   0.628  0.3160  0.0567  0.0972
 8081SOL     OW25530   4.262   0.389   7.872  0.3194  0.3075  0.2331
 8081SOL    HW125531   4.349   0.400   7.833  1.2463 -1.3621  1.6735
 8081SOL    HW225532   4.203   0.386   7.797  1.2659  2.7671 -0.7452
 8082SOL     OW25533   2.525   2.693   6.362 -0.0883  0.1933 -0.0589
 8082SOL    HW125534   2.597   2.650   6.408 -0.2067  1.1704  1.0682
 8082SOL    HW225535   2.565   2.768   6.319 -0.2045 -0.0252 -0.5608
 8083SOL     OW25536   1.146   0.377   2.189  0.2019  0.2403  0.4469
 8083SOL    HW125537   1.156   0.418   2.275  2.3483  0.4885  0.1320
 8083SOL    HW225538   1.100   0.295   2.207  0.8358  0.1694  1.8810
 8084SOL     OW25539   8.675   8.468   0.817  0.0811  0.1079 -0.2368
 8084SOL    HW125540   8.625   8.416   0.754  1.6396  1.7263 -3.0155
 8084SOL    HW225541   8.730   8.404   0.862 -2.4478 -1.3509  1.0352
 8085SOL     OW25542   2.044   1.168   2.255 -0.1210 -0.0940 -0.7399
 8085SOL    HW125543   2.001   1.099   2.307 -1.4104  0.7587 -0.6166
 8085SOL    HW225544   2.006   1.249   2.289  1.6651  0.7143 -0.6173
 8086SOL     OW25545   7.820   3.297   5.367 -0.3809 -0.0873  0.0786
 8086SOL    HW125546   7.780   3.210   5.365 -0.7964  0.0935  0.3317
 8086SOL    HW225547   7.801   3.334   5.281 -1.0112  0.1053  0.2956
 8087SOL     OW25548   0.256   7.035   4.121  0.1208 -0.0555  0.6481
 8087SOL    HW125549   0.239   6.942   4.103 -1.3211  0.3232 -0.0398
 8087SOL    HW225550   0.349   7.046   4.100 -0.5219 -0.4982 -3.1482
 8088SOL     OW25551   8.509   8.555   5.853 -0.1571  0.3369  0.4300
 8088SOL    HW125552   8.598   8.522   5.840 -0.5319 -0.4529 -0.2607
 8088SOL    HW225553   8.491   8.610   5.777 -0.3156  0.3658  0.4859
 8089SOL     OW25554   7.451   2.053   3.467  0.0668  0.1295  0.2765
 8089SOL    HW125555   7.431   2.138   3.427  2.3864  0.2769 -0.7879
 8089SOL    HW225556   7.482   1.999   3.394 -2.7655 -2.2199  0.6514
 8090SOL     OW25557   5.974   1.175   3.751 -0.4627 -0.1193 -0.2443
 8090SOL    HW125558   5.890   1.141   3.780 -0.2028 -0.2025  0.4315
 8090SOL    HW225559   5.965   1.184   3.656 -1.4885  0.5939 -0.0932
 8091SOL     OW25560   1.737   0.872   5.432  0.1734 -0.3401 -0.5428
 8091SOL    HW125561   1.703   0.811   5.366 -0.7809 -0.5820  0.1490
 8091SOL    HW225562   1.683   0.855   5.510  0.1728  1.1067 -0.2132
 8092SOL     OW25563   7.585   6.100   5.417  0.5595  0.4071 -1.1958
 8092SOL    HW125564   7.578   6.194   5.403  1.3262  0.6685  0.0525
 8092SOL    HW225565   7.636   6.069   5.342  0.5804  1.0352 -1.4490
 8093SOL     OW25566   5.141   6.262   2.632  0.2210  0.0367 -0.2472
 8093SOL    HW125567   5.161   6.349   2.597  2.6652 -0.5031 -0.3405
 8093SOL    HW225568   5.182   6.260   2.718  1.8855 -1.6256 -1.0021
 8094SOL     OW25569   7.143   5.377   6.260 -0.1479 -0.4574 -0.2294
 8094SOL    HW125570   7.068   5.344   6.211 -1.7483  2.4394  0.0089
 8094SOL    HW225571   7.157   5.465   6.224  2.3590 -0.4449  0.6164
 8095SOL     OW25572   8.614   4.903   1.612  0.2161 -0.5292  0.1103
 8095SOL    HW125573   8.536   4.848   1.615 -0.5133  0.4909  0.5631
 8095SOL    HW225574   8.630   4.928   1.703 -0.1021  0.8461 -0.1918
 8096SOL     OW25575   4.206   3.663   0.819  0.6083 -0.2416 -0.2374
 8096SOL    HW125576   4.219   3.634   0.909 -0.0572 -1.0930 -0.4054
 8096SOL    HW225577   4.113   3.652   0.802  0.9504 -1.5748 -1.5108
 8097SOL     OW25578   3.496   0.978   7.635  0.0105 -0.3504 -0.7983
 8097SOL    HW125579   3.425   1.000   7.575 -1.4980 -0.5640  0.8240
 8097SOL    HW225580   3.501   1.053   7.694  2.6372  0.6458 -2.1047
 8098SOL     OW25581   2.094   5.381   8.509 -0.1970  0.2945  0.4520
 8098SOL    HW125582   2.006   5.412   8.531  0.3369  1.5750  0.9352
 8098SOL    HW225583   2.122   5.438   8.437 -0.4224 -1.2775 -0.9265
 8099SOL     OW25584   3.297   1.939   5.168 -0.6859  0.3108  0.0094
 8099SOL    HW125585   3.334   2.018   5.130  0.2668  0.0181  0.3145
 8099SOL    HW225586   3.325   1.940   5.260  0.0195 -0.7803 -0.1758
 8100SOL     OW25587   0.170   5.320   7.926  0.2728  0.2645 -0.1721
 8100SOL    HW125588   0.201   5.389   7.986  1.9963  1.5243 -2.3347
 8100SOL    HW225589   0.131   5.368   7.854 -1.6737 -1.2086 -0.1611
 8101SOL     OW25590   1.736   0.096   6.483  0.0841 -0.4433 -0.0186
 8101SOL    HW125591   1.749   0.097   6.388  0.4317 -1.0260  0.0157
 8101SOL    HW225592   1.803   0.156   6.517 -0.0345 -0.2420 -0.1461
 8102SOL     OW25593   4.258   0.314   7.017 -0.5217  0.1495 -0.2164
 8102SOL    HW125594   4.194   0.357   6.960 -1.3064 -1.6002 -0.7597
 8102SOL    HW225595   4.207   0.288   7.094 -0.2750 -0.5253 -0.2765
 8103SOL     OW25596   0.150   1.145   6.124  0.1681 -0.3678 -0.0221
 8103SOL    HW125597   0.074   1.177   6.171  1.4649  2.0132  0.5915
 8103SOL    HW225598   0.225   1.186   6.168  1.5924 -0.0592 -2.5506
 8104SOL     OW25599   1.714   1.715   4.351 -0.2577  0.3871 -0.2084
 8104SOL    HW125600   1.795   1.698   4.304 -0.0257  0.1780  0.2616
 8104SOL    HW225601   1.691   1.805   4.328 -0.0939  0.3226 -0.6357
 8105SOL     OW25602   6.065   3.900   0.957  0.1561  0.3527  0.1770
 8105SOL    HW125603   6.029   3.824   0.912 -1.2166  1.6724 -1.0806
 8105SOL    HW225604   6.160   3.889   0.953 -0.0185 -1.5794  0.6015
 8106SOL     OW25605   0.557   8.397   1.528 -0.3979 -0.1798 -0.4694
 8106SOL    HW125606   0.485   8.401   1.465 -0.7146 -1.5261 -0.2222
 8106SOL    HW225607   0.626   8.350   1.482 -0.3781 -0.5601 -0.0591
 8107SOL     OW25608   1.677   5.959   5.779 -0.2848 -0.0672 -0.0452
 8107SOL    HW125609   1.706   5.891   5.718  0.6176  1.0127 -0.8625
 8107SOL    HW225610   1.594   5.926   5.814  0.8827 -2.3482  0.8457
 8108SOL     OW25611   7.458   2.965   5.228  0.0051  0.4358 -0.5871
 8108SOL    HW125612   7.373   2.927   5.250 -2.1100  3.6744 -2.3004
 8108SOL    HW225613   7.488   2.915   5.152  0.0903 -1.2372  0.5003
 8109SOL     OW25614   0.241   4.708   7.454  0.2811 -0.6546 -0.1279
 8109SOL    HW125615   0.297   4.743   7.523  1.6018  0.4243 -1.6790
 8109SOL    HW225616   0.232   4.616   7.475  3.3810 -1.0902 -0.2332
 8110SOL     OW25617   5.031   7.629   8.635  0.1679 -0.3054  0.2991
 8110SOL    HW125618   4.956   7.674   8.596  1.5558  0.7921 -1.2325
 8110SOL    HW225619   5.052   7.560   8.573 -0.5750 -1.7245  1.5623
 8111SOL     OW25620   6.408   7.614   7.270 -0.8004 -0.1746  0.3016
 8111SOL    HW125621   6.428   7.593   7.361 -0.9141  0.9516  0.5891
 8111SOL    HW225622   6.494   7.614   7.227 -0.5913  0.6545  0.7009
 8112SOL     OW25623   0.636   3.033   2.716  0.0559  0.0933 -0.5419
 8112SOL    HW125624   0.595   3.052   2.631  0.7441  1.2045 -0.6481
 8112SOL    HW225625   0.723   3.073   2.710 -0.4106  1.4928  1.2260
 8113SOL     OW25626   6.039   2.834   8.588  0.2451  0.3733  0.8231
 8113SOL    HW125627   6.084   2.885   8.520 -0.2364  0.5853  0.6548
 8113SOL    HW225628   6.067   2.743   8.572  0.3867  0.4636  0.5443
 8114SOL     OW25629   7.631   8.518   6.605  0.4961  0.1410  0.0870
 8114SOL    HW125630   7.649   8.435   6.561  2.6211  0.9239 -0.6370
 8114SOL    HW225631   7.696   8.579   6.569  0.3944  1.5728  2.1588
 8115SOL     OW25632   4.283   8.021   0.238 -0.5354 -0.0626 -0.2141
 8115SOL    HW125633   4.350   7.979   0.185 -0.2662  0.0749  0.0149
 8115SOL    HW225634   4.246   8.088   0.180  0.1551  0.4745 -0.0410
 8116SOL     OW25635   5.103   2.888   7.540 -0.4856 -0.3494 -0.4851
 8116SOL    HW125636   5.020   2.906   7.497 -0.7424 -1.4154 -0.4528
 8116SOL    HW225637   5.101   2.941   7.620 -1.0702 -0.2662 -0.5522
 8117SOL     OW25638   4.836   4.648   2.794 -0.5658  0.1516  0.0788
 8117SOL    HW125639   4.916   4.657   2.742 -0.1312  0.8469  0.8358
 8117SOL    HW225640   4.765   4.666   2.732 -0.2767 -2.2503 -1.0424
 8118SOL     OW25641   1.185   2.738   7.094  0.0159 -0.7934 -0.0132
 8118SOL    HW125642   1.111   2.679   7.085  0.0583 -1.0575  1.2355
 8118SOL    HW225643   1.173   2.802   7.024  1.3764 -3.6762 -3.1781
 8119SOL     OW25644   1.946   3.222   6.106 -0.3258 -0.0469  0.4410
 8119SOL    HW125645   1.925   3.133   6.076  1.3004 -0.6465  1.0221
 8119SOL    HW225646   1.891   3.278   6.051 -1.2909 -1.3844 -0.0309
 8120SOL     OW25647   7.444   0.821   5.702  0.0147 -0.7082 -0.2627
 8120SOL    HW125648   7.370   0.865   5.743 -0.4967  0.0893 -1.9379
 8120SOL    HW225649   7.414   0.731   5.688  0.6240 -1.3274  2.0842
 8121SOL     OW25650   8.710   8.168   3.937  0.3401  0.6813  0.0029
 8121SOL    HW125651   8.733   8.187   3.846 -0.0732  1.7784  0.1124
 8121SOL    HW225652   8.663   8.085   3.933  1.8185 -0.1790 -0.5565
 8122SOL     OW25653   4.867   7.493   1.459  0.6429  0.2629  1.2154
 8122SOL    HW125654   4.897   7.437   1.387 -1.6965  0.9815 -0.4364
 8122SOL    HW225655   4.940   7.553   1.475  0.9986  0.5267 -1.0464
 8123SOL     OW25656   1.302   1.617   7.024  0.5356  0.0536 -1.2127
 8123SOL    HW125657   1.247   1.644   7.097  2.7032  0.9120  0.2034
 8123SOL    HW225658   1.269   1.667   6.949  1.0328  2.6543  0.1918
 8124SOL     OW25659   3.098   3.600   1.706 -0.0392  0.3522 -0.1714
 8124SOL    HW125660   3.021   3.656   1.712 -0.5083 -0.2550 -0.3713
 8124SOL    HW225661   3.063   3.511   1.706  0.8006 -0.0524  2.3254
 8125SOL     OW25662   2.710   5.109   8.513 -0.6290 -0.0058 -0.3146
 8125SOL    HW125663   2.629   5.147   8.478 -0.4935 -0.5972 -1.2912
 8125SOL    HW225664   2.728   5.034   8.456 -1.2750 -2.0230  1.9417
 8126SOL     OW25665   1.940   7.784   1.437  0.2304 -0.2527  0.1783
 8126SOL    HW125666   1.923   7.690   1.436  1.6702 -0.5280 -0.8083
 8126SOL    HW225667   1.966   7.803   1.527  0.3622 -0.8839  0.2786
 8127SOL     OW25668   4.247   3.267   7.225 -0.2291  0.8140  0.2634
 8127SOL    HW125669   4.318   3.312   7.269  1.2539  0.5319 -1.6995
 8127SOL    HW225670   4.269   3.272   7.132 -2.3048 -0.1075 -0.3488
 8128SOL     OW25671   6.995   2.543   6.707  0.0733  0.5385  0.2098
 8128SOL    HW125672   6.968   2.616   6.651  1.0582 -0.4565 -1.6800
 8128SOL    HW225673   6.959   2.466   6.662  1.2872 -0.3328  0.7029
 8129SOL     OW25674   4.035   5.007   7.106  0.0759 -0.0478  0.3067
 8129SOL    HW125675   4.029   4.986   7.199  0.6842  1.3102  0.6875
 8129SOL    HW225676   3.946   4.993   7.072  0.1902 -1.9938  0.7394
 8130SOL     OW25677   4.728   4.012   1.115  0.2121 -0.5215 -0.2514
 8130SOL    HW125678   4.764   4.003   1.026  0.5212  0.5986 -0.2545
 8130SOL    HW225679   4.797   4.056   1.165  0.2207 -1.5491  0.6740
 8131SOL     OW25680   0.795   5.299   6.653  0.5615  0.0422 -0.2582
 8131SOL    HW125681   0.719   5.340   6.694  0.6592  0.1160 -0.1511
 8131SOL    HW225682   0.778   5.307   6.559  1.1125  1.3484 -0.2635
 8132SOL     OW25683   5.283   6.230   5.680  0.0138  0.5384  0.1048
 8132SOL    HW125684   5.357   6.280   5.715  0.7584  0.9472 -1.9662
 8132SOL    HW225685   5.241   6.289   5.618 -1.3442 -0.1377  0.3383
 8133SOL     OW25686   4.132   5.290   3.413 -0.6910 -0.3753  0.0043
 8133SOL    HW125687   4.128   5.385   3.423 -1.5643 -0.4502  0.4456
 8133SOL    HW225688   4.223   5.267   3.434 -0.7853  0.2182  1.1172
 8134SOL     OW25689   2.628   7.634   1.502  0.4407  0.3609  0.2602
 8134SOL    HW125690   2.662   7.723   1.510  1.0392  0.1288  0.3292
 8134SOL    HW225691   2.550   7.643   1.447  0.3545  0.9631  0.4757
 8135SOL     OW25692   6.532   3.813   7.146  0.1181 -0.2310 -0.3306
 8135SOL    HW125693   6.485   3.756   7.085  0.4513 -1.1115  0.2144
 8135SOL    HW225694   6.614   3.766   7.164  0.9265  0.9636 -0.7593
 8136SOL     OW25695   1.648   2.944   8.461  0.4657 -0.1150 -0.1177
 8136SOL    HW125696   1.608   3.028   8.481 -1.3790 -1.2978  1.4600
 8136SOL    HW225697   1.739   2.953   8.491  0.1624  1.1267  0.4914
 8137SOL     OW25698   7.262   6.481   3.910 -0.0437 -0.6521  0.8468
 8137SOL    HW125699   7.183   6.535   3.907  0.6403  0.3330  0.2533
 8137SOL    HW225700   7.330   6.539   3.943  0.2800 -1.7216  2.1668
 8138SOL     OW25701   4.739   6.435   4.378  0.3076 -0.1791 -0.3515
 8138SOL    HW125702   4.656   6.404   4.415 -0.0361 -0.3794 -1.2445
 8138SOL    HW225703   4.725   6.430   4.283  1.5068 -0.6655 -0.5187
 8139SOL     OW25704   5.784   0.969   3.416  0.2848 -0.0947  0.0670
 8139SOL    HW125705   5.698   0.982   3.377  0.3317  0.3758  0.1119
 8139SOL    HW225706   5.830   1.052   3.400  0.8528 -0.4672 -0.2780
 8140SOL     OW25707   7.898   8.708   7.888  0.7636  0.0536  0.5135
 8140SOL    HW125708   7.820   8.660   7.859  1.9317 -0.9176 -1.2205
 8140SOL    HW225709   7.910   8.683   7.979  0.3091 -1.5809  0.1563
 8141SOL     OW25710   2.042   6.742   6.170 -0.2432  0.1408 -0.0500
 8141SOL    HW125711   2.007   6.676   6.230  0.5479 -0.8978 -0.6884
 8141SOL    HW225712   2.060   6.818   6.226  0.6249 -0.8540  1.0662
 8142SOL     OW25713   5.628   3.335   6.049  0.6838 -0.2324  0.2998
 8142SOL    HW125714   5.641   3.413   6.103  1.6460 -0.0188 -0.2215
 8142SOL    HW225715   5.571   3.364   5.978  1.0098 -0.0196  0.1273
 8143SOL     OW25716   6.587   3.537   4.967  0.2713 -0.1845 -0.4034
 8143SOL    HW125717   6.567   3.469   5.032 -1.6270 -0.0248 -0.7630
 8143SOL    HW225718   6.503   3.581   4.952  1.1679  1.2992 -1.2532
 8144SOL     OW25719   1.653   3.467   6.349 -0.8428  0.6643  0.6151
 8144SOL    HW125720   1.577   3.497   6.298 -0.8342  0.6041  0.5668
 8144SOL    HW225721   1.621   3.393   6.399 -0.5363 -0.0792 -0.2519
 8145SOL     OW25722   0.519   1.382   3.930 -0.0532  0.5323  0.0010
 8145SOL    HW125723   0.541   1.326   3.856 -0.7956 -0.5821  0.6039
 8145SOL    HW225724   0.534   1.471   3.898  2.4197 -0.0193 -0.5604
 8146SOL     OW25725   2.727   3.272   8.027 -0.8272 -0.0249 -0.0226
 8146SOL    HW125726   2.634   3.282   8.011 -0.7081 -0.8275 -1.3640
 8146SOL    HW225727   2.737   3.284   8.121 -2.0947  1.3767 -0.0456
 8147SOL     OW25728   4.072   7.593   7.036 -0.6421  0.2277  0.2459
 8147SOL    HW125729   4.041   7.511   7.076  0.9524 -0.2984  0.4879
 8147SOL    HW225730   4.105   7.566   6.950 -1.3101  0.8537 -0.2151
 8148SOL     OW25731   0.679   3.536   1.447  0.2648  0.4923  0.2401
 8148SOL    HW125732   0.770   3.519   1.424  0.5625  0.3373  1.4455
 8148SOL    HW225733   0.678   3.537   1.543 -0.7810  1.7070  0.2481
 8149SOL     OW25734   4.218   3.380   6.129 -0.5780 -0.2557 -0.3714
 8149SOL    HW125735   4.254   3.298   6.094  0.5108 -0.1793  0.5315
 8149SOL    HW225736   4.202   3.362   6.221  1.2130  1.0221  0.2243
 8150SOL     OW25737   7.315   1.081   1.943  0.5365 -0.3401  0.1390
 8150SOL    HW125738   7.299   1.162   1.992 -0.2135  0.4613 -1.3703
 8150SOL    HW225739   7.363   1.025   2.005  0.4735  0.9819  1.4465
 8151SOL     OW25740   1.713   7.614   1.932  0.1611  0.5280  0.0061
 8151SOL    HW125741   1.698   7.587   1.841 -0.6836  1.5241 -0.1643
 8151SOL    HW225742   1.713   7.709   1.929 -1.2307  0.5972  1.2671
 8152SOL     OW25743   3.411   0.886   8.319  0.1526 -0.2868 -0.3500
 8152SOL    HW125744   3.345   0.945   8.356  1.3877  0.6388  0.4842
 8152SOL    HW225745   3.416   0.910   8.227  0.0981  0.4015 -0.1794
 8153SOL     OW25746   8.472   6.971   7.027  0.3923 -0.2120 -0.2314
 8153SOL    HW125747   8.460   6.881   6.996  2.2406 -0.3902 -0.5707
 8153SOL    HW225748   8.388   7.014   7.009  0.1506 -1.3170 -1.9980
 8154SOL     OW25749   7.699   2.720   2.282 -0.6760 -0.5856 -0.1981
 8154SOL    HW125750   7.719   2.671   2.203  1.3933 -2.3142  1.2837
 8154SOL    HW225751   7.772   2.701   2.341 -1.5635  1.5399  1.7309
 8155SOL     OW25752   4.004   5.489   7.690 -0.3387  0.5358  0.2436
 8155SOL    HW125753   4.030   5.399   7.708 -1.3670  0.2873  0.5103
 8155SOL    HW225754   3.988   5.491   7.595  0.2071  0.5881  0.1458
 8156SOL     OW25755   5.724   2.109   8.163 -0.1768 -0.2498  0.1244
 8156SOL    HW125756   5.808   2.121   8.120 -1.4914  0.3884 -2.4750
 8156SOL    HW225757   5.700   2.018   8.145 -0.1755 -0.3494  0.6120
 8157SOL     OW25758   0.359   1.178   1.359 -0.1675 -0.4154 -0.2662
 8157SOL    HW125759   0.356   1.198   1.453 -0.9961  0.0859 -0.3811
 8157SOL    HW225760   0.388   1.260   1.319 -1.4876 -0.0687 -0.5704
 8158SOL     OW25761   2.582   2.165   1.460 -0.5954 -0.2551  0.3605
 8158SOL    HW125762   2.547   2.079   1.486 -0.8688 -0.7132 -1.4100
 8158SOL    HW225763   2.606   2.154   1.368  0.1866  1.3332  0.3456
 8159SOL     OW25764   5.355   1.940   8.259 -0.0507  0.3798  0.2022
 8159SOL    HW125765   5.419   1.970   8.323  0.9975  1.2438 -1.1820
 8159SOL    HW225766   5.278   1.995   8.274  0.0196  0.2800  0.9768
 8160SOL     OW25767   4.780   2.698   3.543  0.7385 -0.1456  0.4148
 8160SOL    HW125768   4.687   2.678   3.557  1.0416 -1.5221  0.6350
 8160SOL    HW225769   4.801   2.762   3.611 -0.6576  2.2917 -1.2854
 8161SOL     OW25770   7.253   7.606   4.482  0.1379  0.0447  0.1773
 8161SOL    HW125771   7.261   7.513   4.500 -1.2947 -0.1505 -0.0751
 8161SOL    HW225772   7.168   7.630   4.519  0.4515  1.2410  0.1710
 8162SOL     OW25773   7.002   3.778   2.531 -0.2894 -0.3181  0.1342
 8162SOL    HW125774   7.045   3.730   2.602  2.3187  0.3298 -0.8979
 8162SOL    HW225775   6.937   3.716   2.497  0.6850 -1.8615  0.9524
 8163SOL     OW25776   6.362   3.718   7.922  0.4339 -0.3864  0.4654
 8163SOL    HW125777   6.323   3.643   7.966 -0.6708 -0.9262 -1.3206
 8163SOL    HW225778   6.327   3.794   7.968 -0.0744 -0.9244  0.9813
 8164SOL     OW25779   1.528   8.660   1.477 -0.3635  0.2221  0.0835
 8164SOL    HW125780   1.613   8.624   1.452  1.2364  2.7134  1.4544
 8164SOL    HW225781   1.478   8.662   1.396  1.1197 -0.7019 -0.9074
 8165SOL     OW25782   0.920   0.282   4.008  0.4172  0.0939  0.8217
 8165SOL    HW125783   0.982   0.210   3.996  1.2128  0.8566  0.2269
 8165SOL    HW225784   0.930   0.336   3.930 -0.4194  0.6658  1.0983
 8166SOL     OW25785   3.716   3.909   3.525  0.3933  0.6979  1.0980
 8166SOL    HW125786   3.708   3.952   3.610  2.0688  2.8743  0.2613
 8166SOL    HW225787   3.653   3.955   3.469  0.6102  0.5488  0.7252
 8167SOL     OW25788   7.856   0.146   6.952  0.0923  0.1098  0.8101
 8167SOL    HW125789   7.948   0.130   6.928 -0.5515 -1.0517 -1.1219
 8167SOL    HW225790   7.826   0.062   6.987 -0.4859  0.1786  0.4926
 8168SOL     OW25791   0.546   2.994   6.878  0.2195  0.7601 -0.2770
 8168SOL    HW125792   0.613   3.006   6.810 -0.5085  2.1920 -0.7822
 8168SOL    HW225793   0.471   3.045   6.848 -0.7208  0.0838  0.8187
 8169SOL     OW25794   1.880   6.136   2.784  0.3279 -0.5367 -0.1569
 8169SOL    HW125795   1.862   6.205   2.720 -2.2448 -0.9094  0.0372
 8169SOL    HW225796   1.967   6.156   2.817  0.2201  1.8244 -1.0940
 8170SOL     OW25797   4.555   7.385   1.912 -0.4613  0.1294 -0.2333
 8170SOL    HW125798   4.613   7.363   1.839  0.7536  1.7511  0.1851
 8170SOL    HW225799   4.567   7.479   1.925  0.1205 -0.2511  2.6824
 8171SOL     OW25800   0.628   3.117   1.825  0.1014 -0.4149  0.0125
 8171SOL    HW125801   0.649   3.030   1.791 -0.7784 -0.5936 -0.0928
 8171SOL    HW225802   0.533   3.115   1.838  0.0407  0.6023 -0.2159
 8172SOL     OW25803   2.724   7.413   5.476  0.0617  0.1487  0.0251
 8172SOL    HW125804   2.775   7.467   5.416  0.0010  0.4103  0.2092
 8172SOL    HW225805   2.702   7.335   5.425 -0.1735  0.4639 -0.3630
 8173SOL     OW25806   5.835   1.924   6.524 -0.7779 -0.2461 -0.4561
 8173SOL    HW125807   5.862   1.833   6.527 -0.4624 -0.1645 -0.8334
 8173SOL    HW225808   5.803   1.942   6.613 -0.0186 -0.4696 -0.1288
 8174SOL     OW25809   3.323   2.470   6.287  0.4365 -0.0530 -0.4517
 8174SOL    HW125810   3.416   2.447   6.296  0.3623 -0.1148  0.2447
 8174SOL    HW225811   3.321   2.565   6.300  0.5637  0.1704 -1.8744
 8175SOL     OW25812   1.740   5.522   2.594  0.5898  0.2571 -0.1219
 8175SOL    HW125813   1.786   5.480   2.666  2.6919 -0.6659 -1.9016
 8175SOL    HW225814   1.806   5.532   2.525 -1.2421  1.3604 -1.8358
 8176SOL     OW25815   2.554   6.306   2.316  0.5638  0.2046  0.0737
 8176SOL    HW125816   2.494   6.231   2.308 -0.2032  0.8603 -0.3773
 8176SOL    HW225817   2.496   6.382   2.322  1.3603  0.8512 -0.4126
 8177SOL     OW25818   7.529   7.169   8.644  0.4828  0.1156 -0.5588
 8177SOL    HW125819   7.457   7.229   8.664  1.2164  0.9070 -0.2114
 8177SOL    HW225820   7.549   7.184   8.551  0.2801 -0.0222 -0.6248
 8178SOL     OW25821   3.575   6.907   3.689  0.4771  0.0715 -0.1038
 8178SOL    HW125822   3.646   6.918   3.626 -0.8401  4.9365 -1.1235
 8178SOL    HW225823   3.495   6.921   3.638 -0.9122 -0.0866  1.9021
 8179SOL     OW25824   0.684   0.142   1.195  0.0343  0.2693  0.3497
 8179SOL    HW125825   0.597   0.135   1.155  0.9059  1.1010 -1.8391
 8179SOL    HW225826   0.694   0.236   1.214  0.5304  0.2156  0.3762
 8180SOL     OW25827   3.450   3.337   4.046  0.3312  0.0751 -0.2678
 8180SOL    HW125828   3.508   3.405   4.080 -0.7287  0.8076  0.1521
 8180SOL    HW225829   3.491   3.309   3.964 -0.1227  2.5674 -1.4507
 8181SOL     OW25830   6.309   2.082   7.928  0.1090  0.1864 -0.3236
 8181SOL    HW125831   6.281   2.173   7.916  0.5262  0.5068  0.9387
 8181SOL    HW225832   6.373   2.086   7.999 -2.3538 -1.4797  2.2198
 8182SOL     OW25833   7.168   2.948   5.612 -0.8513 -0.1155  0.4902
 8182SOL    HW125834   7.119   3.017   5.566 -0.5088  0.3585  0.8210
 8182SOL    HW225835   7.208   2.993   5.686  0.3586 -0.4199  0.0420
 8183SOL     OW25836   1.948   3.257   0.971  0.2147 -0.2065 -0.2172
 8183SOL    HW125837   1.900   3.217   0.898  0.1308 -2.1858  0.8750
 8183SOL    HW225838   1.882   3.310   1.016  0.2261  0.8970 -1.4178
 8184SOL     OW25839   2.863   4.205   7.485  0.1128  0.3153 -0.0777
 8184SOL    HW125840   2.955   4.224   7.469  0.0118  0.5302 -0.4139
 8184SOL    HW225841   2.859   4.110   7.498 -0.0126 -0.1751 -2.9776
 8185SOL     OW25842   2.114   6.770   7.845 -0.4015  0.0865  0.2625
 8185SOL    HW125843   2.179   6.713   7.804 -0.5799 -0.1517  0.3080
 8185SOL    HW225844   2.161   6.852   7.862 -0.5818  0.5631 -1.3612
 8186SOL     OW25845   7.148   7.217   3.108  0.7496  0.3315 -0.5066
 8186SOL    HW125846   7.170   7.304   3.141  2.6451 -0.6533  1.0188
 8186SOL    HW225847   7.209   7.202   3.036 -0.6315  0.8140 -1.8601
 8187SOL     OW25848   5.329   4.874   6.747  0.0570 -0.0613  0.7601
 8187SOL    HW125849   5.361   4.948   6.799 -1.3925  0.0556  1.5313
 8187SOL    HW225850   5.272   4.826   6.806  0.1121 -1.1856 -0.0722
 8188SOL     OW25851   3.736   4.198   0.763  0.5988  0.6799  0.0231
 8188SOL    HW125852   3.807   4.191   0.827  1.8830  0.3123 -1.3941
 8188SOL    HW225853   3.700   4.286   0.777  1.0144  0.6981  1.0748
 8189SOL     OW25854   4.993   8.662   0.491 -0.1825 -0.0116  0.6345
 8189SOL    HW125855   4.989   8.654   0.396 -0.8561 -0.1820  0.6709
 8189SOL    HW225856   4.995   8.757   0.507 -0.7564  0.0367  0.4639
 8190SOL     OW25857   7.209   6.407   7.796  0.0536 -0.5463  0.3364
 8190SOL    HW125858   7.249   6.331   7.837  1.3868  0.2191  0.5098
 8190SOL    HW225859   7.140   6.433   7.857  0.0835 -1.1667  0.6418
 8191SOL     OW25860   1.338   3.123   3.440 -0.0910 -0.8197  0.2389
 8191SOL    HW125861   1.257   3.133   3.392 -0.9655 -0.9428  1.6315
 8191SOL    HW225862   1.314   3.136   3.532  1.6546  0.2990  0.6085
 8192SOL     OW25863   2.722   1.049   7.015 -0.0526 -0.4890 -0.1097
 8192SOL    HW125864   2.661   1.120   7.036  2.1383  1.1856  1.0158
 8192SOL    HW225865   2.679   1.001   6.944 -1.6154  2.0046 -0.9892
 8193SOL     OW25866   0.619   6.929   6.144  0.1741  0.7974  0.0585
 8193SOL    HW125867   0.659   7.016   6.149  1.9507 -0.0132  0.4345
 8193SOL    HW225868   0.638   6.899   6.055 -0.5570  0.8327 -0.1153
 8194SOL     OW25869   2.682   6.269   6.695 -0.0318  0.2483 -0.2574
 8194SOL    HW125870   2.667   6.174   6.699  1.9606 -0.0848  1.5463
 8194SOL    HW225871   2.744   6.280   6.623  1.0984 -0.1021  0.6230
 8195SOL     OW25872   6.649   0.652   6.876  0.1133  0.4506 -0.3022
 8195SOL    HW125873   6.562   0.612   6.869  0.5795 -0.9894  1.3463
 8195SOL    HW225874   6.655   0.709   6.800 -1.3574 -1.2223 -1.7821
 8196SOL     OW25875   0.735   3.032   8.689 -0.8255  0.1838 -0.4118
 8196SOL    HW125876   0.771   2.991   8.767  0.8532  1.5151 -0.4255
 8196SOL    HW225877   0.773   3.120   8.688 -1.1398  0.3662 -2.4817
 8197SOL     OW25878   4.360   0.426   2.405  0.1927 -0.3449  0.3779
 8197SOL    HW125879   4.441   0.410   2.454 -0.4089  0.0836  1.5425
 8197SOL    HW225880   4.295   0.447   2.471 -0.0939  2.7816 -0.7226
 8198SOL     OW25881   8.364   3.922   7.969  0.1883  0.2203 -0.1944
 8198SOL    HW125882   8.313   3.844   7.949  0.0115 -0.2821  1.9517
 8198SOL    HW225883   8.449   3.907   7.928  0.3244 -1.3612  0.5992
 8199SOL     OW25884   3.751   2.429   5.485 -0.1367  0.4184 -0.2945
 8199SOL    HW125885   3.728   2.389   5.401 -1.0785 -0.2041  0.2434
 8199SOL    HW225886   3.783   2.516   5.462 -1.0234  0.5097 -1.2500
 8200SOL     OW25887   6.779   3.519   3.552  0.1186 -0.3188 -0.2531
 8200SOL    HW125888   6.862   3.564   3.566 -0.8944  2.2910 -1.8085
 8200SOL    HW225889   6.764   3.525   3.457 -1.7677 -0.7724 -0.0328
 8201SOL     OW25890   2.621   8.070   0.600 -0.0702 -0.4468 -0.1128
 8201SOL    HW125891   2.615   8.040   0.691  2.8374 -0.0351  0.3074
 8201SOL    HW225892   2.692   8.135   0.601 -0.2805 -0.0903 -2.6128
 8202SOL     OW25893   1.907   3.384   2.379 -0.7356  0.2313  0.2076
 8202SOL    HW125894   1.863   3.379   2.294  0.3429  0.1864 -0.3658
 8202SOL    HW225895   1.970   3.456   2.370  1.5772 -1.7068 -0.1287
 8203SOL     OW25896   2.178   6.231   6.308 -0.2915 -0.2925 -0.3461
 8203SOL    HW125897   2.098   6.250   6.358  0.1326 -0.7459  0.5165
 8203SOL    HW225898   2.214   6.153   6.349  1.0720  0.4050 -0.1564
 8204SOL     OW25899   4.830   1.504   0.154 -0.0636  0.1317 -0.3013
 8204SOL    HW125900   4.884   1.476   0.080  1.0147  0.3795  0.3861
 8204SOL    HW225901   4.844   1.598   0.160 -0.5665  0.1952 -0.1039
 8205SOL     OW25902   3.642   0.352   8.188  0.2524  0.2129 -0.4635
 8205SOL    HW125903   3.602   0.423   8.137  1.1941  2.0106  1.1573
 8205SOL    HW225904   3.568   0.312   8.234 -0.2525  0.3581 -1.1270
 8206SOL     OW25905   4.400   7.061   3.740 -0.4044  0.7087  0.1464
 8206SOL    HW125906   4.348   7.141   3.747 -1.2238  0.1448  0.6134
 8206SOL    HW225907   4.348   7.004   3.683 -0.5213 -0.0347  0.9866
 8207SOL     OW25908   6.978   4.465   8.464 -0.6705  0.0735 -0.4771
 8207SOL    HW125909   6.967   4.404   8.391  0.3334  0.2647 -0.8125
 8207SOL    HW225910   6.937   4.422   8.539  0.0508 -1.0302 -0.6929
 8208SOL     OW25911   7.049   3.806   0.442  0.3079  0.2886 -0.0292
 8208SOL    HW125912   7.009   3.861   0.509  2.5419  0.8094  0.9933
 8208SOL    HW225913   6.996   3.820   0.363  0.6697  3.8262  0.2098
 8209SOL     OW25914   8.371   6.654   5.583  0.0411 -0.8698 -0.0141
 8209SOL    HW125915   8.459   6.684   5.557  0.0351 -1.1671 -0.3938
 8209SOL    HW225916   8.374   6.653   5.679 -0.1738  0.9631  0.0483
 8210SOL     OW25917   8.676   3.110   6.294  1.1301  0.0843  0.2946
 8210SOL    HW125918   8.738   3.128   6.223  0.4524 -0.4377 -0.4558
 8210SOL    HW225919   8.608   3.055   6.253  0.4715  0.1748  1.2300
 8211SOL     OW25920   0.694   4.453   2.013  0.1383 -0.2466  0.0069
 8211SOL    HW125921   0.784   4.475   2.036 -0.2975  2.4066 -0.5348
 8211SOL    HW225922   0.683   4.485   1.923 -1.4289 -0.1921  0.1809
 8212SOL     OW25923   7.078   8.622   2.998  0.1821 -0.6290 -0.4568
 8212SOL    HW125924   7.004   8.661   3.044  0.0371 -1.2143 -0.1837
 8212SOL    HW225925   7.037   8.563   2.934  0.4127 -2.2039  0.7895
 8213SOL     OW25926   7.846   0.051   2.181  0.1249 -0.3707 -0.5023
 8213SOL    HW125927   7.903   0.118   2.220 -0.2896  0.3799 -1.1621
 8213SOL    HW225928   7.871   0.049   2.089 -0.6357 -0.3098 -0.7167
 8214SOL     OW25929   2.989   3.822   6.186 -0.0774 -0.3556 -0.5210
 8214SOL    HW125930   2.964   3.911   6.209 -0.2602 -1.1279  2.6746
 8214SOL    HW225931   3.049   3.833   6.112  0.8189  2.5197  0.4931
 8215SOL     OW25932   0.691   0.866   5.677 -0.0588 -0.4514  0.1891
 8215SOL    HW125933   0.596   0.860   5.677 -0.2776  1.7340  1.6974
 8215SOL    HW225934   0.711   0.933   5.611  0.2890  0.1586  0.8920
 8216SOL     OW25935   6.033   6.493   5.530  0.4227  0.3537  0.0223
 8216SOL    HW125936   5.974   6.419   5.513 -0.5672  0.5125  2.3491
 8216SOL    HW225937   6.042   6.494   5.625  3.0064  1.3039 -0.1691
 8217SOL     OW25938   6.278   8.626   8.560 -0.3044 -0.3843 -0.0576
 8217SOL    HW125939   6.223   8.566   8.610  0.7250 -0.8153  0.5968
 8217SOL    HW225940   6.270   8.710   8.605 -2.1853  0.1568 -1.2997
 8218SOL     OW25941   5.536   2.007   4.253  0.2322  0.3861 -0.0437
 8218SOL    HW125942   5.516   2.098   4.229  0.3292  0.2130 -0.8209
 8218SOL    HW225943   5.502   1.956   4.179  0.4049 -0.1883  0.2738
 8219SOL     OW25944   2.550   0.803   7.152  0.3944  0.0798  0.1496
 8219SOL    HW125945   2.501   0.879   7.122 -0.6153 -0.7552 -0.3813
 8219SOL    HW225946   2.607   0.779   7.079 -1.8296 -1.7564 -1.1350
 8220SOL     OW25947   1.598   2.795   2.922 -0.0142  0.2352 -0.3296
 8220SOL    HW125948   1.626   2.823   2.835  0.7541 -1.1248 -0.5282
 8220SOL    HW225949   1.569   2.705   2.910 -1.6264  0.6084  0.4832
 8221SOL     OW25950   5.738   8.236   3.708  0.1931  0.1760  1.0738
 8221SOL    HW125951   5.697   8.219   3.793 -0.8486 -1.5785  0.2631
 8221SOL    HW225952   5.793   8.160   3.691  0.4851  0.5605  0.2128
 8222SOL     OW25953   4.433   2.561   7.877  0.5393 -0.3976 -0.0730
 8222SOL    HW125954   4.525   2.557   7.905 -0.0158  0.7574  2.1239
 8222SOL    HW225955   4.397   2.476   7.903  0.6491 -0.3034  0.3981
 8223SOL     OW25956   7.701   6.233   8.266 -0.5365  0.3489 -0.0007
 8223SOL    HW125957   7.784   6.214   8.309 -1.1680  0.3950  1.3144
 8223SOL    HW225958   7.707   6.325   8.240 -0.0852  0.2801 -0.1432
 8224SOL     OW25959   6.139   0.511   7.789 -0.3775 -0.3861  0.5968
 8224SOL    HW125960   6.216   0.552   7.829 -0.1255  0.0785 -0.3299
 8224SOL    HW225961   6.065   0.549   7.836 -0.1710  1.4280 -0.4481
 8225SOL     OW25962   3.251   5.076   7.762 -0.1037  0.3186 -0.1043
 8225SOL    HW125963   3.273   4.989   7.793 -1.4721 -0.4515 -1.1604
 8225SOL    HW225964   3.207   5.118   7.836 -0.3062 -0.2437  0.0978
 8226SOL     OW25965   4.723   7.809   0.258  0.3558  0.3515  0.1688
 8226SOL    HW125966   4.644   7.756   0.248  1.0011 -0.4500 -0.8126
 8226SOL    HW225967   4.794   7.746   0.269  1.0256  1.0185 -0.2071
 8227SOL     OW25968   5.699   4.993   8.180 -0.2436  0.6538 -0.4503
 8227SOL    HW125969   5.646   5.071   8.166  1.5981  2.1116  0.3533
 8227SOL    HW225970   5.760   4.991   8.106 -0.6394 -0.3788 -0.7772
 8228SOL     OW25971   1.852   6.121   5.907 -0.6117 -0.7424  0.0040
 8228SOL    HW125972   1.789   6.063   5.864 -1.3643  1.0726 -1.5208
 8228SOL    HW225973   1.936   6.097   5.868 -1.0159 -0.4153 -1.1342
 8229SOL     OW25974   8.318   2.602   1.134  0.3775  0.5331 -0.0454
 8229SOL    HW125975   8.297   2.648   1.216 -1.1509 -0.5859  0.2339
 8229SOL    HW225976   8.410   2.577   1.144  1.6657  4.2918 -0.6526
 8230SOL     OW25977   0.302   1.319   1.615 -0.4480 -0.5867 -0.4626
 8230SOL    HW125978   0.393   1.346   1.632 -0.9851  0.4022  1.0142
 8230SOL    HW225979   0.293   1.234   1.658 -0.2885 -0.5729 -0.4003
 8231SOL     OW25980   2.158   0.428   6.582  0.0849  0.1481  0.1642
 8231SOL    HW125981   2.216   0.452   6.654 -0.3693  0.6062  0.3878
 8231SOL    HW225982   2.206   0.361   6.534  0.3952 -0.1625  0.8876
 8232SOL     OW25983   2.040   8.346   5.061 -0.4636  0.1004 -0.4584
 8232SOL    HW125984   1.996   8.431   5.059  0.1890  0.4687  0.2048
 8232SOL    HW225985   2.105   8.355   5.132  0.1989 -0.6551 -0.9550
 8233SOL     OW25986   5.300   7.480   2.039  0.3562 -0.0637  0.0270
 8233SOL    HW125987   5.273   7.560   2.083 -0.4283 -0.9939  1.3220
 8233SOL    HW225988   5.325   7.421   2.110 -0.4621 -1.4390 -0.7901
 8234SOL     OW25989   0.028   4.807   0.119 -0.0635  0.1135 -0.2383
 8234SOL    HW125990   0.062   4.732   0.168 -0.3836 -0.4708 -0.8931
 8234SOL    HW225991   0.052   4.789   0.028  0.3936  1.1072 -0.3284
 8235SOL     OW25992   2.532   3.717   1.542 -0.1925 -0.7381 -0.7914
 8235SOL    HW125993   2.503   3.632   1.509  1.5062 -1.4057 -0.6558
 8235SOL    HW225994   2.535   3.706   1.637  0.2698 -0.6119 -0.7887
 8236SOL     OW25995   5.907   6.373   3.558 -0.4718 -0.1478 -0.2149
 8236SOL    HW125996   5.903   6.375   3.462 -0.5580 -1.0509 -0.2359
 8236SOL    HW225997   5.842   6.308   3.583  0.7468 -1.1776  0.3682
 8237SOL     OW25998   6.417   5.778   2.433  0.1637  0.1375 -0.4017
 8237SOL    HW125999   6.351   5.711   2.451 -0.2425  0.1131 -1.8213
 8237SOL    HW226000   6.386   5.855   2.480 -0.5514 -0.0608 -0.5295
 8238SOL     OW26001   5.406   5.484   8.431  0.3602 -0.4497 -0.1796
 8238SOL    HW126002   5.360   5.442   8.359 -0.9867  0.4869  0.1021
 8238SOL    HW226003   5.376   5.438   8.509  0.1995 -0.1068 -0.0343
 8239SOL     OW26004   6.797   7.133   4.016 -0.1785 -0.5849 -0.5400
 8239SOL    HW126005   6.863   7.124   3.947 -1.5118 -2.0737 -1.6882
 8239SOL    HW226006   6.722   7.082   3.985 -2.7341  2.6529 -0.3120
 8240SOL     OW26007   7.823   4.392   6.304 -0.3352  0.1239 -0.3740
 8240SOL    HW126008   7.888   4.396   6.233  0.2823  0.8310  0.2061
 8240SOL    HW226009   7.831   4.304   6.339  0.6674  0.3473 -0.0072
 8241SOL     OW26010   5.055   2.900   0.431 -0.4675  0.0125 -0.6966
 8241SOL    HW126011   4.961   2.885   0.419 -0.7386  1.3746 -0.4660
 8241SOL    HW226012   5.085   2.936   0.347 -0.3696  0.5094 -0.4540
 8242SOL     OW26013   7.461   8.403   4.759 -0.4967  0.0866 -0.6444
 8242SOL    HW126014   7.505   8.406   4.844 -0.8442  1.4785 -0.4953
 8242SOL    HW226015   7.424   8.314   4.755 -0.4049 -0.0394  0.6186
 8243SOL     OW26016   5.481   2.565   1.830  1.0407  0.0159 -0.1032
 8243SOL    HW126017   5.530   2.487   1.857 -0.3962 -0.6371  0.7630
 8243SOL    HW226018   5.431   2.536   1.753  1.8280  0.6169 -0.8605
 8244SOL     OW26019   3.581   7.997   7.405  0.3737 -0.2423 -0.8299
 8244SOL    HW126020   3.663   7.976   7.361  0.0444  1.8058 -2.5506
 8244SOL    HW226021   3.606   8.021   7.494  1.6656  0.3968 -1.3446
 8245SOL     OW26022   7.661   3.563   7.188 -0.0064  0.4161  0.3004
 8245SOL    HW126023   7.609   3.544   7.111 -0.0606  2.0598 -0.0831
 8245SOL    HW226024   7.622   3.509   7.257  0.9401 -2.2100 -1.0672
 8246SOL     OW26025   3.016   7.435   8.323  0.0615  0.6876 -0.0953
 8246SOL    HW126026   2.974   7.481   8.250 -0.7598 -0.1431 -0.1605
 8246SOL    HW226027   2.956   7.448   8.397  0.1220  0.2190  0.0359
 8247SOL     OW26028   6.641   0.533   3.907 -0.1972 -0.1806  0.6458
 8247SOL    HW126029   6.723   0.535   3.956 -0.3999 -2.1140  1.1251
 8247SOL    HW226030   6.615   0.441   3.906 -2.8959  0.4532  1.4222
 8248SOL     OW26031   6.549   2.920   3.995 -0.0487 -0.3329 -0.2644
 8248SOL    HW126032   6.531   2.951   4.084 -1.2091  0.3942 -0.7348
 8248SOL    HW226033   6.564   3.000   3.944  0.9091 -0.7595 -0.6630
 8249SOL     OW26034   5.167   4.794   6.525 -0.0210 -0.2144 -0.5865
 8249SOL    HW126035   5.222   4.836   6.592  1.7311  0.5175 -2.3932
 8249SOL    HW226036   5.082   4.784   6.568  0.4753  1.9599  1.1396
 8250SOL     OW26037   0.405   3.406   3.067  0.2307 -0.1767 -0.0946
 8250SOL    HW126038   0.429   3.427   2.976  1.8440 -2.9607 -0.4367
 8250SOL    HW226039   0.324   3.356   3.059  0.2080 -0.1593  0.0269
 8251SOL     OW26040   6.721   7.230   7.915 -0.2949  0.0287  0.0476
 8251SOL    HW126041   6.633   7.204   7.944 -0.6547 -0.4319 -1.3802
 8251SOL    HW226042   6.758   7.277   7.990 -0.9851 -1.5152  1.4129
 8252SOL     OW26043   8.541   1.521   3.881 -0.2829  0.0149  0.5782
 8252SOL    HW126044   8.491   1.530   3.962 -1.2492  1.6057 -0.1354
 8252SOL    HW226045   8.603   1.451   3.899 -2.0339 -1.3118  1.8836
 8253SOL     OW26046   1.725   0.084   3.240  0.3424  0.2832 -0.2205
 8253SOL    HW126047   1.720   0.002   3.191  0.6041  0.8190 -1.1792
 8253SOL    HW226048   1.653   0.137   3.206  0.3777  0.5739  0.1523
 8254SOL     OW26049   1.051   4.393   4.727  0.2220  0.3280 -0.0340
 8254SOL    HW126050   1.040   4.429   4.815  1.7829 -0.6349  0.6077
 8254SOL    HW226051   1.090   4.465   4.676  0.4778  0.5069  0.4076
 8255SOL     OW26052   4.747   4.454   3.507  0.5538 -0.3977 -0.8078
 8255SOL    HW126053   4.818   4.513   3.533  1.3276 -0.8922 -1.7260
 8255SOL    HW226054   4.733   4.472   3.414 -0.5469 -0.3046 -0.6359
 8256SOL     OW26055   1.930   2.584   4.867  0.0286 -0.3545  0.3343
 8256SOL    HW126056   1.889   2.506   4.829  1.2610  0.1220 -2.1501
 8256SOL    HW226057   2.023   2.562   4.875  0.2949  0.6486  0.1745
 8257SOL     OW26058   3.560   4.067   3.380 -0.1452  0.1263  0.4756
 8257SOL    HW126059   3.474   4.099   3.406  0.3892  1.2790  0.8741
 8257SOL    HW226060   3.617   4.143   3.386  0.9803 -0.6981  0.5405
 8258SOL     OW26061   4.738   7.414   3.822  0.5600  0.4241 -0.0287
 8258SOL    HW126062   4.709   7.502   3.798 -0.8757 -0.5250 -2.2114
 8258SOL    HW226063   4.695   7.396   3.905 -2.6200  0.3430 -1.5445
 8259SOL     OW26064   5.449   8.362   6.740 -0.0316 -0.7010  0.2721
 8259SOL    HW126065   5.485   8.447   6.768  0.4617 -0.8375  0.0595
 8259SOL    HW226066   5.515   8.298   6.767  0.9135 -0.7581 -2.0098
 8260SOL     OW26067   7.669   5.306   0.852 -0.2316 -0.0971  0.2979
 8260SOL    HW126068   7.669   5.221   0.808 -0.0839 -0.2366  0.5598
 8260SOL    HW226069   7.592   5.304   0.908 -0.1745 -0.0980  0.3768
 8261SOL     OW26070   2.354   4.671   0.325  0.0284 -0.0373  0.4297
 8261SOL    HW126071   2.331   4.718   0.245  0.4048 -0.8657 -0.1788
 8261SOL    HW226072   2.423   4.610   0.298 -0.2036 -0.6942  1.2772
 8262SOL     OW26073   0.133   7.087   1.592 -0.0676  0.1020 -0.0206
 8262SOL    HW126074   0.224   7.059   1.579 -0.1240 -0.9648  1.6783
 8262SOL    HW226075   0.081   7.025   1.540  0.1100  0.1553 -0.2642
 8263SOL     OW26076   6.164   2.629   1.728  0.7841 -0.0011  0.4810
 8263SOL    HW126077   6.230   2.584   1.675 -0.3659  0.3210 -1.3408
 8263SOL    HW226078   6.197   2.718   1.736  0.5504  0.1961 -0.5413
 8264SOL     OW26079   0.869   0.930   7.500 -0.5329  0.0083 -0.4357
 8264SOL    HW126080   0.925   0.982   7.442 -0.9905  0.0230 -0.8688
 8264SOL    HW226081   0.911   0.937   7.586  0.6143 -0.6879 -0.9188
 8265SOL     OW26082   0.020   3.466   6.152  0.1883  0.1631  0.7182
 8265SOL    HW126083   0.102   3.515   6.154 -0.7626  2.3019 -2.8371
 8265SOL    HW226084  -0.023   3.486   6.235  1.7153  1.8808  1.1536
 8266SOL     OW26085   6.419   2.051   3.572 -0.0159 -0.4732  0.0591
 8266SOL    HW126086   6.457   2.126   3.526 -1.1124  0.8252  1.1617
 8266SOL    HW226087   6.376   2.000   3.503  0.5016  0.0616 -0.6758
 8267SOL     OW26088   5.917   2.869   6.249 -0.4185  0.2365  0.1732
 8267SOL    HW126089   5.839   2.817   6.229  0.6929 -2.0994  1.5402
 8267SOL    HW226090   5.917   2.875   6.344  0.4039  1.3355  0.1164
 8268SOL     OW26091   7.242   0.095   1.410  0.4334  0.3665  0.3254
 8268SOL    HW126092   7.281   0.131   1.330 -1.0362  1.3268  0.0161
 8268SOL    HW226093   7.208   0.009   1.383  2.1602 -0.4382  0.5744
 8269SOL     OW26094   2.275   8.386   6.263  0.1568 -0.4050  0.5197
 8269SOL    HW126095   2.352   8.330   6.251 -0.1442 -0.6821 -0.1492
 8269SOL    HW226096   2.272   8.440   6.183 -1.0255 -1.2345 -0.0215
 8270SOL     OW26097   3.199   1.021   2.572 -0.1597 -0.3039  0.1083
 8270SOL    HW126098   3.251   1.066   2.505  1.9541  0.2069  1.9640
 8270SOL    HW226099   3.181   0.935   2.535  0.6245  0.0800 -1.2469
 8271SOL     OW26100   6.330   1.880   4.717  0.0066 -0.0247 -0.3398
 8271SOL    HW126101   6.336   1.936   4.795 -1.1440  0.0681 -0.2990
 8271SOL    HW226102   6.345   1.940   4.644  0.0949  0.0808 -0.2362
 8272SOL     OW26103   0.058   1.170   7.668  0.7041  0.4364  0.0119
 8272SOL    HW126104   0.136   1.224   7.680  1.7785 -0.4904 -2.2453
 8272SOL    HW226105   0.031   1.147   7.756  1.6541  2.5932  0.9513
 8273SOL     OW26106   2.957   3.523   3.088 -0.0501  0.1735 -0.2465
 8273SOL    HW126107   2.893   3.453   3.097 -0.1993  0.4342  0.8241
 8273SOL    HW226108   3.002   3.527   3.172 -0.1701  1.4788 -0.2201
 8274SOL     OW26109   5.202   5.925   5.911 -0.2210 -0.0691  0.1040
 8274SOL    HW126110   5.143   5.985   5.866 -1.6465 -0.8098  0.9196
 8274SOL    HW226111   5.148   5.885   5.980  1.4930 -0.0815  1.4931
 8275SOL     OW26112   1.665   1.600   3.230  0.1023 -0.5244  0.1676
 8275SOL    HW126113   1.662   1.625   3.138  1.8719  0.9184  0.4543
 8275SOL    HW226114   1.574   1.607   3.260 -0.2865  0.2659 -1.1218
 8276SOL     OW26115   7.489   2.434   4.378  0.3357 -0.3649  0.4537
 8276SOL    HW126116   7.542   2.474   4.447 -1.1253  0.7319  0.9787
 8276SOL    HW226117   7.458   2.508   4.326 -3.3286 -0.5581  2.0701
 8277SOL     OW26118   3.300   5.890   2.853 -0.1404 -0.6095  0.2296
 8277SOL    HW126119   3.377   5.837   2.835  0.3264  0.4479 -1.1051
 8277SOL    HW226120   3.335   5.968   2.896 -0.5163 -0.3466  0.0630
 8278SOL     OW26121   0.843   6.212   2.872  0.6933  0.3661 -0.1803
 8278SOL    HW126122   0.922   6.165   2.898  0.2775 -0.3960 -0.2782
 8278SOL    HW226123   0.799   6.232   2.955  0.0228 -0.9232 -0.1980
 8279SOL     OW26124   8.128   3.735   3.178  0.1480 -0.3233 -0.1763
 8279SOL    HW126125   8.207   3.687   3.155 -0.0607 -2.0266  2.2205
 8279SOL    HW226126   8.066   3.716   3.107  0.5726 -2.4588 -0.0361
 8280SOL     OW26127   2.428   5.435   0.022 -0.1620 -0.4693 -0.1540
 8280SOL    HW126128   2.502   5.406  -0.031 -1.1129 -1.5084 -0.9716
 8280SOL    HW226129   2.356   5.380  -0.006 -1.1114  0.1061  1.0547
 8281SOL     OW26130   7.471   3.071   0.236 -0.8020  0.1182 -0.1230
 8281SOL    HW126131   7.539   3.094   0.298  0.1125 -1.5496 -0.4687
 8281SOL    HW226132   7.394   3.054   0.290  0.2048 -2.1787  0.6897
 8282SOL     OW26133   4.469   7.161   4.217 -0.0452  0.1616 -0.6092
 8282SOL    HW126134   4.448   7.075   4.182 -1.6301  0.8141 -1.3418
 8282SOL    HW226135   4.387   7.209   4.215 -0.0313  0.6394  2.9653
 8283SOL     OW26136   7.256   5.828   0.369 -0.0962  0.2040  0.1333
 8283SOL    HW126137   7.296   5.745   0.397  1.0407  1.3174  2.0262
 8283SOL    HW226138   7.165   5.806   0.350  0.2791 -1.5484  0.1927
 8284SOL     OW26139   0.582   8.567   7.258 -0.7073  0.4426 -0.1070
 8284SOL    HW126140   0.644   8.506   7.298 -2.9049 -0.2904  2.5100
 8284SOL    HW226141   0.622   8.654   7.271  0.0130 -0.0374  1.0731
 8285SOL     OW26142   3.805   1.427   3.705  0.0261 -0.6488  0.4119
 8285SOL    HW126143   3.830   1.353   3.650  2.5831 -0.2706  0.9640
 8285SOL    HW226144   3.716   1.407   3.733 -0.4989 -1.9913 -1.9116
 8286SOL     OW26145   2.328   6.860   8.499  0.0218 -0.0762 -0.3741
 8286SOL    HW126146   2.384   6.786   8.473  1.4081  0.5146  0.7944
 8286SOL    HW226147   2.298   6.896   8.416  1.0959 -0.6470 -1.0430
 8287SOL     OW26148   6.336   6.384   6.959  0.1724 -0.1986  0.0778
 8287SOL    HW126149   6.257   6.421   6.920  0.3022 -0.8366 -0.8246
 8287SOL    HW226150   6.321   6.289   6.956  1.3365 -0.3678 -0.9212
 8288SOL     OW26151   4.699   0.815   8.207 -0.4450 -0.4592 -0.8533
 8288SOL    HW126152   4.604   0.798   8.201 -0.2247 -2.6414  0.6680
 8288SOL    HW226153   4.734   0.781   8.125 -0.8500 -0.7735 -0.9029
 8289SOL     OW26154   5.031   5.944   8.539  0.2776 -0.1521  0.4430
 8289SOL    HW126155   5.120   5.938   8.576  0.7967  1.0319 -0.5266
 8289SOL    HW226156   5.029   6.031   8.497 -1.7382  0.3355  1.4398
 8290SOL     OW26157   4.285   7.450   0.728  0.3949  0.3675  0.1057
 8290SOL    HW126158   4.325   7.374   0.686  0.5747  0.7656 -0.4562
 8290SOL    HW226159   4.331   7.458   0.812 -0.0177 -0.4747  0.4217
 8291SOL     OW26160   7.474   0.788   6.115 -0.4333  0.3830 -0.8134
 8291SOL    HW126161   7.425   0.741   6.048  0.7508  0.4198 -1.7459
 8291SOL    HW226162   7.432   0.874   6.119 -1.0165  0.1085 -0.9368
 8292SOL     OW26163   2.159   6.546   4.289 -0.2633 -0.0081  0.3322
 8292SOL    HW126164   2.227   6.481   4.274  0.4385  0.6425  0.6445
 8292SOL    HW226165   2.080   6.508   4.249  0.8146  0.3471 -2.3558
 8293SOL     OW26166   5.283   0.704   4.093  0.1263  0.4405 -0.5944
 8293SOL    HW126167   5.281   0.610   4.113 -0.7411  0.6301  0.3044
 8293SOL    HW226168   5.230   0.712   4.013 -1.2129  0.3428  0.2488
 8294SOL     OW26169   1.198   3.435   1.723 -0.2653 -0.4212  0.0339
 8294SOL    HW126170   1.284   3.421   1.764  0.3319  0.0614 -1.0061
 8294SOL    HW226171   1.137   3.385   1.777  0.9563 -2.4252 -0.3089
 8295SOL     OW26172   5.404   2.268   0.546  0.2893 -0.0661  0.0456
 8295SOL    HW126173   5.398   2.176   0.571 -0.6676  0.2298  0.9607
 8295SOL    HW226174   5.355   2.273   0.463 -2.4724  0.1474  1.5671
 8296SOL     OW26175   1.405   4.005   3.672  0.6489 -0.0697 -0.1123
 8296SOL    HW126176   1.434   3.914   3.674 -2.0739 -1.0159  1.2811
 8296SOL    HW226177   1.443   4.044   3.751 -0.1031 -0.7236  0.6004
 8297SOL     OW26178   1.711   7.933   5.339  0.3129  0.3494 -0.4219
 8297SOL    HW126179   1.619   7.910   5.350  0.4636 -1.0168 -1.7792
 8297SOL    HW226180   1.714   7.986   5.259  0.7052  0.4379 -0.3545
 8298SOL     OW26181   6.364   6.238   8.444 -0.7061  0.0004 -0.0011
 8298SOL    HW126182   6.319   6.262   8.363 -0.6184 -0.7222 -0.2670
 8298SOL    HW226183   6.413   6.160   8.422  0.1013  0.3609  0.4911
 8299SOL     OW26184   1.249   6.138   4.244 -0.0211 -0.2920  0.4775
 8299SOL    HW126185   1.231   6.221   4.288  0.3428  0.2745 -0.4005
 8299SOL    HW226186   1.185   6.077   4.280 -0.8928  0.6010  0.4765
 8300SOL     OW26187   5.103   8.066   7.585 -0.2571  0.0568 -0.0538
 8300SOL    HW126188   5.016   8.105   7.584  0.9156  2.8802  0.0565
 8300SOL    HW226189   5.122   8.046   7.493  0.4696  3.1952 -0.6806
 8301SOL     OW26190   6.028   5.547   0.007  0.0360  0.0745  0.2675
 8301SOL    HW126191   5.971   5.477   0.038  0.1234 -0.3820 -0.5791
 8301SOL    HW226192   6.085   5.566   0.081 -0.7408  0.0502  0.8918
 8302SOL     OW26193   7.073   1.607   7.672 -0.0888 -1.1319  0.1105
 8302SOL    HW126194   7.109   1.643   7.753  1.5110 -0.2870 -0.9224
 8302SOL    HW226195   7.024   1.679   7.633  0.7695 -0.9199 -0.5987
 8303SOL     OW26196   0.155   2.769   4.762  0.4833 -0.4208 -0.1625
 8303SOL    HW126197   0.154   2.847   4.818  1.1473 -1.5412  1.4776
 8303SOL    HW226198   0.245   2.762   4.732  0.5549 -0.8553  0.1442
 8304SOL     OW26199   3.665   0.440   1.348  0.0479 -0.0211  0.4186
 8304SOL    HW126200   3.681   0.351   1.381  1.6284  0.1019  0.0327
 8304SOL    HW226201   3.666   0.495   1.426  1.4443 -0.0398  0.4269
 8305SOL     OW26202   6.502   0.280   6.104  0.2222 -0.1407 -0.3446
 8305SOL    HW126203   6.490   0.344   6.175  0.8534  0.7699 -1.0264
 8305SOL    HW226204   6.594   0.291   6.078  0.4856 -1.7099 -0.1324
 8306SOL     OW26205   1.205   4.656   2.991  0.3745  0.3763  0.0946
 8306SOL    HW126206   1.275   4.609   2.947 -0.5694 -0.0015 -1.0779
 8306SOL    HW226207   1.185   4.729   2.933  0.5264  1.1129  0.9524
 8307SOL     OW26208   5.520   0.190   3.590  0.0770 -0.1414 -0.2088
 8307SOL    HW126209   5.508   0.203   3.496  0.4366  0.5502 -0.1686
 8307SOL    HW226210   5.607   0.152   3.599  0.3958  0.5963 -0.1059
 8308SOL     OW26211   6.672   4.472   5.995  0.7089 -0.8729 -0.2370
 8308SOL    HW126212   6.675   4.438   6.084 -0.0001 -0.6378 -0.1156
 8308SOL    HW226213   6.702   4.563   6.003  0.4670 -0.7956 -0.2090
 8309SOL     OW26214   3.846   3.459   1.847  0.0266  0.1267 -0.1601
 8309SOL    HW126215   3.793   3.538   1.857 -0.1948  0.0876 -0.8862
 8309SOL    HW226216   3.912   3.482   1.782 -0.5060 -0.4927 -0.9496
 8310SOL     OW26217   5.869   5.968   4.282  0.2563  0.3835  0.1181
 8310SOL    HW126218   5.946   5.914   4.299 -0.4762 -0.0720  2.1540
 8310SOL    HW226219   5.899   6.058   4.299  0.7503  0.3781 -0.6722
 8311SOL     OW26220   7.300   4.390   4.648 -0.0980  0.3896  0.1259
 8311SOL    HW126221   7.341   4.344   4.575  1.2309 -0.2937  1.2581
 8311SOL    HW226222   7.321   4.482   4.632  0.8575  0.1689  0.0404
 8312SOL     OW26223   2.348   0.521   6.771 -0.0492 -0.2156  0.2834
 8312SOL    HW126224   2.440   0.529   6.798 -0.3685 -0.3320  1.4420
 8312SOL    HW226225   2.309   0.605   6.797 -0.8870 -1.1753  2.3867
 8313SOL     OW26226   4.113   8.432   1.608 -0.2919 -0.9113 -0.4580
 8313SOL    HW126227   4.204   8.457   1.623  0.0708 -1.9459 -0.8161
 8313SOL    HW226228   4.078   8.416   1.696 -0.4710  0.5533 -0.2380
 8314SOL     OW26229   8.047   5.862   1.256  0.1093 -0.1590 -0.0141
 8314SOL    HW126230   8.018   5.773   1.274 -0.1644  0.1753  1.3013
 8314SOL    HW226231   8.015   5.913   1.331  0.3571  1.0191 -0.6925
 8315SOL     OW26232   7.982   6.700   2.482 -0.5916  0.1784 -0.7582
 8315SOL    HW126233   7.976   6.613   2.521 -1.8958  0.0067 -1.2985
 8315SOL    HW226234   8.005   6.757   2.556 -1.1485 -0.4209 -0.0962
 8316SOL     OW26235   2.784   2.430   3.273  0.1846  0.3973  0.4780
 8316SOL    HW126236   2.876   2.429   3.300  0.8746  0.5752 -1.6160
 8316SOL    HW226237   2.788   2.436   3.177 -2.0202  2.1815  0.4164
 8317SOL     OW26238   3.695   7.014   2.833  0.3563 -0.3854 -0.0441
 8317SOL    HW126239   3.742   6.935   2.857  3.0217  0.7132 -1.2259
 8317SOL    HW226240   3.739   7.084   2.881 -0.7275  0.5945 -0.4319
 8318SOL     OW26241   0.129   4.047   2.450  0.1145 -0.5264 -0.6130
 8318SOL    HW126242   0.161   4.035   2.540  1.1140  1.0806 -0.6942
 8318SOL    HW226243   0.153   3.967   2.404  0.3092 -1.0388  0.3634
 8319SOL     OW26244   7.311   7.173   5.364  0.2436  0.3316  0.0762
 8319SOL    HW126245   7.312   7.248   5.423 -1.8756  0.5228 -0.0394
 8319SOL    HW226246   7.272   7.206   5.283 -1.4437 -1.0055  0.2754
 8320SOL     OW26247   3.979   6.279   5.588 -0.6292 -0.3005 -0.1526
 8320SOL    HW126248   3.941   6.294   5.675 -1.8576  0.5377 -0.8206
 8320SOL    HW226249   4.063   6.236   5.607  0.6177  2.6112  1.6374
 8321SOL     OW26250   5.394   4.722   3.492 -0.0813 -0.3979  0.0742
 8321SOL    HW126251   5.401   4.628   3.508 -0.9165 -0.6951 -1.1419
 8321SOL    HW226252   5.342   4.729   3.412 -2.5902  1.1722  1.6871
 8322SOL     OW26253   7.840   3.757   5.304  0.0807 -0.3604 -0.2327
 8322SOL    HW126254   7.838   3.809   5.224  1.4672 -0.9720 -0.7015
 8322SOL    HW226255   7.840   3.821   5.374 -0.3489  0.2035 -0.7330
 8323SOL     OW26256   2.386   8.463   1.778 -0.0475 -0.2908 -0.0926
 8323SOL    HW126257   2.318   8.529   1.763  0.0521 -0.2462 -0.3612
 8323SOL    HW226258   2.392   8.455   1.873 -0.7690 -0.6385 -0.0660
 8324SOL     OW26259   5.841   4.951   7.916 -0.1366 -0.3776 -0.6878
 8324SOL    HW126260   5.843   5.030   7.862  1.6172 -0.2823 -0.5121
 8324SOL    HW226261   5.919   4.956   7.970 -0.0245 -2.2010 -0.6204
 8325SOL     OW26262   5.353   3.958   0.808  0.6856  0.1927 -0.1097
 8325SOL    HW126263   5.339   4.053   0.802 -1.0285  0.0017  0.4738
 8325SOL    HW226264   5.387   3.934   0.721 -0.1382  1.1364 -0.7206
 8326SOL     OW26265   4.091   5.829   7.853 -0.5372  0.2345  0.1734
 8326SOL    HW126266   4.054   5.833   7.765 -0.6686 -0.8279  0.1601
 8326SOL    HW226267   4.092   5.735   7.874  2.5910  0.0999 -0.0373
 8327SOL     OW26268   3.701   7.270   3.577 -0.2379 -0.3231  0.1892
 8327SOL    HW126269   3.776   7.322   3.549  0.1332 -0.9324  0.0416
 8327SOL    HW226270   3.732   7.221   3.652 -1.1701  1.1440  1.6065
 8328SOL     OW26271   7.760   7.577   0.997 -0.3026 -0.5325  0.1325
 8328SOL    HW126272   7.665   7.565   0.995 -0.5325  1.0271 -0.0856
 8328SOL    HW226273   7.777   7.614   1.084 -0.3791  2.2105 -0.9085
 8329SOL     OW26274   7.978   1.765   1.010  0.1876 -0.3479 -0.2918
 8329SOL    HW126275   7.904   1.717   1.047 -0.0510 -0.3609 -0.7782
 8329SOL    HW226276   7.976   1.744   0.917  1.3379 -1.0555 -0.1672
 8330SOL     OW26277   7.941   1.328   1.171 -0.2264  0.2810  0.0588
 8330SOL    HW126278   8.033   1.335   1.147 -0.5057  2.2202 -0.6362
 8330SOL    HW226279   7.915   1.241   1.141  1.7551 -1.0074  1.7952
 8331SOL     OW26280   8.295   6.562   3.929  0.1459  0.0149 -0.6142
 8331SOL    HW126281   8.308   6.575   4.023  2.8464 -0.6014 -0.8149
 8331SOL    HW226282   8.306   6.649   3.890 -0.3980  0.1703 -0.4320
 8332SOL     OW26283   1.985   2.967   5.169 -0.7024  0.3465 -0.0362
 8332SOL    HW126284   2.051   3.013   5.118 -1.3933  1.3537 -0.0526
 8332SOL    HW226285   1.923   2.933   5.105  1.2796 -3.2449 -0.3147
 8333SOL     OW26286   7.950   3.435   0.723  0.4352 -0.0152 -0.1560
 8333SOL    HW126287   7.903   3.500   0.776  0.9810 -0.2509  0.6314
 8333SOL    HW226288   7.881   3.384   0.681 -0.0355 -0.4557  1.0981
 8334SOL     OW26289   2.033   7.266   5.577 -0.3079  0.1663  0.7655
 8334SOL    HW126290   2.024   7.280   5.482 -1.9852  0.7364  0.9650
 8334SOL    HW226291   2.120   7.297   5.598 -0.1888  0.7553 -0.4775
 8335SOL     OW26292   0.535   6.010   5.737 -0.6874 -0.7090  0.0973
 8335SOL    HW126293   0.452   6.044   5.703 -0.2213  0.2749 -0.0776
 8335SOL    HW226294   0.580   5.976   5.660 -0.8724 -1.1393  0.1760
 8336SOL     OW26295   7.703   2.638   1.015 -0.0184  0.0505  1.0520
 8336SOL    HW126296   7.719   2.649   0.921 -1.6526  0.0279  0.7489
 8336SOL    HW226297   7.763   2.569   1.041 -1.6021 -2.1125 -0.6397
 8337SOL     OW26298   1.007   3.055   4.851  0.1145 -0.1219  0.9232
 8337SOL    HW126299   0.952   3.073   4.775  0.0362 -1.2095  0.7088
 8337SOL    HW226300   1.012   2.960   4.856  1.5952 -0.0634  1.2061
 8338SOL     OW26301   2.503   5.226   8.387  0.9457  0.2536  0.9892
 8338SOL    HW126302   2.476   5.225   8.295  0.1465 -1.0133  1.2063
 8338SOL    HW226303   2.498   5.318   8.413 -3.8747  0.2124  1.1592
 8339SOL     OW26304   6.129   5.424   8.261  0.4278  0.4861  0.2680
 8339SOL    HW126305   6.146   5.399   8.352 -2.2687 -2.1468  0.2249
 8339SOL    HW226306   6.053   5.482   8.267 -0.9791 -1.2058 -0.3021
 8340SOL     OW26307   4.624   6.334   7.728  0.1256 -0.2044  0.2788
 8340SOL    HW126308   4.624   6.240   7.745 -1.4063 -0.4672 -0.9603
 8340SOL    HW226309   4.591   6.373   7.809 -0.3326 -0.8184  0.3916
 8341SOL     OW26310   1.517   8.639   8.396  0.2466  0.1928 -0.4718
 8341SOL    HW126311   1.597   8.604   8.433 -0.1596 -1.0832 -0.7285
 8341SOL    HW226312   1.447   8.602   8.450 -0.1972  0.7963 -0.6201
 8342SOL     OW26313   1.290   1.048   6.239  0.0157 -0.2689  0.2115
 8342SOL    HW126314   1.279   0.953   6.242  1.7006 -0.5089 -0.1074
 8342SOL    HW226315   1.225   1.077   6.175 -0.4294 -1.2084  0.2099
 8343SOL     OW26316   0.995   5.922   7.539 -0.4687  0.2879  0.6211
 8343SOL    HW126317   1.081   5.882   7.549 -1.1174 -0.8424  2.3277
 8343SOL    HW226318   0.997   5.965   7.454  1.9716  0.8003  0.8862
 8344SOL     OW26319   3.618   7.410   2.541 -0.7111 -0.6117 -0.1989
 8344SOL    HW126320   3.683   7.478   2.562 -0.0897 -1.5291  0.9722
 8344SOL    HW226321   3.580   7.438   2.458  1.5436 -0.2902 -1.1907
 8345SOL     OW26322   2.743   2.423   5.243 -0.3869 -0.0882 -0.3466
 8345SOL    HW126323   2.751   2.407   5.337 -0.6503  0.2236 -0.2686
 8345SOL    HW226324   2.667   2.372   5.216  1.1586 -2.2494 -0.8955
 8346SOL     OW26325   7.930   1.152   1.452  0.3107 -0.0813  0.1873
 8346SOL    HW126326   7.874   1.230   1.442  1.5474  0.7595 -0.5333
 8346SOL    HW226327   7.898   1.092   1.385  0.6650  0.6517 -0.6648
 8347SOL     OW26328   5.077   1.710   0.158 -0.2563 -0.2874 -0.6265
 8347SOL    HW126329   5.160   1.731   0.202  0.4806 -1.2381 -1.5099
 8347SOL    HW226330   5.012   1.767   0.200  0.6226 -0.3613  0.8950
 8348SOL     OW26331   3.624   8.562   0.827 -0.1309 -0.3764 -0.1763
 8348SOL    HW126332   3.688   8.633   0.831 -0.6442  0.2201 -1.9491
 8348SOL    HW226333   3.668   8.489   0.871  2.9197 -0.8244 -3.5036
 8349SOL     OW26334   0.245   0.432   3.450 -0.8952 -0.3184  0.7965
 8349SOL    HW126335   0.261   0.521   3.479  0.7249 -0.7004  1.1962
 8349SOL    HW226336   0.247   0.380   3.531 -0.1830 -0.9102  0.4116
 8350SOL     OW26337   6.292   3.200   7.466  0.3934 -0.6371  0.2185
 8350SOL    HW126338   6.279   3.106   7.460  0.6849 -0.6764  0.1874
 8350SOL    HW226339   6.355   3.212   7.537  1.0006 -0.5255 -0.3273
 8351SOL     OW26340   7.687   1.085   3.405 -0.2602  0.4865 -0.3866
 8351SOL    HW126341   7.629   1.155   3.437  1.8174  0.8083  3.2389
 8351SOL    HW226342   7.768   1.130   3.382  0.2123 -0.4485 -0.5695
 8352SOL     OW26343   1.744   5.722   8.554  0.0573 -0.0068  0.0581
 8352SOL    HW126344   1.784   5.736   8.468  2.5411 -0.0238  1.1091
 8352SOL    HW226345   1.818   5.726   8.615 -1.4592 -1.1208  2.0824
 8353SOL     OW26346   2.020   2.230   8.628 -0.3029  0.2591 -0.0254
 8353SOL    HW126347   1.974   2.146   8.634  0.3562 -0.0396  1.0497
 8353SOL    HW226348   2.067   2.238   8.711  0.0286  1.4746 -0.3082
 8354SOL     OW26349   6.100   0.066   4.250 -0.5975  0.0342  0.0616
 8354SOL    HW126350   6.058  -0.001   4.304  1.3003 -1.9375 -0.7999
 8354SOL    HW226351   6.031   0.095   4.190 -1.2514 -1.7852 -0.1123
 8355SOL     OW26352   8.527   3.968   3.328 -0.2355  0.5394 -0.0887
 8355SOL    HW126353   8.557   3.899   3.269  0.6634  1.2547 -0.4910
 8355SOL    HW226354   8.562   3.944   3.414 -1.4365 -0.4336  0.1505
 8356SOL     OW26355   4.216   7.002   0.917 -0.6820  0.0166  0.9409
 8356SOL    HW126356   4.135   7.050   0.897 -0.6262  0.6570  2.1313
 8356SOL    HW226357   4.193   6.910   0.903 -1.5206  0.2134  0.9421
 8357SOL     OW26358   0.757   5.836   4.518 -0.1064 -0.3445 -0.6831
 8357SOL    HW126359   0.777   5.802   4.604 -1.0606 -0.3643 -0.4562
 8357SOL    HW226360   0.722   5.761   4.469 -1.9475  0.1950 -0.2685
 8358SOL     OW26361   4.085   3.868   4.741 -0.1224 -0.2951  0.2168
 8358SOL    HW126362   4.041   3.827   4.816 -1.1602 -2.2072 -1.3206
 8358SOL    HW226363   4.021   3.932   4.708 -0.7277 -1.2115 -0.4529
 8359SOL     OW26364   7.214   6.557   5.374 -0.0631  0.0771  0.3237
 8359SOL    HW126365   7.144   6.618   5.351 -0.2171 -0.0412  0.4740
 8359SOL    HW226366   7.295   6.601   5.348 -0.2395 -0.0844 -0.5259
 8360SOL     OW26367   5.674   4.322   5.963 -0.1388 -0.1156 -0.2385
 8360SOL    HW126368   5.739   4.391   5.950 -0.1637 -0.4321 -2.4311
 8360SOL    HW226369   5.598   4.368   5.998  0.0000  0.9170 -1.2277
 8361SOL     OW26370   3.160   0.105   6.612 -0.0702 -0.1070  0.3159
 8361SOL    HW126371   3.222   0.172   6.582 -0.2239  0.6017  1.5382
 8361SOL    HW226372   3.203   0.065   6.688 -0.0499 -1.3220 -0.2922
 8362SOL     OW26373   5.220   3.112   2.492 -0.7392  0.7926  0.4752
 8362SOL    HW126374   5.311   3.140   2.498 -0.7490  0.6692  1.4190
 8362SOL    HW226375   5.208   3.087   2.401  0.1521  0.8782  0.3289
 8363SOL     OW26376   5.828   2.973   8.011  0.3426  0.3107 -0.4477
 8363SOL    HW126377   5.898   2.995   8.073  1.3181  0.5450 -1.6148
 8363SOL    HW226378   5.841   2.880   7.992  0.6566  0.4721 -1.0466
 8364SOL     OW26379   2.421   0.544   3.750 -0.0925 -0.8021 -0.4217
 8364SOL    HW126380   2.416   0.464   3.699 -1.1190 -0.3123 -1.1299
 8364SOL    HW226381   2.434   0.514   3.840 -2.0047 -1.8694 -0.4355
 8365SOL     OW26382   2.397   8.481   6.661  0.1850 -1.1953  0.0446
 8365SOL    HW126383   2.427   8.438   6.581  0.3794  0.7508 -0.9926
 8365SOL    HW226384   2.313   8.439   6.681  0.1027 -1.6743 -1.2343
 8366SOL     OW26385   2.724   3.704   6.961  0.2854  0.4245 -0.1219
 8366SOL    HW126386   2.636   3.737   6.945 -0.0282 -1.1468 -1.8906
 8366SOL    HW226387   2.746   3.736   7.049 -1.4718  2.0045 -0.1995
 8367SOL     OW26388   3.873   0.843   5.146 -0.4436  0.2146  0.1100
 8367SOL    HW126389   3.900   0.935   5.143  1.4477 -0.3052 -0.1826
 8367SOL    HW226390   3.879   0.814   5.055 -1.7315 -0.0240  0.0926
 8368SOL     OW26391   5.313   2.038   4.930  0.4962 -0.6105 -0.3311
 8368SOL    HW126392   5.369   1.969   4.964  1.7447 -0.6833 -2.3574
 8368SOL    HW226393   5.347   2.056   4.842 -0.6628  1.6044 -0.4144
 8369SOL     OW26394   4.122   5.224   6.583  0.2275  0.1257  0.2389
 8369SOL    HW126395   4.085   5.302   6.543  2.5917  1.2263  0.0134
 8369SOL    HW226396   4.093   5.151   6.527 -1.1370  0.9410 -0.1536
 8370SOL     OW26397   5.714   6.418   8.233 -0.0462 -0.9588  0.1885
 8370SOL    HW126398   5.768   6.356   8.184 -0.5248 -2.0615  1.0419
 8370SOL    HW226399   5.736   6.503   8.194  1.2921 -1.5324 -0.3849
 8371SOL     OW26400   2.152   1.175   5.258  0.7300  0.0046  0.6078
 8371SOL    HW126401   2.233   1.209   5.297  1.1133  0.2374 -0.3559
 8371SOL    HW226402   2.082   1.223   5.302  1.2441  2.1184 -0.6790
 8372SOL     OW26403   7.923   2.358   0.602 -0.0764 -0.3414 -0.8008
 8372SOL    HW126404   7.876   2.290   0.651 -1.2247  1.4718  0.7371
 8372SOL    HW226405   7.875   2.364   0.519 -1.3196  0.0415 -0.0890
 8373SOL     OW26406   7.331   3.190   4.203  0.2024  0.0033 -0.1573
 8373SOL    HW126407   7.362   3.119   4.259 -0.1002 -0.4210 -0.5210
 8373SOL    HW226408   7.238   3.199   4.225  0.2525  0.3273 -0.0727
 8374SOL     OW26409   2.229   0.446   8.018  0.1089  0.2843  0.2339
 8374SOL    HW126410   2.175   0.369   7.999  0.4025  0.5605 -2.0290
 8374SOL    HW226411   2.310   0.431   7.969  0.7688  1.3669  0.9498
 8375SOL     OW26412   8.144   2.682   2.614  0.4614  0.2846 -0.4519
 8375SOL    HW126413   8.239   2.688   2.612  0.5055 -0.3301 -0.2679
 8375SOL    HW226414   8.125   2.608   2.671 -0.0803 -0.6473 -1.7958
 8376SOL     OW26415   1.599   3.944   1.066  0.2091 -0.5307 -0.0551
 8376SOL    HW126416   1.593   4.024   1.014 -1.5580  0.2885  1.3103
 8376SOL    HW226417   1.510   3.910   1.068  0.8617 -2.3902 -0.3261
 8377SOL     OW26418   8.068   1.906   2.760  0.1095 -0.3962  0.4405
 8377SOL    HW126419   8.003   1.854   2.808 -1.5075  0.4213 -0.7551
 8377SOL    HW226420   8.146   1.851   2.759 -1.0016 -2.0623  0.7057
 8378SOL     OW26421   1.963   4.886   7.987 -0.5152  0.1740 -0.3361
 8378SOL    HW126422   2.008   4.801   7.989  0.8373  0.8734  1.3708
 8378SOL    HW226423   2.020   4.945   8.036 -1.7542  1.9273 -0.9022
 8379SOL     OW26424   0.546   0.768   2.558  0.7799 -0.7181 -0.5595
 8379SOL    HW126425   0.479   0.829   2.527  1.9577  0.3838 -1.0135
 8379SOL    HW226426   0.629   0.805   2.527  1.7278 -1.3312  1.1190
 8380SOL     OW26427   6.898   3.640   6.564  0.0338 -0.2213  0.1457
 8380SOL    HW126428   6.863   3.723   6.598  0.1351  0.0995 -0.5128
 8380SOL    HW226429   6.899   3.652   6.469 -1.6640 -1.6611 -0.0881
 8381SOL     OW26430   1.040   3.157   0.302  0.3463  0.2711 -0.7801
 8381SOL    HW126431   0.975   3.091   0.279  1.0733 -0.4513 -0.7888
 8381SOL    HW226432   1.062   3.199   0.219  2.0443 -1.4912 -1.3022
 8382SOL     OW26433   2.853   1.180   3.843 -0.2646  0.1304  0.5924
 8382SOL    HW126434   2.807   1.097   3.853  1.7759 -1.3814 -1.3505
 8382SOL    HW226435   2.923   1.177   3.908  0.2845 -0.0641  0.0061
 8383SOL     OW26436   2.628   1.365   8.129 -0.8604 -0.6286  0.3992
 8383SOL    HW126437   2.568   1.435   8.153 -1.2859 -0.6889 -0.4796
 8383SOL    HW226438   2.616   1.353   8.035  0.7300 -0.4481  0.1412
 8384SOL     OW26439   1.772   3.183   2.499 -0.0208  0.2127  0.1344
 8384SOL    HW126440   1.827   3.143   2.567 -0.8255  2.2859  2.1100
 8384SOL    HW226441   1.824   3.255   2.465  0.4254 -0.8731 -1.6563
 8385SOL     OW26442   4.092   2.460   6.655 -0.5102 -0.5386  0.3485
 8385SOL    HW126443   4.045   2.535   6.620  0.1992  0.2297  1.0093
 8385SOL    HW226444   4.029   2.416   6.713 -2.6736 -3.3795 -3.6537
 8386SOL     OW26445   1.294   7.508   0.116  0.1725  0.1224  0.6739
 8386SOL    HW126446   1.334   7.594   0.126 -1.0573  1.0124 -1.2976
 8386SOL    HW226447   1.343   7.466   0.045  1.2490 -1.1681  2.1107
 8387SOL     OW26448   3.128   4.024   1.510 -0.1078 -0.1936  0.2387
 8387SOL    HW126449   3.082   4.013   1.593  0.1060 -0.7494  0.2876
 8387SOL    HW226450   3.124   3.937   1.468  1.9135 -0.5984  0.7717
 8388SOL     OW26451   1.396   2.191   7.258  0.1752 -0.2473 -0.5193
 8388SOL    HW126452   1.475   2.232   7.293  0.6943  0.1799 -2.0766
 8388SOL    HW226453   1.428   2.136   7.187 -0.9113 -0.2028 -1.0607
 8389SOL     OW26454   4.690   8.027   0.096  0.4082  0.4670  0.2038
 8389SOL    HW126455   4.600   8.002   0.076 -0.1737  2.3113  0.3594
 8389SOL    HW226456   4.717   7.967   0.166 -1.4499  1.1820  1.6300
 8390SOL     OW26457   2.755   1.859   8.326  0.1566  0.0158 -0.9584
 8390SOL    HW126458   2.833   1.803   8.330 -0.2606 -0.6540 -1.8294
 8390SOL    HW226459   2.695   1.820   8.389  0.7722  0.9796  0.2830
 8391SOL     OW26460   0.446   2.507   0.578 -0.4838  0.1502 -0.1178
 8391SOL    HW126461   0.393   2.493   0.657 -0.0354 -1.7441 -0.0937
 8391SOL    HW226462   0.452   2.420   0.538 -0.4811  1.0216 -2.1148
 8392SOL     OW26463   7.965   3.445   6.930 -0.1777  0.3441  0.8843
 8392SOL    HW126464   7.946   3.422   7.021  0.7195  1.1377  1.2851
 8392SOL    HW226465   8.060   3.444   6.925 -0.2173 -1.6247 -0.5748
 8393SOL     OW26466   3.497   8.656   0.602 -0.6216  0.1184  1.2423
 8393SOL    HW126467   3.548   8.627   0.678 -0.7781 -0.2138  1.2210
 8393SOL    HW226468   3.518   8.592   0.534  0.6537  1.2212  0.5478
 8394SOL     OW26469   2.541   5.149   6.274 -0.0487 -0.2325 -0.1428
 8394SOL    HW126470   2.537   5.239   6.307  0.2084  0.0322 -0.8080
 8394SOL    HW226471   2.494   5.152   6.191  1.9719 -0.1368 -1.3650
 8395SOL     OW26472   6.184   3.991   5.750  0.3504 -0.1124 -0.0965
 8395SOL    HW126473   6.180   3.900   5.719  0.9238  0.0755 -0.7335
 8395SOL    HW226474   6.180   4.044   5.671  1.2530  0.3883  0.1875
 8396SOL     OW26475   6.455   7.768   4.720 -0.0617 -0.0598  0.1726
 8396SOL    HW126476   6.366   7.736   4.733  0.1388 -0.8002 -0.2611
 8396SOL    HW226477   6.496   7.704   4.662  0.6054  0.5357 -0.0257
 8397SOL     OW26478   6.290   2.537   0.946  0.1890 -0.4723  1.1624
 8397SOL    HW126479   6.371   2.489   0.962  0.6821  0.5912  2.0828
 8397SOL    HW226480   6.274   2.584   1.028  0.0850  1.3948  0.1466
 8398SOL     OW26481   7.254   3.837   3.389  0.3457 -0.0160  0.0475
 8398SOL    HW126482   7.286   3.925   3.367  2.2670 -0.9088 -1.0158
 8398SOL    HW226483   7.271   3.785   3.310 -0.0129 -1.5259  0.9252
 8399SOL     OW26484   3.127   4.285   7.423  0.5827  0.3625  0.2631
 8399SOL    HW126485   3.152   4.233   7.499  0.6660 -1.0412 -0.7033
 8399SOL    HW226486   3.146   4.375   7.449  0.3230 -0.0506  2.0119
 8400SOL     OW26487   5.883   6.526   0.222  0.3627 -0.1026  0.3296
 8400SOL    HW126488   5.831   6.604   0.206  0.3078 -0.0993  0.5181
 8400SOL    HW226489   5.821   6.463   0.258  0.0842 -0.7470 -1.2022
 8401SOL     OW26490   6.171   1.440   5.146  0.1605 -0.3397 -0.7907
 8401SOL    HW126491   6.100   1.465   5.087  1.8566  0.5782 -2.5562
 8401SOL    HW226492   6.132   1.444   5.233 -1.8311  0.5704 -1.6577
 8402SOL     OW26493   3.520   5.462   6.807  0.0933  0.0006  0.2672
 8402SOL    HW126494   3.501   5.407   6.883 -0.9661  1.0045  0.7508
 8402SOL    HW226495   3.609   5.437   6.781 -0.3240 -1.8790  0.5045
 8403SOL     OW26496   6.061   1.076   5.194  0.3315  0.2410 -0.0965
 8403SOL    HW126497   6.100   0.995   5.161 -1.0302  0.0640 -1.3699
 8403SOL    HW226498   6.064   1.066   5.289 -3.6598 -3.3920 -0.0344
 8404SOL     OW26499   1.341   6.061   8.028 -0.3155  0.0923  0.0573
 8404SOL    HW126500   1.386   6.135   8.068 -2.5632  0.8080  1.4533
 8404SOL    HW226501   1.411   5.997   8.010  1.7203  2.5235 -1.3299
 8405SOL     OW26502   6.449   1.680   5.448 -0.1775 -0.3997 -0.1736
 8405SOL    HW126503   6.488   1.629   5.376 -0.8641 -1.8604  0.4572
 8405SOL    HW226504   6.509   1.667   5.521 -0.1713  0.0254 -0.0988
 8406SOL     OW26505   0.239   0.812   0.623  0.4209  0.6614  0.1115
 8406SOL    HW126506   0.315   0.785   0.573 -1.5471 -0.6242 -2.4248
 8406SOL    HW226507   0.197   0.880   0.569 -2.2215 -1.3519 -0.6091
 8407SOL     OW26508   0.495   0.751   5.415  0.0425  0.3613  0.0346
 8407SOL    HW126509   0.506   0.696   5.492 -0.4484  1.3847  0.8570
 8407SOL    HW226510   0.401   0.751   5.398  0.3483 -2.1412 -2.3247
 8408SOL     OW26511   4.987   6.093   1.354 -0.2645  0.3064 -0.4982
 8408SOL    HW126512   4.909   6.142   1.380  0.7798  1.6721  0.1774
 8408SOL    HW226513   4.991   6.020   1.416  0.3621  1.6626  1.1341
 8409SOL     OW26514   2.305   7.282   7.760 -0.1437  0.2981  0.0152
 8409SOL    HW126515   2.234   7.317   7.705 -0.7020  0.1028  0.6021
 8409SOL    HW226516   2.384   7.322   7.725 -0.4249 -0.2200 -1.2736
 8410SOL     OW26517   1.476   7.492   1.056 -0.2148 -0.6669 -0.2667
 8410SOL    HW126518   1.491   7.548   0.980 -0.0563  1.5972  1.3337
 8410SOL    HW226519   1.530   7.531   1.126 -2.0746 -1.2871  1.6241
 8411SOL     OW26520   4.071   2.350   5.682 -0.2363 -0.3138 -0.1795
 8411SOL    HW126521   4.149   2.400   5.658 -0.3931  0.4577  0.8556
 8411SOL    HW226522   4.106   2.273   5.727 -0.0761  0.2641  0.7014
 8412SOL     OW26523   7.779   7.443   3.611 -0.6203  0.4256  0.0058
 8412SOL    HW126524   7.820   7.529   3.626 -1.8376  1.3309 -1.5499
 8412SOL    HW226525   7.851   7.386   3.585 -0.0711  1.5630 -1.0696
 8413SOL     OW26526   0.953   1.549   7.185  0.5187 -0.2161  0.2319
 8413SOL    HW126527   0.874   1.523   7.138  2.2336 -2.3292 -1.7475
 8413SOL    HW226528   0.981   1.630   7.143 -0.8559  0.9181  1.3903
 8414SOL     OW26529   3.620   3.204   7.760 -0.4343  0.2079  0.2094
 8414SOL    HW126530   3.535   3.225   7.799 -0.1460  1.1010  0.3913
 8414SOL    HW226531   3.683   3.221   7.830  0.0152  0.9779 -0.3706
 8415SOL     OW26532   0.952   3.547   2.536  0.6004  0.0443 -0.7312
 8415SOL    HW126533   0.876   3.537   2.478  1.0184 -0.1598 -1.2460
 8415SOL    HW226534   0.956   3.641   2.554 -0.6199 -0.0923  0.4517
 8416SOL     OW26535   2.261   1.120   1.778 -0.4969  0.1742  0.5238
 8416SOL    HW126536   2.283   1.038   1.822 -0.0332 -0.0433 -0.1048
 8416SOL    HW226537   2.264   1.186   1.847 -0.4430 -0.2674  0.9489
 8417SOL     OW26538   1.911   4.405   1.986  0.1988 -0.3889  0.0203
 8417SOL    HW126539   1.967   4.436   2.057  1.2387 -3.1218  0.4996
 8417SOL    HW226540   1.897   4.312   2.004 -1.7927 -0.5627 -1.9072
 8418SOL     OW26541   7.139   4.472   0.064 -0.3705  0.0018  0.4543
 8418SOL    HW126542   7.156   4.378   0.061  0.0491  0.0533  0.9307
 8418SOL    HW226543   7.092   4.485   0.147 -1.7619  0.0192 -0.3117
 8419SOL     OW26544   5.506   1.109   3.133  0.2501 -0.4946 -0.1143
 8419SOL    HW126545   5.571   1.175   3.108  0.5617 -1.0020 -0.6628
 8419SOL    HW226546   5.516   1.102   3.228 -0.7495  1.2430  0.1543
 8420SOL     OW26547   3.955   3.499   3.505 -0.5054 -0.1014 -0.2058
 8420SOL    HW126548   3.884   3.472   3.563 -1.0908  0.4907 -0.6199
 8420SOL    HW226549   3.937   3.592   3.488  1.4869  0.6140  1.2663
 8421SOL     OW26550   2.812   1.267   0.761  0.2016  0.4656  0.0615
 8421SOL    HW126551   2.717   1.267   0.761  0.2010  0.7613 -0.0663
 8421SOL    HW226552   2.836   1.248   0.852  0.0213  0.5233  0.1211
 8422SOL     OW26553   0.100   8.604   8.341 -0.1444  0.0288  0.5639
 8422SOL    HW126554   0.139   8.691   8.331  0.6088 -0.2138  1.2645
 8422SOL    HW226555   0.061   8.585   8.256  3.6336 -0.8609 -1.1550
 8423SOL     OW26556   8.122   2.266   4.347  0.3361 -0.1985 -0.0481
 8423SOL    HW126557   8.056   2.266   4.278 -0.3614  0.1497  0.6058
 8423SOL    HW226558   8.092   2.332   4.409  1.2480 -0.1095  0.3140
 8424SOL     OW26559   6.463   3.741   5.941 -0.2737 -0.5474  0.0509
 8424SOL    HW126560   6.392   3.702   5.890 -0.9376  0.5334  0.1224
 8424SOL    HW226561   6.420   3.804   5.998  0.5929 -0.8820  1.1177
 8425SOL     OW26562   6.123   0.108   5.154 -0.3443 -0.8615 -0.1273
 8425SOL    HW126563   6.153   0.160   5.080  1.2530 -1.8960 -0.2424
 8425SOL    HW226564   6.126   0.018   5.123  3.7854 -1.7687  2.1259
 8426SOL     OW26565   5.814   0.043   6.806  0.0463 -1.0038 -0.2767
 8426SOL    HW126566   5.860   0.083   6.733 -0.4742 -0.5910 -0.3879
 8426SOL    HW226567   5.794   0.116   6.865  0.4181 -1.3222  0.2602
 8427SOL     OW26568   8.657   0.937   1.761 -0.3838  0.0941 -0.5518
 8427SOL    HW126569   8.637   0.914   1.852 -0.7171 -0.2331 -0.7082
 8427SOL    HW226570   8.651   1.032   1.759 -2.2603  0.0003 -0.6688
 8428SOL     OW26571   4.978   6.360   6.666 -0.0839  0.0248 -0.7627
 8428SOL    HW126572   5.002   6.279   6.711  0.8281  0.1560 -0.9965
 8428SOL    HW226573   4.988   6.428   6.732  1.8239  0.2961 -1.2787
 8429SOL     OW26574   2.627   3.786   0.019  0.1253 -0.1254  0.0082
 8429SOL    HW126575   2.591   3.831   0.095 -1.1662 -0.8829 -0.1282
 8429SOL    HW226576   2.584   3.828  -0.056 -1.4744 -1.8464 -0.1017
 8430SOL     OW26577   6.235   0.887   8.172 -0.4283  0.3279 -0.6059
 8430SOL    HW126578   6.204   0.968   8.133  0.7295 -0.1432 -2.6354
 8430SOL    HW226579   6.212   0.819   8.108 -0.2246 -0.7670  0.4434
 8431SOL     OW26580   7.554   3.679   0.930  0.0457 -0.2302  0.0702
 8431SOL    HW126581   7.498   3.608   0.963 -0.9341 -0.3938 -1.8370
 8431SOL    HW226582   7.514   3.758   0.965 -1.3967 -0.3511 -1.1761
 8432SOL     OW26583   5.520   4.863   5.718  0.3385  0.4631  0.2872
 8432SOL    HW126584   5.601   4.841   5.764  0.1571  0.0644  0.4241
 8432SOL    HW226585   5.452   4.814   5.765  0.5080 -2.3544 -2.1444
 8433SOL     OW26586   4.305   7.556   7.705 -0.7529 -0.1202 -0.2054
 8433SOL    HW126587   4.279   7.470   7.737 -1.6175 -0.2348 -1.1848
 8433SOL    HW226588   4.337   7.541   7.616  0.2442  0.4041  0.0469
 8434SOL     OW26589   1.897   5.682   1.537  0.8741  0.2338  0.6636
 8434SOL    HW126590   1.927   5.621   1.469 -1.0998  1.7751 -1.7970
 8434SOL    HW226591   1.809   5.653   1.559  0.1414  1.7263 -0.0941
 8435SOL     OW26592   5.111   8.435   3.897 -0.0423  0.4939 -0.2913
 8435SOL    HW126593   5.075   8.347   3.912 -1.1134  1.1945  1.5863
 8435SOL    HW226594   5.198   8.433   3.936  0.1935  0.0912 -0.8290
 8436SOL     OW26595   7.751   5.281   8.036 -0.6802  0.1899  0.1900
 8436SOL    HW126596   7.814   5.306   7.969 -0.3097 -0.7917  0.1470
 8436SOL    HW226597   7.677   5.246   7.988 -0.2457 -0.8993  0.2727
 8437SOL     OW26598   1.972   2.303   5.375  0.0645 -0.5837  0.7651
 8437SOL    HW126599   1.937   2.257   5.451  0.6185 -0.5362  1.0551
 8437SOL    HW226600   2.058   2.335   5.403 -0.2035  0.4193  0.4885
 8438SOL     OW26601   0.381   0.595   0.968  0.0593  0.1318  0.5429
 8438SOL    HW126602   0.316   0.586   0.898  0.0227 -1.3919  0.7436
 8438SOL    HW226603   0.376   0.687   0.993  1.0497  1.1278 -2.4018
 8439SOL     OW26604   4.759   6.084   3.745  0.1197 -0.0980 -0.0155
 8439SOL    HW126605   4.777   6.118   3.658  1.4603 -0.8278 -0.0435
 8439SOL    HW226606   4.671   6.045   3.738 -0.2937  0.9084 -0.6912
 8440SOL     OW26607   3.128   4.289   5.575  0.0527  0.0402 -0.9491
 8440SOL    HW126608   3.196   4.223   5.565  0.5651  0.2354  0.9912
 8440SOL    HW226609   3.159   4.363   5.522  1.0976 -0.0624 -0.4924
 8441SOL     OW26610   7.033   5.920   6.311  0.2819 -0.2522  0.0782
 8441SOL    HW126611   7.026   5.930   6.216  0.0594 -2.7925 -0.2544
 8441SOL    HW226612   6.953   5.874   6.336 -0.0009  1.0454  1.6313
 8442SOL     OW26613   7.453   8.117   4.654  0.3681 -0.0981 -0.1202
 8442SOL    HW126614   7.450   8.022   4.662  0.0533 -0.0575  0.3464
 8442SOL    HW226615   7.470   8.134   4.561 -1.1394 -0.6097 -0.5309
 8443SOL     OW26616   7.603   7.605   3.919 -0.2119 -0.2822  0.5908
 8443SOL    HW126617   7.660   7.618   3.994 -0.0733 -0.9106  0.6013
 8443SOL    HW226618   7.655   7.634   3.844 -0.7458  1.3902  0.8333
 8444SOL     OW26619   7.991   6.908   6.524  0.2870  0.0072  0.7908
 8444SOL    HW126620   7.952   6.954   6.599  1.1245  1.8812  0.1632
 8444SOL    HW226621   8.084   6.899   6.548  0.4989  0.3642  0.1289
 8445SOL     OW26622   7.361   6.176   7.875  0.0743 -0.0241 -0.4267
 8445SOL    HW126623   7.454   6.161   7.894  0.7521  2.0047 -1.8277
 8445SOL    HW226624   7.324   6.206   7.959  0.0661 -2.9636  0.7527
 8446SOL     OW26625   3.540   1.264   1.562  0.0548 -0.1538 -0.2142
 8446SOL    HW126626   3.572   1.296   1.477  0.6933 -0.0386  0.0676
 8446SOL    HW226627   3.538   1.169   1.553  0.4774 -0.1623 -0.2350
 8447SOL     OW26628   0.487   6.565   2.939  0.0737  0.6391 -0.4309
 8447SOL    HW126629   0.531   6.531   3.017 -0.5485 -0.5274 -0.5635
 8447SOL    HW226630   0.557   6.601   2.886  1.2221 -2.7548 -1.4648
 8448SOL     OW26631   0.779   6.678   7.649  0.5501 -0.1302  0.2571
 8448SOL    HW126632   0.792   6.689   7.555  1.5456  0.4956  0.4585
 8448SOL    HW226633   0.752   6.764   7.680 -0.3196 -0.4679  0.4734
 8449SOL     OW26634   0.118   0.001   5.079  0.2017  0.2350  0.9232
 8449SOL    HW126635   0.170  -0.035   5.150  1.1055  2.0263  1.2436
 8449SOL    HW226636   0.177   0.064   5.036 -0.7278  0.1005 -0.6391
 8450SOL     OW26637   3.005   1.683   3.478 -0.2530 -0.7115 -0.0294
 8450SOL    HW126638   3.006   1.778   3.478 -1.8242 -0.5563  2.7912
 8450SOL    HW226639   2.920   1.659   3.442  0.6037 -1.1481 -1.8445
 8451SOL     OW26640   8.106   2.699   3.969 -1.0341  0.6160 -0.7270
 8451SOL    HW126641   8.037   2.685   4.034 -0.4671  0.2362 -0.1935
 8451SOL    HW226642   8.136   2.611   3.946 -0.6963  0.7801 -0.9228
 8452SOL     OW26643   0.188   1.542   0.972  0.1245 -0.2494  0.1747
 8452SOL    HW126644   0.120   1.493   1.019 -0.2988 -0.2072 -0.3902
 8452SOL    HW226645   0.226   1.600   1.038  1.2464 -1.9379  1.1020
 8453SOL     OW26646   0.267   6.791   1.609 -0.3163  0.1377  0.1457
 8453SOL    HW126647   0.306   6.718   1.561  0.7068  0.0891  1.0171
 8453SOL    HW226648   0.321   6.867   1.584 -0.3105  0.2703  0.5542
 8454SOL     OW26649   5.879   7.073   7.490 -0.0114 -0.2567  0.1960
 8454SOL    HW126650   5.901   7.147   7.546  0.6825 -0.6729  0.4884
 8454SOL    HW226651   5.789   7.051   7.514  0.5940 -1.0651  1.8925
 8455SOL     OW26652   3.789   6.492   3.568  0.1544  0.5305 -0.0907
 8455SOL    HW126653   3.772   6.527   3.480 -2.0251 -3.0298 -1.2691
 8455SOL    HW226654   3.878   6.459   3.564  0.8423  2.2871 -0.1838
 8456SOL     OW26655   3.918   8.424   7.167 -0.0990 -0.1571  0.4005
 8456SOL    HW126656   3.930   8.484   7.093  1.9617 -0.4632  0.4337
 8456SOL    HW226657   4.001   8.429   7.215 -0.5314 -1.7480  1.3609
 8457SOL     OW26658   0.081   6.694   8.499  0.3792  0.7803  0.3415
 8457SOL    HW126659   0.003   6.644   8.520  0.6059  0.5222  0.5798
 8457SOL    HW226660   0.048   6.780   8.472 -0.0143  0.4716 -0.1765
 8458SOL     OW26661   5.271   3.850   4.812  0.4203  0.1065 -0.6695
 8458SOL    HW126662   5.202   3.822   4.873  1.1899  3.5524  2.0990
 8458SOL    HW226663   5.325   3.771   4.801 -0.1705 -0.9507  2.6664
 8459SOL     OW26664   0.458   6.578   0.098  0.6622  0.1602 -0.0137
 8459SOL    HW126665   0.420   6.505   0.048 -2.2948  0.5071  1.5268
 8459SOL    HW226666   0.405   6.654   0.074  1.3775  1.0455  1.1085
 8460SOL     OW26667   7.014   6.721   7.840 -0.6605  0.0779  0.0415
 8460SOL    HW126668   7.029   6.815   7.848  1.3254 -0.2508  0.8140
 8460SOL    HW226669   6.967   6.697   7.919  0.4099  0.1722  0.7301
 8461SOL     OW26670   1.431   8.501   5.775 -0.6351  0.5901 -0.4608
 8461SOL    HW126671   1.504   8.454   5.814 -0.2382  1.5837  0.0069
 8461SOL    HW226672   1.389   8.546   5.848  0.3619  2.8110 -1.1830
 8462SOL     OW26673   4.901   5.138   4.566  0.2103 -0.2948  0.5848
 8462SOL    HW126674   4.814   5.124   4.603 -0.2152  0.7955  0.0527
 8462SOL    HW226675   4.918   5.232   4.580 -0.0059  0.2051 -1.9640
 8463SOL     OW26676   8.270   2.289   7.165 -0.3823  0.0022  0.0290
 8463SOL    HW126677   8.268   2.376   7.125 -0.5170  0.4756  1.0575
 8463SOL    HW226678   8.200   2.241   7.121  0.2366  0.1364 -1.1413
 8464SOL     OW26679   0.858   1.887   4.186 -0.1858 -0.8949  0.2936
 8464SOL    HW126680   0.808   1.954   4.232 -0.2336 -1.2567  0.7760
 8464SOL    HW226681   0.792   1.829   4.147 -0.1443 -0.6959 -0.0839
 8465SOL     OW26682   5.952   7.082   7.923  0.3304 -0.1261 -0.2493
 8465SOL    HW126683   5.898   7.045   7.853  1.3524 -0.8359 -0.6826
 8465SOL    HW226684   5.945   7.177   7.911 -0.0500 -0.2268 -0.8836
 8466SOL     OW26685   5.341   2.739   3.554 -0.0988  0.0167 -0.1143
 8466SOL    HW126686   5.314   2.817   3.506 -0.9522  0.4009  0.9317
 8466SOL    HW226687   5.260   2.707   3.595  0.1725 -1.6107 -0.7751
 8467SOL     OW26688   5.555   0.718   4.032  0.1399  0.2690  0.1076
 8467SOL    HW126689   5.604   0.703   4.113  0.8131  1.1100 -0.1242
 8467SOL    HW226690   5.464   0.727   4.060  0.0884 -1.3358  0.5462
 8468SOL     OW26691   6.595   7.262   1.966 -0.1406  0.1350  0.2677
 8468SOL    HW126692   6.591   7.347   1.923 -2.7538  0.3779  0.8478
 8468SOL    HW226693   6.508   7.225   1.955 -0.2227 -0.8040  3.2625
 8469SOL     OW26694   4.753   6.368   6.142 -0.1489 -0.5258  0.4288
 8469SOL    HW126695   4.799   6.358   6.058 -0.7683  0.4175 -0.0380
 8469SOL    HW226696   4.816   6.335   6.207  0.6901 -0.4557 -0.3189
 8470SOL     OW26697   3.171   3.216   6.226  0.1598 -0.1522 -0.8971
 8470SOL    HW126698   3.092   3.162   6.230  1.0020 -1.3660  0.2028
 8470SOL    HW226699   3.141   3.300   6.190 -1.8664 -0.1381  0.6717
 8471SOL     OW26700   6.326   1.378   0.076 -0.3686  0.1610 -0.2348
 8471SOL    HW126701   6.238   1.340   0.082  0.1648 -0.9165  1.9236
 8471SOL    HW226702   6.324   1.430  -0.004 -3.3263  1.1068  0.3262
 8472SOL     OW26703   2.913   3.573   8.071 -0.3430 -0.2496  0.4671
 8472SOL    HW126704   2.856   3.528   8.134 -3.0408 -0.6940 -2.0851
 8472SOL    HW226705   2.968   3.503   8.035  0.6504 -0.1316  1.7049
 8473SOL     OW26706   5.537   3.160   7.137 -0.3306  0.5341 -0.3602
 8473SOL    HW126707   5.568   3.109   7.062 -0.4045  0.9501 -0.6804
 8473SOL    HW226708   5.491   3.097   7.192  0.2545  0.1017 -0.3570
 8474SOL     OW26709   6.704   6.060   1.002  0.1064  0.4929  0.1358
 8474SOL    HW126710   6.636   6.127   0.990 -0.6965 -0.4315 -0.6333
 8474SOL    HW226711   6.749   6.056   0.918  0.0173 -0.0711  0.1142
 8475SOL     OW26712   7.319   6.998   8.594  0.1481  0.3281 -0.1334
 8475SOL    HW126713   7.300   6.971   8.684  0.0962  0.8833  0.0209
 8475SOL    HW226714   7.365   7.081   8.602 -0.8690  0.9566 -0.6689
 8476SOL     OW26715   3.824   3.756   1.720 -0.9750 -0.0685  0.1442
 8476SOL    HW126716   3.825   3.752   1.624 -1.5361 -0.8868  0.1536
 8476SOL    HW226717   3.915   3.743   1.746 -0.7361  0.7299 -0.2902
 8477SOL     OW26718   4.042   3.120   8.288  0.1582  0.0296  0.3216
 8477SOL    HW126719   4.130   3.086   8.274  0.1126 -0.2618  0.7388
 8477SOL    HW226720   4.049   3.175   8.366  0.3530  1.4435 -0.6509
 8478SOL     OW26721   1.791   8.096   7.707 -0.3913 -0.3258 -0.4705
 8478SOL    HW126722   1.740   8.120   7.630 -0.2696  0.0887 -0.4244
 8478SOL    HW226723   1.797   8.177   7.758  2.1196  0.2309 -1.5112
 8479SOL     OW26724   7.099   3.041   5.253  0.1478 -0.0739  0.3584
 8479SOL    HW126725   7.119   3.118   5.201  2.6018 -1.3024 -0.6648
 8479SOL    HW226726   7.073   3.075   5.338  2.1916  1.9031  0.2736
 8480SOL     OW26727   1.934   4.456   3.767  0.3107 -0.4291 -0.2511
 8480SOL    HW126728   1.899   4.531   3.815  1.7050  0.0411  0.0757
 8480SOL    HW226729   2.027   4.452   3.792  0.4820 -1.7080 -0.9706
 8481SOL     OW26730   1.156   3.815   7.849  0.3906 -0.3924 -0.2290
 8481SOL    HW126731   1.222   3.762   7.893 -1.1651 -2.3978 -0.1744
 8481SOL    HW226732   1.146   3.775   7.763  1.8576  2.1856 -1.7164
 8482SOL     OW26733   1.465   6.811   2.914  0.5654 -0.1774 -0.0871
 8482SOL    HW126734   1.515   6.878   2.866  2.0346  0.0975  1.7297
 8482SOL    HW226735   1.434   6.856   2.992  2.7512 -1.8649  1.8878
 8483SOL     OW26736   3.137   0.935   1.949 -0.6598  0.2482  0.7629
 8483SOL    HW126737   3.198   0.881   1.999 -2.0581 -2.1683 -0.0060
 8483SOL    HW226738   3.050   0.902   1.973 -1.5253  1.3597 -0.6808
 8484SOL     OW26739   7.192   8.266   4.881  0.1763 -0.1402  0.7316
 8484SOL    HW126740   7.172   8.192   4.937 -2.9023  0.0144  0.0424
 8484SOL    HW226741   7.156   8.242   4.795  0.0412  1.7039  0.2201
 8485SOL     OW26742   1.441   0.631   7.837  0.3558 -0.1744  0.0482
 8485SOL    HW126743   1.449   0.554   7.782 -0.1927 -0.0807 -0.1740
 8485SOL    HW226744   1.525   0.676   7.828 -0.5141  1.1214 -2.6859
 8486SOL     OW26745   1.013   8.487   5.896 -0.9061  0.4200 -0.2494
 8486SOL    HW126746   0.952   8.501   5.968  1.4015  0.5043  1.8208
 8486SOL    HW226747   0.986   8.404   5.856 -3.4825  1.3921 -0.7158
 8487SOL     OW26748   7.060   5.517   3.950  0.2835 -0.2735 -0.5621
 8487SOL    HW126749   6.971   5.539   3.974  0.7720  0.1018  0.9954
 8487SOL    HW226750   7.079   5.572   3.875 -1.4345 -1.7944 -2.2328
 8488SOL     OW26751   2.300   5.619   8.511  0.3107 -0.0816 -0.3487
 8488SOL    HW126752   2.260   5.579   8.587 -0.7724 -0.1428 -0.9238
 8488SOL    HW226753   2.263   5.708   8.509  0.2847 -0.1013 -0.8285
 8489SOL     OW26754   1.114   7.906   1.617  0.2057 -0.4715 -0.2249
 8489SOL    HW126755   1.182   7.964   1.651  0.0062 -0.1825 -0.3167
 8489SOL    HW226756   1.065   7.960   1.554  0.9925 -1.1779 -1.4971
 8490SOL     OW26757   3.789   4.142   5.800 -0.4480  0.4795  0.2667
 8490SOL    HW126758   3.880   4.129   5.773 -1.2056 -1.9472 -1.5638
 8490SOL    HW226759   3.792   4.211   5.865  2.9053 -0.6229  1.4831
 8491SOL     OW26760   5.049   3.027   4.740 -0.0688 -0.2714  0.2255
 8491SOL    HW126761   5.040   3.092   4.670 -0.4188 -0.1613  0.3680
 8491SOL    HW226762   4.984   3.053   4.805 -1.4672 -1.7682 -0.4963
 8492SOL     OW26763   0.765   1.958   7.331 -0.3510  0.6578 -0.0457
 8492SOL    HW126764   0.729   2.040   7.366 -1.6661 -0.5252  1.5174
 8492SOL    HW226765   0.706   1.934   7.260  0.6834  1.6087 -1.2568
 8493SOL     OW26766   0.892   1.205   0.429  0.3362  0.1710 -0.3853
 8493SOL    HW126767   0.863   1.284   0.382 -0.2548  0.1834 -0.0098
 8493SOL    HW226768   0.944   1.239   0.502 -1.6528  0.3460  1.0116
 8494SOL     OW26769   3.785   0.548   4.150 -0.4358  0.2503  0.1930
 8494SOL    HW126770   3.788   0.611   4.221 -1.7802  0.7537 -0.1587
 8494SOL    HW226771   3.792   0.463   4.193 -0.9751  0.5561  0.9107
 8495SOL     OW26772   7.814   0.355   6.631 -0.2039 -0.0599 -0.4386
 8495SOL    HW126773   7.766   0.329   6.709 -1.1186  1.0013 -0.6132
 8495SOL    HW226774   7.906   0.350   6.656 -0.4898  1.2111  1.0580
 8496SOL     OW26775   4.689   6.905   0.954  0.1382 -0.4839 -0.3864
 8496SOL    HW126776   4.723   6.959   0.883  1.4451 -0.7004  0.0596
 8496SOL    HW226777   4.605   6.873   0.921 -0.2758  1.1066 -1.0001
 8497SOL     OW26778   7.540   5.284   6.066  0.0389  0.5807 -0.1425
 8497SOL    HW126779   7.574   5.334   6.141 -1.0459  0.9367  0.1425
 8497SOL    HW226780   7.598   5.209   6.058 -0.4413 -0.0616  1.7809
 8498SOL     OW26781   1.273   6.144   5.753  0.1014 -0.6210  0.2756
 8498SOL    HW126782   1.199   6.192   5.791  1.0261  0.9610  0.1727
 8498SOL    HW226783   1.300   6.084   5.822 -1.7201 -1.7791  0.0501
 8499SOL     OW26784   7.626   2.616   4.558  0.2574  0.0869  0.3063
 8499SOL    HW126785   7.598   2.703   4.531  0.5866  0.1602  0.2063
 8499SOL    HW226786   7.721   2.620   4.560  0.3215 -0.5449 -0.6218
 8500SOL     OW26787   6.664   2.059   5.154 -0.1524 -0.2783 -0.1471
 8500SOL    HW126788   6.639   2.120   5.084 -1.6937  0.9800  1.3900
 8500SOL    HW226789   6.716   2.112   5.214  0.1753 -1.0202  0.2347
 8501SOL     OW26790   6.463   8.625   0.160 -0.2375 -0.2999 -0.4073
 8501SOL    HW126791   6.460   8.537   0.197 -0.0784 -0.7128 -1.3412
 8501SOL    HW226792   6.499   8.612   0.072  2.9720  1.0511  0.5678
 8502SOL     OW26793   1.238   5.316   2.955 -0.0848  0.7650 -0.2528
 8502SOL    HW126794   1.236   5.225   2.986  0.0905  1.3871  1.7411
 8502SOL    HW226795   1.227   5.368   3.034 -1.6590  2.4893 -1.5087
 8503SOL     OW26796   0.316   3.975   4.752 -0.2427  0.3603  0.1080
 8503SOL    HW126797   0.394   3.952   4.803  1.2724  0.6184 -1.9448
 8503SOL    HW226798   0.325   3.925   4.671 -2.4639  0.0919 -0.0336
 8504SOL     OW26799   6.826   4.687   8.465 -0.4272  0.5130 -0.1082
 8504SOL    HW126800   6.788   4.674   8.378 -1.8083  1.2139  0.3689
 8504SOL    HW226801   6.877   4.608   8.480 -2.4868 -0.9488 -0.3857
 8505SOL     OW26802   0.592   4.728   1.644 -0.0178 -0.3104  0.6812
 8505SOL    HW126803   0.634   4.717   1.559 -0.9241 -1.6241  0.3679
 8505SOL    HW226804   0.605   4.644   1.689 -2.9685 -1.1699  0.2027
 8506SOL     OW26805   6.129   6.291   7.496 -0.2711 -0.0805  0.5193
 8506SOL    HW126806   6.174   6.257   7.573  1.1637 -1.3985 -0.8127
 8506SOL    HW226807   6.094   6.213   7.453  0.5029  0.4018 -1.0611
 8507SOL     OW26808   6.942   6.113   3.207  0.2789  0.3638 -0.1504
 8507SOL    HW126809   6.942   6.032   3.259  0.5519 -1.1885 -2.4480
 8507SOL    HW226810   6.911   6.180   3.268  2.9396 -0.8085  2.7453
 8508SOL     OW26811   3.282   6.290   0.425  0.3538 -0.0775  0.1454
 8508SOL    HW126812   3.288   6.222   0.492  0.2061 -0.0069  0.2292
 8508SOL    HW226813   3.367   6.334   0.428  1.1176 -1.3693 -1.0949
 8509SOL     OW26814   0.947   6.902   2.432  0.3525 -0.1523  0.1192
 8509SOL    HW126815   0.974   6.881   2.521 -1.5556  0.5379  0.9322
 8509SOL    HW226816   0.999   6.979   2.409 -0.6415  1.0277  1.5452
 8510SOL     OW26817   4.478   7.977   1.136 -0.1697 -0.2241  0.9486
 8510SOL    HW126818   4.428   8.044   1.183 -0.9703 -0.2232  0.1140
 8510SOL    HW226819   4.463   7.995   1.044  1.4767 -0.1621  0.6581
 8511SOL     OW26820   7.447   5.372   6.365  0.5112  0.6383  0.0280
 8511SOL    HW126821   7.418   5.444   6.309  1.2413  1.0512  0.1642
 8511SOL    HW226822   7.390   5.299   6.342 -0.9925  1.5630  0.6905
 8512SOL     OW26823   5.470   6.042   5.523 -0.4026  0.4327 -0.0514
 8512SOL    HW126824   5.473   6.002   5.610 -0.8141  0.0288 -0.2173
 8512SOL    HW226825   5.390   6.095   5.524 -0.1039  0.8853  0.0096
 8513SOL     OW26826   6.458   5.305   8.002 -0.1866 -0.8305  0.4575
 8513SOL    HW126827   6.385   5.272   8.054 -0.1991  0.1046  1.0599
 8513SOL    HW226828   6.521   5.233   8.001 -0.9047 -1.4622  0.3521
 8514SOL     OW26829   2.931   1.173   4.856  0.0853  0.1455 -0.5863
 8514SOL    HW126830   2.967   1.258   4.884 -0.2784  0.7084 -1.7477
 8514SOL    HW226831   2.930   1.178   4.760 -2.2721 -0.1683 -0.6402
 8515SOL     OW26832   0.649   5.738   2.291  0.0503 -0.2096 -0.2447
 8515SOL    HW126833   0.575   5.791   2.322 -0.1417 -0.5438 -0.1236
 8515SOL    HW226834   0.716   5.749   2.358  0.7627  1.4581 -1.1836
 8516SOL     OW26835   1.750   4.081   1.729 -0.3987  0.0111 -0.2945
 8516SOL    HW126836   1.770   4.111   1.818  1.7580  2.0269 -1.3683
 8516SOL    HW226837   1.742   3.986   1.737 -0.2140  0.1317  2.0193
 8517SOL     OW26838   8.490   1.131   2.439 -0.4033  0.1254  0.2972
 8517SOL    HW126839   8.422   1.109   2.375 -1.0852 -0.7089  1.2711
 8517SOL    HW226840   8.442   1.151   2.519  0.4191  1.4348  0.4988
 8518SOL     OW26841   8.260   7.373   5.689  0.4484  0.0080 -0.5326
 8518SOL    HW126842   8.167   7.383   5.711  0.2177 -2.4203 -0.1420
 8518SOL    HW226843   8.260   7.325   5.607  1.2718 -2.9898  1.0899
 8519SOL     OW26844   0.989   5.469   4.398 -0.1245 -0.6419  0.3445
 8519SOL    HW126845   1.070   5.433   4.436 -0.9982 -3.2045 -0.0511
 8519SOL    HW226846   0.925   5.463   4.469 -0.1591  0.8397  0.4695
 8520SOL     OW26847   4.260   7.928   6.926  0.2265  0.7283  0.4199
 8520SOL    HW126848   4.234   7.886   7.008  3.0010 -0.1578  0.9569
 8520SOL    HW226849   4.278   7.856   6.866  0.3336  1.3061 -0.2667
 8521SOL     OW26850   2.040   2.867   3.044  0.1594 -0.2046  0.2592
 8521SOL    HW126851   2.091   2.947   3.044  0.2396 -0.2277 -1.2413
 8521SOL    HW226852   1.957   2.891   3.085  0.6259  0.3346  0.9028
 8522SOL     OW26853   3.589   6.309   5.560  0.8041  0.0227  0.2611
 8522SOL    HW126854   3.634   6.364   5.624  1.0745  0.3914 -0.2411
 8522SOL    HW226855   3.571   6.367   5.487  1.4635 -0.6499 -0.4514
 8523SOL     OW26856   8.138   8.532   3.893  0.7328 -0.0093  0.0075
 8523SOL    HW126857   8.123   8.511   3.800 -0.4864 -0.2873  0.2492
 8523SOL    HW226858   8.089   8.465   3.941  1.5717 -0.0234  0.8683
 8524SOL     OW26859   2.905   3.814   4.883  0.6370  0.4855 -0.2639
 8524SOL    HW126860   2.968   3.880   4.854  0.5894  0.1618 -1.1427
 8524SOL    HW226861   2.917   3.741   4.822 -0.1943  0.1923 -0.0898
 8525SOL     OW26862   0.366   6.841   5.242 -0.1629 -0.2315 -0.4839
 8525SOL    HW126863   0.389   6.762   5.195 -1.2669 -1.2097  0.5430
 8525SOL    HW226864   0.448   6.871   5.281  0.1527 -1.2970 -0.2961
 8526SOL     OW26865   2.202   4.251   1.332  0.1340 -0.3391  0.1780
 8526SOL    HW126866   2.113   4.268   1.361  0.0712 -0.0897 -0.1599
 8526SOL    HW226867   2.257   4.300   1.394  0.1323 -1.7827  1.3881
 8527SOL     OW26868   6.967   4.503   2.697 -0.1880  0.2447 -0.3834
 8527SOL    HW126869   6.969   4.470   2.787  1.2365 -1.4993 -1.0117
 8527SOL    HW226870   6.902   4.448   2.653  0.0089  0.2806 -0.7214
 8528SOL     OW26871   3.630   7.396   7.965  0.4836 -0.2684 -0.5605
 8528SOL    HW126872   3.665   7.356   8.044  0.1382 -1.1300 -0.8368
 8528SOL    HW226873   3.707   7.417   7.912  0.6804 -0.3093 -0.2889
 8529SOL     OW26874   5.832   6.127   7.428  0.2244  0.0235 -0.4752
 8529SOL    HW126875   5.857   6.141   7.519 -0.2848  1.7021 -0.5600
 8529SOL    HW226876   5.818   6.032   7.421  1.2921 -0.2674  0.9012
 8530SOL     OW26877   4.510   2.990   5.518  0.4521  0.6601 -0.1265
 8530SOL    HW126878   4.489   3.083   5.526 -0.8796  0.3296  0.3432
 8530SOL    HW226879   4.425   2.946   5.513  1.0608 -0.4868 -1.0187
 8531SOL     OW26880   4.441   4.411   1.342  0.2586  0.1337 -0.2879
 8531SOL    HW126881   4.513   4.469   1.369  0.6772  0.4192 -1.9503
 8531SOL    HW226882   4.483   4.346   1.286 -0.5037 -0.7646  0.1657
 8532SOL     OW26883   3.857   5.592   7.917  0.4143 -0.3797 -0.6038
 8532SOL    HW126884   3.792   5.640   7.865  1.1432  0.8007 -0.4638
 8532SOL    HW226885   3.919   5.559   7.852 -0.1267 -1.2217 -0.7068
 8533SOL     OW26886   5.710   8.018   5.608  0.0779 -0.4032 -0.2074
 8533SOL    HW126887   5.650   7.972   5.668  1.1417 -1.8004 -0.1593
 8533SOL    HW226888   5.739   8.095   5.658 -0.1901 -0.7611  0.5195
 8534SOL     OW26889   0.887   3.857   6.327 -0.0610 -0.7490 -0.4420
 8534SOL    HW126890   0.856   3.916   6.396 -0.8532 -1.1978 -0.4014
 8534SOL    HW226891   0.982   3.853   6.339  0.0709  0.8756 -0.7396
 8535SOL     OW26892   1.258   1.677   7.335 -0.0908  0.2729  0.1737
 8535SOL    HW126893   1.300   1.757   7.365 -0.5900  0.8196 -0.5537
 8535SOL    HW226894   1.164   1.695   7.341 -0.2169 -0.3790  0.3157
 8536SOL     OW26895   6.797   4.838   6.586  0.0860  0.0281  0.6802
 8536SOL    HW126896   6.861   4.887   6.637 -2.1130  0.7226  2.9988
 8536SOL    HW226897   6.776   4.895   6.512  0.9306  0.5053  0.7967
 8537SOL     OW26898   7.663   0.566   3.530 -0.9446 -0.4326 -0.3679
 8537SOL    HW126899   7.571   0.564   3.504 -0.4176 -1.6242 -2.3619
 8537SOL    HW226900   7.712   0.548   3.449  1.0891  0.9095  0.4769
 8538SOL     OW26901   7.068   4.625   7.147 -0.5252 -0.2445 -0.4556
 8538SOL    HW126902   7.017   4.545   7.135  0.2451 -1.0316  1.0962
 8538SOL    HW226903   7.033   4.663   7.228  0.7508 -0.3509  0.1654
 8539SOL     OW26904   1.271   2.070   6.815 -0.0859  0.0384  0.1719
 8539SOL    HW126905   1.295   2.162   6.807 -1.2579  0.2768 -0.8436
 8539SOL    HW226906   1.208   2.068   6.886 -2.3837  0.5484 -1.7304
 8540SOL     OW26907   4.358   2.920   6.981  0.0352  0.0525 -0.2682
 8540SOL    HW126908   4.262   2.914   6.980  0.0303  0.1169 -0.1830
 8540SOL    HW226909   4.386   2.841   7.028  0.0891 -0.7555 -1.6076
 8541SOL     OW26910   4.982   2.514   5.661  0.0587  0.2523 -0.5298
 8541SOL    HW126911   5.035   2.478   5.733  2.2245  1.3841 -1.4785
 8541SOL    HW226912   4.996   2.453   5.588 -0.3024  0.3473 -0.6832
 8542SOL     OW26913   4.400   7.640   8.142 -0.1376 -0.3309 -0.1754
 8542SOL    HW126914   4.461   7.712   8.128  0.8986 -0.8564  1.3361
 8542SOL    HW226915   4.318   7.682   8.166  0.4220  0.3474  0.5853
 8543SOL     OW26916   2.819   5.570   8.400 -0.1436  0.2627 -0.5171
 8543SOL    HW126917   2.879   5.508   8.442 -0.2403  0.6105  0.1470
 8543SOL    HW226918   2.784   5.621   8.473 -1.8326 -0.4327 -0.8019
 8544SOL     OW26919   2.624   0.551   0.176  0.0101 -0.0300  0.1791
 8544SOL    HW126920   2.530   0.535   0.185 -0.4750  1.8681 -0.9891
 8544SOL    HW226921   2.630   0.635   0.130  2.2795  0.5447  1.3589
 8545SOL     OW26922   7.743   1.686   7.230  0.3299  0.5366 -0.2481
 8545SOL    HW126923   7.702   1.619   7.175 -1.5467  1.7362 -0.4260
 8545SOL    HW226924   7.707   1.670   7.317  0.6266  0.7193 -0.0933
 8546SOL     OW26925   5.676   2.009   2.990  0.5918  0.5210 -0.5980
 8546SOL    HW126926   5.676   2.022   3.085  0.7314  1.6844 -0.7392
 8546SOL    HW226927   5.768   2.021   2.965  0.7189 -0.7367 -0.7714
 8547SOL     OW26928   1.223   5.629   6.563 -0.4563 -0.0451  0.6883
 8547SOL    HW126929   1.275   5.595   6.636 -0.5011 -1.1345  0.2366
 8547SOL    HW226930   1.138   5.649   6.601 -0.8324 -1.6340  0.7528
 8548SOL     OW26931   5.899   5.310   6.500 -0.0032 -0.4758  0.4959
 8548SOL    HW126932   5.842   5.291   6.574  1.0038 -0.1607  1.3678
 8548SOL    HW226933   5.987   5.308   6.536  0.4021  1.6580 -0.2264
 8549SOL     OW26934   4.812   6.084   7.152  0.1899 -0.4462  0.7894
 8549SOL    HW126935   4.810   5.992   7.125 -0.0578 -0.2190  0.0082
 8549SOL    HW226936   4.771   6.132   7.079  1.1311  0.3802  0.7797
 8550SOL     OW26937   8.448   6.775   0.405 -0.0299 -0.1290 -0.0774
 8550SOL    HW126938   8.395   6.795   0.328  0.4264 -0.6474 -0.5387
 8550SOL    HW226939   8.418   6.836   0.472 -1.7064 -0.8693 -0.1047
 8551SOL     OW26940   3.983   4.323   3.375 -0.5454  0.1385 -0.2232
 8551SOL    HW126941   3.975   4.365   3.461 -0.0146 -1.1288  0.4732
 8551SOL    HW226942   4.043   4.380   3.326  0.0796  0.2682  0.6653
 8552SOL     OW26943   4.472   3.364   1.764  1.1930 -0.4949 -0.2288
 8552SOL    HW126944   4.393   3.418   1.765  1.8569  0.5144 -0.4085
 8552SOL    HW226945   4.514   3.381   1.848  2.6023  1.1565 -1.1833
 8553SOL     OW26946   8.085   6.172   4.793 -0.6439  0.1234 -0.0214
 8553SOL    HW126947   8.007   6.118   4.779 -0.4994 -0.1421  0.2062
 8553SOL    HW226948   8.051   6.262   4.797 -0.8768  0.0569 -0.4467
 8554SOL     OW26949   6.717   3.122   0.005  0.4004 -0.1219  0.2511
 8554SOL    HW126950   6.711   3.026   0.008 -1.4900 -0.0367  0.3191
 8554SOL    HW226951   6.698   3.150   0.095  1.7781  0.3161  0.4298
 8555SOL     OW26952   7.884   5.789   5.194  0.4259 -0.0081 -0.3623
 8555SOL    HW126953   7.912   5.700   5.215 -1.3832 -0.6972 -0.7807
 8555SOL    HW226954   7.938   5.814   5.120  2.1836 -0.0590  0.8332
 8556SOL     OW26955   4.736   5.187   8.265  0.0078  0.2084 -0.3781
 8556SOL    HW126956   4.775   5.190   8.178  0.4425  1.3644 -0.1551
 8556SOL    HW226957   4.807   5.213   8.324 -0.6584  0.7881  0.1865
 8557SOL     OW26958   1.425   5.976   1.258  0.5496  0.3081  0.7808
 8557SOL    HW126959   1.473   6.053   1.228  0.2866  0.5013  0.8460
 8557SOL    HW226960   1.367   6.010   1.326  0.1948  0.1096  0.5799
 8558SOL     OW26961   7.466   0.816   2.987 -0.5875 -0.4880 -0.0187
 8558SOL    HW126962   7.443   0.909   2.981  1.2447 -0.0243 -0.5821
 8558SOL    HW226963   7.507   0.807   3.073  0.4054 -0.4748 -0.4829
 8559SOL     OW26964   5.185   7.542   4.865  0.0967  0.7085 -0.2218
 8559SOL    HW126965   5.110   7.522   4.920  0.8539 -2.8287 -0.2229
 8559SOL    HW226966   5.152   7.536   4.776  0.5110 -2.1872 -0.2666
 8560SOL     OW26967   3.380   3.024   7.811 -0.1484  0.0282  0.0769
 8560SOL    HW126968   3.285   3.033   7.804  0.0377  1.1153 -1.7070
 8560SOL    HW226969   3.408   3.100   7.862 -0.1798  0.0952 -0.0046
 8561SOL     OW26970   0.642   0.249   8.261 -0.3852  0.0855  0.4401
 8561SOL    HW126971   0.622   0.232   8.169 -2.6749  0.3829  0.8255
 8561SOL    HW226972   0.736   0.232   8.269 -0.0554  0.3931 -2.0145
 8562SOL     OW26973   1.467   3.833   8.635 -0.4155 -0.5620  0.1895
 8562SOL    HW126974   1.430   3.917   8.609 -2.1628 -0.9036  1.3943
 8562SOL    HW226975   1.525   3.808   8.563  0.3583  1.7709 -0.0778
 8563SOL     OW26976   4.003   1.161   6.878  0.1639  0.5411 -0.5652
 8563SOL    HW126977   4.050   1.142   6.959  0.0971 -1.4433 -0.9319
 8563SOL    HW226978   3.997   1.076   6.833 -0.0616  1.5178 -2.5132
 8564SOL     OW26979   2.224   4.979   4.482  0.0285 -0.1028  0.6962
 8564SOL    HW126980   2.276   5.059   4.493  0.4516 -0.2251 -0.3067
 8564SOL    HW226981   2.235   4.956   4.390 -0.9040 -0.7642  0.7401
 8565SOL     OW26982   4.177   0.663   0.816 -0.9132  0.0944 -0.1137
 8565SOL    HW126983   4.211   0.588   0.864  0.1918  1.7045  1.7491
 8565SOL    HW226984   4.095   0.685   0.861 -0.9913  0.2727 -0.3414
 8566SOL     OW26985   4.158   6.708   0.190 -0.1071 -0.0913 -0.6007
 8566SOL    HW126986   4.167   6.717   0.285 -0.5872 -1.7234 -0.3716
 8566SOL    HW226987   4.221   6.772   0.154  0.4083  0.2359  0.7999
 8567SOL     OW26988   2.257   4.765   1.290 -0.1304  0.0160  0.3667
 8567SOL    HW126989   2.201   4.842   1.296 -0.4129 -0.2365  1.0852
 8567SOL    HW226990   2.292   4.755   1.379 -1.4867 -1.7231  0.7465
 8568SOL     OW26991   4.672   4.871   3.960  0.3072  0.3093 -0.0095
 8568SOL    HW126992   4.610   4.908   3.896  0.0307 -0.5045 -0.2290
 8568SOL    HW226993   4.758   4.889   3.923  0.1382 -0.5254 -0.8336
 8569SOL     OW26994   3.390   0.288   6.559 -0.0546  0.3574  0.6719
 8569SOL    HW126995   3.471   0.282   6.610 -0.4129  0.0090  1.2129
 8569SOL    HW226996   3.411   0.248   6.475  0.0142 -0.7829  1.2167
 8570SOL     OW26997   5.569   5.722   8.130 -0.4120 -0.3392  0.4502
 8570SOL    HW126998   5.596   5.745   8.041  0.0671 -0.2383  0.6187
 8570SOL    HW226999   5.484   5.765   8.141 -0.9001 -1.0997 -0.2703
 8571SOL     OW27000   5.071   0.860   5.146  0.4188 -0.1145  0.5582
 8571SOL    HW127001   5.142   0.796   5.143  0.9361  0.4120  1.3144
 8571SOL    HW227002   5.067   0.887   5.237  0.1274  0.8502  0.2695
 8572SOL     OW27003   2.506   3.023   3.108 -0.5132  0.0450 -0.4776
 8572SOL    HW127004   2.427   3.028   3.163 -0.1512  0.7830 -0.0279
 8572SOL    HW227005   2.573   3.070   3.157  0.6871 -1.9522 -0.0681
 8573SOL     OW27006   0.189   2.416   6.896 -0.3374 -0.8687  0.3194
 8573SOL    HW127007   0.180   2.491   6.956 -0.9641 -1.7194  1.3320
 8573SOL    HW227008   0.228   2.347   6.950  2.0647 -0.7303 -1.0869
 8574SOL     OW27009   7.483   6.258   5.129 -0.0406  0.1192  0.0849
 8574SOL    HW127010   7.488   6.286   5.221 -1.3329 -1.3958  0.6621
 8574SOL    HW227011   7.447   6.334   5.083 -1.3425  0.2310  1.2136
 8575SOL     OW27012   7.948   7.727   7.810 -0.3369 -0.0834  0.2075
 8575SOL    HW127013   7.983   7.764   7.891 -0.7387  0.8170 -0.0121
 8575SOL    HW227014   8.013   7.662   7.784  1.1054  1.3740 -0.0551
 8576SOL     OW27015   4.003   5.856   2.075  0.4552  0.0687 -0.3765
 8576SOL    HW127016   4.062   5.885   2.145 -0.4182 -0.5868  0.6790
 8576SOL    HW227017   3.926   5.912   2.085 -0.4754 -1.2972  0.4768
 8577SOL     OW27018   0.924   6.689   3.322 -0.2423 -0.0171 -0.2418
 8577SOL    HW127019   0.835   6.658   3.306  0.3723 -2.9526  1.4072
 8577SOL    HW227020   0.913   6.760   3.385 -1.4793  0.9709 -1.4952
 8578SOL     OW27021   5.032   7.761   5.086 -0.1403  0.1252  0.0321
 8578SOL    HW127022   5.063   7.827   5.024  2.7331 -0.9934  0.0971
 8578SOL    HW227023   5.005   7.687   5.032 -1.1015  0.4517  0.0435
 8579SOL     OW27024   8.604   3.238   0.970  0.4705 -0.3546  0.1025
 8579SOL    HW127025   8.541   3.309   0.964 -0.9906 -1.2723  2.9387
 8579SOL    HW227026   8.681   3.277   1.010  0.6704  0.1412 -0.7340
 8580SOL     OW27027   1.611   5.436   7.133  0.1117 -0.4522  0.0960
 8580SOL    HW127028   1.697   5.437   7.091 -0.6778 -0.3916 -1.5776
 8580SOL    HW227029   1.613   5.510   7.194  0.8339  0.2499 -0.7649
 8581SOL     OW27030   3.524   8.255   2.742 -0.3173 -0.1057  0.0902
 8581SOL    HW127031   3.551   8.338   2.704  0.4653 -0.8367 -1.0068
 8581SOL    HW227032   3.563   8.255   2.830 -1.1909  1.1011  0.5154
 8582SOL     OW27033   5.361   5.063   7.864 -0.5345 -0.2191 -0.3293
 8582SOL    HW127034   5.294   5.071   7.796 -0.5569  0.7463 -0.2004
 8582SOL    HW227035   5.372   4.968   7.875 -3.1908 -0.4761  0.9389
 8583SOL     OW27036   2.140   1.619   3.595  0.5014  0.6298 -0.4848
 8583SOL    HW127037   2.162   1.701   3.638 -2.6748  1.9367 -1.0449
 8583SOL    HW227038   2.159   1.633   3.503  1.0437  0.2991 -0.4256
 8584SOL     OW27039   4.673   3.049   4.633 -0.0808 -0.1434 -0.4870
 8584SOL    HW127040   4.735   3.121   4.623  0.6682 -0.9117 -1.6725
 8584SOL    HW227041   4.691   2.991   4.558  0.4345 -2.3566  1.2478
 8585SOL     OW27042   2.076   6.408   5.793  0.4224 -0.3243 -0.5652
 8585SOL    HW127043   2.002   6.438   5.846  1.5491  1.3248  0.1546
 8585SOL    HW227044   2.116   6.339   5.847  0.1274 -0.3689 -0.3992
 8586SOL     OW27045   0.718   8.045   5.746 -0.3591  0.7247  0.4414
 8586SOL    HW127046   0.666   7.980   5.794  0.8285 -1.2557 -0.7876
 8586SOL    HW227047   0.786   7.993   5.703  0.5351  2.8071 -0.7850
 8587SOL     OW27048   8.419   3.865   2.855  0.1048 -0.3674 -0.1884
 8587SOL    HW127049   8.384   3.827   2.936 -2.5645  0.5384 -0.8210
 8587SOL    HW227050   8.465   3.793   2.812  1.2312 -0.9719  1.8972
 8588SOL     OW27051   5.590   2.436   6.244 -0.1189  0.1667  0.4139
 8588SOL    HW127052   5.618   2.355   6.288  1.3194  1.1222  1.3318
 8588SOL    HW227053   5.549   2.406   6.163  1.4044 -1.4529  0.1726
 8589SOL     OW27054   8.659   1.454   2.549 -0.9852  0.4795  0.0194
 8589SOL    HW127055   8.683   1.403   2.472  0.7733  0.9862  0.1793
 8589SOL    HW227056   8.618   1.533   2.514 -0.9993  0.3097 -0.3537
 8590SOL     OW27057   4.247   2.303   8.319  0.0010 -0.1709 -0.2257
 8590SOL    HW127058   4.311   2.232   8.309  0.0591  0.0063 -1.2856
 8590SOL    HW227059   4.300   2.378   8.344  0.0808 -0.2597 -0.1250
 8591SOL     OW27060   1.034   7.592   5.943  0.2067  0.4114 -0.3621
 8591SOL    HW127061   0.996   7.574   5.857 -2.0974 -0.1788  0.7042
 8591SOL    HW227062   1.055   7.685   5.941 -2.7520  1.1512 -0.5447
 8592SOL     OW27063   2.855   6.836   4.686  0.1424 -0.1301 -0.1842
 8592SOL    HW127064   2.874   6.929   4.692  0.3148 -0.1648 -0.1755
 8592SOL    HW227065   2.832   6.810   4.775 -2.0994  0.3592 -0.5663
 8593SOL     OW27066   1.972   6.250   0.333  0.3177  0.3622 -0.3203
 8593SOL    HW127067   1.882   6.220   0.322  0.1581 -0.2122  2.0134
 8593SOL    HW227068   1.969   6.344   0.315 -1.0471  0.6013  0.9878
 8594SOL     OW27069   4.715   2.288   3.803 -0.4061 -0.8256  0.8852
 8594SOL    HW127070   4.760   2.331   3.729  0.2433 -1.2985  0.9923
 8594SOL    HW227071   4.622   2.302   3.786 -0.2417 -0.3630  0.3188
 8595SOL     OW27072   2.580   0.904   0.997 -0.8967  0.3187 -0.7401
 8595SOL    HW127073   2.508   0.854   0.959 -0.8584 -0.7550  0.5235
 8595SOL    HW227074   2.658   0.850   0.980 -0.4980  1.0697 -1.3667
 8596SOL     OW27075   6.184   4.381   6.108 -0.0558 -0.2629 -0.3969
 8596SOL    HW127076   6.275   4.408   6.117  0.0695 -0.0881 -1.9648
 8596SOL    HW227077   6.167   4.381   6.014 -1.4657 -1.0101 -0.1845
 8597SOL     OW27078   3.205   5.988   1.697 -0.4846  0.0312 -0.1535
 8597SOL    HW127079   3.134   5.927   1.715 -0.9777  0.3538 -0.9371
 8597SOL    HW227080   3.200   6.004   1.602  1.6962 -1.2318 -0.5501
 8598SOL     OW27081   6.144   2.262   0.757 -0.6267 -0.1730  0.3538
 8598SOL    HW127082   6.070   2.295   0.809 -0.1735  0.0889  0.8315
 8598SOL    HW227083   6.145   2.317   0.679  0.4146  1.2733  1.3529
 8599SOL     OW27084   3.155   1.190   1.499  0.4392 -0.3407  0.2393
 8599SOL    HW127085   3.064   1.219   1.503  0.6911  0.3602  1.2090
 8599SOL    HW227086   3.187   1.224   1.415  0.6138  1.9636  1.1684
 8600SOL     OW27087   3.948   4.958   1.105 -0.5676  0.1103  1.4122
 8600SOL    HW127088   3.908   4.877   1.137  1.6623 -0.1907  3.8258
 8600SOL    HW227089   3.965   5.009   1.184  1.7390  1.1261  0.3587
 8601SOL     OW27090   6.001   1.991   3.850  0.4067  0.2979 -0.0895
 8601SOL    HW127091   5.988   2.032   3.935 -2.3265 -1.5230  0.5194
 8601SOL    HW227092   6.051   1.912   3.868 -0.8254 -0.4898  0.0239
 8602SOL     OW27093   2.557   4.960   8.132 -0.3849  0.0649 -0.2132
 8602SOL    HW127094   2.564   5.055   8.137 -0.5611  0.0889 -0.4351
 8602SOL    HW227095   2.612   4.928   8.204 -1.1182  0.3636  0.5059
 8603SOL     OW27096   6.943   7.183   0.823  0.2498 -0.2955  0.2169
 8603SOL    HW127097   6.904   7.199   0.909 -0.5242  1.4904 -0.4031
 8603SOL    HW227098   6.874   7.141   0.772  0.1687  0.0507  0.0338
 8604SOL     OW27099   0.406   4.654   4.235 -0.4799  0.3163  0.0047
 8604SOL    HW127100   0.439   4.635   4.147 -0.7668  3.0986 -0.7796
 8604SOL    HW227101   0.425   4.574   4.285  1.6988 -0.5267 -1.9895
 8605SOL     OW27102   5.831   0.078   0.049 -0.1041 -0.4313 -0.0916
 8605SOL    HW127103   5.880  -0.003   0.036  1.6864  0.5381  0.3259
 8605SOL    HW227104   5.834   0.093   0.144 -2.9283 -1.3188  0.2552
 8606SOL     OW27105   1.164   7.719   5.516  0.3368  0.1332 -0.6104
 8606SOL    HW127106   1.083   7.691   5.473 -0.0963  1.1629 -0.4973
 8606SOL    HW227107   1.199   7.640   5.556 -1.5896 -0.0029  0.9371
 8607SOL     OW27108   0.345   3.484   4.242  0.2177 -0.1962 -0.6250
 8607SOL    HW127109   0.359   3.459   4.151 -0.2725 -0.5742 -0.6020
 8607SOL    HW227110   0.413   3.549   4.260 -0.5826  0.9815 -1.7031
 8608SOL     OW27111   0.534   2.143   7.419  0.2853 -0.3715 -0.0625
 8608SOL    HW127112   0.484   2.061   7.424  1.3338 -0.9732  1.4194
 8608SOL    HW227113   0.476   2.204   7.374 -2.2848 -0.7016  2.4655
 8609SOL     OW27114   2.884   8.232   1.366  0.7377 -0.0504 -0.2826
 8609SOL    HW127115   2.869   8.267   1.277  0.1635 -3.1459 -1.5158
 8609SOL    HW227116   2.977   8.212   1.368  0.5073 -1.2055 -0.6982
 8610SOL     OW27117   3.799   0.204   0.582  0.1877 -0.1046 -0.3130
 8610SOL    HW127118   3.868   0.268   0.562 -0.1356  0.4783  0.3548
 8610SOL    HW227119   3.836   0.120   0.557  1.2096  0.1817  0.1525
 8611SOL     OW27120   4.351   3.444   6.725 -0.0474  0.3622  0.1373
 8611SOL    HW127121   4.279   3.454   6.663 -0.2076  0.1423  0.2864
 8611SOL    HW227122   4.331   3.363   6.772  0.3189  0.2775  0.1507
 8612SOL     OW27123   4.499   2.770   0.953 -0.1069  0.1106  0.3616
 8612SOL    HW127124   4.534   2.832   0.889  0.5734 -0.7499 -0.1215
 8612SOL    HW227125   4.564   2.767   1.023  0.2111 -0.5776  0.0450
 8613SOL     OW27126   6.745   5.693   5.840 -0.3116  0.0512  0.3967
 8613SOL    HW127127   6.811   5.640   5.795  0.6888  0.1564  1.6781
 8613SOL    HW227128   6.768   5.783   5.819 -0.5114  0.0616  0.2249
 8614SOL     OW27129   2.996   7.998   6.432 -0.3180  0.6972  0.2670
 8614SOL    HW127130   3.040   8.025   6.352 -0.5825 -0.8095 -0.4396
 8614SOL    HW227131   3.004   7.902   6.432 -2.7811  0.4288  0.5664
 8615SOL     OW27132   6.085   5.121   0.293 -0.2742 -0.3637  0.0269
 8615SOL    HW127133   6.172   5.116   0.332  0.5010 -0.3743 -1.5933
 8615SOL    HW227134   6.050   5.206   0.323 -0.2635 -0.9252  1.7132
 8616SOL     OW27135   4.221   3.104   8.566 -0.1009  0.0272  0.0161
 8616SOL    HW127136   4.260   3.101   8.653 -2.3831 -0.2275  1.1157
 8616SOL    HW227137   4.228   3.015   8.533 -3.8691 -1.3847  2.2942
 8617SOL     OW27138   8.198   6.262   6.975  0.2035 -0.0080 -0.7642
 8617SOL    HW127139   8.123   6.300   6.930  0.5441  0.6042 -0.8336
 8617SOL    HW227140   8.180   6.168   6.979 -0.8421  0.2021 -0.2596
 8618SOL     OW27141   5.571   7.686   5.419  0.3499  0.2163 -0.1326
 8618SOL    HW127142   5.491   7.721   5.458  0.3182  0.8009 -0.7122
 8618SOL    HW227143   5.557   7.591   5.417 -0.3262  0.3138 -0.2150
 8619SOL     OW27144   7.887   5.837   5.508  0.7523 -0.2352  0.1882
 8619SOL    HW127145   7.969   5.863   5.466  0.8609  1.8569  1.5502
 8619SOL    HW227146   7.873   5.747   5.478  0.7383  1.0151 -4.3843
 8620SOL     OW27147   2.717   5.332   8.672 -0.2077  0.0010  0.0535
 8620SOL    HW127148   2.726   5.266   8.603 -1.2002 -0.3934  0.2882
 8620SOL    HW227149   2.781   5.399   8.649  0.2665 -0.6674 -0.6258
 8621SOL     OW27150   8.529   4.003   4.159  0.1878  0.1677 -0.8073
 8621SOL    HW127151   8.548   3.917   4.195 -1.0150  0.7443  1.3862
 8621SOL    HW227152   8.461   3.987   4.094 -0.2300 -0.5102 -0.2147
 8622SOL     OW27153   2.909   7.275   3.228 -0.0941  0.7259 -0.2184
 8622SOL    HW127154   2.998   7.307   3.244  2.1774 -2.5784 -4.1398
 8622SOL    HW227155   2.902   7.196   3.281  0.0049  0.1238 -1.0763
 8623SOL     OW27156   0.235   0.114   8.206  0.4775 -0.6804 -0.0942
 8623SOL    HW127157   0.271   0.054   8.141 -0.3390  0.8817 -2.1104
 8623SOL    HW227158   0.162   0.157   8.161  0.5627  1.2582  1.4910
 8624SOL     OW27159   7.357   2.189   1.804 -0.0094 -0.1491  0.2178
 8624SOL    HW127160   7.363   2.182   1.899 -1.2793  1.2293  0.4370
 8624SOL    HW227161   7.389   2.277   1.784 -0.7366 -0.0358 -0.5059
 8625SOL     OW27162   4.596   2.226   7.725  0.4662 -0.0784  0.2408
 8625SOL    HW127163   4.525   2.250   7.666  2.2486  2.4363 -1.0535
 8625SOL    HW227164   4.638   2.151   7.682 -1.1631 -1.4511  0.9117
 8626SOL     OW27165   1.719   2.852   0.576 -0.9396  0.1403 -0.1120
 8626SOL    HW127166   1.646   2.892   0.528 -0.1307  1.7369 -0.0794
 8626SOL    HW227167   1.796   2.871   0.523 -0.5285 -1.7148 -0.2547
 8627SOL     OW27168   7.280   7.543   0.110 -0.3916  0.1810  0.0424
 8627SOL    HW127169   7.277   7.593   0.192 -0.1193  1.6150 -0.7896
 8627SOL    HW227170   7.368   7.558   0.076 -0.4698 -0.4814 -0.4695
 8628SOL     OW27171   1.006   7.784   3.477 -0.1816 -0.3696 -0.3801
 8628SOL    HW127172   0.920   7.811   3.444 -0.0849  0.0625 -0.2792
 8628SOL    HW227173   0.992   7.770   3.571 -0.3040 -0.9798 -0.4823
 8629SOL     OW27174   5.971   3.872   2.891 -0.0317  0.2259  0.5977
 8629SOL    HW127175   5.962   3.874   2.986  1.5153  1.4275  0.7706
 8629SOL    HW227176   6.042   3.810   2.874 -1.7142 -1.6051  0.0429
 8630SOL     OW27177   6.048   7.570   3.194 -0.3900  0.0932  0.0536
 8630SOL    HW127178   6.130   7.526   3.217  0.0929  0.6770 -0.5180
 8630SOL    HW227179   6.075   7.649   3.147 -1.2879 -1.0456 -2.6149
 8631SOL     OW27180   1.088   6.763   8.117 -0.1651  0.1106  0.4831
 8631SOL    HW127181   1.121   6.703   8.050  1.0564 -0.7823  1.8218
 8631SOL    HW227182   1.099   6.715   8.199 -1.5249  1.2118  1.3484
 8632SOL     OW27183   3.661   2.108   6.348 -0.1746 -0.3973 -0.2016
 8632SOL    HW127184   3.737   2.129   6.402 -0.2587 -0.0107 -0.2338
 8632SOL    HW227185   3.697   2.059   6.274  0.1502  0.4518 -0.6207
 8633SOL     OW27186   5.857   0.730   3.050  0.4635 -0.2826  0.1591
 8633SOL    HW127187   5.770   0.768   3.063 -0.2287 -0.3460 -3.2991
 8633SOL    HW227188   5.840   0.647   3.006  2.2769 -0.4225 -0.3465
 8634SOL     OW27189   7.628   2.073   0.455 -0.1578  0.4769 -0.7313
 8634SOL    HW127190   7.566   2.015   0.411 -0.5163  0.8215 -0.6790
 8634SOL    HW227191   7.578   2.153   0.473  0.3825  0.8704 -0.9597
 8635SOL     OW27192   5.376   4.007   1.656 -0.1908  0.3894 -0.2453
 8635SOL    HW127193   5.371   4.101   1.640  1.9627  0.4863 -0.6807
 8635SOL    HW227194   5.298   3.971   1.613 -1.2403  1.9771  0.2261
 8636SOL     OW27195   5.840   6.990   4.670 -0.1263 -0.1279 -0.3043
 8636SOL    HW127196   5.863   6.900   4.691 -0.3000 -0.1843 -0.3506
 8636SOL    HW227197   5.859   6.999   4.577  0.3662  0.0352 -0.1871
 8637SOL     OW27198   4.719   6.543   8.362 -0.4060  0.1856 -0.3095
 8637SOL    HW127199   4.740   6.587   8.445 -0.8954  2.2513 -1.2021
 8637SOL    HW227200   4.743   6.607   8.295 -0.4749 -1.2459 -1.7525
 8638SOL     OW27201   7.253   3.254   3.949  0.0702 -0.2336 -0.4996
 8638SOL    HW127202   7.281   3.240   4.040 -1.2757  0.3339  0.0191
 8638SOL    HW227203   7.158   3.248   3.952 -0.4613  4.3376 -0.9607
 8639SOL     OW27204   3.627   4.229   1.401 -0.1628  0.0270 -0.7011
 8639SOL    HW127205   3.674   4.226   1.484  2.8807 -3.4192 -2.2541
 8639SOL    HW227206   3.541   4.191   1.420 -0.3050  1.1544  1.1413
 8640SOL     OW27207   7.735   1.864   2.162 -0.8192 -0.0352 -0.2118
 8640SOL    HW127208   7.767   1.818   2.239 -0.9287 -0.6846 -0.5402
 8640SOL    HW227209   7.811   1.910   2.127 -0.9016  0.7565  0.6120
 8641SOL     OW27210   7.113   2.122   5.851  0.0416  0.1641 -0.3606
 8641SOL    HW127211   7.058   2.099   5.926  1.6323  1.1439  1.1692
 8641SOL    HW227212   7.084   2.062   5.782 -0.0571 -2.3017  1.6428
 8642SOL     OW27213   0.776   8.476   6.257  0.8387 -0.1957  0.0394
 8642SOL    HW127214   0.781   8.493   6.163 -0.7952  0.5953  0.0576
 8642SOL    HW227215   0.860   8.436   6.279  2.8258  3.0198 -1.0298
 8643SOL     OW27216   1.020   6.269   5.858  0.2175 -0.0883 -0.1593
 8643SOL    HW127217   0.939   6.264   5.909  1.0356  0.7217  1.2830
 8643SOL    HW227218   1.075   6.330   5.907  1.1574  0.5111 -1.8980
 8644SOL     OW27219   2.249   0.010   4.048  0.6306 -0.1136 -0.7030
 8644SOL    HW127220   2.276  -0.069   4.094 -1.3862 -0.6799 -0.3784
 8644SOL    HW227221   2.292   0.081   4.095  0.7632 -0.8769  0.3651
 8645SOL     OW27222   7.176   2.796   6.625 -0.4300 -0.1481  0.4592
 8645SOL    HW127223   7.083   2.806   6.643 -0.1403 -0.1046  2.1880
 8645SOL    HW227224   7.192   2.702   6.631 -0.4104 -0.1787 -0.0849
 8646SOL     OW27225   6.170   5.576   6.726 -0.0153  0.4008  0.0315
 8646SOL    HW127226   6.107   5.522   6.773  0.3622 -0.4036 -0.3591
 8646SOL    HW227227   6.187   5.650   6.784  0.6143 -0.6814  1.2783
 8647SOL     OW27228   0.609   7.070   1.697  0.6107  0.0511  0.2537
 8647SOL    HW127229   0.681   7.008   1.691  0.9654  0.5655 -2.0661
 8647SOL    HW227230   0.652   7.155   1.713  0.4593  0.2316 -0.2820
 8648SOL     OW27231   2.941   2.548   6.254 -0.0213  0.1450  0.0821
 8648SOL    HW127232   3.001   2.494   6.307 -1.5361  0.8990  2.7632
 8648SOL    HW227233   2.875   2.487   6.222 -0.3382 -0.0229  1.0113
 8649SOL     OW27234   8.156   2.117   2.907  0.0962  0.4921 -0.9196
 8649SOL    HW127235   8.212   2.157   2.840  2.0088 -1.9724 -0.9398
 8649SOL    HW227236   8.106   2.051   2.859  1.6867 -1.4995  0.0306
 8650SOL     OW27237   1.734   5.584   5.341 -0.5716  0.0646 -0.3465
 8650SOL    HW127238   1.820   5.598   5.379  0.1778 -0.6744 -1.6976
 8650SOL    HW227239   1.690   5.669   5.348  0.5242  0.6366 -0.2660
 8651SOL     OW27240   5.144   0.339   1.531 -0.7783  0.0542 -0.5136
 8651SOL    HW127241   5.051   0.357   1.518 -0.9672 -0.1214  0.5340
 8651SOL    HW227242   5.148   0.245   1.547 -0.3093 -0.0938 -1.4436
 8652SOL     OW27243   0.217   8.334   7.606  0.0306 -0.3838  0.3213
 8652SOL    HW127244   0.232   8.329   7.512 -0.8369 -0.2597  0.1703
 8652SOL    HW227245   0.268   8.262   7.642 -0.5094 -1.1272 -0.3615
 8653SOL     OW27246   3.399   2.418   7.775  0.2253  0.1473  0.2090
 8653SOL    HW127247   3.404   2.335   7.822 -0.9627  0.0166  0.1394
 8653SOL    HW227248   3.439   2.482   7.834  0.7223 -0.3936  0.4589
 8654SOL     OW27249   0.915   1.423   3.678  0.2903  0.3542 -0.0390
 8654SOL    HW127250   0.849   1.492   3.683 -1.1682 -0.8349 -1.7348
 8654SOL    HW227251   0.945   1.425   3.587  1.4596 -0.1863  0.3075
 8655SOL     OW27252   2.656   2.193   7.980  0.5861  0.4818 -0.0800
 8655SOL    HW127253   2.709   2.253   8.032 -1.1326  2.0493 -0.0662
 8655SOL    HW227254   2.691   2.201   7.891  1.6228 -0.0108  0.2609
 8656SOL     OW27255   5.044   6.129   4.465  0.0708  1.0194 -0.3075
 8656SOL    HW127256   5.031   6.034   4.471  0.0939  1.0845  1.1316
 8656SOL    HW227257   5.011   6.152   4.378  0.8886 -0.4260 -1.0338
 8657SOL     OW27258   4.120   7.405   2.786 -0.1775 -0.3766  0.0225
 8657SOL    HW127259   4.102   7.499   2.788 -0.2977 -0.4130  1.6569
 8657SOL    HW227260   4.037   7.365   2.757 -0.2946 -0.0288 -0.1293
 8658SOL     OW27261   1.522   2.374   5.472  0.1097  0.4995  0.0820
 8658SOL    HW127262   1.542   2.373   5.565  1.0773  2.8514 -0.0042
 8658SOL    HW227263   1.472   2.455   5.459 -0.7386 -0.2135 -1.3147
 8659SOL     OW27264   2.375   7.880   0.673 -0.7125  0.1905  0.0908
 8659SOL    HW127265   2.443   7.909   0.735  0.2738 -1.0614 -0.3566
 8659SOL    HW227266   2.400   7.919   0.590 -1.8878  1.6505  0.3992
 8660SOL     OW27267   5.506   5.071   1.618 -0.0080 -0.1712  0.2213
 8660SOL    HW127268   5.470   5.114   1.540 -1.5448 -0.9290  0.4941
 8660SOL    HW227269   5.434   5.019   1.653  1.6000 -2.5498  0.2371
 8661SOL     OW27270   6.148   6.348   0.253  0.2699 -0.6508  0.2842
 8661SOL    HW127271   6.061   6.369   0.219 -0.0768 -2.1405  0.2081
 8661SOL    HW227272   6.206   6.357   0.177  0.1763  0.1648  0.2956
 8662SOL     OW27273   3.876   3.447   7.728  0.1947  0.1170 -0.4602
 8662SOL    HW127274   3.886   3.538   7.754 -0.6992  0.4714 -1.3234
 8662SOL    HW227275   3.812   3.448   7.658  1.3163 -1.0021 -1.5603
 8663SOL     OW27276   3.042   6.411   4.619  0.8896 -0.3915 -0.1680
 8663SOL    HW127277   3.000   6.484   4.572 -0.5391 -0.5258  0.8193
 8663SOL    HW227278   3.028   6.432   4.712  0.5687 -1.8530  0.1289
 8664SOL     OW27279   2.074   3.629   1.572  0.4486 -0.0256 -0.2258
 8664SOL    HW127280   2.160   3.596   1.599  0.4872 -0.3874 -0.7705
 8664SOL    HW227281   2.092   3.674   1.489  0.3645  1.2086  0.3974
 8665SOL     OW27282   2.095   4.933   8.483 -0.0711  0.0053 -0.4604
 8665SOL    HW127283   2.191   4.940   8.479 -0.0910  0.6618  0.0395
 8665SOL    HW227284   2.073   4.963   8.571 -0.8059  0.6737 -0.8642
 8666SOL     OW27285   2.631   0.274   2.725  0.0989 -0.4437  0.0449
 8666SOL    HW127286   2.657   0.365   2.735  0.0452 -0.6073  2.0496
 8666SOL    HW227287   2.590   0.270   2.638  1.0298  1.1824 -0.5082
 8667SOL     OW27288   3.144   6.084   3.827 -0.1021 -0.6377  0.2396
 8667SOL    HW127289   3.108   6.007   3.870  1.4961 -1.0625  0.8860
 8667SOL    HW227290   3.104   6.158   3.873 -1.1088 -1.0642  0.0781
 8668SOL     OW27291   5.674   6.737   6.162  0.1622 -0.0665  0.6322
 8668SOL    HW127292   5.667   6.665   6.224 -0.3130  0.8461  1.6612
 8668SOL    HW227293   5.604   6.797   6.186  0.3025  0.5603 -0.4584
 8669SOL     OW27294   1.507   4.892   1.581  0.0446  0.4448  0.0756
 8669SOL    HW127295   1.578   4.828   1.574  0.3514  0.6757  0.9169
 8669SOL    HW227296   1.440   4.861   1.521  0.0520 -0.8546  0.7084
 8670SOL     OW27297   1.640   8.364   5.270  0.1308  0.2130 -0.2606
 8670SOL    HW127298   1.646   8.387   5.363 -0.3158  0.1400 -0.2120
 8670SOL    HW227299   1.717   8.404   5.230  0.1044  0.5998  0.0707
 8671SOL     OW27300   6.911   7.193   5.396 -0.1654  0.1747 -0.4093
 8671SOL    HW127301   6.859   7.246   5.456  1.0710  2.0253 -0.8821
 8671SOL    HW227302   6.953   7.257   5.338  2.0549 -1.2493 -0.4898
 8672SOL     OW27303   4.495   4.266   4.848  0.0629  0.2731 -0.5338
 8672SOL    HW127304   4.507   4.211   4.925 -1.0005  0.2734 -0.3491
 8672SOL    HW227305   4.527   4.352   4.875 -0.8848  0.4329  0.1453
 8673SOL     OW27306   1.277   5.206   7.714 -0.2117  0.1966  0.4861
 8673SOL    HW127307   1.325   5.127   7.740  0.3609  0.2453 -0.3724
 8673SOL    HW227308   1.341   5.276   7.724  0.2993  0.1164 -1.7254
 8674SOL     OW27309   1.877   3.577   1.850 -0.9431  0.7463  0.0691
 8674SOL    HW127310   1.844   3.658   1.812 -0.4492  0.0937 -1.8749
 8674SOL    HW227311   1.972   3.589   1.852 -0.8520  0.1627 -0.4154
 8675SOL     OW27312   8.289   8.003   0.297 -0.6980  0.0261  0.0350
 8675SOL    HW127313   8.363   7.992   0.357 -0.3972 -0.0467 -0.3441
 8675SOL    HW227314   8.254   8.090   0.317  1.6181  1.5775 -2.0918
 8676SOL     OW27315   4.910   5.620   8.340  0.3638 -0.7110  0.6767
 8676SOL    HW127316   4.877   5.709   8.352 -0.1286 -0.7571 -0.1869
 8676SOL    HW227317   4.910   5.581   8.428 -0.7607 -0.3059  0.8682
 8677SOL     OW27318   5.065   0.675   6.873  0.4208  0.7510 -0.3937
 8677SOL    HW127319   5.136   0.735   6.852  0.9763  0.1810 -0.1909
 8677SOL    HW227320   5.091   0.635   6.956  0.4678 -0.3592 -0.9190
 8678SOL     OW27321   4.820   1.775   0.809  0.7978  0.1763  0.2828
 8678SOL    HW127322   4.734   1.735   0.799 -0.0418  0.9180  3.3696
 8678SOL    HW227323   4.853   1.786   0.720 -2.5895  0.5252 -1.0566
 8679SOL     OW27324   6.924   3.840   1.907  0.0608  0.5356  0.3908
 8679SOL    HW127325   6.934   3.748   1.931  0.6562  0.3354 -0.5590
 8679SOL    HW227326   6.840   3.866   1.945 -0.3395 -0.5393  0.2620
 8680SOL     OW27327   7.646   8.430   5.020 -0.3094  0.4131  0.2345
 8680SOL    HW127328   7.740   8.417   5.031 -0.5648 -0.5097  1.6885
 8680SOL    HW227329   7.633   8.524   5.030  0.4977  0.5905 -0.3528
 8681SOL     OW27330   2.093   5.742   6.962  0.3064  0.1992 -0.0205
 8681SOL    HW127331   2.003   5.735   6.993 -0.1125 -1.7827 -1.4485
 8681SOL    HW227332   2.138   5.667   7.001  1.4443  1.3296  0.9140
 8682SOL     OW27333   2.344   5.971   7.511  0.4619 -0.0292 -0.3315
 8682SOL    HW127334   2.277   5.985   7.578 -0.1309  1.2860 -1.1625
 8682SOL    HW227335   2.328   5.882   7.479 -1.0696  0.3391 -0.6776
 8683SOL     OW27336   6.094   0.155   7.034  0.7610 -0.1462 -0.2322
 8683SOL    HW127337   6.115   0.106   6.955  0.8592  0.3674 -0.5257
 8683SOL    HW227338   6.173   0.204   7.054  0.6794 -0.1412  0.0875
 8684SOL     OW27339   3.511   6.285   5.879 -0.7047  0.0556  0.0032
 8684SOL    HW127340   3.497   6.290   5.973 -2.4190 -1.9256 -0.0891
 8684SOL    HW227341   3.572   6.212   5.867 -1.5787 -0.6185 -0.4689
 8685SOL     OW27342   5.221   4.154   8.419  0.5898 -0.3990 -1.1728
 8685SOL    HW127343   5.264   4.088   8.365  0.5402 -0.2500 -1.3973
 8685SOL    HW227344   5.139   4.112   8.446  1.5232 -1.2510  0.4989
 8686SOL     OW27345   1.327   5.760   1.119  0.2708  0.3742 -0.1143
 8686SOL    HW127346   1.376   5.762   1.037  1.3713 -0.2901  0.5069
 8686SOL    HW227347   1.352   5.842   1.163  0.0413  0.5067 -0.2271
 8687SOL     OW27348   3.941   4.629   8.283  0.4844 -0.3320  0.3919
 8687SOL    HW127349   3.918   4.681   8.360  1.7671 -0.2536  0.7479
 8687SOL    HW227350   4.025   4.588   8.306  0.1951 -1.4445 -0.4207
 8688SOL     OW27351   1.633   4.259   6.674 -0.1029 -0.6787 -0.7867
 8688SOL    HW127352   1.711   4.231   6.722  0.6477  2.3437  0.0028
 8688SOL    HW227353   1.630   4.203   6.597  2.6855 -1.1239 -0.6589
 8689SOL     OW27354   5.169   0.099   5.722 -0.3404 -0.1943 -0.1514
 8689SOL    HW127355   5.136   0.092   5.811 -0.9025  1.0092 -0.2424
 8689SOL    HW227356   5.173   0.193   5.705 -0.0908 -0.4013 -1.3391
 8690SOL     OW27357   2.998   4.627   4.354  0.3809 -0.0468 -0.2741
 8690SOL    HW127358   3.020   4.591   4.440 -1.4340 -1.8015 -0.4806
 8690SOL    HW227359   2.908   4.600   4.339  0.7470 -0.0703 -2.8900
 8691SOL     OW27360   6.266   7.344   3.299 -0.2058 -0.0160  0.4518
 8691SOL    HW127361   6.238   7.295   3.222 -0.4414  1.4860 -0.4573
 8691SOL    HW227362   6.302   7.277   3.358 -1.3074 -1.3827 -0.3442
 8692SOL     OW27363   7.848   7.227   6.817  0.2786  0.0248 -0.2180
 8692SOL    HW127364   7.891   7.154   6.860  0.2639  0.1308 -0.0215
 8692SOL    HW227365   7.835   7.292   6.886 -2.2999 -0.9147  0.3079
 8693SOL     OW27366   1.092   7.032   5.821  0.1953  0.2531 -0.3953
 8693SOL    HW127367   1.111   6.984   5.740  0.4288 -0.3832  0.0330
 8693SOL    HW227368   1.170   7.085   5.837  0.2084  0.2655 -0.5012
 8694SOL     OW27369   7.540   5.677   7.167  0.2615  0.0320  0.3331
 8694SOL    HW127370   7.465   5.656   7.112  0.4196  0.8930 -0.2229
 8694SOL    HW227371   7.502   5.716   7.246  0.1748  2.4441 -0.8315
 8695SOL     OW27372   6.927   6.540   3.093 -0.2754  0.6770 -0.7729
 8695SOL    HW127373   6.999   6.576   3.041 -0.1450 -0.7246 -1.5840
 8695SOL    HW227374   6.959   6.456   3.124 -0.7189  1.0527  0.8202
 8696SOL     OW27375   2.804   8.271   0.603  0.1716 -0.5988 -0.2211
 8696SOL    HW127376   2.839   8.255   0.515 -1.0254 -1.3481 -0.5923
 8696SOL    HW227377   2.740   8.341   0.591  1.8563  1.1405  0.5454
 8697SOL     OW27378   3.889   5.615   7.384 -0.0236 -0.1945  0.1519
 8697SOL    HW127379   3.858   5.681   7.322  0.2092 -0.6617 -0.4730
 8697SOL    HW227380   3.957   5.567   7.337 -0.8450 -1.5071  0.2393
 8698SOL     OW27381   4.363   0.109   6.864 -0.0512 -0.4070 -0.1358
 8698SOL    HW127382   4.343   0.193   6.905  1.2971 -0.2360  0.2028
 8698SOL    HW227383   4.301   0.048   6.903 -0.5319  0.2724  0.1873
 8699SOL     OW27384   4.975   6.934   2.998 -0.0669  0.1470 -0.6897
 8699SOL    HW127385   4.927   6.917   3.078 -0.4673  0.5752 -0.8358
 8699SOL    HW227386   5.059   6.970   3.027 -0.3356  0.6051 -0.4727
 8700SOL     OW27387   5.468   5.588   6.130  0.1768 -0.7566  0.0442
 8700SOL    HW127388   5.488   5.615   6.040 -1.2087  0.9660  0.2147
 8700SOL    HW227389   5.389   5.534   6.122  0.2118 -0.8339  0.2082
 8701SOL     OW27390   8.116   1.286   4.837 -0.5138 -0.2369  0.2818
 8701SOL    HW127391   8.147   1.322   4.920 -0.7030  0.7290 -0.0651
 8701SOL    HW227392   8.075   1.203   4.862  0.0329 -0.2875  1.0651
 8702SOL     OW27393   2.503   7.126   4.626  0.0474  0.1838  0.2203
 8702SOL    HW127394   2.420   7.173   4.617  0.1448  0.4234  0.5552
 8702SOL    HW227395   2.512   7.077   4.545 -0.2467  0.4390  0.0330
 8703SOL     OW27396   0.500   0.323   4.701  0.8448  0.0599  0.4747
 8703SOL    HW127397   0.421   0.378   4.696  1.7503  1.5275  1.5239
 8703SOL    HW227398   0.551   0.347   4.624  0.9420  0.2077  0.5852
 8704SOL     OW27399   1.945   7.990   2.942 -0.1992 -0.2006 -1.2626
 8704SOL    HW127400   1.908   7.903   2.956 -1.8573  0.5511 -0.7803
 8704SOL    HW227401   1.872   8.050   2.956  1.2846  1.3957  0.1377
 8705SOL     OW27402   0.967   1.082   6.789 -0.3461  0.4931  0.6948
 8705SOL    HW127403   0.917   1.020   6.735  0.1251  1.5514 -1.0436
 8705SOL    HW227404   0.982   1.035   6.871 -0.3218 -1.5627 -0.4144
 8706SOL     OW27405   0.814   0.638   5.619  0.4059 -0.2037  0.2982
 8706SOL    HW127406   0.755   0.699   5.665 -0.1929 -0.1289 -0.5309
 8706SOL    HW227407   0.797   0.656   5.526  1.1446 -0.7687  0.0522
 8707SOL     OW27408   0.810   0.070   1.731 -0.0256  0.5741  0.6262
 8707SOL    HW127409   0.727   0.035   1.698 -0.0884 -0.0432  1.3872
 8707SOL    HW227410   0.784   0.140   1.791  0.1344  3.2080 -2.1347
 8708SOL     OW27411   1.255   6.498   3.281  0.1302 -0.2012  0.6597
 8708SOL    HW127412   1.332   6.547   3.309  0.8281 -0.6839 -0.3238
 8708SOL    HW227413   1.272   6.408   3.311 -0.9318  0.0354  2.0669
 8709SOL     OW27414   5.365   2.481   1.599 -0.8126  0.1977  0.4576
 8709SOL    HW127415   5.393   2.569   1.576 -1.1657  1.4368  4.1919
 8709SOL    HW227416   5.305   2.456   1.529  2.2036  1.1878 -2.8209
 8710SOL     OW27417   2.147   6.579   1.193  0.1242 -0.0508 -0.4801
 8710SOL    HW127418   2.220   6.521   1.211  0.3858  0.2983 -0.4051
 8710SOL    HW227419   2.070   6.533   1.226  0.4724  0.1591  0.6401
 8711SOL     OW27420   7.845   3.797   2.603  0.1862 -0.0650  0.1468
 8711SOL    HW127421   7.858   3.711   2.564  0.5078  0.7836 -1.6876
 8711SOL    HW227422   7.933   3.834   2.610  0.1190 -0.1162  1.5462
 8712SOL     OW27423   4.563   6.571   0.316 -0.0763  0.4659 -0.0480
 8712SOL    HW127424   4.563   6.509   0.244  1.6917  0.8931 -0.4715
 8712SOL    HW227425   4.634   6.632   0.295 -0.0641  1.0810  1.6327
 8713SOL     OW27426   8.601   2.646   2.103 -0.0201  0.2905  0.1086
 8713SOL    HW127427   8.544   2.713   2.139 -0.3407  0.1329 -0.1002
 8713SOL    HW227428   8.573   2.565   2.146  0.3427  0.2849  0.3371
 8714SOL     OW27429   2.102   0.193   5.052 -0.3004  0.0900  0.3892
 8714SOL    HW127430   2.013   0.215   5.080 -0.4469 -0.6450  0.4952
 8714SOL    HW227431   2.090   0.135   4.977  0.0894 -0.4210  0.7225
 8715SOL     OW27432   4.377   2.221   7.569  0.3857 -0.6458 -0.1441
 8715SOL    HW127433   4.385   2.187   7.480  0.0524  0.1931 -0.5020
 8715SOL    HW227434   4.284   2.237   7.581  0.6058  1.0382 -0.3512
 8716SOL     OW27435   7.172   1.124   1.280 -0.2335  0.3196  0.4254
 8716SOL    HW127436   7.194   1.177   1.203  1.5994 -0.6827  0.2089
 8716SOL    HW227437   7.219   1.166   1.352 -0.5935  0.2769  0.6908
 8717SOL     OW27438   5.879   2.046   4.709 -0.4636 -0.1526 -0.0234
 8717SOL    HW127439   5.814   1.983   4.679 -0.1855 -0.5284  0.1588
 8717SOL    HW227440   5.910   2.088   4.629  2.0735 -2.8655 -0.6015
 8718SOL     OW27441   0.023   0.033   3.074  0.0126  0.3186 -0.1241
 8718SOL    HW127442  -0.019  -0.042   3.116 -0.2297  0.7147  0.3528
 8718SOL    HW227443   0.008   0.106   3.134  0.9812  0.5719 -0.1764
 8719SOL     OW27444   8.121   1.461   1.735  0.5562 -0.7728  0.0834
 8719SOL    HW127445   8.085   1.423   1.815  0.8043 -0.1718  0.4858
 8719SOL    HW227446   8.049   1.512   1.698  0.8437  0.1016  0.6784
 8720SOL     OW27447   1.666   6.629   6.102 -0.4789 -0.2528 -0.2737
 8720SOL    HW127448   1.690   6.704   6.156 -0.1657 -0.4268 -0.1629
 8720SOL    HW227449   1.671   6.554   6.162  0.7652 -0.5721 -0.7393
 8721SOL     OW27450   5.435   3.767   6.693 -0.1864  0.3718  0.2396
 8721SOL    HW127451   5.511   3.761   6.635 -0.2935  0.6827  0.0672
 8721SOL    HW227452   5.471   3.792   6.778 -0.0384 -0.0012  0.2897
 8722SOL     OW27453   3.882   4.371   8.519  0.5256  0.1131 -0.4653
 8722SOL    HW127454   3.863   4.333   8.605  1.3160 -0.3793 -0.4935
 8722SOL    HW227455   3.935   4.448   8.539 -0.1492  0.5769 -0.4624
 8723SOL     OW27456   3.762   7.017   1.746  0.4035 -0.2568 -0.1452
 8723SOL    HW127457   3.709   7.037   1.668  1.6047  4.0497 -0.1047
 8723SOL    HW227458   3.698   6.990   1.812 -1.3735  1.4377 -1.0829
 8724SOL     OW27459   6.931   0.471   4.770 -0.6150  0.0675  0.0093
 8724SOL    HW127460   7.023   0.496   4.781  0.0381 -2.8940  3.0224
 8724SOL    HW227461   6.933   0.376   4.758 -3.2968 -0.0865  0.0584
 8725SOL     OW27462   5.156   5.583   6.525 -0.1934 -0.0977 -0.0001
 8725SOL    HW127463   5.182   5.503   6.571  0.3131  0.4341  0.6497
 8725SOL    HW227464   5.227   5.645   6.541  0.1069  0.0519 -1.6691
 8726SOL     OW27465   3.850   0.126   5.885  0.0647 -0.2714  0.8315
 8726SOL    HW127466   3.860   0.164   5.798 -2.2660  0.2311  0.7263
 8726SOL    HW227467   3.922   0.165   5.936  0.8988  0.1422 -0.6087
 8727SOL     OW27468   5.616   8.426   4.856 -0.3388 -0.2748  0.2291
 8727SOL    HW127469   5.646   8.336   4.840 -1.6338 -0.6670 -0.0973
 8727SOL    HW227470   5.557   8.445   4.783  0.4836  1.1263 -0.1133
 8728SOL     OW27471   1.483   4.885   4.886 -0.0891  0.1974 -0.0219
 8728SOL    HW127472   1.513   4.931   4.965  0.3221 -0.3776  0.1644
 8728SOL    HW227473   1.520   4.797   4.894 -3.1284 -1.1178  0.9992
 8729SOL     OW27474   6.455   1.029   2.614  0.3841  0.1996  0.6917
 8729SOL    HW127475   6.451   0.934   2.618 -0.3740  0.2617  2.5841
 8729SOL    HW227476   6.441   1.050   2.522 -0.6870 -1.4729  0.4329
 8730SOL     OW27477   1.516   6.753   1.473  0.2440 -0.5815 -0.1244
 8730SOL    HW127478   1.609   6.766   1.490 -0.1172  0.6349  1.0932
 8730SOL    HW227479   1.474   6.768   1.558 -1.0897 -0.8714 -0.7076
 8731SOL     OW27480   1.603   4.441   0.007 -0.0797  0.0435  0.6152
 8731SOL    HW127481   1.689   4.454  -0.035 -0.0992 -1.1994  0.1539
 8731SOL    HW227482   1.554   4.387  -0.055 -0.8051 -0.1890  1.3784
 8732SOL     OW27483   1.125   1.272   6.397 -0.4483  0.4421  0.3586
 8732SOL    HW127484   1.116   1.206   6.328  0.7351 -1.7244  2.1349
 8732SOL    HW227485   1.215   1.303   6.389  0.0290 -0.5769  1.4954
 8733SOL     OW27486   2.787   7.359   1.112  0.1556  0.1632 -0.3841
 8733SOL    HW127487   2.852   7.415   1.070  1.0123 -1.0513 -0.7473
 8733SOL    HW227488   2.737   7.322   1.040  0.8132 -0.9528 -0.2909
 8734SOL     OW27489   7.836   4.143   7.493 -0.0831  0.0649 -0.2770
 8734SOL    HW127490   7.838   4.064   7.547 -0.0443 -0.7275 -1.3916
 8734SOL    HW227491   7.754   4.137   7.445  0.1761  0.4200 -0.7773
 8735SOL     OW27492   1.949   0.972   8.253  0.2431 -0.1490  0.6430
 8735SOL    HW127493   1.980   0.979   8.163  1.5861  1.3014  1.1874
 8735SOL    HW227494   1.854   0.980   8.246  0.4182  1.1799 -0.5386
 8736SOL     OW27495   3.875   0.084   1.528  0.3274 -0.2981 -0.0573
 8736SOL    HW127496   3.792   0.129   1.514 -0.2568 -1.4125 -0.2795
 8736SOL    HW227497   3.941   0.143   1.490 -0.5985 -0.4375 -1.9926
 8737SOL     OW27498   8.543   8.250   7.886 -0.4660  0.0167 -0.0888
 8737SOL    HW127499   8.556   8.284   7.974 -0.1273 -0.4216  0.0305
 8737SOL    HW227500   8.464   8.295   7.855  0.2203  1.2465 -0.0999
 8738SOL     OW27501   3.461   5.485   4.925 -0.1780 -0.2972 -0.2528
 8738SOL    HW127502   3.440   5.502   5.017 -0.2168  0.5472 -0.4141
 8738SOL    HW227503   3.427   5.397   4.909 -2.6479  0.5895 -0.2134
 8739SOL     OW27504   4.066   7.343   7.145 -0.3358  0.2601  0.1364
 8739SOL    HW127505   4.066   7.250   7.166 -1.1487  0.1501 -0.3128
 8739SOL    HW227506   4.149   7.356   7.098  0.1364 -0.0667  0.8548
 8740SOL     OW27507   6.208   3.096   4.747 -0.2391 -0.4988  0.1290
 8740SOL    HW127508   6.186   3.142   4.828  0.4800  2.0258 -1.0153
 8740SOL    HW227509   6.218   3.004   4.774 -0.8729  0.1059  2.7138
 8741SOL     OW27510   0.995   0.469   2.660 -0.1199  0.0791 -0.1095
 8741SOL    HW127511   0.909   0.428   2.651  0.5987 -1.0880 -2.4238
 8741SOL    HW227512   0.987   0.551   2.612 -0.6977  1.3882  2.0748
 8742SOL     OW27513   3.360   0.478   7.835 -0.7121 -0.4492  0.0979
 8742SOL    HW127514   3.446   0.490   7.876 -0.7248 -0.4660  0.1301
 8742SOL    HW227515   3.303   0.541   7.880 -0.0417  1.8278 -2.0516
 8743SOL     OW27516   0.723   1.101   4.875 -0.6270  0.5937 -0.4444
 8743SOL    HW127517   0.771   1.025   4.840 -1.5050  0.7956 -2.2236
 8743SOL    HW227518   0.771   1.177   4.841  0.5189  0.9301  1.7035
 8744SOL     OW27519   1.855   5.504   2.870  0.2214 -0.2816  0.0514
 8744SOL    HW127520   1.774   5.507   2.921 -0.1941 -2.4241 -0.4149
 8744SOL    HW227521   1.871   5.596   2.847 -2.2324  0.1805 -0.1111
 8745SOL     OW27522   2.168   2.244   4.955  0.2585  0.2479 -0.7270
 8745SOL    HW127523   2.209   2.157   4.948 -3.1994 -1.7203  0.7364
 8745SOL    HW227524   2.136   2.262   4.867  1.2370  0.2143 -1.1087
 8746SOL     OW27525   8.064   7.012   3.171 -0.2295  0.2731  0.3471
 8746SOL    HW127526   8.065   6.922   3.204  0.7213  0.5335  1.0921
 8746SOL    HW227527   8.083   7.066   3.249  1.1140  0.9825 -0.4270
 8747SOL     OW27528   0.086   1.746   6.422 -0.3225 -0.2778 -0.1157
 8747SOL    HW127529   0.178   1.774   6.417 -0.4171  0.1631  0.4611
 8747SOL    HW227530   0.079   1.674   6.360  0.9037 -1.6593  1.2560
 8748SOL     OW27531   6.413   8.506   3.817  0.0025  0.8529  0.2979
 8748SOL    HW127532   6.461   8.588   3.822  1.0755  0.1978  2.5782
 8748SOL    HW227533   6.479   8.439   3.837 -1.6023 -0.1565  2.7219
 8749SOL     OW27534   1.250   6.598   0.369 -0.1611 -0.1937  0.1787
 8749SOL    HW127535   1.333   6.552   0.382 -0.3099  0.0330  2.3258
 8749SOL    HW227536   1.243   6.609   0.274  1.1191 -2.2779 -0.2290
 8750SOL     OW27537   0.270   3.787   6.541 -0.2729  0.1997 -0.5084
 8750SOL    HW127538   0.211   3.822   6.608 -1.8441 -0.5440 -1.4359
 8750SOL    HW227539   0.290   3.698   6.570  0.5262  0.5065 -0.1157
 8751SOL     OW27540   4.843   8.362   3.450  0.1764  0.0744 -0.0315
 8751SOL    HW127541   4.809   8.433   3.396 -1.8578 -0.7823  0.0264
 8751SOL    HW227542   4.856   8.402   3.536 -0.5684  0.4803 -0.1002
 8752SOL     OW27543   4.304   6.691   3.080 -0.0885 -0.2984  0.0527
 8752SOL    HW127544   4.251   6.740   3.017  2.0009  0.0149 -1.5810
 8752SOL    HW227545   4.257   6.609   3.092 -2.4148  1.0900  0.9767
 8753SOL     OW27546   6.800   5.745   8.077  0.6773 -0.0338  0.8441
 8753SOL    HW127547   6.819   5.707   7.991 -0.8962  1.2270 -0.1237
 8753SOL    HW227548   6.706   5.732   8.088  0.6759  0.7864  1.9141
 8754SOL     OW27549   0.221   6.895   8.237  0.2226  0.2570  0.5269
 8754SOL    HW127550   0.136   6.852   8.227  0.3542  0.3239 -1.2702
 8754SOL    HW227551   0.201   6.988   8.242  0.1774  0.2573  0.3314
 8755SOL     OW27552   1.755   2.880   4.087  0.1027  0.0589  0.5835
 8755SOL    HW127553   1.774   2.804   4.032 -0.1124  0.3500  0.1011
 8755SOL    HW227554   1.823   2.943   4.066 -1.2576  1.0548 -1.0563
 8756SOL     OW27555   1.407   8.343   4.153  0.4010 -0.3136  0.1408
 8756SOL    HW127556   1.351   8.277   4.110 -0.1158 -0.1835  0.6023
 8756SOL    HW227557   1.373   8.427   4.123 -0.0977 -0.2132  0.9479
 8757SOL     OW27558   2.656   2.357   0.567  0.3796  0.1300  0.0416
 8757SOL    HW127559   2.651   2.308   0.649  1.2602  0.2263  0.1577
 8757SOL    HW227560   2.673   2.290   0.501  0.1958  0.1159  0.0079
 8758SOL     OW27561   2.969   6.212   2.446  0.1120 -0.1687  0.3713
 8758SOL    HW127562   2.900   6.219   2.380  0.9621 -1.5745 -0.7569
 8758SOL    HW227563   3.023   6.290   2.432  0.8236 -0.8887 -1.3494
 8759SOL     OW27564   4.789   5.566   2.429 -0.0602 -0.7744  0.2932
 8759SOL    HW127565   4.722   5.589   2.494 -1.0529 -1.5154 -0.4306
 8759SOL    HW227566   4.800   5.471   2.439  0.3227 -0.7740 -0.1058
 8760SOL     OW27567   2.008   7.322   7.220  0.4566 -0.1555  0.0316
 8760SOL    HW127568   1.932   7.377   7.235 -0.2310 -0.8678 -0.7315
 8760SOL    HW227569   2.082   7.383   7.214 -0.1327  0.5822  0.2027
 8761SOL     OW27570   7.397   0.535   5.689 -0.0124  0.2747 -0.3631
 8761SOL    HW127571   7.427   0.493   5.770 -1.2343 -1.0791 -0.5717
 8761SOL    HW227572   7.455   0.499   5.622 -0.2748 -0.1553 -0.3648
 8762SOL     OW27573   0.517   1.693   6.715  0.1144 -0.1961 -0.2238
 8762SOL    HW127574   0.501   1.617   6.771  1.0199 -1.1835 -1.2598
 8762SOL    HW227575   0.431   1.713   6.677  0.4132 -3.0215 -2.7568
 8763SOL     OW27576   7.217   6.430   5.845  0.7443 -0.1093 -0.0944
 8763SOL    HW127577   7.266   6.462   5.769 -0.5876  0.2900 -0.8196
 8763SOL    HW227578   7.256   6.475   5.920  1.3011  0.4095 -0.6919
 8764SOL     OW27579   3.064   5.648   1.106 -0.4910  0.6194 -0.0197
 8764SOL    HW127580   3.153   5.663   1.074 -0.4640  0.5859  0.0377
 8764SOL    HW227581   3.046   5.557   1.084 -0.0711  0.2692  0.9949
 8765SOL     OW27582   6.250   3.253   6.570  0.2431  0.3500  0.4409
 8765SOL    HW127583   6.258   3.348   6.560  0.6189  0.2090 -0.7537
 8765SOL    HW227584   6.341   3.223   6.579  0.3149 -0.0780 -1.2773
 8766SOL     OW27585   1.299   7.311   0.795  0.9149 -0.2919 -0.0117
 8766SOL    HW127586   1.289   7.242   0.728 -1.3203  0.5073 -0.5630
 8766SOL    HW227587   1.352   7.378   0.752 -1.1116  0.5524 -1.3599
 8767SOL     OW27588   7.270   8.253   2.322 -0.0529  0.2705  0.1528
 8767SOL    HW127589   7.208   8.221   2.257 -1.0576  0.8537  0.7939
 8767SOL    HW227590   7.333   8.181   2.332 -1.1637 -0.7445  0.1614
 8768SOL     OW27591   7.750   7.064   7.299 -0.0215  0.0443  0.1792
 8768SOL    HW127592   7.835   7.030   7.325  0.2073 -1.9658 -2.7144
 8768SOL    HW227593   7.688   7.021   7.357  0.8047  1.5074  2.3002
 8769SOL     OW27594   1.195   0.372   2.461 -0.5600  0.3160 -0.1990
 8769SOL    HW127595   1.229   0.285   2.442 -0.5052  0.7986 -2.5976
 8769SOL    HW227596   1.135   0.359   2.534  1.4818 -1.2523  1.3393
 8770SOL     OW27597   1.083   1.264   5.868 -0.6273 -0.5539  0.4218
 8770SOL    HW127598   0.993   1.284   5.842 -0.2453  0.2919 -0.3149
 8770SOL    HW227599   1.134   1.336   5.832  0.8262 -2.7295 -2.2235
 8771SOL     OW27600   8.115   4.274   4.939 -0.3929  0.4305  0.2778
 8771SOL    HW127601   8.173   4.202   4.964  0.2075  0.8895  0.2280
 8771SOL    HW227602   8.092   4.256   4.848 -0.0498  0.4263  0.1918
 8772SOL     OW27603   3.111   4.250   1.011  0.2333  0.0697  0.0348
 8772SOL    HW127604   3.070   4.336   1.006  0.4040  0.2480  1.3584
 8772SOL    HW227605   3.041   4.189   0.992  0.3272  0.5067 -1.9195
 8773SOL     OW27606   6.815   5.808   6.735  0.1414 -0.0785  0.2756
 8773SOL    HW127607   6.800   5.760   6.817 -0.2306  1.3501  1.0823
 8773SOL    HW227608   6.910   5.806   6.724  0.1797 -0.4664  0.6218
 8774SOL     OW27609   2.811   4.069   8.516  0.0495  0.4615  0.4572
 8774SOL    HW127610   2.724   4.095   8.485  0.3302  0.6215 -0.2279
 8774SOL    HW227611   2.804   4.071   8.611 -0.6450  0.6550  0.4115
 8775SOL     OW27612   8.685   7.732   5.681 -0.4596 -0.1005  0.0743
 8775SOL    HW127613   8.620   7.802   5.690  1.0517  1.3911  0.0094
 8775SOL    HW227614   8.768   7.774   5.704  0.8843 -1.1735 -2.3882
 8776SOL     OW27615   6.469   6.901   4.202  0.1159 -0.2411  0.2385
 8776SOL    HW127616   6.490   6.911   4.109 -1.6971  2.0790  0.0034
 8776SOL    HW227617   6.471   6.991   4.237 -3.2013 -0.5442  1.5008
 8777SOL     OW27618   6.566   5.177   2.896 -0.4734  0.8150 -0.0764
 8777SOL    HW127619   6.540   5.269   2.901 -0.0359  1.0775 -1.9631
 8777SOL    HW227620   6.510   5.139   2.829  0.3982  0.0902 -0.4167
 8778SOL     OW27621   5.773   7.072   5.881  0.5164 -0.0313  0.2256
 8778SOL    HW127622   5.866   7.093   5.871  0.8456 -2.0792 -2.0904
 8778SOL    HW227623   5.769   6.977   5.874 -1.7038 -0.0626  1.1371
 8779SOL     OW27624   0.881   5.657   7.527 -0.2416 -0.1684 -0.3288
 8779SOL    HW127625   0.960   5.693   7.567 -0.4960  0.4408 -0.3601
 8779SOL    HW227626   0.892   5.671   7.433 -0.9743  1.1820 -0.2444
 8780SOL     OW27627   3.570   0.583   8.384 -0.4329 -0.0771 -0.2802
 8780SOL    HW127628   3.581   0.544   8.297 -1.8848 -2.1558  0.3841
 8780SOL    HW227629   3.657   0.576   8.424 -0.4905 -2.2300 -0.4058
 8781SOL     OW27630   5.309   7.135   4.999 -0.2633 -0.2490  0.1501
 8781SOL    HW127631   5.330   7.187   4.921 -0.3134 -1.5480 -0.7602
 8781SOL    HW227632   5.324   7.045   4.972 -0.7028 -0.7568  1.5296
 8782SOL     OW27633   3.119   1.543   2.713 -0.5479 -0.2130  0.2942
 8782SOL    HW127634   3.136   1.449   2.706 -1.6607 -0.3154 -1.8768
 8782SOL    HW227635   3.025   1.551   2.693 -0.4066  1.3835  0.2069
 8783SOL     OW27636   0.076   0.396   7.096  0.2232 -0.0737  0.2090
 8783SOL    HW127637   0.160   0.437   7.119 -0.1818  0.7511  0.2394
 8783SOL    HW227638   0.012   0.467   7.100 -0.3136 -0.4803 -0.8282
 8784SOL     OW27639   6.298   2.438   7.760  0.0896 -0.4000 -0.0604
 8784SOL    HW127640   6.385   2.399   7.762  0.6774  0.9075  0.6576
 8784SOL    HW227641   6.265   2.426   7.849 -0.0427  0.0363 -0.0493
 8785SOL     OW27642   7.832   0.993   5.839 -0.2861  0.1138 -0.0383
 8785SOL    HW127643   7.816   0.908   5.796  1.2059  0.7904 -2.1003
 8785SOL    HW227644   7.780   1.055   5.787 -0.0084  0.6998  0.3814
 8786SOL     OW27645   3.361   7.377   6.331 -0.1688 -0.7004 -0.3392
 8786SOL    HW127646   3.267   7.358   6.339 -0.2351 -0.5239 -0.6892
 8786SOL    HW227647   3.401   7.329   6.404 -0.5631 -0.5478 -0.0164
 8787SOL     OW27648   2.919   7.347   7.159 -0.3774  0.0108  0.5761
 8787SOL    HW127649   3.004   7.388   7.144  0.3827 -1.6280  0.1445
 8787SOL    HW227650   2.882   7.335   7.071 -1.8475  2.1691  0.8132
 8788SOL     OW27651   4.346   4.541   7.681 -0.4057  0.1039  0.3166
 8788SOL    HW127652   4.340   4.512   7.590  1.3501  0.4100  0.0837
 8788SOL    HW227653   4.420   4.602   7.683  0.2240 -0.6514  2.1309
 8789SOL     OW27654   0.834   5.332   1.377 -0.1120  0.2189  0.4667
 8789SOL    HW127655   0.836   5.426   1.397 -0.8464  0.1368  0.9687
 8789SOL    HW227656   0.741   5.313   1.365  0.1348 -0.1692 -1.0042
 8790SOL     OW27657   0.384   2.227   7.677  0.8135  0.0768  0.3971
 8790SOL    HW127658   0.411   2.190   7.761 -0.5656 -0.6075  0.5812
 8790SOL    HW227659   0.400   2.157   7.614 -0.5918 -0.4018  0.5368
 8791SOL     OW27660   2.270   0.431   7.632  0.5738  0.3378  0.0278
 8791SOL    HW127661   2.179   0.439   7.659  0.6282  0.6882  0.1146
 8791SOL    HW227662   2.277   0.343   7.597  0.3588  0.0768  0.6272
 8792SOL     OW27663   5.855   7.612   2.537 -0.0066 -0.0916  0.1481
 8792SOL    HW127664   5.815   7.690   2.498  1.1417  1.0826  1.1938
 8792SOL    HW227665   5.852   7.546   2.468 -0.7793  0.9527 -0.8601
 8793SOL     OW27666   1.687   3.761   6.339 -0.0305 -0.5824  0.4099
 8793SOL    HW127667   1.733   3.679   6.319  0.4209 -1.0864  3.1640
 8793SOL    HW227668   1.674   3.802   6.253 -0.0662 -3.3921 -1.0532
 8794SOL     OW27669   0.016   3.382   1.827 -0.3461  0.1620  0.3065
 8794SOL    HW127670  -0.056   3.372   1.889 -0.0269 -1.4532  0.4479
 8794SOL    HW227671   0.094   3.359   1.877  0.1426  0.7171 -0.1839
 8795SOL     OW27672   5.266   6.848   2.538 -0.3816  0.1520 -0.1458
 8795SOL    HW127673   5.323   6.923   2.521 -0.9474  0.5457 -0.3087
 8795SOL    HW227674   5.222   6.832   2.454  1.3615 -1.7593 -0.7760
 8796SOL     OW27675   8.711   8.533   4.576  0.0635 -0.2279  0.3811
 8796SOL    HW127676   8.683   8.443   4.594  3.2991 -1.6072 -0.7400
 8796SOL    HW227677   8.690   8.581   4.656 -1.3930 -2.0322  1.1644
 8797SOL     OW27678   6.374   2.187   0.370  0.5476  0.1481 -0.0651
 8797SOL    HW127679   6.334   2.260   0.416  0.9481  0.7046 -0.5857
 8797SOL    HW227680   6.302   2.147   0.321  0.2100 -0.1774  0.6930
 8798SOL     OW27681   3.814   8.105   1.921  0.1595 -0.1899 -0.2170
 8798SOL    HW127682   3.904   8.073   1.913  0.7146  0.6335  2.0268
 8798SOL    HW227683   3.822   8.188   1.969 -1.8641 -0.5493  0.8406
 8799SOL     OW27684   7.094   7.807   0.986  0.3026 -0.3133 -0.1431
 8799SOL    HW127685   7.016   7.859   1.001  1.4368  1.6052 -0.5956
 8799SOL    HW227686   7.131   7.792   1.073  0.7049  0.8445 -0.1075
 8800SOL     OW27687   7.235   0.546   2.031  0.1306  0.0580  0.4372
 8800SOL    HW127688   7.221   0.506   2.117  0.1468  0.2433  0.5251
 8800SOL    HW227689   7.324   0.581   2.035  0.2717 -0.2731  0.2105
 8801SOL     OW27690   1.707   5.512   4.576 -0.7473 -0.5120  0.4908
 8801SOL    HW127691   1.719   5.540   4.485 -1.2184  1.8212  1.0837
 8801SOL    HW227692   1.715   5.416   4.573  0.8777 -0.3707 -1.7174
 8802SOL     OW27693   5.667   2.292   8.441 -0.3023  0.4223  0.3341
 8802SOL    HW127694   5.608   2.324   8.372 -1.2086 -0.6822  0.5717
 8802SOL    HW227695   5.627   2.211   8.471  0.8189  0.1774  1.2218
 8803SOL     OW27696   6.136   0.599   8.280  0.5766 -0.0927  0.1282
 8803SOL    HW127697   6.218   0.646   8.291  0.5359 -0.0920  0.4676
 8803SOL    HW227698   6.071   0.668   8.265  0.4610  0.0009  0.9608
 8804SOL     OW27699   6.376   2.702   5.620  0.0023  0.5073  0.6613
 8804SOL    HW127700   6.303   2.708   5.558 -1.4610  0.0986  2.2754
 8804SOL    HW227701   6.399   2.794   5.638 -1.6761  0.7325  1.8615
 8805SOL     OW27702   3.228   8.575   4.818 -0.1449  0.1195  0.3958
 8805SOL    HW127703   3.268   8.517   4.752  0.9725 -0.1946  1.3181
 8805SOL    HW227704   3.278   8.558   4.898 -0.4019  1.6948  0.9241
 8806SOL     OW27705   5.490   4.852   8.269 -0.6545 -0.1069 -0.8064
 8806SOL    HW127706   5.562   4.887   8.216  0.2803  0.1311  0.5723
 8806SOL    HW227707   5.490   4.907   8.347 -2.4411 -0.0300 -0.8372
 8807SOL     OW27708   5.713   1.380   1.161  0.2978  0.0800  0.2171
 8807SOL    HW127709   5.733   1.445   1.093 -1.2032  0.9072  0.5240
 8807SOL    HW227710   5.738   1.422   1.243  1.5906 -0.7090  0.2684
 8808SOL     OW27711   6.059   6.962   3.544 -0.2178 -0.0889  0.1825
 8808SOL    HW127712   6.086   6.960   3.636 -1.9038  0.1019  0.7274
 8808SOL    HW227713   6.130   7.008   3.499 -0.2737  1.6550  1.7452
 8809SOL     OW27714   3.391   2.484   5.896  0.3553  0.0987  0.6245
 8809SOL    HW127715   3.356   2.501   5.809  0.9552 -0.3279  0.2937
 8809SOL    HW227716   3.378   2.566   5.944  1.7499  1.0094 -0.4642
 8810SOL     OW27717   2.776   1.615   5.287  0.0910 -0.1125  0.8212
 8810SOL    HW127718   2.846   1.667   5.247  0.9116 -2.4714 -1.0016
 8810SOL    HW227719   2.695   1.659   5.261  0.7808  0.8814  0.3000
 8811SOL     OW27720   6.644   2.286   6.117 -0.3193  0.4347  0.1959
 8811SOL    HW127721   6.551   2.263   6.124 -0.0511 -0.5449  0.7621
 8811SOL    HW227722   6.644   2.373   6.078 -1.4354 -0.0095 -0.8687
 8812SOL     OW27723   1.385   7.792   4.690  0.0272  0.1728  0.8201
 8812SOL    HW127724   1.376   7.723   4.625 -1.1463 -0.6048  1.7688
 8812SOL    HW227725   1.364   7.873   4.643 -1.3537 -0.4330  0.3438
 8813SOL     OW27726   1.409   2.244   7.865  0.0974 -0.1848  0.2570
 8813SOL    HW127727   1.462   2.298   7.923 -0.5905  1.1608 -0.3233
 8813SOL    HW227728   1.472   2.187   7.821  0.9647  0.8448  0.1370
 8814SOL     OW27729   4.593   4.695   6.642 -0.0410 -0.3725 -0.4815
 8814SOL    HW127730   4.639   4.762   6.694  1.8761 -0.7155 -1.6485
 8814SOL    HW227731   4.504   4.697   6.675  0.4705  1.2932  0.9709
 8815SOL     OW27732   0.253   1.084   1.764 -0.1199  0.3809 -0.4186
 8815SOL    HW127733   0.207   1.130   1.834 -1.7148 -0.5290 -0.8228
 8815SOL    HW227734   0.221   0.994   1.769  1.4995 -0.2527 -0.8617
 8816SOL     OW27735   6.248   6.177   8.706 -0.2276  0.5353  0.4633
 8816SOL    HW127736   6.302   6.226   8.644  0.3334 -0.3257  0.2583
 8816SOL    HW227737   6.249   6.087   8.674  0.3955 -0.0168  1.9121
 8817SOL     OW27738   2.695   3.929   8.055  0.3839 -0.5794 -0.1135
 8817SOL    HW127739   2.735   4.015   8.040  1.9776 -1.3741 -0.7067
 8817SOL    HW227740   2.627   3.922   7.988 -1.1639  0.9884  1.1924
 8818SOL     OW27741   2.087   4.054   5.943  0.0931 -0.2408  0.7966
 8818SOL    HW127742   2.090   3.959   5.950 -1.5413 -0.4303 -0.3175
 8818SOL    HW227743   1.995   4.076   5.958 -0.4185  0.7193 -2.7036
 8819SOL     OW27744   7.367   2.997   4.397 -0.1846  0.4430 -0.2551
 8819SOL    HW127745   7.322   3.007   4.481 -0.3992 -1.8623 -0.0528
 8819SOL    HW227746   7.454   2.964   4.420 -0.6955 -1.5004 -0.9682
 8820SOL     OW27747   7.768   3.978   6.448 -0.7477 -0.4751  0.5531
 8820SOL    HW127748   7.772   4.066   6.486 -0.9945 -0.5693  0.8099
 8820SOL    HW227749   7.831   3.927   6.499  0.2737 -0.1677 -0.3825
 8821SOL     OW27750   0.396   8.421   3.349 -0.3991 -1.0169 -0.3454
 8821SOL    HW127751   0.352   8.503   3.326  1.8041 -0.0923 -1.7023
 8821SOL    HW227752   0.448   8.443   3.426 -0.2448 -1.2958 -0.3696
 8822SOL     OW27753   1.284   4.296   1.642  0.2068 -0.4752 -0.0981
 8822SOL    HW127754   1.329   4.220   1.681  1.0151  1.0220  2.0854
 8822SOL    HW227755   1.206   4.308   1.696 -1.7524 -1.6550 -2.4670
 8823SOL     OW27756   3.037   1.738   6.808  0.4190 -0.4614 -0.1430
 8823SOL    HW127757   3.018   1.656   6.763 -1.0365 -0.6280  0.7058
 8823SOL    HW227758   3.015   1.806   6.745  1.2605 -0.7017 -0.7137
 8824SOL     OW27759   1.763   7.656   5.339 -0.1490  0.3564 -0.2724
 8824SOL    HW127760   1.758   7.750   5.323  0.4174  0.4555  0.1179
 8824SOL    HW227761   1.673   7.625   5.324 -0.6728  1.1838  0.9818
 8825SOL     OW27762   2.032   0.951   1.524  0.0623  0.6932  0.0120
 8825SOL    HW127763   2.076   0.891   1.585  0.9731  2.0376  0.7405
 8825SOL    HW227764   2.016   0.898   1.446  2.3249 -0.0899 -0.0114
 8826SOL     OW27765   2.760   2.184   4.740  0.4031 -0.2758 -0.5366
 8826SOL    HW127766   2.762   2.254   4.806  0.2198  0.3225 -1.1501
 8826SOL    HW227767   2.744   2.104   4.789  0.2262  0.1699  0.1369
 8827SOL     OW27768   4.815   6.923   7.525 -0.1661 -0.5388  0.2062
 8827SOL    HW127769   4.804   7.018   7.534  0.5691 -0.2192 -1.6548
 8827SOL    HW227770   4.899   6.914   7.479  0.3776 -2.1602  1.4605
 8828SOL     OW27771   5.202   0.353   2.651  0.5569 -0.3004  0.0543
 8828SOL    HW127772   5.238   0.389   2.570  0.9458 -1.8849 -0.5147
 8828SOL    HW227773   5.275   0.306   2.691 -0.0049 -0.7194  0.6083
 8829SOL     OW27774   8.305   1.770   6.674  0.3074  0.2590  0.2984
 8829SOL    HW127775   8.293   1.709   6.602  0.7628  1.2610 -0.6536
 8829SOL    HW227776   8.219   1.774   6.716  0.6891 -2.3737  1.5408
 8830SOL     OW27777   5.520   0.082   1.192 -0.0008  1.0358  0.4819
 8830SOL    HW127778   5.595   0.023   1.203  1.0737  1.4305 -3.2558
 8830SOL    HW227779   5.449   0.025   1.163  0.1239  1.1552 -0.0750
 8831SOL     OW27780   1.545   3.209   1.960  0.5821 -0.1376 -0.1967
 8831SOL    HW127781   1.605   3.142   1.927  1.9766  0.8873  0.1539
 8831SOL    HW227782   1.529   3.184   2.051  0.0990 -0.6566 -0.4170
 8832SOL     OW27783   0.560   0.198   8.011 -0.2788 -0.4738  0.5947
 8832SOL    HW127784   0.482   0.147   8.032 -1.8481  0.8018 -1.6654
 8832SOL    HW227785   0.590   0.163   7.927  0.6636  0.0992  0.6744
 8833SOL     OW27786   2.123   5.903   4.863  0.2902  0.0448 -0.4345
 8833SOL    HW127787   2.030   5.911   4.884 -0.0327 -1.3602 -1.2518
 8833SOL    HW227788   2.163   5.871   4.944  0.0306  0.3669 -0.1736
 8834SOL     OW27789   2.499   3.667   4.804  0.1637 -0.1795  0.3794
 8834SOL    HW127790   2.492   3.600   4.736  0.1674  1.2809 -1.1279
 8834SOL    HW227791   2.472   3.623   4.884 -0.4651 -1.7977 -0.6686
 8835SOL     OW27792   4.842   5.979   2.702 -0.0406  0.1458 -0.0407
 8835SOL    HW127793   4.799   5.919   2.763  2.0644 -0.9546  0.4772
 8835SOL    HW227794   4.924   5.934   2.679 -0.2957  0.9719 -2.9415
 8836SOL     OW27795   4.300   2.535   8.155  0.6204  0.1117  0.5877
 8836SOL    HW127796   4.258   2.554   8.071  0.2920 -0.5107  0.6074
 8836SOL    HW227797   4.241   2.474   8.199  0.6612  0.6244  1.3843
 8837SOL     OW27798   4.551   3.425   6.331  0.6830 -0.1282 -0.1094
 8837SOL    HW127799   4.569   3.502   6.385  1.9200  0.8981 -1.8915
 8837SOL    HW227800   4.632   3.374   6.334 -0.1899 -1.5374  1.2229
 8838SOL     OW27801   8.045   3.150   2.734 -0.5199 -0.2153  0.5006
 8838SOL    HW127802   8.005   3.064   2.724  0.3398 -0.8243  1.9779
 8838SOL    HW227803   8.119   3.149   2.675 -1.8588  0.4375 -1.2746
 8839SOL     OW27804   6.844   8.503   3.988  0.3901 -0.9469 -0.7509
 8839SOL    HW127805   6.850   8.567   3.917  0.2142 -0.3519 -0.2346
 8839SOL    HW227806   6.835   8.419   3.943  4.5249 -1.1593 -1.5542
 8840SOL     OW27807   3.238   1.063   0.746 -0.1471 -0.7101 -0.0982
 8840SOL    HW127808   3.271   1.106   0.825 -0.8580 -0.0961 -0.1229
 8840SOL    HW227809   3.254   0.970   0.760 -0.5390 -0.6341  0.8982
 8841SOL     OW27810   7.466   1.772   0.735 -0.2471 -0.4808  0.2403
 8841SOL    HW127811   7.527   1.844   0.722 -2.1455  1.6821  2.3041
 8841SOL    HW227812   7.380   1.814   0.740 -1.4609 -2.8839  1.4277
 8842SOL     OW27813   8.703   6.795   8.203 -0.2481  0.4181  0.3823
 8842SOL    HW127814   8.644   6.789   8.128 -0.4861  1.2615  0.4922
 8842SOL    HW227815   8.645   6.794   8.279 -0.2122  2.0862  0.4695
 8843SOL     OW27816   6.417   6.206   3.843 -0.6899 -0.1565  0.1238
 8843SOL    HW127817   6.384   6.296   3.841  1.1449  0.5886  0.6967
 8843SOL    HW227818   6.463   6.195   3.759  1.2506  0.3820  1.0515
 8844SOL     OW27819   0.064   1.971   7.213 -0.3460  0.0952 -0.0625
 8844SOL    HW127820   0.061   1.988   7.307  0.7900  2.1221 -0.3416
 8844SOL    HW227821  -0.025   1.992   7.182 -0.6395 -0.3018  0.4919
 8845SOL     OW27822   3.747   8.352   0.969  0.0161  0.2077 -0.2604
 8845SOL    HW127823   3.811   8.299   1.016 -0.3261  0.4416  0.4886
 8845SOL    HW227824   3.679   8.291   0.942 -0.2014  0.2041  0.2891
 8846SOL     OW27825   4.744   4.825   1.379  0.1599  0.1483 -0.2607
 8846SOL    HW127826   4.817   4.789   1.430 -0.3433  1.8928  1.8531
 8846SOL    HW227827   4.763   4.919   1.374 -1.0765  0.3705 -1.2238
 8847SOL     OW27828   5.788   8.295   0.036  0.3580  0.2926 -0.3319
 8847SOL    HW127829   5.868   8.261  -0.003  1.0549  1.7373 -0.2075
 8847SOL    HW227830   5.744   8.218   0.072  1.2995 -0.6149 -1.0873
 8848SOL     OW27831   0.955   1.835   5.181 -0.0959 -0.2128 -0.0520
 8848SOL    HW127832   0.941   1.929   5.173 -0.1340 -0.2870 -0.9111
 8848SOL    HW227833   0.866   1.798   5.183 -0.0785 -0.2525 -0.0089
 8849SOL     OW27834   4.247   0.130   4.840  0.3842  0.1757  0.4154
 8849SOL    HW127835   4.276   0.149   4.929 -1.5048  0.6318  0.9861
 8849SOL    HW227836   4.246   0.214   4.795  1.5190 -0.0799 -0.1245
 8850SOL     OW27837   3.945   5.950   8.633 -0.2353 -0.5745 -0.3549
 8850SOL    HW127838   4.018   5.978   8.579 -0.8929 -1.0427 -1.5175
 8850SOL    HW227839   3.886   6.026   8.635 -1.9349 -1.6372 -3.3654
 8851SOL     OW27840   2.904   5.599   6.490 -0.2386 -0.1755  0.1267
 8851SOL    HW127841   2.990   5.582   6.526 -0.6379 -0.4284  0.9821
 8851SOL    HW227842   2.860   5.514   6.490 -0.5226 -0.0318 -0.2114
 8852SOL     OW27843   1.704   5.571   7.995  0.2140 -0.2414 -0.1547
 8852SOL    HW127844   1.755   5.509   8.048  1.4065  0.5419 -0.3457
 8852SOL    HW227845   1.614   5.558   8.023  0.7756 -0.0319  1.8956
 8853SOL     OW27846   7.278   1.127   8.521 -0.3653  0.5891 -0.1560
 8853SOL    HW127847   7.288   1.032   8.525  1.3076  0.7769  1.9012
 8853SOL    HW227848   7.189   1.143   8.552 -0.4940 -0.2858 -0.0465
 8854SOL     OW27849   0.451   2.507   7.967 -0.3511  0.2023  0.2897
 8854SOL    HW127850   0.443   2.602   7.960 -0.1349  0.1314 -1.2339
 8854SOL    HW227851   0.384   2.482   8.030 -2.0424  1.1554 -1.0382
 8855SOL     OW27852   8.057   5.829   4.945  0.3606 -0.5137  0.3005
 8855SOL    HW127853   8.140   5.833   4.897 -0.0965  0.3177 -0.4539
 8855SOL    HW227854   7.990   5.834   4.877 -0.3124 -0.4898  0.9555
 8856SOL     OW27855   5.030   2.656   3.386  0.2473 -0.6103  0.3298
 8856SOL    HW127856   5.072   2.710   3.453  0.4380  0.7784 -0.8512
 8856SOL    HW227857   4.938   2.683   3.388  0.5757  0.8314 -1.1621
 8857SOL     OW27858   8.073   3.572   8.013 -0.0905 -0.1465  0.0199
 8857SOL    HW127859   8.134   3.499   8.023 -0.8773 -0.8632 -0.3003
 8857SOL    HW227860   8.011   3.562   8.086  0.9481  1.3865  1.1848
 8858SOL     OW27861   4.758   2.764   4.782 -0.1797  0.4892 -0.0152
 8858SOL    HW127862   4.755   2.835   4.718 -1.5586  0.7333  0.2846
 8858SOL    HW227863   4.713   2.798   4.858 -1.8853 -1.0608 -0.2562
 8859SOL     OW27864   8.377   6.646   0.107  0.1632  0.0251  0.0376
 8859SOL    HW127865   8.468   6.643   0.076  0.8812  2.1951  1.6571
 8859SOL    HW227866   8.375   6.585   0.181 -0.2371 -1.3969 -1.0989
 8860SOL     OW27867   0.450   7.286   8.215 -0.1173 -0.1873  0.1979
 8860SOL    HW127868   0.420   7.225   8.282  1.3697 -0.2106  0.8739
 8860SOL    HW227869   0.541   7.261   8.198 -0.8864 -1.2617 -3.0682
 8861SOL     OW27870   7.927   2.203   3.132  0.2120  0.3058 -0.3720
 8861SOL    HW127871   7.907   2.177   3.042 -1.1561 -0.1493  0.0443
 8861SOL    HW227872   7.887   2.289   3.142  0.0628  0.2065 -0.0981
 8862SOL     OW27873   6.816   3.300   1.371 -0.2514  0.0497 -0.9883
 8862SOL    HW127874   6.768   3.366   1.421 -1.1960 -0.5411 -1.1037
 8862SOL    HW227875   6.904   3.300   1.410  0.3858  2.7308 -2.2173
 8863SOL     OW27876   0.270   4.113   8.006  0.3088  0.0868  0.0087
 8863SOL    HW127877   0.292   4.033   8.054  1.3912  0.1828 -0.2890
 8863SOL    HW227878   0.339   4.175   8.031 -1.4709  1.5333  1.6028
 8864SOL     OW27879   5.157   2.360   5.803  0.1710  0.0957 -0.3008
 8864SOL    HW127880   5.176   2.403   5.886 -1.5873  0.6015 -0.1333
 8864SOL    HW227881   5.127   2.273   5.827  1.0194 -0.2584 -0.4953
 8865SOL     OW27882   2.347   8.496   0.961  0.3426 -0.0259  0.6778
 8865SOL    HW127883   2.402   8.570   0.984  1.1629 -0.5480  0.4409
 8865SOL    HW227884   2.408   8.423   0.951 -0.2877 -0.4203 -0.4755
 8866SOL     OW27885   6.449   3.080   2.799  0.1047  0.4608  0.0661
 8866SOL    HW127886   6.424   3.135   2.874 -2.4782 -0.8343  0.2363
 8866SOL    HW227887   6.512   3.018   2.836  0.6034  1.2689  0.6123
 8867SOL     OW27888   3.749   0.469   5.210 -0.8587 -0.1919  0.3333
 8867SOL    HW127889   3.817   0.404   5.191  0.3239  0.4392  2.0990
 8867SOL    HW227890   3.780   0.512   5.289 -2.2577  1.6458 -0.0665
 8868SOL     OW27891   2.075   1.056   7.808 -0.0949  0.4888 -0.6709
 8868SOL    HW127892   2.048   1.008   7.730 -1.2237  2.5443 -1.6347
 8868SOL    HW227893   2.087   0.989   7.876 -1.1868 -1.1395 -2.0323
 8869SOL     OW27894   6.202   7.883   8.434 -0.6742  0.1655  0.0867
 8869SOL    HW127895   6.275   7.944   8.424 -0.0832 -0.7999 -2.0417
 8869SOL    HW227896   6.245   7.798   8.448 -1.4331 -0.2065  0.1858
 8870SOL     OW27897   4.181   4.833   5.570 -0.0068 -0.0540  0.3958
 8870SOL    HW127898   4.274   4.837   5.593  0.0067 -1.0874  0.5447
 8870SOL    HW227899   4.174   4.890   5.494  1.3128 -2.0533 -1.3517
 8871SOL     OW27900   3.462   2.152   8.500  0.3583  0.0188 -1.1832
 8871SOL    HW127901   3.530   2.105   8.452  0.0303 -0.6386 -1.0137
 8871SOL    HW227902   3.510   2.203   8.565  0.8242  1.0711 -2.3156
 8872SOL     OW27903   6.968   7.122   6.386  0.1572  0.1798 -0.1906
 8872SOL    HW127904   7.012   7.156   6.464  0.3783  1.4082 -0.8365
 8872SOL    HW227905   6.880   7.098   6.417  0.3016  0.4824  0.4713
 8873SOL     OW27906   1.410   5.737   4.559 -0.4078  0.2353  0.2424
 8873SOL    HW127907   1.322   5.768   4.579  0.0733  2.0637 -0.3000
 8873SOL    HW227908   1.468   5.794   4.610  0.4792 -0.9862  0.6419
 8874SOL     OW27909   2.517   5.646   5.448  0.1016  0.0828  0.0343
 8874SOL    HW127910   2.569   5.684   5.518 -0.6117 -1.4108  1.4550
 8874SOL    HW227911   2.577   5.587   5.403 -0.1842 -1.2910  1.3783
 8875SOL     OW27912   1.478   1.265   1.554  0.3415  0.8159  0.0380
 8875SOL    HW127913   1.563   1.283   1.513  0.4231 -0.4194 -0.3752
 8875SOL    HW227914   1.452   1.180   1.519  0.8801 -0.8671  3.2946
 8876SOL     OW27915   0.392   2.210   0.599 -0.3342 -0.2181  0.1670
 8876SOL    HW127916   0.302   2.233   0.625 -0.6392 -2.1460  0.9780
 8876SOL    HW227917   0.382   2.170   0.513 -0.4955 -1.8636  0.9193
 8877SOL     OW27918   3.963   7.928   6.960  0.0597 -0.5288 -0.2858
 8877SOL    HW127919   4.041   7.873   6.973  0.6483 -0.1025 -1.7459
 8877SOL    HW227920   3.998   8.016   6.946 -0.5061 -0.6152 -2.7022
 8878SOL     OW27921   7.058   5.278   5.611  0.2872  0.4916 -0.1034
 8878SOL    HW127922   6.971   5.251   5.640 -0.0009  0.9362 -0.5407
 8878SOL    HW227923   7.090   5.205   5.558  0.7923 -0.3077  1.2228
 8879SOL     OW27924   7.520   6.312   1.553 -0.2163  0.1606  0.1699
 8879SOL    HW127925   7.473   6.345   1.477 -0.3810 -1.3433 -0.4089
 8879SOL    HW227926   7.453   6.300   1.620 -0.4532 -0.7142 -0.2170
 8880SOL     OW27927   2.209   4.442   5.142  0.5848  0.8129 -0.5627
 8880SOL    HW127928   2.240   4.419   5.230 -1.0352  1.2997  0.1618
 8880SOL    HW227929   2.129   4.390   5.131 -0.0101  1.8390 -1.1666
 8881SOL     OW27930   6.886   6.733   3.687 -0.4332 -0.3668  0.4526
 8881SOL    HW127931   6.888   6.828   3.674  0.3766 -0.0964  2.2500
 8881SOL    HW227932   6.952   6.700   3.627 -0.9593  0.1434 -0.4440
 8882SOL     OW27933   2.004   6.772   3.153 -0.2526  0.3523  0.1850
 8882SOL    HW127934   1.916   6.792   3.120 -0.3579 -1.1504 -0.5249
 8882SOL    HW227935   2.060   6.838   3.112 -0.8800  0.5752 -0.3269
 8883SOL     OW27936   8.155   6.809   0.300  0.1791 -0.3048  0.0271
 8883SOL    HW127937   8.167   6.727   0.347  1.7366 -0.4030 -0.4777
 8883SOL    HW227938   8.091   6.858   0.352  0.2073 -1.3075  1.0268
 8884SOL     OW27939   3.759   7.438   6.403  0.2337  0.2926 -0.7726
 8884SOL    HW127940   3.681   7.384   6.420  0.8900 -0.2896  0.5666
 8884SOL    HW227941   3.795   7.403   6.322 -0.6383  0.2638 -1.1641
 8885SOL     OW27942   2.157   2.817   4.006  0.7636 -0.0907  0.5058
 8885SOL    HW127943   2.172   2.911   4.007 -0.6162  0.1965 -1.3511
 8885SOL    HW227944   2.233   2.780   4.050  1.2019  1.8922  1.5200
 8886SOL     OW27945   2.457   3.844   0.279  0.2826  0.0010 -0.3842
 8886SOL    HW127946   2.451   3.752   0.256 -1.1991 -0.2577  0.8475
 8886SOL    HW227947   2.485   3.844   0.371 -1.3035  0.6635  0.1516
 8887SOL     OW27948   7.746   7.677   6.989  0.5026  0.6424 -1.1421
 8887SOL    HW127949   7.752   7.641   6.901  1.6504 -1.2727 -0.3413
 8887SOL    HW227950   7.826   7.729   7.000  0.8673  0.0371 -0.8924
 8888SOL     OW27951   4.140   7.354   3.886  0.3724 -0.0649 -0.0618
 8888SOL    HW127952   4.228   7.319   3.898  0.7368  1.1223  0.8144
 8888SOL    HW227953   4.124   7.346   3.792  0.8458 -1.5636 -0.0465
 8889SOL     OW27954   5.181   5.626   8.694 -0.0280  0.4047  0.0846
 8889SOL    HW127955   5.176   5.679   8.774  1.6597  1.3924 -0.4155
 8889SOL    HW227956   5.236   5.678   8.635 -0.2255 -0.8800 -1.2636
 8890SOL     OW27957   3.667   0.945   8.031  0.0625  0.3025 -0.1012
 8890SOL    HW127958   3.628   1.017   7.982 -0.2062 -1.2468 -2.2933
 8890SOL    HW227959   3.729   0.988   8.091 -1.1778  2.4216 -0.2332
 8891SOL     OW27960   3.396   0.433   4.742 -0.5529 -0.0417 -0.1295
 8891SOL    HW127961   3.384   0.426   4.647 -1.0787 -2.2642  0.0358
 8891SOL    HW227962   3.451   0.358   4.765  1.4063  1.6590  1.1061
 8892SOL     OW27963   2.293   7.763   2.546  0.1902  0.5201 -0.3340
 8892SOL    HW127964   2.301   7.792   2.455 -0.8341 -1.3612 -1.0858
 8892SOL    HW227965   2.203   7.786   2.570  0.6696  1.6446  0.4788
 8893SOL     OW27966   8.497   3.646   2.076 -0.2963 -0.3574 -0.3369
 8893SOL    HW127967   8.403   3.628   2.085 -0.5710  1.8524  2.5569
 8893SOL    HW227968   8.504   3.693   1.993 -1.8101 -0.1989 -0.4158
 8894SOL     OW27969   2.357   4.089   0.254  0.1708 -0.0446  0.0800
 8894SOL    HW127970   2.405   4.006   0.247  0.8262  0.2022  1.5466
 8894SOL    HW227971   2.384   4.127   0.337 -0.3380  1.5326 -0.4380
 8895SOL     OW27972   3.759   5.219   7.162  0.1955 -0.1405  0.1942
 8895SOL    HW127973   3.745   5.306   7.123  0.8921 -0.4779 -0.8571
 8895SOL    HW227974   3.814   5.236   7.239  0.5531  0.3249 -0.1555
 8896SOL     OW27975   2.963   4.040   1.745  0.1314 -0.4820  0.2544
 8896SOL    HW127976   2.951   4.070   1.835 -1.1261  0.2416 -0.1239
 8896SOL    HW227977   2.931   3.950   1.745  0.7517 -0.7080  0.6629
 8897SOL     OW27978   0.657   1.756   6.375 -0.5318 -0.3758 -0.5170
 8897SOL    HW127979   0.718   1.746   6.302  0.5259 -0.0032  0.2831
 8897SOL    HW227980   0.680   1.685   6.435  0.8514  1.2014  0.9509
 8898SOL     OW27981   1.232   3.429   7.095 -0.1084  0.0892  0.2577
 8898SOL    HW127982   1.188   3.512   7.114 -0.6445 -0.2007  0.3150
 8898SOL    HW227983   1.323   3.453   7.080 -0.3858  0.7728 -0.4005
 8899SOL     OW27984   3.432   4.227   6.052  0.1017  0.6432 -0.2109
 8899SOL    HW127985   3.423   4.182   6.136  1.0872  0.8171 -0.0061
 8899SOL    HW227986   3.364   4.187   5.997 -0.2716  0.2251  0.5294
 8900SOL     OW27987   5.536   6.513   4.765 -0.0246  0.7288  0.0335
 8900SOL    HW127988   5.451   6.511   4.809 -1.0359  1.5763 -1.7916
 8900SOL    HW227989   5.521   6.563   4.685  1.8737 -0.2930 -1.0272
 8901SOL     OW27990   3.348   1.424   6.543 -0.1343  0.0500  0.7170
 8901SOL    HW127991   3.426   1.368   6.547  1.6480  2.4113  1.6994
 8901SOL    HW227992   3.347   1.457   6.454  0.2426  0.3435  0.8209
 8902SOL     OW27993   8.266   5.641   3.940 -0.2888 -0.2695  0.0541
 8902SOL    HW127994   8.345   5.608   3.982  0.1669 -0.2675 -0.7742
 8902SOL    HW227995   8.259   5.591   3.859  0.3993  1.5816 -1.2206
 8903SOL     OW27996   2.189   1.286   6.637 -0.5572  0.0373 -0.5064
 8903SOL    HW127997   2.201   1.221   6.568 -1.3836  0.0376 -0.6642
 8903SOL    HW227998   2.234   1.248   6.713  2.3006  1.0419 -1.5711
 8904SOL     OW27999   7.776   5.075   4.348 -0.7827 -0.0779 -0.0342
 8904SOL    HW128000   7.681   5.084   4.361 -0.4666  2.5610  1.0347
 8904SOL    HW228001   7.800   4.998   4.399 -2.5443 -1.8984 -1.7584
 8905SOL     OW28002   2.074   7.909   5.200  0.0045  0.0853  0.6084
 8905SOL    HW128003   1.993   7.858   5.199  0.4485 -0.6337  0.1768
 8905SOL    HW228004   2.048   7.997   5.172 -0.7617  0.0838  1.2938
 8906SOL     OW28005   0.537   4.421   4.318  0.2097  0.6359  0.2520
 8906SOL    HW128006   0.553   4.331   4.288 -1.7236 -0.5443  2.4003
 8906SOL    HW228007   0.576   4.424   4.405  0.2783  1.9092  0.1853
 8907SOL     OW28008   2.763   4.616   5.898  0.0434 -0.1014 -0.1729
 8907SOL    HW128009   2.678   4.574   5.888  0.8250 -1.3528 -1.9839
 8907SOL    HW228010   2.826   4.545   5.893  1.3300  1.0565 -1.5894
 8908SOL     OW28011   2.531   3.253   3.914 -0.2509  0.0381 -0.0091
 8908SOL    HW128012   2.599   3.188   3.933 -1.5844 -1.7364 -1.0216
 8908SOL    HW228013   2.486   3.265   3.998  0.3145  0.0514  0.3024
 8909SOL     OW28014   5.298   2.485   8.353 -0.8961 -0.0699  0.0835
 8909SOL    HW128015   5.309   2.541   8.430 -2.7597 -1.0711  1.1760
 8909SOL    HW228016   5.262   2.543   8.286  0.4973  0.7565  0.0081
 8910SOL     OW28017   0.130   2.941   2.665  0.3760 -0.8863 -0.7602
 8910SOL    HW128018   0.083   2.859   2.654  2.2648 -2.1351  0.0713
 8910SOL    HW228019   0.222   2.918   2.657  1.1326  0.6810  2.0291
 8911SOL     OW28020   7.833   8.693   6.548  0.0908  0.2348 -0.3899
 8911SOL    HW128021   7.902   8.656   6.492  0.1567 -1.1649  0.5750
 8911SOL    HW228022   7.857   8.785   6.556  1.5396 -0.0929 -0.5462
 8912SOL     OW28023   2.272   4.737   0.040 -0.1200  0.6165  0.3441
 8912SOL    HW128024   2.333   4.805   0.010  0.2513  0.1781  0.0853
 8912SOL    HW228025   2.190   4.783   0.058 -0.0084  1.0581 -0.2746
 8913SOL     OW28026   6.432   0.234   7.722  0.0362  0.0947 -0.0822
 8913SOL    HW128027   6.351   0.254   7.676 -0.9909 -1.7465  0.7935
 8913SOL    HW228028   6.410   0.243   7.815  1.0103  0.1703  0.1590
 8914SOL     OW28029   8.488   8.360   7.386 -0.6054 -0.1453 -0.1795
 8914SOL    HW128030   8.397   8.340   7.407 -0.3888 -1.2622 -0.2612
 8914SOL    HW228031   8.538   8.329   7.462 -0.2691  0.2220 -0.2486
 8915SOL     OW28032   3.496   3.596   0.231  0.1184  0.2174  0.2678
 8915SOL    HW128033   3.565   3.570   0.292  0.7633 -0.9206 -0.9064
 8915SOL    HW228034   3.427   3.531   0.242  0.3243 -0.1139 -0.3518
 8916SOL     OW28035   7.158   5.082   5.438  0.1272 -0.4937 -0.3159
 8916SOL    HW128036   7.104   5.026   5.381  0.2866 -0.8039 -0.1614
 8916SOL    HW228037   7.217   5.022   5.482  0.1679 -0.2247  0.0015
 8917SOL     OW28038   3.482   3.685   8.336  0.4418 -0.4149 -0.3475
 8917SOL    HW128039   3.460   3.674   8.428  0.6104  0.5758 -0.1770
 8917SOL    HW228040   3.550   3.752   8.335 -0.0378  0.0745 -1.2410
 8918SOL     OW28041   6.781   2.493   4.654  0.3568 -0.4854 -0.4961
 8918SOL    HW128042   6.853   2.537   4.609  1.0740  0.0614  1.0909
 8918SOL    HW228043   6.745   2.432   4.590  1.6576 -0.1208 -1.6089
 8919SOL     OW28044   0.135   5.948   1.843 -0.2899 -0.5734 -0.2628
 8919SOL    HW128045   0.161   5.889   1.772  0.2586 -0.8501  0.1596
 8919SOL    HW228046   0.198   5.931   1.913 -1.3368 -0.9372  0.6266
 8920SOL     OW28047   8.692   6.432   2.039  0.0015 -0.4545  0.3747
 8920SOL    HW128048   8.600   6.456   2.036  0.3776  1.3220 -3.3723
 8920SOL    HW228049   8.697   6.349   1.991  0.1288 -2.2615  3.2621
 8921SOL     OW28050   5.751   5.769   8.312  1.4967  0.1531  0.5925
 8921SOL    HW128051   5.686   5.757   8.242  2.4835  0.1948 -0.3583
 8921SOL    HW228052   5.712   5.835   8.370  0.5821 -0.0121  0.1836
 8922SOL     OW28053   5.568   5.851   0.195 -0.3687  0.8346  0.5749
 8922SOL    HW128054   5.626   5.781   0.163  0.4790  1.5900  0.4041
 8922SOL    HW228055   5.509   5.869   0.121  1.2482  2.2132 -0.4720
 8923SOL     OW28056   0.668   4.611   5.142 -0.0704 -0.8388  0.1745
 8923SOL    HW128057   0.667   4.538   5.080  3.5998 -0.8369 -0.1369
 8923SOL    HW228058   0.741   4.590   5.201 -1.0335  1.0162  2.1524
 8924SOL     OW28059   0.326   0.280   2.968 -0.3895  0.0807  0.0514
 8924SOL    HW128060   0.308   0.312   2.879 -0.3045  0.2090  0.0806
 8924SOL    HW228061   0.314   0.185   2.962 -0.2213  0.0706 -0.1366
 8925SOL     OW28062   5.709   3.198   1.340 -0.1516 -0.3291  0.6928
 8925SOL    HW128063   5.665   3.123   1.380 -2.3388  0.3445 -0.2754
 8925SOL    HW228064   5.728   3.170   1.250 -0.6195  0.1246  0.4465
 8926SOL     OW28065   8.514   8.598   7.877 -0.8955  0.2905  0.4994
 8926SOL    HW128066   8.420   8.613   7.879 -1.0809 -0.7507  0.3336
 8926SOL    HW228067   8.528   8.546   7.797 -0.0320  1.3712 -0.0826
 8927SOL     OW28068   4.541   1.075   1.800  0.2044 -0.2031 -0.4335
 8927SOL    HW128069   4.553   1.168   1.783  0.7147 -0.0126  0.8769
 8927SOL    HW228070   4.625   1.035   1.777  0.2931 -0.2011 -0.1197
 8928SOL     OW28071   3.126   0.078   7.305 -0.0729  0.5010  0.3343
 8928SOL    HW128072   3.200   0.078   7.366  0.1353 -0.2720  0.1014
 8928SOL    HW228073   3.130  -0.008   7.263 -1.1198  0.4419  0.3294
 8929SOL     OW28074   1.909   1.387   0.451 -0.8904 -0.3471  0.0608
 8929SOL    HW128075   1.861   1.443   0.389 -0.0396  0.2224 -0.1074
 8929SOL    HW228076   1.915   1.440   0.531 -1.6838 -0.9451  0.5348
 8930SOL     OW28077   6.982   1.371   7.857  0.3035  0.4489  0.3120
 8930SOL    HW128078   7.001   1.461   7.829  1.7268  0.1306  0.1420
 8930SOL    HW228079   7.068   1.336   7.884 -0.1751 -0.9423  0.1173
 8931SOL     OW28080   0.425   1.922   8.704  0.2110 -0.3324  0.1585
 8931SOL    HW128081   0.467   1.988   8.648  0.7045  0.5384  1.4938
 8931SOL    HW228082   0.475   1.842   8.688  0.4778 -0.0481 -0.4765
 8932SOL     OW28083   8.037   0.463   1.021  0.3475  0.0793  0.8368
 8932SOL    HW128084   8.034   0.483   0.928 -1.9227  0.2014  0.8913
 8932SOL    HW228085   8.095   0.387   1.028  0.7649  0.2426 -0.6258
 8933SOL     OW28086   0.426   7.395   8.640 -0.3239  0.2938  0.3190
 8933SOL    HW128087   0.517   7.376   8.619 -0.3685 -0.0318  0.4145
 8933SOL    HW228088   0.383   7.400   8.554  0.0421  1.8457  0.1964
 8934SOL     OW28089   3.911   0.967   3.711 -0.8722 -0.1899 -0.6515
 8934SOL    HW128090   3.902   0.873   3.699 -1.4250 -0.2270 -0.0672
 8934SOL    HW228091   3.833   0.992   3.761 -0.6455  0.5482 -0.6471
 8935SOL     OW28092   2.875   2.490   0.734  0.2231 -0.4876 -0.6907
 8935SOL    HW128093   2.787   2.471   0.702  0.0272 -1.7221  0.4828
 8935SOL    HW228094   2.862   2.550   0.807  0.4467  0.1372 -1.1580
 8936SOL     OW28095   7.781   1.552   8.516  0.3200  0.5714 -0.5499
 8936SOL    HW128096   7.724   1.498   8.462 -0.7630  0.9456  0.1742
 8936SOL    HW228097   7.869   1.539   8.480  0.3864 -2.7779  0.4713
 8937SOL     OW28098   1.401   4.751   3.648 -0.4642  0.2467  0.4401
 8937SOL    HW128099   1.355   4.808   3.709 -1.8090  1.2228 -1.3798
 8937SOL    HW228100   1.451   4.811   3.593  0.3195 -0.5685  0.2447
 8938SOL     OW28101   8.697   4.271   3.841  0.2491 -0.8093 -0.2942
 8938SOL    HW128102   8.765   4.205   3.854 -0.1927 -1.2081  0.0235
 8938SOL    HW228103   8.617   4.220   3.828  0.0382 -0.3476 -0.8431
 8939SOL     OW28104   4.700   2.135   8.423 -0.3779  0.7935  0.4500
 8939SOL    HW128105   4.744   2.120   8.340 -1.1766  1.9083 -0.2017
 8939SOL    HW228106   4.766   2.114   8.489 -0.0430 -1.0944 -0.4103
 8940SOL     OW28107   6.717   1.062   7.190 -0.2003 -0.1904 -0.0252
 8940SOL    HW128108   6.728   1.110   7.272  0.7634 -0.6411  0.1212
 8940SOL    HW228109   6.806   1.047   7.158 -0.4958 -1.3420 -0.3705
 8941SOL     OW28110   1.523   3.054   1.225  0.5660  0.4872  0.3068
 8941SOL    HW128111   1.598   3.101   1.261 -0.3725  1.8898  0.5104
 8941SOL    HW228112   1.455   3.120   1.216 -0.7231 -0.7822  0.3082
 8942SOL     OW28113   1.963   1.856   2.489 -0.1378  0.0359  0.3180
 8942SOL    HW128114   1.874   1.822   2.484 -0.1836  0.1089  0.6123
 8942SOL    HW228115   2.009   1.813   2.417 -0.3105 -0.2979  0.4049
 8943SOL     OW28116   0.289   5.348   8.387 -0.2347 -0.4459  0.7485
 8943SOL    HW128117   0.382   5.329   8.398  0.0709 -0.4913 -1.4793
 8943SOL    HW228118   0.259   5.371   8.475  2.4095  1.8924  1.1995
 8944SOL     OW28119   0.913   4.635   6.061  1.0565  1.1168  0.2442
 8944SOL    HW128120   0.962   4.564   6.102 -0.8446 -0.2089  0.3528
 8944SOL    HW228121   0.937   4.630   5.968 -0.1344 -0.6460 -0.0063
 8945SOL     OW28122   8.633   8.201   1.602  0.0987  0.3636  0.2028
 8945SOL    HW128123   8.609   8.147   1.527  1.2067 -0.4486  0.4224
 8945SOL    HW228124   8.728   8.205   1.600  0.0738  2.0004  0.4252
 8946SOL     OW28125   6.493   3.450   0.579  0.2243 -0.4121 -0.5657
 8946SOL    HW128126   6.491   3.545   0.565 -0.9044 -0.1342  1.1605
 8946SOL    HW228127   6.405   3.421   0.556  0.3520 -0.9374 -0.4015
 8947SOL     OW28128   0.983   6.459   2.817  0.2069 -0.1406  0.2846
 8947SOL    HW128129   1.010   6.493   2.903  1.5325 -0.1046 -0.1312
 8947SOL    HW228130   0.942   6.375   2.837  1.1928 -0.4968  0.9050
 8948SOL     OW28131   2.360   3.514   3.626  1.3605  0.3846  0.1153
 8948SOL    HW128132   2.273   3.483   3.651  2.2186 -0.8107  1.8406
 8948SOL    HW228133   2.396   3.443   3.572  2.0129 -0.0912  1.1388
 8949SOL     OW28134   3.570   6.114   4.116  0.0612  0.0451 -0.2597
 8949SOL    HW128135   3.661   6.093   4.135  0.1914  1.0029  0.2360
 8949SOL    HW228136   3.562   6.207   4.136 -1.1232 -0.1122  0.0951
 8950SOL     OW28137   5.183   4.662   2.137 -0.3187  0.0345  0.1591
 8950SOL    HW128138   5.088   4.661   2.146 -0.4518 -0.2593 -1.0269
 8950SOL    HW228139   5.206   4.754   2.127 -0.5999  0.0475 -0.4539
 8951SOL     OW28140   1.593   0.732   5.216  0.2716 -0.5458  0.1906
 8951SOL    HW128141   1.565   0.653   5.170  0.9206 -1.1426  0.7984
 8951SOL    HW228142   1.635   0.785   5.148  0.9931 -1.3054  0.0222
 8952SOL     OW28143   5.175   5.849   5.522  0.1698  0.1173  0.5183
 8952SOL    HW128144   5.187   5.779   5.585  1.1850 -0.3143 -0.1310
 8952SOL    HW228145   5.096   5.894   5.551  0.8074  0.1764  2.3192
 8953SOL     OW28146   6.818   8.485   6.278 -0.0686  0.2982 -0.3381
 8953SOL    HW128147   6.839   8.520   6.364  0.6100  0.8715 -0.7316
 8953SOL    HW228148   6.825   8.390   6.288  0.5385  0.3866  0.1035
 8954SOL     OW28149   5.801   1.815   0.253 -0.7945  0.8740  0.2737
 8954SOL    HW128150   5.876   1.855   0.296 -0.6122  0.7788  0.0470
 8954SOL    HW228151   5.839   1.745   0.200 -1.0169  1.0097 -0.0644
 8955SOL     OW28152   4.141   2.732   8.670  1.0298  0.7618  0.0201
 8955SOL    HW128153   4.094   2.652   8.648 -0.2672  1.2834  0.7960
 8955SOL    HW228154   4.180   2.760   8.587 -0.4419  0.5698 -0.7648
 8956SOL     OW28155   1.298   7.926   5.580 -0.1800 -0.1874  0.6816
 8956SOL    HW128156   1.229   7.860   5.572 -0.9663  0.6540  0.2722
 8956SOL    HW228157   1.341   7.927   5.495 -1.8517  1.5864 -0.2200
 8957SOL     OW28158   4.663   5.743   5.770  0.0988 -0.0017 -0.1463
 8957SOL    HW128159   4.586   5.689   5.791  0.9168 -1.0086  0.3611
 8957SOL    HW228160   4.725   5.681   5.731  1.7755  0.1142  2.1199
 8958SOL     OW28161   5.840   7.245   6.169 -0.2088  0.1688 -0.2176
 8958SOL    HW128162   5.749   7.217   6.163  0.0001 -0.4377 -0.6910
 8958SOL    HW228163   5.835   7.338   6.191 -0.9243 -0.1998  1.3539
 8959SOL     OW28164   5.729   1.345   4.261 -0.1968  0.0972 -0.5678
 8959SOL    HW128165   5.818   1.315   4.243  0.3107  0.6736  0.8236
 8959SOL    HW228166   5.681   1.266   4.288  0.1112 -0.0901 -0.5724
 8960SOL     OW28167   3.962   0.258   4.896 -0.3028  0.3381  0.3202
 8960SOL    HW128168   3.995   0.348   4.891 -0.2323  0.4225  1.7952
 8960SOL    HW228169   4.040   0.205   4.913 -0.3629  0.0019 -0.4177
 8961SOL     OW28170   3.047   0.112   5.966 -0.8622  0.0901 -0.5892
 8961SOL    HW128171   3.120   0.054   5.945 -2.9939 -3.3587  0.6426
 8961SOL    HW228172   2.993   0.112   5.887 -0.5656  1.0160 -0.8091
 8962SOL     OW28173   0.489   3.242   0.376  0.5689 -0.3146  0.8000
 8962SOL    HW128174   0.574   3.219   0.414  1.2420 -0.7528 -0.9178
 8962SOL    HW228175   0.459   3.162   0.333 -0.3670  0.0674  0.7137
 8963SOL     OW28176   6.808   5.270   6.839 -0.2653 -0.0640  0.8630
 8963SOL    HW128177   6.892   5.291   6.881 -1.4725  1.3818  2.6995
 8963SOL    HW228178   6.832   5.215   6.765  2.4260  1.2770  0.6003
 8964SOL     OW28179   8.600   5.535   7.972 -0.1562 -0.2628  0.3305
 8964SOL    HW128180   8.617   5.509   7.882 -0.2246 -1.7294  0.7138
 8964SOL    HW228181   8.620   5.457   8.024 -1.4684  0.0974  1.4485
 8965SOL     OW28182   1.674   6.400   6.508 -0.0783 -0.1490 -0.3465
 8965SOL    HW128183   1.659   6.332   6.573  1.4766  0.2142  0.4523
 8965SOL    HW228184   1.665   6.482   6.556  2.7121  0.1083 -0.1040
 8966SOL     OW28185   6.350   8.453   7.233 -0.2365  0.1728 -0.0025
 8966SOL    HW128186   6.327   8.515   7.301 -0.9758 -0.3068  0.1919
 8966SOL    HW228187   6.267   8.416   7.204  0.1483 -0.3464 -0.4776
 8967SOL     OW28188   6.402   8.339   0.056 -0.0500 -0.4083 -0.2165
 8967SOL    HW128189   6.381   8.250   0.085  0.7623 -0.9117 -1.1244
 8967SOL    HW228190   6.325   8.367   0.006  1.0843 -2.0567 -3.1175
 8968SOL     OW28191   6.844   5.055   6.383 -0.1074  0.3612 -0.1625
 8968SOL    HW128192   6.848   4.986   6.316 -0.7154 -1.4610  1.5964
 8968SOL    HW228193   6.925   5.105   6.370  0.0542 -0.2813 -1.8874
 8969SOL     OW28194   1.628   3.688   5.358  0.0892 -0.5147 -0.5414
 8969SOL    HW128195   1.533   3.680   5.347 -0.0356 -0.9254  0.6070
 8969SOL    HW228196   1.644   3.783   5.358 -0.5383 -0.3794  0.6624
 8970SOL     OW28197   8.270   6.606   4.581 -0.0666  0.1189  0.1427
 8970SOL    HW128198   8.324   6.647   4.648  0.9880  1.0176 -1.1946
 8970SOL    HW228199   8.327   6.602   4.504 -1.9708  1.4091 -1.4465
 8971SOL     OW28200   0.179   8.584   2.455 -0.3071 -0.0243 -0.2500
 8971SOL    HW128201   0.211   8.670   2.484  0.1766 -0.6582  1.2412
 8971SOL    HW228202   0.086   8.585   2.476 -0.6953  0.7731 -1.9101
 8972SOL     OW28203   1.397   4.807   1.856  0.5010 -0.8343 -0.0349
 8972SOL    HW128204   1.443   4.854   1.925 -0.9234 -0.4551  0.7029
 8972SOL    HW228205   1.433   4.842   1.775  0.8343  0.1269  0.5150
 8973SOL     OW28206   5.946   6.373   0.889  0.2097  1.2157 -0.0092
 8973SOL    HW128207   5.966   6.416   0.805  1.7659  0.9935  0.2256
 8973SOL    HW228208   5.905   6.441   0.941  3.2016  2.7330  0.5842
 8974SOL     OW28209   6.055   1.174   5.733 -0.1356  0.4554  0.2955
 8974SOL    HW128210   5.960   1.178   5.748  0.1081  0.5561  1.9931
 8974SOL    HW228211   6.080   1.088   5.766  0.3830  0.4697 -0.0606
 8975SOL     OW28212   6.741   0.412   7.196  0.4739 -0.2343 -0.0741
 8975SOL    HW128213   6.774   0.495   7.164  1.0937 -0.0890  0.9272
 8975SOL    HW228214   6.804   0.384   7.262 -0.8222 -0.4665  1.1196
 8976SOL     OW28215   5.594   1.796   7.692  0.2745  0.2808 -0.2112
 8976SOL    HW128216   5.672   1.758   7.653 -0.4896 -2.2754  0.5711
 8976SOL    HW228217   5.626   1.845   7.768  1.1455 -0.6807  0.0539
 8977SOL     OW28218   0.357   5.809   4.854  0.0467 -0.3152  0.3736
 8977SOL    HW128219   0.305   5.863   4.795  1.5721  0.0099 -0.7309
 8977SOL    HW228220   0.399   5.871   4.913 -0.9225 -0.5939  1.4028
 8978SOL     OW28221   8.094   8.438   7.295  0.3439  0.6975 -0.2007
 8978SOL    HW128222   8.000   8.417   7.295  0.6483 -1.4238  2.7621
 8978SOL    HW228223   8.124   8.416   7.207 -1.5206 -1.1941 -0.4546
 8979SOL     OW28224   7.180   7.836   4.848  0.1329 -0.1370  0.4117
 8979SOL    HW128225   7.238   7.823   4.922  1.2040  0.1841 -0.3427
 8979SOL    HW228226   7.123   7.908   4.874 -1.1682 -1.6301  1.8652
 8980SOL     OW28227   4.971   5.676   0.919 -0.2746  0.2712 -0.5371
 8980SOL    HW128228   5.028   5.709   0.989 -2.1442 -0.8488  1.6542
 8980SOL    HW228229   5.010   5.592   0.894 -1.2677 -0.8726  1.5093
 8981SOL     OW28230   6.936   1.142   2.709 -0.5930 -0.5217 -0.5514
 8981SOL    HW128231   6.902   1.064   2.754 -0.3887  0.5911  1.6340
 8981SOL    HW228232   6.874   1.211   2.730 -0.4882  0.0696 -2.0415
 8982SOL     OW28233   2.144   3.356   5.331 -0.3995 -0.3155  0.3747
 8982SOL    HW128234   2.147   3.268   5.368 -0.4649 -1.1911 -1.5786
 8982SOL    HW228235   2.058   3.390   5.356 -0.7026 -1.1356  0.4793
 8983SOL     OW28236   5.558   7.551   6.325 -0.0245  0.1040  0.7114
 8983SOL    HW128237   5.538   7.537   6.233  5.2086  1.3986 -0.9415
 8983SOL    HW228238   5.592   7.467   6.356 -0.7898 -0.0385  1.1921
 8984SOL     OW28239   7.689   7.709   5.630 -0.1143  0.0731 -0.0384
 8984SOL    HW128240   7.755   7.659   5.679 -1.2814  0.2860  1.8975
 8984SOL    HW228241   7.704   7.800   5.655  0.1749  0.3680 -1.2563
 8985SOL     OW28242   3.558   2.938   0.724 -0.3522  0.1111  0.1084
 8985SOL    HW128243   3.642   2.983   0.709 -0.7470  0.7508 -0.2372
 8985SOL    HW228244   3.492   3.007   0.715 -1.1676 -0.8954 -2.6589
 8986SOL     OW28245   0.716   6.217   7.358  0.7048  0.0876 -0.2336
 8986SOL    HW128246   0.793   6.225   7.302  0.0948 -1.1599 -1.3245
 8986SOL    HW228247   0.708   6.123   7.375 -0.1624  0.2651  0.4647
 8987SOL     OW28248   4.500   7.692   2.993 -0.4063 -0.1462  0.3369
 8987SOL    HW128249   4.538   7.673   2.907  0.7468 -0.0574  0.8195
 8987SOL    HW228250   4.410   7.720   2.973 -0.1269 -0.0234 -0.8416
 8988SOL     OW28251   5.821   8.633   7.838 -0.0297 -0.0370 -0.4591
 8988SOL    HW128252   5.768   8.696   7.790 -2.3894 -2.3729 -1.1026
 8988SOL    HW228253   5.840   8.564   7.775  1.7900 -0.4343  0.4542
 8989SOL     OW28254   0.353   6.258   8.138  0.5365  0.2041 -0.2532
 8989SOL    HW128255   0.438   6.296   8.158  0.3398  1.2464 -1.3121
 8989SOL    HW228256   0.356   6.239   8.044  0.4508 -2.0018  0.1302
 8990SOL     OW28257   7.735   0.239   5.904 -0.1154 -0.5815 -0.1082
 8990SOL    HW128258   7.810   0.285   5.943  0.3468 -0.5837 -0.9832
 8990SOL    HW228259   7.708   0.177   5.972  0.5594 -0.4607  0.2845
 8991SOL     OW28260   2.668   7.508   8.181 -0.1308  0.3096 -0.0489
 8991SOL    HW128261   2.585   7.535   8.220 -0.7734 -1.5403  0.0040
 8991SOL    HW228262   2.682   7.419   8.215  0.4797 -0.4608 -2.1703
 8992SOL     OW28263   7.350   5.532   4.481  0.0458 -0.2911  0.1648
 8992SOL    HW128264   7.409   5.601   4.450  0.5984 -1.4210 -1.4769
 8992SOL    HW228265   7.306   5.501   4.402  0.6867 -2.5907  0.6245
 8993SOL     OW28266   3.907   3.523   2.360  0.0200  0.4446  0.4177
 8993SOL    HW128267   3.920   3.444   2.307 -1.7262  1.0672 -1.0577
 8993SOL    HW228268   3.993   3.565   2.362  0.0358  0.9112 -2.8855
 8994SOL     OW28269   7.618   3.500   4.014 -1.2502 -0.0326 -0.1321
 8994SOL    HW128270   7.559   3.523   3.942 -1.7795 -1.8883 -0.3439
 8994SOL    HW228271   7.605   3.406   4.027 -0.4317  0.0573  1.7364
 8995SOL     OW28272   0.544   5.412   4.580  0.5320  0.5782  0.3546
 8995SOL    HW128273   0.518   5.480   4.642  0.7318 -0.0866  1.1721
 8995SOL    HW228274   0.640   5.412   4.584  0.5402  0.4336  0.1500
 8996SOL     OW28275   5.469   4.859   3.220  0.4795  0.8013 -0.0287
 8996SOL    HW128276   5.394   4.802   3.201  1.5726 -0.4665 -0.6926
 8996SOL    HW228277   5.485   4.904   3.137  0.1128  1.4988  0.2732
 8997SOL     OW28278   0.285   5.801   1.654  0.5685  0.2362  0.8076
 8997SOL    HW128279   0.366   5.782   1.606  0.6418  0.4994  0.8233
 8997SOL    HW228280   0.283   5.735   1.724  0.1797 -0.4889  0.1164
 8998SOL     OW28281   5.801   8.134   8.138  0.2692  0.1676 -0.2632
 8998SOL    HW128282   5.755   8.061   8.097 -0.2754  0.8189 -0.8374
 8998SOL    HW228283   5.846   8.178   8.066  0.2439  0.6506  0.0099
 8999SOL     OW28284   0.733   0.641   3.892  0.5895  0.2588 -0.3472
 8999SOL    HW128285   0.791   0.581   3.846  0.2292  0.8557 -1.6392
 8999SOL    HW228286   0.687   0.688   3.822  0.4793  1.6581  0.6224
 9000SOL     OW28287   0.914   4.473   6.703 -0.3487 -0.2393 -0.1214
 9000SOL    HW128288   0.889   4.558   6.666  0.6541 -0.9035 -2.5769
 9000SOL    HW228289   0.833   4.423   6.705 -0.8330  0.5458  0.7606
 9001SOL     OW28290   3.128   6.663   1.829  0.0359  0.1784 -0.1984
 9001SOL    HW128291   3.185   6.635   1.900  2.7060  0.1001 -2.2276
 9001SOL    HW228292   3.057   6.599   1.830  1.6504 -1.7027  0.4638
 9002SOL     OW28293   6.245   6.594   7.114 -0.2371  0.4319  0.4832
 9002SOL    HW128294   6.286   6.636   7.190  1.2383 -0.2586  0.1023
 9002SOL    HW228295   6.305   6.523   7.091 -0.5187  0.7959 -1.5025
 9003SOL     OW28296   3.407   5.998   0.820 -0.3195 -0.0242  0.0975
 9003SOL    HW128297   3.488   5.967   0.780 -0.2819  0.6585 -0.3822
 9003SOL    HW228298   3.425   6.090   0.842 -0.3693 -0.3469  1.6084
 9004SOL     OW28299   5.219   4.433   5.426 -0.4302 -0.5908 -0.6978
 9004SOL    HW128300   5.207   4.463   5.335 -0.2176 -1.8353 -1.1602
 9004SOL    HW228301   5.310   4.401   5.429 -0.4465 -0.5877 -0.0584
 9005SOL     OW28302   2.367   0.003   5.384  0.0253  0.1383  0.1600
 9005SOL    HW128303   2.312  -0.021   5.459  0.7657 -0.1897  0.6218
 9005SOL    HW228304   2.446  -0.050   5.395  1.4459  2.2293  0.8326
 9006SOL     OW28305   7.827   8.605   5.320 -0.2286  0.2782  0.1091
 9006SOL    HW128306   7.886   8.530   5.316 -1.8461 -1.0804  0.5406
 9006SOL    HW228307   7.830   8.642   5.232  0.6250 -0.2580 -0.1004
 9007SOL     OW28308   2.613   1.355   3.268  0.8005 -0.3024 -0.8973
 9007SOL    HW128309   2.530   1.319   3.237  1.4736 -1.6823 -1.1668
 9007SOL    HW228310   2.617   1.329   3.361 -0.2275  1.9959 -0.1386
 9008SOL     OW28311   6.371   8.325   0.373 -0.1308 -0.0117 -0.2893
 9008SOL    HW128312   6.445   8.353   0.427  0.5398 -0.6178 -0.8809
 9008SOL    HW228313   6.407   8.318   0.285 -0.7748 -0.7876 -0.5012
 9009SOL     OW28314   4.215   0.917   6.676  0.1609 -0.0831  0.1324
 9009SOL    HW128315   4.122   0.919   6.701 -0.0519 -2.1843 -0.2648
 9009SOL    HW228316   4.214   0.887   6.585  1.1743  2.1777 -0.6994
 9010SOL     OW28317   0.515   7.186   6.401 -0.3700  0.8627 -0.3562
 9010SOL    HW128318   0.565   7.195   6.320 -0.3160 -1.8968 -0.7041
 9010SOL    HW228319   0.527   7.095   6.428  0.2076  1.8276  3.1821
 9011SOL     OW28320   0.885   3.360   4.607  0.2309 -0.1047  0.0487
 9011SOL    HW128321   0.798   3.389   4.636 -0.1309 -0.9826 -0.1074
 9011SOL    HW228322   0.882   3.264   4.617  1.2144 -0.1358  0.1268
 9012SOL     OW28323   6.303   0.984   6.926  0.2280  0.3940 -0.5837
 9012SOL    HW128324   6.329   0.992   6.834  0.2209 -0.9845 -0.7285
 9012SOL    HW228325   6.385   0.999   6.975  0.4892 -0.0933 -0.8687
 9013SOL     OW28326   4.986   5.532   5.978 -0.0316  0.0667  0.2600
 9013SOL    HW128327   4.957   5.613   6.021 -0.6463  0.7588 -1.3432
 9013SOL    HW228328   5.079   5.525   6.000  0.5476  2.3141 -1.0913
 9014SOL     OW28329   3.810   3.223   1.961 -0.2483  0.0158 -0.3112
 9014SOL    HW128330   3.836   3.306   1.921  1.0266 -0.7818 -1.1687
 9014SOL    HW228331   3.742   3.189   1.903  1.1599 -0.8362 -1.5317
 9015SOL     OW28332   0.517   8.513   3.822 -0.5752 -0.0693 -0.1169
 9015SOL    HW128333   0.474   8.513   3.737 -0.4678 -1.0103 -0.1842
 9015SOL    HW228334   0.449   8.486   3.883 -0.0726 -1.7742 -0.2530
 9016SOL     OW28335   0.629   0.309   3.924  0.3668 -0.2860 -0.0886
 9016SOL    HW128336   0.581   0.227   3.914  0.8567 -0.2839 -3.8318
 9016SOL    HW228337   0.720   0.281   3.937  0.4177 -0.3726 -0.5884
 9017SOL     OW28338   1.286   3.615   7.409  0.2355 -0.5294  0.3527
 9017SOL    HW128339   1.274   3.689   7.350 -0.4384  0.3793  1.5705
 9017SOL    HW228340   1.376   3.585   7.393  0.4654  0.4555 -0.2633
 9018SOL     OW28341   5.930   0.268   4.926 -0.3590 -0.4427 -0.2062
 9018SOL    HW128342   5.904   0.177   4.943 -1.0502 -0.6640 -2.1350
 9018SOL    HW228343   5.865   0.321   4.973  0.1176 -0.9234  1.0257
 9019SOL     OW28344   2.609   4.278   2.577  0.0255 -0.4146  0.0580
 9019SOL    HW128345   2.550   4.242   2.512  0.7920 -1.0693 -0.2902
 9019SOL    HW228346   2.692   4.232   2.563  0.5156  0.2187  0.7716
 9020SOL     OW28347   4.187   2.015   3.618  0.0064  0.2269  0.2309
 9020SOL    HW128348   4.136   2.095   3.631 -1.4119 -0.1509 -2.4241
 9020SOL    HW228349   4.122   1.946   3.612  1.0804 -0.8063  0.1138
 9021SOL     OW28350   5.944   1.432   7.647  0.3871 -0.2559  0.5758
 9021SOL    HW128351   5.925   1.521   7.619 -0.4980 -1.2992 -2.5059
 9021SOL    HW228352   6.040   1.429   7.652  0.5703  0.2617 -1.7417
 9022SOL     OW28353   2.064   7.324   2.391 -0.1330 -0.2763 -0.4347
 9022SOL    HW128354   2.068   7.240   2.436 -0.4355 -0.4468 -0.7205
 9022SOL    HW228355   2.070   7.390   2.460 -0.4322 -0.5336 -0.1655
 9023SOL     OW28356   2.616   6.724   3.415 -0.8192  0.3772 -0.2565
 9023SOL    HW128357   2.620   6.803   3.468 -2.0714 -0.0141  0.4687
 9023SOL    HW228358   2.654   6.656   3.472 -0.9741  0.2096 -0.3519
 9024SOL     OW28359   6.619   6.082   7.845  0.2113 -0.4478  0.1086
 9024SOL    HW128360   6.714   6.078   7.840  0.2499  1.0774 -1.4279
 9024SOL    HW228361   6.593   6.136   7.770 -1.8378 -0.5118  0.6970
 9025SOL     OW28362   6.885   3.091   6.431  0.3694  0.4123  0.4557
 9025SOL    HW128363   6.959   3.034   6.411  0.9409  1.1293  0.4957
 9025SOL    HW228364   6.909   3.175   6.393 -0.7104  0.4902 -0.0996
 9026SOL     OW28365   1.570   5.176   2.273 -0.0278  0.3588  0.3541
 9026SOL    HW128366   1.508   5.236   2.316  0.9697  1.5395  0.2103
 9026SOL    HW228367   1.593   5.220   2.192  0.8577 -0.1468  0.3248
 9027SOL     OW28368   4.761   8.259   7.033  0.2951 -0.6751  0.2564
 9027SOL    HW128369   4.723   8.179   7.070  0.3122 -0.4942  0.6714
 9027SOL    HW228370   4.722   8.330   7.085  0.3801 -0.4249 -0.0238
 9028SOL     OW28371   2.693   5.342   3.851  0.4390  0.3391  0.3783
 9028SOL    HW128372   2.708   5.436   3.840  0.8725  0.0391 -2.2953
 9028SOL    HW228373   2.751   5.301   3.786 -0.8297 -1.7022  0.4514
 9029SOL     OW28374   4.790   8.367   2.498  0.0224 -0.2059  0.6859
 9029SOL    HW128375   4.750   8.280   2.495 -2.6810  0.9570 -0.0105
 9029SOL    HW228376   4.732   8.419   2.553 -0.9609  2.2425 -2.3872
 9030SOL     OW28377   3.449   7.153   7.309 -0.3163  0.1569  0.5026
 9030SOL    HW128378   3.440   7.120   7.399 -1.1938  0.2422  0.4619
 9030SOL    HW228379   3.462   7.074   7.256 -0.4150  0.0512  0.6336
 9031SOL     OW28380   4.688   1.361   5.931 -0.1548 -0.0709 -0.0115
 9031SOL    HW128381   4.625   1.372   5.859  0.8040 -1.6036 -1.1512
 9031SOL    HW228382   4.653   1.289   5.983  0.3824 -0.5976 -0.3658
 9032SOL     OW28383   0.108   0.992   0.465 -0.1440 -1.0435 -0.1683
 9032SOL    HW128384   0.087   1.022   0.377  0.3272  0.1962  0.1200
 9032SOL    HW228385   0.066   1.055   0.523  0.6208 -1.1025  0.4752
 9033SOL     OW28386   3.334   1.280   0.576  0.3922 -0.5296  0.0927
 9033SOL    HW128387   3.429   1.275   0.586  0.4344  0.2109  0.1406
 9033SOL    HW228388   3.302   1.194   0.602  0.7752  0.1574  3.1238
 9034SOL     OW28389   4.364   7.497   6.344 -0.2250  0.2770  0.4041
 9034SOL    HW128390   4.358   7.581   6.389  1.5684  0.6145  0.0946
 9034SOL    HW228391   4.430   7.449   6.394 -0.1101 -0.3458 -0.3391
 9035SOL     OW28392   6.807   2.752   4.423  0.5002  0.6424 -0.0459
 9035SOL    HW128393   6.763   2.836   4.413 -1.3373 -0.2084  0.2424
 9035SOL    HW228394   6.785   2.704   4.343  0.9232  0.1931  0.1034
 9036SOL     OW28395   1.610   2.398   3.793  0.6457 -0.1444 -0.5882
 9036SOL    HW128396   1.574   2.486   3.804 -0.0513 -0.4068 -0.7096
 9036SOL    HW228397   1.695   2.402   3.837  0.8446  0.7233 -1.0190
 9037SOL     OW28398   8.027   7.170   4.121  0.0313 -0.1779 -0.2864
 9037SOL    HW128399   8.021   7.198   4.030  0.9203 -2.1462 -1.0066
 9037SOL    HW228400   8.075   7.240   4.165  1.0898  0.0413 -1.7147
 9038SOL     OW28401   2.729   7.972   2.350 -0.4066 -0.6214 -0.5404
 9038SOL    HW128402   2.658   7.936   2.403 -0.2435  0.4499  0.4638
 9038SOL    HW228403   2.691   8.047   2.304  0.1880  0.3820  0.5301
 9039SOL     OW28404   8.629   5.351   2.755 -0.5327 -0.3129 -0.1823
 9039SOL    HW128405   8.552   5.407   2.766  1.1183  1.7285  2.4827
 9039SOL    HW228406   8.600   5.263   2.778 -2.1440  0.3304  0.3353
 9040SOL     OW28407   6.693   3.988   5.328 -0.3479  0.0785  0.3966
 9040SOL    HW128408   6.645   3.915   5.288  1.8745 -0.1594 -2.1278
 9040SOL    HW228409   6.760   3.945   5.382  1.2951  0.1202 -1.4979
 9041SOL     OW28410   0.769   6.235   2.623 -0.5026  0.3607  0.0368
 9041SOL    HW128411   0.707   6.307   2.615 -0.0575  0.7097 -0.2485
 9041SOL    HW228412   0.777   6.221   2.718 -0.4530  0.8018  0.0978
 9042SOL     OW28413   6.717   7.278   6.000  0.4005 -0.4819 -0.4047
 9042SOL    HW128414   6.670   7.279   6.083  0.2268 -0.0956 -0.5091
 9042SOL    HW228415   6.810   7.281   6.025  0.3324  1.2652 -0.2490
 9043SOL     OW28416   2.952   8.439   1.785 -0.4079 -0.0550 -0.5780
 9043SOL    HW128417   2.877   8.382   1.799 -1.0091  0.4487 -1.6049
 9043SOL    HW228418   2.927   8.494   1.710  0.9017  0.2444 -0.8299
 9044SOL     OW28419   0.778   0.924   1.645  0.3095 -0.1269 -0.2588
 9044SOL    HW128420   0.825   0.968   1.717 -0.5319  0.6833 -0.1818
 9044SOL    HW228421   0.704   0.982   1.627  0.5802 -0.2619 -1.8773
 9045SOL     OW28422   5.960   7.843   4.740  0.5799 -0.1185  0.1938
 9045SOL    HW128423   5.869   7.833   4.715  0.4626 -1.6223  1.0884
 9045SOL    HW228424   5.977   7.937   4.735 -0.1556 -0.0582 -2.8636
 9046SOL     OW28425   7.617   8.707   0.284  0.5610 -0.0544 -0.0915
 9046SOL    HW128426   7.524   8.728   0.294  0.2953  0.0663 -2.2548
 9046SOL    HW228427   7.661   8.763   0.347 -0.9481 -2.1969  3.1358
 9047SOL     OW28428   4.811   1.263   0.269  0.5114 -0.0044 -0.3861
 9047SOL    HW128429   4.762   1.299   0.343  0.9884 -0.1849  0.0248
 9047SOL    HW228430   4.841   1.341   0.221 -0.0332  0.1079 -0.5503
 9048SOL     OW28431   2.195   1.352   7.152  0.2365  0.3679 -0.0690
 9048SOL    HW128432   2.114   1.356   7.102 -0.4376  0.8263  1.0245
 9048SOL    HW228433   2.195   1.265   7.192  1.1673 -0.3060 -1.4661
 9049SOL     OW28434   0.507   0.641   5.673  0.4702 -0.6103 -0.0355
 9049SOL    HW128435   0.524   0.567   5.731  0.2181  0.9536  2.1802
 9049SOL    HW228436   0.482   0.712   5.732  0.2146  1.1149 -2.0939
 9050SOL     OW28437   0.122   4.556   4.324 -0.3001  0.7531  0.5900
 9050SOL    HW128438   0.182   4.570   4.397  2.1310 -2.9895 -0.3842
 9050SOL    HW228439   0.166   4.595   4.248 -1.1835  1.6401  0.5114
 9051SOL     OW28440   3.870   2.163   4.326 -0.3595  0.3953  0.0317
 9051SOL    HW128441   3.860   2.253   4.294  1.3112  0.4577 -0.4539
 9051SOL    HW228442   3.839   2.109   4.254 -2.9195  0.5345  0.9372
 9052SOL     OW28443   7.935   1.578   6.781  0.5153  0.0023  0.2051
 9052SOL    HW128444   7.898   1.494   6.805  0.0404  0.0326 -0.4120
 9052SOL    HW228445   7.863   1.626   6.740  0.0138  1.7192  2.8185
 9053SOL     OW28446   3.558   1.936   1.966  0.0764 -0.1683  0.1066
 9053SOL    HW128447   3.615   1.990   2.021  1.3819 -0.9169 -0.4706
 9053SOL    HW228448   3.609   1.858   1.948 -0.6512 -0.3195 -1.4752
 9054SOL     OW28449   4.598   1.070   3.730  0.7109 -0.0944 -0.4861
 9054SOL    HW128450   4.577   1.164   3.724 -0.7665 -0.4476 -1.4091
 9054SOL    HW228451   4.545   1.039   3.804  1.3671 -0.1658 -0.0421
 9055SOL     OW28452   6.526   2.281   4.101 -0.0436 -0.1751 -0.1410
 9055SOL    HW128453   6.588   2.213   4.073  0.1368 -0.2294  0.3790
 9055SOL    HW228454   6.580   2.358   4.118 -0.3059  0.2579 -1.2153
 9056SOL     OW28455   2.115   2.743   6.451  0.1800 -0.6960  0.2564
 9056SOL    HW128456   2.201   2.745   6.493 -0.4186  0.1637  1.5063
 9056SOL    HW228457   2.091   2.835   6.441 -1.2943 -0.9064  1.4723
 9057SOL     OW28458   7.817   1.679   2.345 -0.0837  0.5094 -0.3355
 9057SOL    HW128459   7.790   1.685   2.437 -0.7039 -0.6533 -0.4310
 9057SOL    HW228460   7.870   1.599   2.341 -1.0834 -0.1186 -1.2381
 9058SOL     OW28461   3.673   0.098   3.155  0.1060  0.3574 -0.0392
 9058SOL    HW128462   3.584   0.076   3.182  0.0533  0.0738 -0.4304
 9058SOL    HW228463   3.662   0.149   3.075  0.3031 -0.0820 -0.3545
 9059SOL     OW28464   1.283   7.313   5.088 -0.1578  0.2491  0.2829
 9059SOL    HW128465   1.350   7.382   5.090 -0.7962  0.9705 -1.1999
 9059SOL    HW228466   1.328   7.237   5.053  0.2533  0.2867  0.7275
 9060SOL     OW28467   7.966   1.533   4.841  0.5502 -0.3264  0.8457
 9060SOL    HW128468   7.946   1.449   4.800  1.7932  0.5615 -1.8097
 9060SOL    HW228469   7.884   1.558   4.885 -0.8414 -1.4968 -0.9439
 9061SOL     OW28470   8.699   1.083   4.473  0.0116  0.1418 -0.1957
 9061SOL    HW128471   8.703   0.999   4.427  1.1736 -0.7483  1.4467
 9061SOL    HW228472   8.764   1.076   4.542 -1.2533  1.6458  1.2346
 9062SOL     OW28473   2.878   2.861   4.680  0.1282 -0.8107 -0.0616
 9062SOL    HW128474   2.896   2.954   4.691 -1.4940 -0.5688  0.9453
 9062SOL    HW228475   2.799   2.858   4.626 -0.7645 -1.4982  1.2149
 9063SOL     OW28476   5.611   1.180   2.426  0.5851  0.1202  0.4549
 9063SOL    HW128477   5.647   1.110   2.481 -0.2991 -1.7342 -1.1715
 9063SOL    HW228478   5.530   1.143   2.391  0.9618  1.2957 -1.8483
 9064SOL     OW28479   7.294   4.855   5.536  0.3646  0.6052 -0.3340
 9064SOL    HW128480   7.220   4.862   5.596 -0.8123  2.7220 -1.8741
 9064SOL    HW228481   7.357   4.920   5.567  0.3505  0.7471 -0.6001
 9065SOL     OW28482   7.796   4.244   6.537  0.0176 -0.2260 -0.1097
 9065SOL    HW128483   7.891   4.249   6.532  0.2559 -1.2447  1.9970
 9065SOL    HW228484   7.766   4.334   6.531  0.8863 -0.0473 -3.0995
 9066SOL     OW28485   1.078   0.378   5.568  0.4186 -0.1941 -0.2530
 9066SOL    HW128486   1.160   0.340   5.601  1.3353  0.2235 -1.9456
 9066SOL    HW228487   1.107   0.445   5.507 -1.1736  1.9791  1.2465
 9067SOL     OW28488   4.873   5.839   5.312 -0.2094  0.0234 -0.2276
 9067SOL    HW128489   4.910   5.753   5.333 -1.3687 -0.3693  0.2461
 9067SOL    HW228490   4.853   5.878   5.397 -3.0115 -0.7324 -0.4355
 9068SOL     OW28491   5.044   2.037   4.381  0.4542  0.1067  0.5389
 9068SOL    HW128492   4.974   2.096   4.351  0.6816  0.4702  0.7077
 9068SOL    HW228493   5.123   2.070   4.338  0.1347 -1.9511 -1.8477
 9069SOL     OW28494   6.745   0.964   5.797  0.3496  0.2234 -1.0419
 9069SOL    HW128495   6.755   0.959   5.702  0.2789 -1.3890 -1.0014
 9069SOL    HW228496   6.758   0.874   5.827  0.8429  0.7921  0.5334
 9070SOL     OW28497   4.094   5.229   4.737 -0.0194  0.4112 -0.2809
 9070SOL    HW128498   4.117   5.314   4.774  1.9513 -0.8645  1.6686
 9070SOL    HW228499   4.077   5.247   4.645 -1.0876  3.1030  0.3393
 9071SOL     OW28500   8.565   7.494   4.965  0.6347 -0.4641 -0.1935
 9071SOL    HW128501   8.562   7.568   5.025  0.6986 -0.2129 -0.4988
 9071SOL    HW228502   8.479   7.453   4.973  0.3728  0.0225 -0.5072
 9072SOL     OW28503   2.601   1.343   2.371  0.0655  0.1741 -0.1999
 9072SOL    HW128504   2.576   1.252   2.384 -0.4279  0.6060  2.2285
 9072SOL    HW228505   2.592   1.357   2.276 -2.3012 -1.5974 -0.3110
 9073SOL     OW28506   6.086   6.001   6.382 -0.1009 -0.2502  0.2330
 9073SOL    HW128507   6.042   5.958   6.455  1.5272 -0.8059  0.9428
 9073SOL    HW228508   6.072   5.943   6.308  0.3881 -1.0126  0.7208
 9074SOL     OW28509   1.706   8.546   3.142  1.1698  0.0273  0.0669
 9074SOL    HW128510   1.758   8.530   3.064  0.7955 -1.3652  0.0821
 9074SOL    HW228511   1.737   8.483   3.206 -0.3547 -0.6843  0.1505
 9075SOL     OW28512   6.228   6.828   1.651  0.5146 -0.3154  0.5076
 9075SOL    HW128513   6.156   6.770   1.673  0.1281  0.3194  0.9498
 9075SOL    HW228514   6.200   6.914   1.683  0.5296  0.3754 -1.2475
 9076SOL     OW28515   5.280   8.089   6.516 -0.6576 -0.3563  0.0898
 9076SOL    HW128516   5.229   8.168   6.496  0.6346  0.3477 -0.5781
 9076SOL    HW228517   5.334   8.076   6.438 -0.0404 -1.2456  0.6571
 9077SOL     OW28518   6.883   0.185   6.323  0.2007 -0.1272  0.4729
 9077SOL    HW128519   6.919   0.118   6.265  0.8888 -0.6872  1.5223
 9077SOL    HW228520   6.949   0.195   6.392 -0.2182  1.1230  0.7231
 9078SOL     OW28521   5.372   5.970   1.185  0.2261 -0.6666  0.6392
 9078SOL    HW128522   5.366   6.024   1.105 -3.7390 -0.0002  1.1706
 9078SOL    HW228523   5.402   6.031   1.252  1.3202 -0.6409  0.1533
 9079SOL     OW28524   1.729   4.383   6.265  0.4224 -0.2274 -0.1141
 9079SOL    HW128525   1.699   4.445   6.332 -0.6269  0.5023 -1.2143
 9079SOL    HW228526   1.818   4.360   6.293  0.4232  0.9047  0.9406
 9080SOL     OW28527   2.842   8.185   5.537 -0.1963  0.3163  0.1497
 9080SOL    HW128528   2.805   8.120   5.478  0.0648  0.2586  0.0486
 9080SOL    HW228529   2.845   8.265   5.485  3.4862 -0.5313 -1.2305
 9081SOL     OW28530   8.334   8.133   7.120 -0.1672 -0.1565 -0.0857
 9081SOL    HW128531   8.283   8.198   7.071  0.9529  0.3267 -0.6394
 9081SOL    HW228532   8.334   8.056   7.065 -0.8494 -0.3931  0.2261
 9082SOL     OW28533   1.719   6.826   5.864 -0.2197  0.1018  0.3121
 9082SOL    HW128534   1.684   6.765   5.799  1.7704 -1.0419  0.2165
 9082SOL    HW228535   1.681   6.796   5.947 -1.6552  0.6917 -0.0984
 9083SOL     OW28536   7.766   8.426   8.472  0.3032 -0.1875 -0.0928
 9083SOL    HW128537   7.769   8.486   8.547  1.3512 -0.1427 -0.1591
 9083SOL    HW228538   7.706   8.468   8.411  1.2693  0.9829 -0.2813
 9084SOL     OW28539   4.387   4.931   0.290 -0.3227 -0.0339 -0.2236
 9084SOL    HW128540   4.396   4.837   0.307 -1.6675  0.1051  1.5114
 9084SOL    HW228541   4.443   4.972   0.356 -1.5177  0.4261  0.5174
 9085SOL     OW28542   1.066   0.891   6.577 -0.5407  0.5307  0.1776
 9085SOL    HW128543   1.100   0.980   6.582 -3.4518  1.7895 -0.4288
 9085SOL    HW228544   0.981   0.900   6.534 -0.8617 -2.5848 -0.0650
 9086SOL     OW28545   1.167   4.535   0.126  0.5292  0.1658 -0.2770
 9086SOL    HW128546   1.074   4.554   0.121  0.7852  1.5750 -0.1644
 9086SOL    HW228547   1.201   4.599   0.189  1.4659 -0.7578  0.1813
 9087SOL     OW28548   1.493   7.775   4.949 -0.3029 -0.5278  0.4313
 9087SOL    HW128549   1.461   7.840   5.013  1.3141  0.0254  0.7264
 9087SOL    HW228550   1.448   7.798   4.868  0.5544  1.2886  0.4092
 9088SOL     OW28551   5.305   4.790   8.084 -0.4453 -0.4009 -0.4216
 9088SOL    HW128552   5.221   4.836   8.088 -1.3659 -1.9940 -0.7209
 9088SOL    HW228553   5.360   4.835   8.148 -0.7294  2.1434 -1.8443
 9089SOL     OW28554   2.492   5.842   5.242 -0.1083  0.3376  0.5836
 9089SOL    HW128555   2.531   5.776   5.300  1.2846  1.2029  0.6736
 9089SOL    HW228556   2.466   5.913   5.300 -0.8628  0.2228  0.3935
 9090SOL     OW28557   7.676   5.392   7.692  0.2252 -0.4225  0.1770
 9090SOL    HW128558   7.708   5.449   7.623  0.7459 -1.2352 -0.2731
 9090SOL    HW228559   7.753   5.343   7.721  0.8099  2.1224  3.6215
 9091SOL     OW28560   1.853   6.083   3.271 -0.1176  0.1924 -0.4063
 9091SOL    HW128561   1.876   6.108   3.360 -0.2353 -0.6447 -0.1271
 9091SOL    HW228562   1.922   6.121   3.216  2.3008 -2.6015  0.4481
 9092SOL     OW28563   7.915   7.070   5.118  0.2157  0.4854  0.2972
 9092SOL    HW128564   7.905   7.104   5.206 -0.6043 -1.4833  1.0220
 9092SOL    HW228565   7.906   6.975   5.127  0.2306  0.2087 -1.8842
 9093SOL     OW28566   5.655   0.494   3.092 -0.5834  0.5490 -0.2941
 9093SOL    HW128567   5.650   0.485   2.996  0.0108  1.7638 -0.4543
 9093SOL    HW228568   5.668   0.405   3.124  0.4531  0.2612 -1.4382
 9094SOL     OW28569   8.140   8.285   2.351  0.8218 -0.0735 -0.0026
 9094SOL    HW128570   8.197   8.209   2.341  0.4241 -0.2468 -1.1390
 9094SOL    HW228571   8.162   8.342   2.277  1.3846  1.1199  1.0355
 9095SOL     OW28572   0.375   1.900   7.779  0.1656  0.6739  0.4787
 9095SOL    HW128573   0.286   1.926   7.802  0.1583 -1.3060  3.3530
 9095SOL    HW228574   0.432   1.959   7.829  0.5121  1.7688 -1.1476
 9096SOL     OW28575   0.449   6.356   5.791 -0.0813  0.3064  0.5158
 9096SOL    HW128576   0.523   6.339   5.733 -1.2946 -0.2815 -0.9099
 9096SOL    HW228577   0.456   6.290   5.860  0.1054 -0.4688 -0.2317
 9097SOL     OW28578   7.337   4.403   0.593  0.1495 -0.6507 -0.0071
 9097SOL    HW128579   7.319   4.478   0.649  0.2580  0.6904 -1.6704
 9097SOL    HW228580   7.408   4.356   0.637  0.1166  0.2620  1.0553
 9098SOL     OW28581   7.529   2.693   3.439 -0.5609  0.3498  0.3904
 9098SOL    HW128582   7.621   2.720   3.434 -0.9022  1.5888  0.6010
 9098SOL    HW228583   7.508   2.663   3.351  0.8231 -2.7147  0.9464
 9099SOL     OW28584   4.056   3.663   8.348 -0.0698  0.1344 -0.0187
 9099SOL    HW128585   3.971   3.699   8.322 -1.3567 -1.1136  2.1476
 9099SOL    HW228586   4.037   3.574   8.377  1.7942  0.1643  1.5247
 9100SOL     OW28587   8.651   6.051   5.915 -0.0795 -0.2117 -0.1419
 9100SOL    HW128588   8.562   6.071   5.943 -0.2925 -0.1401 -0.8491
 9100SOL    HW228589   8.696   6.136   5.915 -1.0326  0.4297 -3.3157
 9101SOL     OW28590   2.706   5.912   2.840  0.8253 -0.7965 -0.0474
 9101SOL    HW128591   2.621   5.893   2.801 -0.1842  1.8896  0.6072
 9101SOL    HW228592   2.717   5.844   2.907  0.0424 -2.1720 -1.2398
 9102SOL     OW28593   0.516   6.124   0.289 -0.2337  1.0122  0.4810
 9102SOL    HW128594   0.603   6.138   0.327 -0.2776  1.6817  0.3441
 9102SOL    HW228595   0.484   6.212   0.269 -0.4245  0.7145 -0.6257
 9103SOL     OW28596   5.359   7.792   0.704  0.3340 -0.0960 -0.0714
 9103SOL    HW128597   5.304   7.825   0.634  0.1917  1.2547  0.6312
 9103SOL    HW228598   5.421   7.733   0.661 -0.8201 -0.6246 -1.0581
 9104SOL     OW28599   6.983   0.325   0.829 -0.0994 -0.8140  0.4131
 9104SOL    HW128600   6.986   0.340   0.923 -1.2036 -1.2110  0.5201
 9104SOL    HW228601   7.033   0.398   0.792 -0.6923  0.0333  1.2404
 9105SOL     OW28602   5.277   0.602   5.872 -0.7662 -0.1858  0.1843
 9105SOL    HW128603   5.351   0.625   5.927 -0.3726  0.5168 -0.6345
 9105SOL    HW228604   5.295   0.642   5.787 -1.5017 -1.0098 -0.3875
 9106SOL     OW28605   1.811   3.564   8.353 -0.0213  0.3472  0.3574
 9106SOL    HW128606   1.753   3.546   8.427  0.9540  0.3782  1.1557
 9106SOL    HW228607   1.775   3.512   8.281  0.1075 -1.2271  1.3779
 9107SOL     OW28608   3.617   3.409   7.188 -0.2820  0.1256 -0.6728
 9107SOL    HW128609   3.631   3.451   7.273  1.3665  0.3740 -1.0434
 9107SOL    HW228610   3.701   3.415   7.143 -0.6221 -1.5768 -1.6336
 9108SOL     OW28611   5.839   3.645   1.993  0.2629  0.0724 -0.4025
 9108SOL    HW128612   5.850   3.588   2.069  1.1653  1.0735  0.2415
 9108SOL    HW228613   5.924   3.688   1.983 -0.7554  2.2551 -0.0910
 9109SOL     OW28614   2.375   3.310   4.129 -0.8539 -0.0994 -0.2493
 9109SOL    HW128615   2.346   3.306   4.220  0.7185 -0.5911  0.2574
 9109SOL    HW228616   2.436   3.384   4.126 -0.7202 -0.2273 -0.8497
 9110SOL     OW28617   2.550   7.946   4.120 -0.2397 -0.2409 -0.1662
 9110SOL    HW128618   2.559   7.939   4.215  0.3687 -2.9874 -0.3364
 9110SOL    HW228619   2.636   7.975   4.090 -0.4078  0.5480  0.0827
 9111SOL     OW28620   5.788   5.014   7.131  0.4956 -0.0083 -0.1767
 9111SOL    HW128621   5.839   5.048   7.205  1.4159  1.1141 -1.2624
 9111SOL    HW228622   5.700   5.048   7.145  0.8398  0.8506  0.0338
 9112SOL     OW28623   4.805   7.976   5.930 -0.0011 -0.2083 -0.3043
 9112SOL    HW128624   4.817   7.890   5.970  0.3051 -0.0984 -0.1559
 9112SOL    HW228625   4.853   8.036   5.987 -0.7700  0.1627 -0.0261
 9113SOL     OW28626   8.002   6.174   1.065 -0.1364 -0.2216  0.2900
 9113SOL    HW128627   8.004   6.099   1.124 -1.5881 -0.5203  0.0087
 9113SOL    HW228628   8.088   6.174   1.023  0.1631 -1.2536  0.8593
 9114SOL     OW28629   0.645   0.596   6.879  0.1692  0.4601 -0.4743
 9114SOL    HW128630   0.588   0.660   6.921 -1.8802 -0.6244 -1.4954
 9114SOL    HW228631   0.593   0.515   6.875  1.6346 -0.4832 -1.7614
 9115SOL     OW28632   7.651   7.557   1.803  0.2024  0.3777 -0.6340
 9115SOL    HW128633   7.730   7.502   1.800  0.2319  0.2731  1.0727
 9115SOL    HW228634   7.685   7.647   1.804  0.1739  0.4624 -2.7187
 9116SOL     OW28635   4.731   4.996   1.045 -0.9238 -0.2009 -0.3280
 9116SOL    HW128636   4.692   4.909   1.054 -1.4480 -0.0086 -0.6497
 9116SOL    HW228637   4.699   5.044   1.122 -0.7646 -0.2495 -0.2327
 9117SOL     OW28638   1.297   7.581   4.532 -0.5695  0.3746  0.0782
 9117SOL    HW128639   1.320   7.561   4.623 -0.3965  0.3515  0.0298
 9117SOL    HW228640   1.214   7.535   4.518  0.8318 -2.1804 -0.6769
 9118SOL     OW28641   0.781   6.200   1.920 -0.5416 -0.1486  0.2529
 9118SOL    HW128642   0.876   6.201   1.931 -0.3694 -1.8528 -0.7718
 9118SOL    HW228643   0.749   6.264   1.984  1.4336  2.6107 -1.3224
 9119SOL     OW28644   4.707   8.468   7.941  0.0694 -0.1066 -0.4799
 9119SOL    HW128645   4.703   8.548   7.994 -0.0643 -0.5886  0.2562
 9119SOL    HW228646   4.737   8.400   8.002 -0.5143 -0.7659 -0.9005
 9120SOL     OW28647   0.159   8.376   1.544  0.4337 -0.0085 -0.1450
 9120SOL    HW128648   0.209   8.456   1.529 -0.6561  0.4460 -1.5485
 9120SOL    HW228649   0.221   8.305   1.530  1.4143  0.5598  1.1205
 9121SOL     OW28650   3.534   3.905   5.721 -0.5287  0.8176 -0.4972
 9121SOL    HW128651   3.505   3.958   5.647 -0.7135  1.0828 -0.2414
 9121SOL    HW228652   3.456   3.860   5.751 -0.5330  0.9801 -0.2512
 9122SOL     OW28653   2.759   4.153   2.208 -0.0598  0.1143 -0.1556
 9122SOL    HW128654   2.707   4.141   2.128 -0.1252 -1.7792  0.1414
 9122SOL    HW228655   2.848   4.131   2.182  0.3734  1.8615 -0.2753
 9123SOL     OW28656   2.095   2.306   4.612  0.2626 -0.1539  0.3143
 9123SOL    HW128657   2.066   2.218   4.588  2.0248 -0.6218 -0.2482
 9123SOL    HW228658   2.107   2.351   4.528 -1.6517  1.0264  0.6082
 9124SOL     OW28659   8.067   1.702   5.726  0.0336  0.0853  0.2775
 9124SOL    HW128660   8.120   1.684   5.803 -0.4498  3.0601  1.4358
 9124SOL    HW228661   8.048   1.795   5.731 -0.9184  0.1973 -2.9088
 9125SOL     OW28662   8.571   3.304   6.455 -0.0332  0.6384 -0.0733
 9125SOL    HW128663   8.530   3.256   6.527 -2.6650  1.3272 -1.0162
 9125SOL    HW228664   8.610   3.235   6.400 -1.9315 -0.3063 -0.3122
 9126SOL     OW28665   4.778   2.734   0.399  0.4958 -0.1064  0.1360
 9126SOL    HW128666   4.701   2.679   0.386  1.2847 -1.3756  0.7365
 9126SOL    HW228667   4.820   2.737   0.313 -0.0113  0.2811 -0.1027
 9127SOL     OW28668   6.329   6.394   4.992  0.5543  0.0034  0.1539
 9127SOL    HW128669   6.415   6.383   5.032  0.8956  1.2469 -0.1921
 9127SOL    HW228670   6.320   6.320   4.932  0.9014 -0.7441  1.0001
 9128SOL     OW28671   6.036   0.067   1.791 -0.2964  0.1177  0.2484
 9128SOL    HW128672   6.017   0.004   1.723 -1.9195  1.1695 -0.3173
 9128SOL    HW228673   5.951   0.088   1.830  0.3314  1.1252  1.1465
 9129SOL     OW28674   8.117   0.877   1.111 -0.5637  0.1587  0.1785
 9129SOL    HW128675   8.107   0.835   1.026 -0.1454 -0.0571  0.2367
 9129SOL    HW228676   8.167   0.815   1.164 -2.1070 -0.3724  1.0765
 9130SOL     OW28677   3.936   0.817   1.402 -0.1960  0.2626  0.2216
 9130SOL    HW128678   3.969   0.811   1.312  0.3694 -1.0173  0.4899
 9130SOL    HW228679   3.956   0.907   1.429  0.7784  0.2906 -0.5122
 9131SOL     OW28680   4.668   5.025   2.814  0.2412 -0.5464  0.0221
 9131SOL    HW128681   4.624   4.989   2.737  1.6272 -1.3024 -0.4392
 9131SOL    HW228682   4.755   4.986   2.813  0.2746 -0.6423  2.0266
 9132SOL     OW28683   4.526   8.409   8.664 -0.4477  0.0710 -0.1585
 9132SOL    HW128684   4.497   8.332   8.615  0.6326 -0.1364 -0.5109
 9132SOL    HW228685   4.611   8.431   8.625  1.3012 -1.1140  2.6471
 9133SOL     OW28686   3.841   0.173   5.616 -0.2515 -0.4023  0.2457
 9133SOL    HW128687   3.897   0.105   5.579 -0.3076  0.2834 -1.1557
 9133SOL    HW228688   3.766   0.178   5.557 -1.3751 -0.6678  1.5897
 9134SOL     OW28689   7.169   5.320   6.875 -0.2623  0.3675 -0.3528
 9134SOL    HW128690   7.102   5.389   6.874  0.6889  1.3631 -2.2022
 9134SOL    HW228691   7.154   5.273   6.793  0.0730 -0.6784  0.1753
 9135SOL     OW28692   8.705   6.747   3.275  0.7161  0.1834 -0.2037
 9135SOL    HW128693   8.636   6.808   3.300  0.4970  0.1960 -0.8242
 9135SOL    HW228694   8.672   6.704   3.196  0.1067 -2.0098  1.1529
 9136SOL     OW28695   5.698   7.801   5.187 -0.0705 -0.4360  0.1278
 9136SOL    HW128696   5.616   7.758   5.162 -0.3646 -0.7936  1.6119
 9136SOL    HW228697   5.698   7.799   5.283 -0.3932  3.3255  0.3793
 9137SOL     OW28698   0.772   7.689   2.734  0.0028  0.2824 -0.2464
 9137SOL    HW128699   0.831   7.670   2.661 -0.0901  0.4039 -0.3550
 9137SOL    HW228700   0.714   7.613   2.739  0.3254  0.0534  0.0182
 9138SOL     OW28701   0.871   7.334   1.421  0.2373  0.4940 -0.3228
 9138SOL    HW128702   0.848   7.383   1.342  1.1805 -1.1213 -1.6809
 9138SOL    HW228703   0.797   7.346   1.480 -0.8004  1.2166 -1.7273
 9139SOL     OW28704   3.923   8.245   6.187 -0.1000 -0.3321  0.2036
 9139SOL    HW128705   3.926   8.209   6.098 -2.4955 -0.8407  0.2592
 9139SOL    HW228706   3.924   8.169   6.244  0.9224 -0.0281  0.6045
 9140SOL     OW28707   2.508   6.317   0.864  0.1634 -0.6078  0.1202
 9140SOL    HW128708   2.428   6.265   0.859 -1.2130  1.1473  1.9119
 9140SOL    HW228709   2.491   6.394   0.809  1.2899 -0.9748 -0.7785
 9141SOL     OW28710   5.363   6.917   6.527  0.1720 -0.4104  0.0641
 9141SOL    HW128711   5.352   6.842   6.585  0.7936 -0.3731  0.2318
 9141SOL    HW228712   5.279   6.924   6.481 -0.0388 -0.9392  0.3603
 9142SOL     OW28713   5.225   3.359   4.242 -0.4077  0.3171 -0.0127
 9142SOL    HW128714   5.318   3.351   4.220 -0.3577 -0.6350  0.4707
 9142SOL    HW228715   5.219   3.440   4.292 -0.1157  1.2313 -1.3921
 9143SOL     OW28716   8.560   3.339   4.151 -0.2627  0.2459 -0.1020
 9143SOL    HW128717   8.500   3.272   4.118 -0.8806  1.2157 -1.0039
 9143SOL    HW228718   8.543   3.341   4.246 -1.3248  0.1820 -0.2779
 9144SOL     OW28719   3.205   4.708   6.513  0.5831  0.3749  0.0741
 9144SOL    HW128720   3.152   4.637   6.547  2.5392 -0.7163  1.0551
 9144SOL    HW228721   3.168   4.729   6.428 -0.4949 -1.3066  0.1015
 9145SOL     OW28722   1.881   6.135   1.933 -0.1306  0.2026 -0.0337
 9145SOL    HW128723   1.866   6.225   1.904 -2.1912 -0.0622  0.0261
 9145SOL    HW228724   1.835   6.130   2.017  2.5000 -0.1086  1.4994
 9146SOL     OW28725   7.539   1.254   8.177 -0.2851 -0.0450 -0.5646
 9146SOL    HW128726   7.457   1.261   8.226  0.4645  1.6751  0.5308
 9146SOL    HW228727   7.537   1.328   8.117  1.5072  1.5461  1.1975
 9147SOL     OW28728   1.421   1.958   3.336 -0.1580 -0.6837  0.2736
 9147SOL    HW128729   1.392   1.892   3.273 -1.1535 -0.5302  0.5541
 9147SOL    HW228730   1.492   1.917   3.384 -0.1785 -1.2261 -0.1550
 9148SOL     OW28731   4.643   6.885   2.125 -0.6670 -0.0708  0.5620
 9148SOL    HW128732   4.653   6.943   2.049  0.1665  1.1659  1.5681
 9148SOL    HW228733   4.619   6.800   2.087  0.6812  0.2495 -1.1575
 9149SOL     OW28734   4.107   6.972   1.955 -0.3446  0.3402 -0.4604
 9149SOL    HW128735   4.064   6.903   1.906  0.3642 -0.4385 -0.0038
 9149SOL    HW228736   4.169   7.011   1.894 -0.1646  0.0294 -0.4733
 9150SOL     OW28737   6.072   7.503   2.714 -0.1456  0.2822 -0.0925
 9150SOL    HW128738   6.144   7.502   2.651  1.3086 -1.1692  1.5026
 9150SOL    HW228739   5.998   7.540   2.665  0.8342 -1.0074 -2.7089
 9151SOL     OW28740   1.172   3.762   6.502  0.7532  0.2840  0.1221
 9151SOL    HW128741   1.215   3.693   6.554 -1.5603 -1.6053 -0.2947
 9151SOL    HW228742   1.212   3.753   6.415  1.2085  0.1912  0.3343
 9152SOL     OW28743   4.052   5.727   1.832 -0.3242  0.3443 -0.1195
 9152SOL    HW128744   3.978   5.669   1.848 -0.4418  0.5249 -0.0138
 9152SOL    HW228745   4.060   5.780   1.911  0.1055  0.1216 -0.0063
 9153SOL     OW28746   0.901   6.596   2.599 -0.5141  0.2908  0.1127
 9153SOL    HW128747   0.913   6.691   2.609  0.4758  0.3824 -1.4609
 9153SOL    HW228748   0.919   6.560   2.686 -0.9937  1.5438  0.7578
 9154SOL     OW28749   0.418   6.468   8.314 -0.3561  0.2960 -0.1348
 9154SOL    HW128750   0.417   6.560   8.289 -2.5805  0.5621  0.7054
 9154SOL    HW228751   0.339   6.431   8.273  0.1816 -1.1135  0.0300
 9155SOL     OW28752   3.809   8.061   5.844  0.2810  0.3200  0.8353
 9155SOL    HW128753   3.758   8.139   5.821  0.2397  0.0382 -0.0891
 9155SOL    HW228754   3.885   8.064   5.786 -0.3202 -0.9350 -0.0781
 9156SOL     OW28755   6.653   4.806   7.307  0.7373 -0.1195 -0.4372
 9156SOL    HW128756   6.612   4.764   7.382  0.8161 -0.6717 -0.6980
 9156SOL    HW228757   6.648   4.741   7.237  2.9281 -0.6212 -0.2078
 9157SOL     OW28758   6.523   0.752   3.290 -0.0872 -0.1650  0.2704
 9157SOL    HW128759   6.564   0.742   3.204 -1.2555 -3.9161  0.0041
 9157SOL    HW228760   6.558   0.680   3.342 -0.6749  1.0481  2.4669
 9158SOL     OW28761   4.198   2.133   7.762  0.4597  0.0817 -0.3967
 9158SOL    HW128762   4.122   2.101   7.713  1.1835 -0.9276 -0.9048
 9158SOL    HW228763   4.273   2.107   7.708  1.2127  0.0440  0.6491
 9159SOL     OW28764   1.807   7.502   7.184 -0.5182  0.2503 -0.0106
 9159SOL    HW128765   1.719   7.491   7.221 -0.3524  0.8075  0.5639
 9159SOL    HW228766   1.844   7.577   7.231  0.3923 -0.1866 -0.0001
 9160SOL     OW28767   3.930   4.365   8.116 -0.0557  0.0822  0.1471
 9160SOL    HW128768   3.907   4.388   8.206 -0.4399  0.9556 -0.1614
 9160SOL    HW228769   4.024   4.382   8.110 -0.0784  0.2732  0.3101
 9161SOL     OW28770   6.848   2.139   4.636 -0.1773  0.3782 -0.4873
 9161SOL    HW128771   6.841   2.049   4.669  1.7366  0.3476 -0.0556
 9161SOL    HW228772   6.770   2.183   4.669 -1.2598 -1.1615 -0.8793
 9162SOL     OW28773   2.964   0.381   4.864 -0.4740  0.0340  0.2094
 9162SOL    HW128774   2.969   0.295   4.823 -0.1537  0.6190 -1.0024
 9162SOL    HW228775   3.051   0.394   4.902 -0.5212 -0.1672  0.3901
 9163SOL     OW28776   8.488   4.800   0.045  0.4049 -0.2432 -0.3026
 9163SOL    HW128777   8.558   4.810   0.109 -0.5254  1.7781  0.4913
 9163SOL    HW228778   8.516   4.851  -0.031 -0.1913  0.5935  0.0272
 9164SOL     OW28779   8.177   6.729   4.985 -0.2547  0.2485  0.1473
 9164SOL    HW128780   8.242   6.660   4.979 -0.3650 -0.1556  2.6204
 9164SOL    HW228781   8.228   6.809   4.999 -0.2302  0.1709  0.5061
 9165SOL     OW28782   4.521   4.856   4.711 -0.0480 -0.1892 -0.0416
 9165SOL    HW128783   4.432   4.867   4.743  0.5867 -2.1328  2.8097
 9165SOL    HW228784   4.517   4.778   4.655 -0.4144  0.8133 -1.4620
 9166SOL     OW28785   1.850   1.759   1.444 -0.5270  0.2187 -0.0127
 9166SOL    HW128786   1.856   1.765   1.349 -0.4334  1.1960  0.0446
 9166SOL    HW228787   1.757   1.763   1.463 -0.6755 -1.6572 -0.1384
 9167SOL     OW28788   2.663   8.343   1.478  0.2634 -0.0185  0.2082
 9167SOL    HW128789   2.749   8.314   1.449  0.0826 -1.1207  0.7391
 9167SOL    HW228790   2.679   8.431   1.513  0.8058  0.6059 -1.4705
 9168SOL     OW28791   7.148   3.651   6.932 -0.4367 -0.2322  0.2308
 9168SOL    HW128792   7.102   3.735   6.933  0.7668  0.4449  0.6257
 9168SOL    HW228793   7.090   3.593   6.882 -2.1977  0.2685  1.5676
 9169SOL     OW28794   1.325   1.972   5.096 -0.2237  0.3766 -0.3887
 9169SOL    HW128795   1.257   1.905   5.089 -0.2793  0.3833  0.0632
 9169SOL    HW228796   1.405   1.923   5.115 -0.6285  0.5525  2.1089
 9170SOL     OW28797   2.661   0.799   3.062 -0.1588  0.4084 -0.2443
 9170SOL    HW128798   2.666   0.712   3.101 -0.7052  1.0120  1.2592
 9170SOL    HW228799   2.577   0.800   3.017 -0.0544  0.0826 -0.4457
 9171SOL     OW28800   5.945   5.667   3.053 -0.0140  0.0396  0.3705
 9171SOL    HW128801   5.997   5.692   2.977  0.1202  0.2648  0.5347
 9171SOL    HW228802   5.947   5.744   3.110  0.8905 -0.5447  1.1584
 9172SOL     OW28803   1.927   3.765   7.887  0.2715  0.1943 -0.0410
 9172SOL    HW128804   1.883   3.791   7.806  0.4901  0.0650 -0.2045
 9172SOL    HW228805   2.019   3.757   7.863  0.4648  0.9575  0.4167
 9173SOL     OW28806   3.259   3.301   2.430  0.1224  0.0426  0.1749
 9173SOL    HW128807   3.167   3.315   2.450 -0.4297 -0.9882 -1.3892
 9173SOL    HW228808   3.279   3.366   2.363  0.7292  0.6716  0.9460
 9174SOL     OW28809   5.245   8.426   7.094  0.0893 -0.2459 -0.4060
 9174SOL    HW128810   5.150   8.436   7.097  0.2511  1.3513  2.0685
 9174SOL    HW228811   5.279   8.513   7.076  1.0994 -0.3418  0.8288
 9175SOL     OW28812   6.045   1.977   4.920 -0.2797  0.4187 -0.2023
 9175SOL    HW128813   5.971   1.982   4.860 -0.8288  0.2831  0.4444
 9175SOL    HW228814   6.030   1.897   4.970 -0.6723  1.2866  1.1492
 9176SOL     OW28815   5.289   4.822   2.887  0.2466 -0.5544  0.7122
 9176SOL    HW128816   5.367   4.856   2.932 -0.0375 -0.2029  0.9412
 9176SOL    HW228817   5.225   4.810   2.956 -0.2456  0.1361  0.3915
 9177SOL     OW28818   6.903   1.963   7.308 -0.7277  0.2580  0.5629
 9177SOL    HW128819   6.903   1.932   7.218  2.1878  0.9750  0.2236
 9177SOL    HW228820   6.932   1.887   7.359 -1.2903  0.1721  0.7556
 9178SOL     OW28821   5.172   8.025   1.098  0.0593 -0.0155  0.2933
 9178SOL    HW128822   5.210   7.945   1.064  0.9365  0.8807 -0.9237
 9178SOL    HW228823   5.175   8.087   1.025 -2.7003  0.4748  0.4791
 9179SOL     OW28824   0.219   8.191   5.188 -0.4651  0.1783 -0.1096
 9179SOL    HW128825   0.296   8.180   5.245 -0.7045  0.6763  0.3188
 9179SOL    HW228826   0.249   8.162   5.102 -0.6218 -2.3026  0.6062
 9180SOL     OW28827   5.685   5.621   1.465 -0.0781  0.4125  0.3202
 9180SOL    HW128828   5.679   5.649   1.373  0.2965  1.6329  0.6539
 9180SOL    HW228829   5.731   5.537   1.461 -1.0483 -0.1080 -0.6914
 9181SOL     OW28830   0.763   5.113   4.439 -0.9650  0.4296 -0.1036
 9181SOL    HW128831   0.713   5.134   4.360 -0.9024 -0.3961 -0.3636
 9181SOL    HW228832   0.697   5.089   4.504 -0.9385 -0.3247 -0.3456
 9182SOL     OW28833   6.392   4.593   6.206  0.0444  0.0648 -0.1421
 9182SOL    HW128834   6.421   4.650   6.135  0.6300  0.4007  0.3495
 9182SOL    HW228835   6.317   4.639   6.244 -1.9974 -1.3614 -2.1499
 9183SOL     OW28836   4.364   1.238   6.879 -0.0753  0.4627  0.1605
 9183SOL    HW128837   4.432   1.248   6.814  0.4397  0.8129  0.7414
 9183SOL    HW228838   4.363   1.144   6.899  0.5319  0.5120  0.4525
 9184SOL     OW28839   4.735   3.778   7.978 -0.1071 -0.4306  0.0371
 9184SOL    HW128840   4.797   3.705   7.986 -0.0075 -0.3971 -0.3919
 9184SOL    HW228841   4.679   3.754   7.904  0.7585  0.5196 -0.9669
 9185SOL     OW28842   5.075   6.194   0.475  0.0697 -0.3622 -0.5948
 9185SOL    HW128843   5.032   6.108   0.471  0.8264 -0.8113  0.6163
 9185SOL    HW228844   5.016   6.252   0.426 -0.9507 -1.3603 -0.5867
 9186SOL     OW28845   0.938   7.141   2.107  0.0655 -0.0348  0.5596
 9186SOL    HW128846   1.031   7.140   2.129  0.6356 -1.5156 -1.6222
 9186SOL    HW228847   0.935   7.174   2.017 -1.4997 -0.2466  0.5048
 9187SOL     OW28848   7.665   2.650   5.376  0.0973 -0.1790 -0.3942
 9187SOL    HW128849   7.637   2.684   5.291 -0.4035  0.9755  0.2203
 9187SOL    HW228850   7.629   2.711   5.440  2.1911  0.1632  0.5599
 9188SOL     OW28851   3.858   5.001   8.169 -0.5618  0.4462 -0.1967
 9188SOL    HW128852   3.936   5.048   8.199  0.0436  0.3919 -1.5840
 9188SOL    HW228853   3.892   4.929   8.117 -1.5160 -1.0263  1.1428
 9189SOL     OW28854   1.522   3.204   3.254  0.1379  0.6246  0.0404
 9189SOL    HW128855   1.523   3.126   3.199  0.7023  0.7005 -0.0636
 9189SOL    HW228856   1.455   3.185   3.320  0.4818 -0.0758  0.2014
 9190SOL     OW28857   7.692   6.589   3.166  0.3600 -0.3717  0.4322
 9190SOL    HW128858   7.680   6.551   3.253  1.2758  0.4991  0.9609
 9190SOL    HW228859   7.744   6.668   3.181 -0.4792  0.4546 -0.7651
 9191SOL     OW28860   3.120   6.737   8.621 -0.1189  0.0043  0.1774
 9191SOL    HW128861   3.067   6.695   8.689  0.4244  0.1794  0.7183
 9191SOL    HW228862   3.169   6.665   8.582  0.0307 -0.0132  0.3933
 9192SOL     OW28863   0.107   6.275   0.481 -0.2960  0.3933  0.0494
 9192SOL    HW128864   0.127   6.232   0.564  0.1904  0.8488  0.1779
 9192SOL    HW228865   0.151   6.221   0.415 -1.0396 -0.2086  0.0387
 9193SOL     OW28866   1.890   2.251   5.018 -0.1695 -0.2820 -0.9055
 9193SOL    HW128867   1.959   2.186   5.012  0.0904 -0.0746 -0.3185
 9193SOL    HW228868   1.833   2.234   4.943  0.6447 -0.3011 -1.5329
 9194SOL     OW28869   4.624   1.174   0.955 -0.4250 -0.5359 -0.0710
 9194SOL    HW128870   4.645   1.091   0.911  2.2335  0.4541 -0.8388
 9194SOL    HW228871   4.583   1.147   1.037 -0.2421 -2.5927 -0.5824
 9195SOL     OW28872   6.789   1.037   6.200 -0.1208  0.1607 -0.2183
 9195SOL    HW128873   6.787   1.129   6.175  0.4112  0.4688  0.8305
 9195SOL    HW228874   6.859   0.999   6.146  0.6510  0.6975  0.3829
 9196SOL     OW28875   2.906   0.667   5.205  0.5392 -0.8805  0.1077
 9196SOL    HW128876   2.824   0.705   5.237  0.3159 -1.3286  0.0778
 9196SOL    HW228877   2.920   0.591   5.261  0.0762 -1.7501 -0.9256
 9197SOL     OW28878   7.625   1.172   1.075 -0.1513 -0.7500  0.3638
 9197SOL    HW128879   7.711   1.161   1.034 -1.0850 -1.9752 -1.3863
 9197SOL    HW228880   7.576   1.094   1.049 -1.8332 -0.0288  1.2366
 9198SOL     OW28881   2.615   1.804   6.860  0.0561 -0.0219 -0.2658
 9198SOL    HW128882   2.676   1.730   6.859  1.9937  1.4232 -2.9240
 9198SOL    HW228883   2.585   1.811   6.769 -0.0276  2.4779 -0.1081
 9199SOL     OW28884   2.539   2.177   6.033 -0.0270  0.0699  0.4428
 9199SOL    HW128885   2.616   2.222   6.068 -0.9964  0.5437  2.0659
 9199SOL    HW228886   2.516   2.226   5.954  0.6938  0.5982  0.5542
 9200SOL     OW28887   3.701   6.129   7.716 -0.1138  0.1715  0.0590
 9200SOL    HW128888   3.784   6.151   7.757 -0.7656  0.2152  1.4207
 9200SOL    HW228889   3.668   6.212   7.682 -0.2081  0.4060  0.7044
 9201SOL     OW28890   8.191   4.025   7.451  0.2557 -0.4813 -0.5288
 9201SOL    HW128891   8.193   4.082   7.528  0.5974 -0.8205 -0.2859
 9201SOL    HW228892   8.169   3.939   7.485 -2.9196 -0.0481 -1.1817
 9202SOL     OW28893   1.878   2.523   4.428  0.0359 -0.0405 -0.0500
 9202SOL    HW128894   1.818   2.597   4.424  0.0708  0.1219  1.8520
 9202SOL    HW228895   1.836   2.456   4.373 -1.4780  0.3575  0.5643
 9203SOL     OW28896   1.124   3.736   7.071 -0.1502  0.3874 -0.0365
 9203SOL    HW128897   1.063   3.808   7.052 -0.1375  0.2775 -0.5066
 9203SOL    HW228898   1.093   3.700   7.154  0.1822  1.2963  0.4945
 9204SOL     OW28899   8.205   3.705   4.474 -0.3878  0.6100 -0.2331
 9204SOL    HW128900   8.156   3.722   4.554  0.7391 -0.6306  0.7536
 9204SOL    HW228901   8.242   3.791   4.450 -1.2050  1.1033  0.2403
 9205SOL     OW28902   6.229   2.847   0.301 -0.3388 -0.0057 -0.5475
 9205SOL    HW128903   6.268   2.903   0.234  1.2640 -1.0235 -0.5259
 9205SOL    HW228904   6.299   2.835   0.366 -0.8889 -1.3739 -0.1654
 9206SOL     OW28905   6.998   6.433   0.361  0.4125  0.2809 -0.4051
 9206SOL    HW128906   7.093   6.427   0.372  0.6961 -0.2391 -2.6481
 9206SOL    HW228907   6.985   6.440   0.267 -1.8697 -1.1906 -0.2717
 9207SOL     OW28908   3.293   0.085   7.528 -0.2852  0.1663 -0.2939
 9207SOL    HW128909   3.259   0.010   7.577  2.4173 -1.3550 -0.5328
 9207SOL    HW228910   3.388   0.073   7.529  0.1315  2.5873 -1.9887
 9208SOL     OW28911   2.268   7.137   1.607  0.0009 -0.1042 -0.7808
 9208SOL    HW128912   2.242   7.052   1.570  2.9320 -0.7153 -1.7176
 9208SOL    HW228913   2.332   7.171   1.544  0.1828  2.0136  0.4684
 9209SOL     OW28914   1.094   4.357   3.969  0.8803  0.0022 -0.2034
 9209SOL    HW128915   1.139   4.284   4.010 -0.4674 -1.1904 -0.7782
 9209SOL    HW228916   1.001   4.335   3.975  0.3983  1.8641 -0.0277
 9210SOL     OW28917   4.248   3.636   0.119 -0.1568  0.4482 -0.7570
 9210SOL    HW128918   4.182   3.566   0.118 -0.6748  0.9063  0.0881
 9210SOL    HW228919   4.318   3.603   0.174 -0.9734  1.0574  0.7295
 9211SOL     OW28920   5.003   7.378   5.242  0.5160 -0.4285 -0.2511
 9211SOL    HW128921   4.957   7.411   5.164 -1.5824 -1.2279  0.5824
 9211SOL    HW228922   5.036   7.292   5.215 -1.6774 -1.4598  0.1910
 9212SOL     OW28923   3.335   7.917   7.300  0.0304 -0.0221 -0.4505
 9212SOL    HW128924   3.286   7.999   7.293 -0.7491 -0.4106  0.2446
 9212SOL    HW228925   3.410   7.937   7.356 -0.6136  0.0264  0.4101
 9213SOL     OW28926   0.558   2.998   1.307 -0.6190  0.4613 -0.3096
 9213SOL    HW128927   0.572   3.084   1.267 -3.3254  0.4035 -1.6418
 9213SOL    HW228928   0.562   2.937   1.233  2.2329 -0.7977  0.7354
 9214SOL     OW28929   8.551   0.696   5.165 -0.2417 -0.7602  0.1259
 9214SOL    HW128930   8.609   0.768   5.141 -0.6826 -0.6573 -0.7007
 9214SOL    HW228931   8.470   0.714   5.116 -0.5149 -1.5730  0.2670
 9215SOL     OW28932   8.136   0.918   4.182 -0.2752  0.1014 -0.0687
 9215SOL    HW128933   8.193   0.994   4.190  1.4733 -1.2024  0.5165
 9215SOL    HW228934   8.182   0.849   4.230 -2.2961 -1.0635  0.2920
 9216SOL     OW28935   2.695   6.348   4.537  0.4545  0.2189  0.2235
 9216SOL    HW128936   2.722   6.440   4.546 -1.1437  0.6376  1.1007
 9216SOL    HW228937   2.778   6.299   4.537  1.2898  1.3320  3.7283
 9217SOL     OW28938   0.999   2.850   2.124 -0.5215  0.4799  0.2663
 9217SOL    HW128939   1.000   2.804   2.208 -1.7726  0.8353  0.4850
 9217SOL    HW228940   1.092   2.861   2.102 -0.1514 -1.8724  0.3348
 9218SOL     OW28941   3.364   4.087   3.565 -0.1870 -0.1407 -0.5872
 9218SOL    HW128942   3.355   4.171   3.610 -0.7166 -0.4351 -0.1166
 9218SOL    HW228943   3.442   4.047   3.604 -0.2732 -0.1156 -0.3846
 9219SOL     OW28944   3.615   4.805   1.994 -0.2345 -0.3459  0.0531
 9219SOL    HW128945   3.613   4.727   1.938  1.9912 -0.1626 -0.3664
 9219SOL    HW228946   3.528   4.843   1.985 -1.0371 -2.1924 -0.5649
 9220SOL     OW28947   6.970   7.309   2.896 -0.4338  0.0094  0.0932
 9220SOL    HW128948   6.881   7.278   2.911 -0.3454 -0.3766 -0.1816
 9220SOL    HW228949   7.024   7.257   2.955 -0.3991  0.3305  0.3515
 9221SOL     OW28950   6.792   2.703   5.818  0.1930  0.0977  0.4327
 9221SOL    HW128951   6.883   2.691   5.794 -0.2839 -0.9905 -0.9451
 9221SOL    HW228952   6.760   2.772   5.759 -0.4244 -1.0842 -0.6711
 9222SOL     OW28953   3.474   1.720   5.793 -0.3809  0.3816  0.0151
 9222SOL    HW128954   3.479   1.815   5.779  0.6412  0.2577 -0.5797
 9222SOL    HW228955   3.508   1.706   5.881  1.2234  0.4223 -0.5678
 9223SOL     OW28956   0.548   1.741   1.375 -0.2340  0.5112 -0.2864
 9223SOL    HW128957   0.550   1.829   1.414 -2.5770  0.4217  0.2390
 9223SOL    HW228958   0.639   1.719   1.360  0.4968  2.4997  0.8078
 9224SOL     OW28959   2.130   6.519   3.056  0.2558 -0.2370 -0.2277
 9224SOL    HW128960   2.111   6.606   3.090  1.3052 -0.2455  0.4299
 9224SOL    HW228961   2.056   6.465   3.084 -0.5221  0.4744 -0.8504
 9225SOL     OW28962   2.284   6.037   7.795 -0.2823 -0.4974 -0.2880
 9225SOL    HW128963   2.273   6.132   7.802  1.3084 -0.1447 -1.7627
 9225SOL    HW228964   2.279   6.005   7.885 -0.3186  1.0640  0.2863
 9226SOL     OW28965   6.041   6.495   5.819 -0.7463 -1.2019  0.4038
 9226SOL    HW128966   6.086   6.539   5.891 -1.8306 -1.5136  1.2959
 9226SOL    HW228967   6.074   6.405   5.821  0.3295 -0.8431 -0.4505
 9227SOL     OW28968   8.521   7.188   3.276  0.4179 -0.4534  0.1765
 9227SOL    HW128969   8.560   7.270   3.306  0.1806 -0.3464  0.1957
 9227SOL    HW228970   8.553   7.178   3.187  0.6228 -0.4521  0.2490
 9228SOL     OW28971   2.534   2.720   8.224  0.3334 -0.2368 -0.1498
 9228SOL    HW128972   2.503   2.810   8.221  2.0580  0.3715 -2.1298
 9228SOL    HW228973   2.512   2.689   8.312 -0.4711  2.0191  0.4953
 9229SOL     OW28974   6.627   6.105   8.408 -0.3333  0.2826 -0.5030
 9229SOL    HW128975   6.651   6.187   8.364 -0.8580  1.9204  2.0395
 9229SOL    HW228976   6.671   6.110   8.493 -3.3237 -0.2639  1.2318
 9230SOL     OW28977   5.895   8.068   8.366  0.2836 -0.4521 -0.1047
 9230SOL    HW128978   5.926   7.978   8.351 -0.2432 -0.7026  0.2785
 9230SOL    HW228979   5.865   8.098   8.280 -1.4674 -1.3928  0.1409
 9231SOL     OW28980   8.016   6.071   0.041 -0.1123 -0.2932 -0.6403
 9231SOL    HW128981   7.927   6.069   0.008  0.2833  0.5280 -1.8542
 9231SOL    HW228982   8.020   6.151   0.095 -0.0532 -0.1827 -0.8050
 9232SOL     OW28983   2.809   2.176   4.478  0.0776  0.1987  0.2461
 9232SOL    HW128984   2.843   2.260   4.449  1.5168 -0.0572  1.1008
 9232SOL    HW228985   2.825   2.174   4.572 -0.0134 -0.9938  0.2562
 9233SOL     OW28986   4.105   0.567   7.617  0.3232 -0.9127  0.1481
 9233SOL    HW128987   4.018   0.548   7.652 -0.2278  0.1688 -0.5780
 9233SOL    HW228988   4.091   0.581   7.523  1.2042 -0.3304  0.0892
 9234SOL     OW28989   8.234   5.641   0.429 -0.5793  0.6553 -0.2060
 9234SOL    HW128990   8.139   5.627   0.427 -1.5883  5.0966  1.7419
 9234SOL    HW228991   8.252   5.697   0.354  0.3122  0.5964 -0.0496
 9235SOL     OW28992   5.332   6.650   7.537  0.1113 -0.1936 -0.2397
 9235SOL    HW128993   5.411   6.607   7.504 -0.0842 -1.6308  1.0690
 9235SOL    HW228994   5.360   6.740   7.556  1.7705 -0.9732  1.2851
 9236SOL     OW28995   5.330   0.151   1.371 -0.6145  0.0705 -0.6897
 9236SOL    HW128996   5.373   0.147   1.285 -0.9105 -0.5980 -0.8097
 9236SOL    HW228997   5.258   0.089   1.365  0.3511 -1.2210  0.5944
 9237SOL     OW28998   4.277   3.487   5.124  0.0120 -0.2704 -0.2602
 9237SOL    HW128999   4.278   3.582   5.117 -1.4824 -0.0106  2.0643
 9237SOL    HW229000   4.193   3.461   5.086  0.4352 -0.6829 -0.9285
 9238SOL     OW29001   8.375   1.977   2.634  0.2407 -0.1347  0.2826
 9238SOL    HW129002   8.301   1.928   2.669  0.5350 -0.1300  0.9097
 9238SOL    HW229003   8.452   1.923   2.653  0.2078 -1.3084 -2.4586
 9239SOL     OW29004   4.304   2.322   7.946 -0.1061 -0.3487  0.0584
 9239SOL    HW129005   4.316   2.266   8.023  0.1885  0.3374  0.5166
 9239SOL    HW229006   4.298   2.260   7.873 -1.9616 -1.1046  0.7835
 9240SOL     OW29007   4.020   8.647   7.022 -0.6904 -0.1587  0.1240
 9240SOL    HW129008   4.111   8.623   7.005 -0.1655  1.7205  0.0649
 9240SOL    HW229009   3.988   8.683   6.940 -0.8054  1.1227  0.7050
 9241SOL     OW29010   1.289   2.878   1.270 -0.3576 -0.2712  0.4064
 9241SOL    HW129011   1.239   2.915   1.197 -0.4425 -0.5835  0.3045
 9241SOL    HW229012   1.370   2.930   1.273  1.3450 -2.5086 -2.2415
 9242SOL     OW29013   1.375   2.525   1.598 -0.2135  0.4708  0.0156
 9242SOL    HW129014   1.320   2.587   1.549 -3.3726 -1.2728  1.1275
 9242SOL    HW229015   1.452   2.577   1.623 -0.8413  2.8062 -2.3987
 9243SOL     OW29016   0.663   2.400   4.382 -0.1710  0.0975  0.0890
 9243SOL    HW129017   0.728   2.363   4.323 -0.1829 -2.2088  1.3977
 9243SOL    HW229018   0.604   2.327   4.402 -2.5351  1.8344 -0.1695
 9244SOL     OW29019   4.543   4.716   6.064 -0.0030  0.2316 -0.1606
 9244SOL    HW129020   4.624   4.667   6.050  0.0697  0.6123 -1.1537
 9244SOL    HW229021   4.572   4.801   6.097  0.0059  0.3571 -0.4871
 9245SOL     OW29022   4.422   0.670   4.844 -0.6282 -0.5632 -0.0165
 9245SOL    HW129023   4.463   0.750   4.877 -0.3447 -0.6945 -0.0442
 9245SOL    HW229024   4.363   0.643   4.914 -1.1502 -0.0239 -0.2364
 9246SOL     OW29025   2.750   6.025   5.234  0.0478  0.1570  0.3144
 9246SOL    HW129026   2.797   6.015   5.317 -0.8494 -0.1872  0.7909
 9246SOL    HW229027   2.769   5.945   5.185 -1.0763 -0.5839  1.0474
 9247SOL     OW29028   0.270   3.080   2.159  0.0347 -0.7394 -0.5759
 9247SOL    HW129029   0.185   3.084   2.202 -0.7994  0.2584 -2.2088
 9247SOL    HW229030   0.327   3.037   2.222 -1.4912 -0.7514  0.8589
 9248SOL     OW29031   0.141   0.358   5.005 -0.1036 -0.4080 -0.1335
 9248SOL    HW129032   0.193   0.400   4.936 -0.4022 -0.4463 -0.3824
 9248SOL    HW229033   0.052   0.389   4.989 -0.0220  0.3441  0.8118
 9249SOL     OW29034   1.950   6.456   7.912  0.2619  0.4445 -0.5639
 9249SOL    HW129035   1.975   6.548   7.919  0.0688  0.3859  1.7618
 9249SOL    HW229036   1.902   6.438   7.994  2.7781 -2.4538  0.4685
 9250SOL     OW29037   2.314   1.454   0.493  0.1538  1.1766 -0.2468
 9250SOL    HW129038   2.284   1.545   0.499 -1.3633  0.6513  0.9229
 9250SOL    HW229039   2.263   1.408   0.560  2.4536 -0.1548  0.6961
 9251SOL     OW29040   2.747   1.138   5.272  0.4171 -0.7965  0.4134
 9251SOL    HW129041   2.711   1.099   5.192  0.7656  1.7727 -1.1043
 9251SOL    HW229042   2.834   1.170   5.245  0.2356  0.7827  1.5763
 9252SOL     OW29043   6.957   3.079   2.884  0.6791  0.5293 -0.0225
 9252SOL    HW129044   7.050   3.096   2.874  1.1091 -1.8783 -0.7292
 9252SOL    HW229045   6.951   2.984   2.893 -1.8500  0.3637 -2.1723
 9253SOL     OW29046   5.935   3.923   6.700  0.4038  0.0239 -0.8383
 9253SOL    HW129047   6.007   3.879   6.744 -0.5614  1.2998  2.3160
 9253SOL    HW229048   5.956   4.017   6.707 -0.3213  0.3256 -2.2682
 9254SOL     OW29049   4.314   8.401   3.553 -0.1143  0.0899  0.0737
 9254SOL    HW129050   4.298   8.307   3.543  0.3583 -0.0340  0.4544
 9254SOL    HW229051   4.339   8.431   3.465 -2.7657  0.3803 -0.6543
 9255SOL     OW29052   7.048   0.281   7.745 -0.0754  0.0341 -0.2501
 9255SOL    HW129053   6.957   0.289   7.719 -0.5573  0.6244  1.4503
 9255SOL    HW229054   7.071   0.367   7.780  0.6080 -0.5605  0.8461
 9256SOL     OW29055   0.140   6.674   1.825 -0.3339  0.2924  0.2207
 9256SOL    HW129056   0.156   6.707   1.737  1.7041  0.6456  0.6742
 9256SOL    HW229057   0.205   6.604   1.836 -0.8594 -0.0400  1.2744
 9257SOL     OW29058   5.527   0.055   7.662  0.2974 -0.0682 -0.4961
 9257SOL    HW129059   5.443   0.015   7.683 -0.2243  0.5213 -1.3763
 9257SOL    HW229060   5.535   0.046   7.567  0.3265  1.5523 -0.6792
 9258SOL     OW29061   7.744   1.516   8.112  0.4109  0.6832 -0.4185
 9258SOL    HW129062   7.757   1.450   8.181 -1.6894  0.2406 -0.3849
 9258SOL    HW229063   7.830   1.556   8.102  1.1552 -0.3143  1.3587
 9259SOL     OW29064   3.278   5.227   5.961  0.6268  0.2358 -0.1762
 9259SOL    HW129065   3.231   5.311   5.964  1.1983  0.5565 -0.1991
 9259SOL    HW229066   3.235   5.178   5.891  0.2800  0.5022 -0.1527
 9260SOL     OW29067   4.426   3.777   2.974 -0.5814  0.2428 -0.3739
 9260SOL    HW129068   4.414   3.851   2.915  0.8438  1.3718  0.6873
 9260SOL    HW229069   4.483   3.810   3.044 -0.0797 -1.7904  0.2559
 9261SOL     OW29070   0.510   1.244   6.240 -0.3686  0.2028 -0.0657
 9261SOL    HW129071   0.556   1.328   6.234 -0.2530  0.0692 -1.2279
 9261SOL    HW229072   0.419   1.267   6.256 -0.1956  0.5171  0.5045
 9262SOL     OW29073   4.975   6.400   4.513  0.0442 -0.3598  0.0135
 9262SOL    HW129074   4.986   6.305   4.519 -1.6806 -0.6019 -0.1655
 9262SOL    HW229075   4.884   6.412   4.487 -0.2635  1.3804  1.6640
 9263SOL     OW29076   4.686   7.336   1.672 -0.0425 -0.6175 -0.3143
 9263SOL    HW129077   4.662   7.256   1.626 -0.4612 -0.5157 -0.2783
 9263SOL    HW229078   4.765   7.367   1.628 -0.4223 -0.5353 -0.9408
 9264SOL     OW29079   3.255   2.371   4.145  0.1203  0.2915  0.0636
 9264SOL    HW129080   3.349   2.356   4.134 -0.1910  0.3956 -3.7857
 9264SOL    HW229081   3.235   2.445   4.088 -2.8395 -1.9664 -2.1355
 9265SOL     OW29082   8.619   6.632   6.233  0.2974  0.0190  0.0110
 9265SOL    HW129083   8.639   6.641   6.326  2.0563 -0.4538 -0.2994
 9265SOL    HW229084   8.527   6.661   6.226  0.1744  0.1990  1.8460
 9266SOL     OW29085   7.808   1.930   3.219  0.0960  0.0341 -0.6174
 9266SOL    HW129086   7.823   2.012   3.174 -1.0254  0.8196  0.3865
 9266SOL    HW229087   7.891   1.883   3.211  1.2689  1.8830  0.0635
 9267SOL     OW29088   8.621   3.232   1.475  0.4223  0.3291  0.2547
 9267SOL    HW129089   8.706   3.234   1.432  0.3403 -1.4314 -0.0695
 9267SOL    HW229090   8.622   3.152   1.527 -1.4385 -0.3591 -0.6756
 9268SOL     OW29091   2.568   2.047   4.505 -0.0691 -0.3361  0.2646
 9268SOL    HW129092   2.638   2.110   4.522 -0.8281  0.0649  2.1863
 9268SOL    HW229093   2.488   2.091   4.535 -1.4933 -0.1264 -3.3326
 9269SOL     OW29094   6.181   7.313   5.613  0.0240  0.3217 -0.2391
 9269SOL    HW129095   6.215   7.345   5.529 -1.4914  0.1222 -0.9689
 9269SOL    HW229096   6.176   7.392   5.668 -2.5102  1.2629 -1.6206
 9270SOL     OW29097   1.586   2.214   7.669  0.2423 -0.1065  0.0089
 9270SOL    HW129098   1.594   2.136   7.615 -0.4119  0.2155 -0.5700
 9270SOL    HW229099   1.596   2.287   7.607  2.3351  0.2892  0.7634
 9271SOL     OW29100   7.317   7.440   7.982 -0.7034  0.0641 -0.0223
 9271SOL    HW129101   7.256   7.407   7.916 -0.9633  2.4520 -1.0694
 9271SOL    HW229102   7.404   7.419   7.948 -0.8562  0.5678 -0.7328
 9272SOL     OW29103   6.639   0.113   5.811 -0.0720 -0.2851  0.2487
 9272SOL    HW129104   6.644   0.026   5.851  1.8646 -0.9754 -1.2992
 9272SOL    HW229105   6.665   0.098   5.720  0.3712  1.9339 -0.0366
 9273SOL     OW29106   8.387   4.863   1.860 -0.2150 -0.2658  0.2024
 9273SOL    HW129107   8.357   4.938   1.808  0.9581 -0.1244 -0.2898
 9273SOL    HW229108   8.410   4.797   1.796  0.3042 -0.4566  0.5801
 9274SOL     OW29109   0.151   2.244   0.748  0.0988 -0.1307 -0.6053
 9274SOL    HW129110   0.076   2.268   0.693 -0.9492 -0.2586  0.7107
 9274SOL    HW229111   0.118   2.174   0.805  0.8547  0.6076  0.8084
 9275SOL     OW29112   3.064   1.343   1.968 -0.2267 -0.0909  0.0836
 9275SOL    HW129113   3.072   1.265   1.913 -0.1593  0.1495 -0.2541
 9275SOL    HW229114   2.972   1.344   1.995 -0.6004  0.4972 -1.1143
 9276SOL     OW29115   8.534   0.304   1.911  0.1841  0.3949 -0.0971
 9276SOL    HW129116   8.562   0.307   1.820  1.6333  2.7158  0.3356
 9276SOL    HW229117   8.605   0.256   1.956 -1.7397 -3.1265 -0.4264
 9277SOL     OW29118   6.126   2.485   4.122 -0.0292 -0.2029 -0.5375
 9277SOL    HW129119   6.193   2.419   4.134 -0.0835 -0.3657 -1.1204
 9277SOL    HW229120   6.171   2.558   4.078  0.2897  0.5998  1.0369
 9278SOL     OW29121   8.597   6.588   5.796 -0.0985  0.5204  0.0339
 9278SOL    HW129122   8.608   6.593   5.701 -0.3980 -0.9450 -0.0899
 9278SOL    HW229123   8.599   6.680   5.825 -1.2432  1.0796 -1.5226
 9279SOL     OW29124   4.551   3.620   2.811 -0.4034 -0.1916  0.4291
 9279SOL    HW129125   4.518   3.678   2.880  1.1216 -1.1546  2.0629
 9279SOL    HW229126   4.634   3.659   2.786  0.6278 -1.5787  1.5312
 9280SOL     OW29127   6.901   4.516   5.324  0.1654 -0.8943 -0.0910
 9280SOL    HW129128   6.812   4.513   5.360 -0.3062  0.5998 -1.0348
 9280SOL    HW229129   6.914   4.431   5.284 -0.6394 -1.3166  0.5248
 9281SOL     OW29130   8.131   8.342   7.039  0.2505 -0.0601 -0.4498
 9281SOL    HW129131   8.120   8.377   6.950 -0.1133  0.2888 -0.2679
 9281SOL    HW229132   8.058   8.281   7.049  0.9309 -0.9692 -0.8003
 9282SOL     OW29133   3.906   0.745   6.261 -0.9506 -0.1201  0.3426
 9282SOL    HW129134   3.920   0.802   6.186 -3.1875 -0.1943 -0.2043
 9282SOL    HW229135   3.910   0.656   6.226  1.5743 -0.3382  1.0188
 9283SOL     OW29136   4.163   6.785   3.936 -0.0071 -0.3687 -0.4812
 9283SOL    HW129137   4.103   6.736   3.993 -1.5635  0.2292 -1.5359
 9283SOL    HW229138   4.136   6.762   3.848 -0.9871  2.5429 -1.0350
 9284SOL     OW29139   8.710   1.521   1.382  0.1653 -0.6454  0.0837
 9284SOL    HW129140   8.699   1.486   1.471 -0.8450 -0.4008  0.0666
 9284SOL    HW229141   8.699   1.615   1.392 -1.7594 -0.7659 -0.5403
 9285SOL     OW29142   0.571   5.912   5.976  0.7613  0.1720 -0.1165
 9285SOL    HW129143   0.508   5.963   6.027 -0.1158  0.8179 -1.7654
 9285SOL    HW229144   0.560   5.944   5.886  1.7595 -1.4023 -0.8328
 9286SOL     OW29145   8.454   7.942   5.216 -0.3144  0.6646 -0.2857
 9286SOL    HW129146   8.510   8.019   5.223 -1.2405  1.2590  1.2913
 9286SOL    HW229147   8.365   7.978   5.210 -0.7427 -0.2656  0.2249
 9287SOL     OW29148   0.470   2.693   7.651  0.5991 -0.1509  0.8351
 9287SOL    HW129149   0.398   2.631   7.661  0.0733  0.1833 -0.6415
 9287SOL    HW229150   0.545   2.639   7.628  0.0422 -0.2601 -0.8992
 9288SOL     OW29151   1.329   2.272   0.172 -0.7697  0.0912 -0.4307
 9288SOL    HW129152   1.312   2.361   0.203  0.9564  0.3121 -0.0534
 9288SOL    HW229153   1.342   2.221   0.251  2.8443  0.4899 -0.6068
 9289SOL     OW29154   1.870   2.389   0.397 -0.5014  0.4855 -0.5156
 9289SOL    HW129155   1.837   2.416   0.483 -1.2066  0.9991 -0.9302
 9289SOL    HW229156   1.953   2.436   0.387  0.5131 -0.9664  0.6233
 9290SOL     OW29157   1.474   1.859   2.499  0.4054  0.0477  0.5200
 9290SOL    HW129158   1.385   1.842   2.468  1.1231 -1.1486 -0.9855
 9290SOL    HW229159   1.472   1.950   2.531 -1.0712  0.3849 -0.4660
 9291SOL     OW29160   6.532   6.776   8.665  0.0437 -0.1312 -0.0316
 9291SOL    HW129161   6.619   6.759   8.629 -0.4903 -1.2903 -0.8584
 9291SOL    HW229162   6.519   6.707   8.731 -0.1734  0.1588  0.2367
 9292SOL     OW29163   2.689   2.200   5.541 -0.3005  0.0844 -0.1455
 9292SOL    HW129164   2.766   2.197   5.597 -0.6838 -0.8155  0.3552
 9292SOL    HW229165   2.660   2.291   5.545 -2.3715 -0.5049  4.0390
 9293SOL     OW29166   5.297   0.272   5.474 -0.0107 -0.0798  0.2211
 9293SOL    HW129167   5.321   0.181   5.459 -1.8278 -0.4108 -1.0170
 9293SOL    HW229168   5.205   0.269   5.500 -0.2524  1.4181 -0.3472
 9294SOL     OW29169   4.921   2.132   5.788  0.2866  0.5618  0.1733
 9294SOL    HW129170   4.977   2.100   5.860 -0.0668 -0.8260 -0.1327
 9294SOL    HW229171   4.867   2.199   5.828  0.9573  0.6797  0.9089
 9295SOL     OW29172   1.018   7.820   2.133 -0.1338  0.4839 -0.0208
 9295SOL    HW129173   1.099   7.850   2.093 -1.0345  1.7047 -0.9813
 9295SOL    HW229174   0.951   7.881   2.102 -1.1434  0.5613  2.1233
 9296SOL     OW29175   0.001   7.970   3.602  0.3044  0.2385 -0.3818
 9296SOL    HW129176   0.003   7.882   3.566  0.0409  0.5935 -1.2892
 9296SOL    HW229177  -0.061   7.966   3.675  1.5805 -0.7228  0.7000
 9297SOL     OW29178   5.957   0.698   1.083 -0.2408 -0.0192  0.0361
 9297SOL    HW129179   5.883   0.748   1.119 -0.1977  1.2854 -1.5672
 9297SOL    HW229180   5.953   0.614   1.129 -1.6732  0.6404  1.2296
 9298SOL     OW29181   3.084   5.876   7.756  0.2686  0.0395 -0.7055
 9298SOL    HW129182   3.004   5.891   7.706 -0.0520  1.5124  0.1779
 9298SOL    HW229183   3.065   5.800   7.811 -0.8460  0.8493  0.0755
 9299SOL     OW29184   1.833   8.465   0.184 -0.3714  0.8285  0.2330
 9299SOL    HW129185   1.909   8.486   0.129  0.7456 -0.9696  1.0292
 9299SOL    HW229186   1.825   8.370   0.179 -2.7088  0.9771  0.0403
 9300SOL     OW29187   0.779   7.450   5.281  0.0381 -0.3260 -0.2618
 9300SOL    HW129188   0.691   7.459   5.246 -0.0438 -1.4090 -0.3622
 9300SOL    HW229189   0.767   7.410   5.367  0.4227 -0.3935 -0.2374
 9301SOL     OW29190   6.449   3.461   0.284 -0.0094 -0.6770 -0.5104
 9301SOL    HW129191   6.499   3.381   0.269 -0.3604 -0.6529 -1.8655
 9301SOL    HW229192   6.436   3.499   0.197 -0.1870  0.6588  0.0692
 9302SOL     OW29193   2.512   2.287   0.881  0.2092  0.4204 -0.1403
 9302SOL    HW129194   2.505   2.237   0.799  0.0487  0.7398 -0.3224
 9302SOL    HW229195   2.506   2.379   0.854  0.1289  0.5266  0.2332
 9303SOL     OW29196   6.203   3.628   7.478  0.2483  0.6661 -0.4475
 9303SOL    HW129197   6.205   3.705   7.420  0.0743  0.0212 -1.3276
 9303SOL    HW229198   6.295   3.610   7.498  0.2515  1.7303  0.6417
 9304SOL     OW29199   0.279   2.226   8.629 -0.3070  0.3836 -1.2152
 9304SOL    HW129200   0.345   2.268   8.684  0.9580 -0.6511 -1.8792
 9304SOL    HW229201   0.302   2.133   8.631 -1.5137  0.0490 -1.8073
 9305SOL     OW29202   3.951   2.480   2.831  0.4767  0.1426  0.1927
 9305SOL    HW129203   4.017   2.480   2.762  0.3870 -0.4844  0.1002
 9305SOL    HW229204   3.974   2.405   2.886 -0.2966 -0.2304  0.0174
 9306SOL     OW29205   5.758   7.034   2.058 -0.6335 -0.2259  0.0635
 9306SOL    HW129206   5.684   6.988   2.019 -1.2518  0.4478  0.4394
 9306SOL    HW229207   5.750   7.016   2.152  1.4512 -2.7505 -0.1028
 9307SOL     OW29208   4.872   7.216   4.972  0.2041  0.3428  0.0153
 9307SOL    HW129209   4.804   7.214   5.039  0.6088 -0.2947  0.4221
 9307SOL    HW229210   4.824   7.216   4.889 -0.3064  1.3689  0.2920
 9308SOL     OW29211   2.864   6.335   7.152 -0.1551 -0.8839 -0.1026
 9308SOL    HW129212   2.777   6.345   7.191  0.0496 -1.0829  0.4096
 9308SOL    HW229213   2.860   6.387   7.071 -0.4703 -0.1644  0.3656
 9309SOL     OW29214   7.474   5.642   6.830  0.1645  0.3231  0.8276
 9309SOL    HW129215   7.379   5.652   6.830 -0.0395 -0.8563 -1.9500
 9309SOL    HW229216   7.489   5.551   6.855  0.4799  0.1713  0.1213
 9310SOL     OW29217   6.627   3.758   5.148 -0.1190 -0.0942  0.2137
 9310SOL    HW129218   6.549   3.702   5.148 -0.3270  0.1936 -0.0279
 9310SOL    HW229219   6.624   3.804   5.064 -1.5923  2.5276  1.5754
 9311SOL     OW29220   0.014   5.604   6.643  0.3267 -0.0970 -0.4765
 9311SOL    HW129221  -0.005   5.568   6.730  0.9402 -0.1074 -0.3398
 9311SOL    HW229222   0.091   5.660   6.656 -0.5786  1.2392 -0.6965
 9312SOL     OW29223   2.903   5.921   8.508 -0.1087 -0.1755 -0.2772
 9312SOL    HW129224   2.936   6.007   8.532 -1.7667 -0.0844  1.9477
 9312SOL    HW229225   2.981   5.872   8.481  0.9169  1.8395 -1.1570
 9313SOL     OW29226   7.282   6.071   4.399  0.4408 -0.8433  0.1116
 9313SOL    HW129227   7.283   6.156   4.355  0.0619 -0.9862 -0.1817
 9313SOL    HW229228   7.253   6.009   4.331 -0.2990 -1.0450  0.6020
 9314SOL     OW29229   0.800   5.886   6.805 -0.2532 -0.4994 -0.2782
 9314SOL    HW129230   0.732   5.822   6.823 -0.8549  0.1169 -0.3111
 9314SOL    HW229231   0.765   5.969   6.838  0.4892 -0.1735 -0.2736
 9315SOL     OW29232   5.940   2.424   8.159 -0.5749 -0.4533  0.1904
 9315SOL    HW129233   5.914   2.359   8.094 -0.8512  0.0237 -0.1813
 9315SOL    HW229234   5.894   2.398   8.239  0.2414 -1.3948  0.3785
 9316SOL     OW29235   8.695   0.752   0.703 -0.0724 -0.2856 -0.0856
 9316SOL    HW129236   8.674   0.660   0.689  0.9506 -0.7474  1.2149
 9316SOL    HW229237   8.790   0.757   0.693  0.1155  0.2565  1.5741
 9317SOL     OW29238   4.658   7.099   1.123 -0.4480 -0.3663  0.0702
 9317SOL    HW129239   4.692   7.020   1.082 -0.3081  1.0725 -2.7931
 9317SOL    HW229240   4.569   7.108   1.090 -0.4110  0.7628  0.2153
 9318SOL     OW29241   1.605   1.164   5.461 -0.2004 -0.4076  0.6434
 9318SOL    HW129242   1.676   1.205   5.412  0.2097 -0.8480  0.8609
 9318SOL    HW229243   1.619   1.070   5.450 -0.6940 -0.5023  0.7695
 9319SOL     OW29244   7.033   0.351   1.099 -0.2730 -0.2938 -0.3219
 9319SOL    HW129245   7.104   0.353   1.163 -1.4675  0.7077  1.0529
 9319SOL    HW229246   6.974   0.283   1.131 -0.4121 -0.4477 -0.8968
 9320SOL     OW29247   1.771   0.421   7.735 -0.3231  0.8910 -0.3653
 9320SOL    HW129248   1.698   0.365   7.761 -0.7852  2.3386  1.7486
 9320SOL    HW229249   1.754   0.442   7.644 -2.5968  1.1728  0.0646
 9321SOL     OW29250   3.026   5.688   5.643 -0.1159 -0.4174  0.1197
 9321SOL    HW129251   3.012   5.776   5.675  1.4259 -0.2391  0.4134
 9321SOL    HW229252   3.005   5.692   5.549  1.1766  0.6157 -0.1608
 9322SOL     OW29253   6.684   4.139   7.603 -0.3398 -0.0209 -0.3126
 9322SOL    HW129254   6.675   4.179   7.689  3.3325  0.8040 -0.1651
 9322SOL    HW229255   6.688   4.213   7.543 -1.5961 -0.5545 -1.1021
 9323SOL     OW29256   0.547   4.398   5.489  0.2839  0.4108 -0.2705
 9323SOL    HW129257   0.484   4.458   5.449  0.4167 -0.0440 -1.1801
 9323SOL    HW229258   0.508   4.311   5.478  0.7825  0.1882 -0.2798
 9324SOL     OW29259   1.457   6.330   5.785  0.3845  0.0936  0.0736
 9324SOL    HW129260   1.438   6.342   5.878  0.6228 -1.1013  0.2988
 9324SOL    HW229261   1.396   6.261   5.757  1.1821 -0.4678 -0.3275
 9325SOL     OW29262   2.896   2.001   2.134 -1.0209 -0.2480 -0.7267
 9325SOL    HW129263   2.833   2.058   2.091 -1.3147  0.5233  0.6707
 9325SOL    HW229264   2.974   2.055   2.145 -1.1912 -0.1842  0.3200
 9326SOL     OW29265   6.276   2.579   0.223 -0.2445  0.1537  0.5678
 9326SOL    HW129266   6.274   2.525   0.302 -1.0028 -0.4581  0.1477
 9326SOL    HW229267   6.258   2.668   0.255 -1.9340 -0.2872  0.9458
 9327SOL     OW29268   7.373   4.473   1.047 -0.1687  0.4280 -0.4235
 9327SOL    HW129269   7.353   4.461   1.139 -2.1490  2.8737 -0.4336
 9327SOL    HW229270   7.309   4.419   1.001 -0.4462  0.7003 -0.3619
 9328SOL     OW29271   3.142   1.375   6.061  0.0502 -0.1448  0.5211
 9328SOL    HW129272   3.155   1.378   6.156  0.9163 -0.4007  0.4232
 9328SOL    HW229273   3.230   1.383   6.025 -0.3948  1.2441 -0.3026
 9329SOL     OW29274   8.040   5.758   6.041  0.4226  0.0442  0.4836
 9329SOL    HW129275   8.062   5.685   6.099  1.9023  0.7793  0.8869
 9329SOL    HW229276   8.095   5.745   5.964  1.2665  1.1266  0.8818
 9330SOL     OW29277   4.801   5.918   4.194 -0.1465  0.7866  0.3311
 9330SOL    HW129278   4.722   5.933   4.245  0.2788  0.7750  0.9968
 9330SOL    HW229279   4.817   6.000   4.148 -0.3468  0.8985  0.4633
 9331SOL     OW29280   7.976   5.295   2.127 -0.1613  0.6784  0.0250
 9331SOL    HW129281   8.016   5.382   2.116 -1.9105  1.6715  1.0776
 9331SOL    HW229282   7.889   5.313   2.163  0.1504 -1.5872  2.2147
 9332SOL     OW29283   2.832   6.970   5.367 -0.1352 -0.1304  0.9033
 9332SOL    HW129284   2.916   6.950   5.327 -1.0459 -1.1538 -0.5747
 9332SOL    HW229285   2.826   6.910   5.442 -0.7472 -2.1148 -0.6701
 9333SOL     OW29286   6.725   2.393   8.303 -0.3085 -0.3911 -0.4826
 9333SOL    HW129287   6.758   2.353   8.383  3.1231  2.2624 -0.3184
 9333SOL    HW229288   6.663   2.459   8.333 -0.1810 -0.4315 -0.1229
 9334SOL     OW29289   3.512   2.880   6.835 -0.3519 -0.9501  0.1153
 9334SOL    HW129290   3.452   2.955   6.836 -0.1554 -0.7798  1.9086
 9334SOL    HW229291   3.476   2.822   6.768 -1.6891 -0.1755  0.1242
 9335SOL     OW29292   5.481   0.707   6.280  0.6446  0.3455  0.2292
 9335SOL    HW129293   5.568   0.673   6.299  0.3153 -0.8698 -0.3310
 9335SOL    HW229294   5.421   0.640   6.314 -0.0005 -0.1712 -1.7736
 9336SOL     OW29295   1.710   5.436   6.638  0.1104  0.1460  0.3197
 9336SOL    HW129296   1.671   5.364   6.688 -1.0669  1.6863  1.7116
 9336SOL    HW229297   1.717   5.508   6.701  1.3370  1.2292 -1.0077
 9337SOL     OW29298   6.802   5.939   6.501 -0.3757 -0.1441 -0.3402
 9337SOL    HW129299   6.780   5.873   6.436  1.0991 -1.4066  0.3848
 9337SOL    HW229300   6.808   5.891   6.584 -1.0315  1.2198  0.5426
 9338SOL     OW29301   6.263   6.060   5.917 -0.1076 -0.1852  0.0078
 9338SOL    HW129302   6.262   6.012   5.999 -0.4714 -1.6141 -0.7996
 9338SOL    HW229303   6.325   6.012   5.862 -1.3025 -0.4158 -1.1892
 9339SOL     OW29304   0.357   8.176   1.550  0.1480  0.1263 -0.7277
 9339SOL    HW129305   0.337   8.112   1.482 -1.8919 -1.0312  0.8704
 9339SOL    HW229306   0.438   8.144   1.590 -0.7522 -1.3535 -0.0719
 9340SOL     OW29307   2.800   7.770   0.975  0.1553 -0.0158  0.1058
 9340SOL    HW129308   2.803   7.766   1.070  0.0974  3.3414  0.3814
 9340SOL    HW229309   2.879   7.820   0.951 -0.9470  1.1273 -1.3637
 9341SOL     OW29310   2.231   3.486   6.275  0.5667 -0.2769 -0.0454
 9341SOL    HW129311   2.314   3.532   6.265  0.6408 -0.7195 -1.8772
 9341SOL    HW229312   2.173   3.549   6.315  1.2515  0.7015 -0.5532
 9342SOL     OW29313   6.613   4.478   7.077  0.1121 -0.0422 -0.0420
 9342SOL    HW129314   6.561   4.499   7.155  0.0322 -1.0961  0.2149
 9342SOL    HW229315   6.554   4.496   7.004 -0.4963 -0.8247  0.2324
 9343SOL     OW29316   3.645   2.482   1.417  0.5580  0.1586  0.3192
 9343SOL    HW129317   3.696   2.563   1.412  0.4744  0.2834  1.1916
 9343SOL    HW229318   3.633   2.455   1.326 -1.6955  2.5710 -0.2391
 9344SOL     OW29319   6.033   6.893   3.243 -0.0413 -0.5105 -0.7027
 9344SOL    HW129320   6.012   6.803   3.270  1.1975 -0.8725 -0.8886
 9344SOL    HW229321   5.968   6.912   3.174 -0.4343 -1.1930 -0.5348
 9345SOL     OW29322   1.211   0.052   5.502  0.2251 -0.3984 -0.3408
 9345SOL    HW129323   1.137   0.027   5.556  0.4557  1.9207  1.1811
 9345SOL    HW229324   1.273  -0.020   5.512  0.2708 -0.0762  2.6080
 9346SOL     OW29325   1.175   5.582   3.461 -0.4017 -0.5550 -0.5411
 9346SOL    HW129326   1.174   5.508   3.523 -2.3286 -0.6198 -0.5893
 9346SOL    HW229327   1.094   5.630   3.480  0.9581  1.7632 -0.3036
 9347SOL     OW29328   2.117   3.621   2.514 -0.1541  0.1898 -0.1540
 9347SOL    HW129329   2.187   3.654   2.570 -0.6520  0.7091  0.1738
 9347SOL    HW229330   2.050   3.590   2.574  0.1863 -1.2417 -0.4513
 9348SOL     OW29331   3.012   5.043   4.310  0.1525  0.2303  0.1533
 9348SOL    HW129332   3.040   5.056   4.219  0.2148 -0.0821  0.1297
 9348SOL    HW229333   3.092   5.019   4.357  0.2956  1.2537  0.4672
 9349SOL     OW29334   0.978   7.114   3.532  0.5640  0.1224  0.1536
 9349SOL    HW129335   0.951   7.173   3.461 -0.7707  1.4558  1.6669
 9349SOL    HW229336   1.073   7.123   3.536  0.6446  0.2210 -1.2591
 9350SOL     OW29337   2.493   5.854   0.747 -0.5211  0.4003 -0.0768
 9350SOL    HW129338   2.527   5.879   0.833  1.1184  1.8870 -1.0856
 9350SOL    HW229339   2.484   5.937   0.700 -1.2703 -0.3956 -1.3927
 9351SOL     OW29340   7.176   4.784   4.099 -0.3539 -0.0009 -0.6262
 9351SOL    HW129341   7.180   4.879   4.095  0.1752  0.2744  2.9473
 9351SOL    HW229342   7.083   4.764   4.085 -1.0448  1.3808  1.5045
 9352SOL     OW29343   3.773   0.016   4.303  1.1970 -0.0299 -0.2860
 9352SOL    HW129344   3.711  -0.047   4.267  1.3538  0.0779 -0.7433
 9352SOL    HW229345   3.750   0.022   4.396 -0.3587  1.0224 -0.7095
 9353SOL     OW29346   3.510   3.040   6.481  0.4007 -0.5397  0.1021
 9353SOL    HW129347   3.446   3.108   6.460  2.1378  0.7252 -1.4983
 9353SOL    HW229348   3.458   2.962   6.497 -1.5233  0.0239 -2.6693
 9354SOL     OW29349   7.728   1.251   5.149  0.2105  0.3231  0.3445
 9354SOL    HW129350   7.647   1.298   5.173  1.9926  3.2393  1.1815
 9354SOL    HW229351   7.773   1.238   5.233 -0.4282 -3.6401  0.2374
 9355SOL     OW29352   1.698   5.187   5.721  0.1357 -0.5443  0.2603
 9355SOL    HW129353   1.615   5.216   5.684 -0.9813 -3.0166  0.6451
 9355SOL    HW229354   1.757   5.180   5.646 -1.5587 -3.7139 -0.9199
 9356SOL     OW29355   4.058   2.987   7.549  0.0598 -0.0325 -0.2804
 9356SOL    HW129356   4.025   2.902   7.578  1.0738 -0.5137 -0.4823
 9356SOL    HW229357   4.111   3.019   7.622 -1.0326  0.8594  0.1524
 9357SOL     OW29358   8.101   4.061   7.199 -0.5128  1.2654  0.4270
 9357SOL    HW129359   8.065   4.149   7.206 -3.1199  0.2296  1.3646
 9357SOL    HW229360   8.107   4.030   7.290  0.4462  0.5018  0.1200
 9358SOL     OW29361   8.649   1.548   7.464  0.0398  0.3224 -0.2936
 9358SOL    HW129362   8.691   1.516   7.384 -1.3540  0.7505 -1.2492
 9358SOL    HW229363   8.621   1.469   7.510 -0.1294  0.0749 -0.8060
 9359SOL     OW29364   3.703   8.308   7.058  0.3022  0.5255  0.0134
 9359SOL    HW129365   3.725   8.255   6.981  0.7871 -0.1339  0.5918
 9359SOL    HW229366   3.776   8.369   7.067 -0.0051  0.9496 -0.3494
 9360SOL     OW29367   1.630   4.790   3.154 -0.3619  0.1691 -0.1242
 9360SOL    HW129368   1.603   4.879   3.132 -0.5611 -0.3821 -2.3823
 9360SOL    HW229369   1.549   4.746   3.180 -1.0849 -0.3604 -2.9017
 9361SOL     OW29370   5.343   7.343   3.866 -0.0325 -0.2128 -0.9591
 9361SOL    HW129371   5.357   7.249   3.861 -2.1644 -0.7248  1.0677
 9361SOL    HW229372   5.410   7.380   3.808  2.4631 -2.8070  0.0065
 9362SOL     OW29373   7.286   2.407   7.739 -0.1420  0.5448 -0.2484
 9362SOL    HW129374   7.267   2.374   7.651 -2.3097  0.1256  0.3250
 9362SOL    HW229375   7.360   2.467   7.727  0.0373 -0.0208 -2.2351
 9363SOL     OW29376   7.155   8.110   3.114 -0.0924  0.3883  0.7736
 9363SOL    HW129377   7.084   8.146   3.061 -0.1802 -0.6913  0.1273
 9363SOL    HW229378   7.235   8.149   3.078 -0.2175  0.2445  0.3412
 9364SOL     OW29379   4.795   5.957   5.593 -0.1134  0.2660 -0.1786
 9364SOL    HW129380   4.861   6.024   5.610  1.2996 -0.9673 -0.5816
 9364SOL    HW229381   4.767   5.927   5.680 -0.4670  1.0669 -0.0052
 9365SOL     OW29382   2.437   1.148   2.014  0.0483 -0.2861  0.0866
 9365SOL    HW129383   2.399   1.115   2.095 -1.4814  0.8469 -0.1340
 9365SOL    HW229384   2.417   1.241   2.014  2.2252  0.2504 -0.4208
 9366SOL     OW29385   7.367   6.292   3.123  0.1718 -0.7280 -0.1793
 9366SOL    HW129386   7.436   6.336   3.073 -1.7602  1.1651 -1.3571
 9366SOL    HW229387   7.413   6.223   3.172  3.0185  1.0024 -0.1670
 9367SOL     OW29388   6.970   2.169   1.358  0.1740  0.2365  0.1137
 9367SOL    HW129389   7.018   2.218   1.291  0.1910  1.2513  0.8393
 9367SOL    HW229390   7.034   2.156   1.428 -0.3549  0.8774  0.7379
 9368SOL     OW29391   0.732   8.558   7.878 -0.3113  0.2913  0.8952
 9368SOL    HW129392   0.661   8.497   7.894  0.6039 -0.3259  2.8282
 9368SOL    HW229393   0.794   8.543   7.949  0.8250  2.1840  0.3854
 9369SOL     OW29394   6.083   5.972   1.706 -0.3370 -0.2388 -0.3721
 9369SOL    HW129395   6.022   6.046   1.707  0.6776  0.6551 -1.8874
 9369SOL    HW229396   6.028   5.896   1.725 -1.6216  0.7312 -0.0544
 9370SOL     OW29397   7.243   8.601   6.055  0.1818 -0.4970 -0.2084
 9370SOL    HW129398   7.292   8.616   5.974  1.3061 -1.6834  0.2199
 9370SOL    HW229399   7.307   8.614   6.125 -0.3932 -0.9666  0.4198
 9371SOL     OW29400   8.067   7.523   3.930 -0.6347  0.1161  0.4050
 9371SOL    HW129401   8.013   7.583   3.982 -1.6447 -0.5139  0.0970
 9371SOL    HW229402   8.013   7.445   3.920  0.3897 -0.5744  0.1907
 9372SOL     OW29403   3.996   4.593   0.444 -0.2399  0.2377  0.7947
 9372SOL    HW129404   4.007   4.686   0.423 -0.4045 -0.0682 -0.7541
 9372SOL    HW229405   3.905   4.587   0.474  0.1825  0.7885  2.2737
 9373SOL     OW29406   0.919   8.437   5.125 -0.3477 -0.0659 -0.5070
 9373SOL    HW129407   0.988   8.488   5.083 -0.9817  1.2116 -0.0577
 9373SOL    HW229408   0.965   8.365   5.168  0.6080  0.2958 -0.8974
 9374SOL     OW29409   3.315   7.031   4.274 -0.4634 -0.1709 -0.1398
 9374SOL    HW129410   3.336   6.961   4.335  0.1488 -1.5217 -1.8196
 9374SOL    HW229411   3.249   6.993   4.216 -0.5976  0.8632 -0.6978
 9375SOL     OW29412   7.570   0.757   2.583  0.1764 -0.1612 -0.5233
 9375SOL    HW129413   7.601   0.814   2.512  0.7062  0.6621  0.3427
 9375SOL    HW229414   7.477   0.778   2.592 -0.2579 -1.3201 -1.9133
 9376SOL     OW29415   6.857   3.039   3.326 -0.3029  0.3460  0.3815
 9376SOL    HW129416   6.917   3.101   3.284  0.4632 -1.0008 -0.5819
 9376SOL    HW229417   6.785   3.030   3.263  0.1739 -0.6193 -0.0557
 9377SOL     OW29418   4.066   3.531   4.304 -0.1354 -0.2484 -0.6687
 9377SOL    HW129419   4.021   3.475   4.367 -0.3517 -0.5955 -1.1262
 9377SOL    HW229420   4.158   3.504   4.308 -0.3601 -1.1972 -1.4524
 9378SOL     OW29421   1.608   2.374   8.009 -0.7504 -0.0489  0.1057
 9378SOL    HW129422   1.691   2.330   7.991  0.0443  2.0461 -1.7793
 9378SOL    HW229423   1.619   2.409   8.098 -0.1644 -0.8985  0.3838
 9379SOL     OW29424   1.422   3.011   7.664 -0.0988  0.1165 -0.1002
 9379SOL    HW129425   1.340   2.964   7.646 -0.5333  0.2715  1.3093
 9379SOL    HW229426   1.467   3.015   7.580  0.1748 -3.2360 -0.2645
 9380SOL     OW29427   7.384   8.450   6.461  0.7083 -0.3620  0.4075
 9380SOL    HW129428   7.449   8.399   6.510  1.2893 -0.4901 -0.4641
 9380SOL    HW229429   7.304   8.443   6.512  1.0430 -1.3076  0.8316
 9381SOL     OW29430   2.647   2.990   7.766  0.9746 -0.3942 -0.2279
 9381SOL    HW129431   2.690   2.905   7.763  0.9987 -0.3841 -0.1699
 9381SOL    HW229432   2.616   3.004   7.677  1.1204 -0.3861 -0.2780
 9382SOL     OW29433   0.030   3.276   3.780  0.0628  0.1918  0.2895
 9382SOL    HW129434  -0.047   3.278   3.724  0.0218 -0.9713  0.2835
 9382SOL    HW229435   0.015   3.203   3.840  0.9864  0.1842  0.5337
 9383SOL     OW29436   0.044   4.149   5.164 -0.1273  0.2679  0.2704
 9383SOL    HW129437   0.096   4.221   5.199  0.0675  0.6126 -0.6779
 9383SOL    HW229438  -0.023   4.192   5.110  0.4448 -0.2633 -0.9064
 9384SOL     OW29439   6.105   3.314   5.861  0.3320  0.4676  0.7881
 9384SOL    HW129440   6.065   3.390   5.903  0.5888  0.8002  0.4344
 9384SOL    HW229441   6.079   3.240   5.916 -1.6645  0.5180 -0.0036
 9385SOL     OW29442   4.342   1.564   2.293  0.8037 -0.1098 -0.2409
 9385SOL    HW129443   4.372   1.532   2.208  0.4556  0.9762 -0.7973
 9385SOL    HW229444   4.402   1.636   2.314 -0.1469  0.7687 -0.4212
 9386SOL     OW29445   5.846   7.833   3.006 -0.0773  0.8747 -0.3734
 9386SOL    HW129446   5.802   7.797   3.084 -1.5651 -0.7166 -1.8623
 9386SOL    HW229447   5.790   7.905   2.978 -1.9329 -1.1472 -2.2653
 9387SOL     OW29448   5.114   3.508   7.095  0.5629 -0.7444 -0.5900
 9387SOL    HW129449   5.046   3.442   7.077  0.0725 -0.4394  0.0961
 9387SOL    HW229450   5.177   3.497   7.024 -0.3654 -0.8293 -1.4305
 9388SOL     OW29451   6.908   0.490   7.580 -0.0905 -0.2684  0.2188
 9388SOL    HW129452   6.821   0.488   7.620 -0.1054 -0.0023  0.2017
 9388SOL    HW229453   6.966   0.519   7.651 -0.1808  0.6489 -0.0581
 9389SOL     OW29454   0.179   1.693   5.464  0.1655  0.0812  0.6856
 9389SOL    HW129455   0.129   1.644   5.529 -0.4045 -0.4503 -0.1217
 9389SOL    HW229456   0.133   1.777   5.457  0.0443  0.0202  0.7493
 9390SOL     OW29457   2.849   3.599   4.116 -0.2412  0.0084 -0.2466
 9390SOL    HW129458   2.867   3.594   4.022 -0.5638 -0.6118 -0.2821
 9390SOL    HW229459   2.928   3.636   4.154  0.3867 -0.9199 -0.6114
 9391SOL     OW29460   7.600   6.714   1.978 -0.2406  0.3177 -0.0516
 9391SOL    HW129461   7.655   6.692   2.053  0.7780  1.9319 -0.2672
 9391SOL    HW229462   7.512   6.691   2.005  0.3373 -0.8735  0.9087
 9392SOL     OW29463   0.341   3.829   1.468 -0.5933  0.8627  0.1405
 9392SOL    HW129464   0.253   3.799   1.443 -0.3663  1.4101 -1.4080
 9392SOL    HW229465   0.379   3.862   1.387  0.8910  1.0494  0.8823
 9393SOL     OW29466   6.736   6.457   0.965 -0.6263  0.7023 -0.0334
 9393SOL    HW129467   6.664   6.481   0.907 -0.9621 -1.7221 -0.7241
 9393SOL    HW229468   6.697   6.449   1.051 -1.1780 -0.4057 -0.3699
 9394SOL     OW29469   5.921   1.045   5.965 -0.3607  0.6378  0.2090
 9394SOL    HW129470   5.871   1.114   5.922 -2.1691  0.3448  1.7293
 9394SOL    HW229471   5.970   1.090   6.033  0.7178  0.7781 -0.6289
 9395SOL     OW29472   0.221   4.461   7.582 -0.5386 -0.0140 -0.3382
 9395SOL    HW129473   0.287   4.525   7.611  0.4955 -0.6771 -1.1679
 9395SOL    HW229474   0.192   4.419   7.663 -1.4924  1.7040  0.2710
 9396SOL     OW29475   3.706   3.766   2.549  0.5184  1.0112  0.1198
 9396SOL    HW129476   3.712   3.853   2.511 -1.9846  1.5077  0.6735
 9396SOL    HW229477   3.690   3.708   2.474 -1.0083  1.5150  0.0210
 9397SOL     OW29478   6.498   0.826   2.268  0.3473 -0.1871 -0.7803
 9397SOL    HW129479   6.488   0.921   2.271  0.9214 -0.1042 -1.2209
 9397SOL    HW229480   6.446   0.794   2.341  0.6152  0.5103 -0.2650
 9398SOL     OW29481   2.214   3.998   1.513 -0.0338  0.0633 -0.0340
 9398SOL    HW129482   2.234   3.910   1.481  1.1539 -0.2091  1.3385
 9398SOL    HW229483   2.207   4.052   1.434  1.3429 -0.8447 -0.8175
 9399SOL     OW29484   6.680   2.706   3.290  0.3306 -0.3454 -0.1472
 9399SOL    HW129485   6.693   2.677   3.381 -0.2611  0.1018  0.0893
 9399SOL    HW229486   6.766   2.737   3.262  0.4179 -0.0647  0.4180
 9400SOL     OW29487   0.925   4.844   1.817  0.4505 -0.0859 -0.3585
 9400SOL    HW129488   0.965   4.877   1.897  0.8127  1.2152 -1.0475
 9400SOL    HW229489   0.831   4.858   1.829  0.5479  0.6131 -0.3637
 9401SOL     OW29490   4.887   2.156   4.777  0.1305  0.4355 -0.1265
 9401SOL    HW129491   4.824   2.180   4.709  0.1245  1.6169  0.2699
 9401SOL    HW229492   4.973   2.168   4.736  0.1482  2.0063  0.3126
 9402SOL     OW29493   2.125   3.134   1.852  0.0848  0.2746  0.1607
 9402SOL    HW129494   2.067   3.060   1.835 -1.2652  1.6585 -1.6785
 9402SOL    HW229495   2.089   3.175   1.931 -1.7801  1.2982 -1.1232
 9403SOL     OW29496   7.561   7.476   6.217 -0.3569  0.5175  0.4379
 9403SOL    HW129497   7.476   7.497   6.256 -0.5820 -0.9922  0.8461
 9403SOL    HW229498   7.541   7.457   6.125 -0.0697  2.4907 -0.0754
 9404SOL     OW29499   4.127   5.455   3.138 -0.1595 -0.1824 -0.0307
 9404SOL    HW129500   4.035   5.462   3.162  0.1777  1.1199  1.0023
 9404SOL    HW229501   4.154   5.546   3.120  1.0153 -0.5023  0.0331
 9405SOL     OW29502   8.392   1.886   8.301 -0.0049  0.0368 -0.2774
 9405SOL    HW129503   8.320   1.949   8.300 -0.3839 -0.3487  1.0436
 9405SOL    HW229504   8.469   1.937   8.325 -0.3155  0.0139  0.8177
 9406SOL     OW29505   1.898   6.778   0.498 -0.1148 -0.2903  0.1045
 9406SOL    HW129506   1.971   6.815   0.449  0.4092 -1.1396  0.2312
 9406SOL    HW229507   1.931   6.769   0.587 -1.1687  1.5560  0.7524
 9407SOL     OW29508   0.707   2.886   2.139  0.0516  0.3877 -0.2372
 9407SOL    HW129509   0.725   2.844   2.224  0.1299  0.1447 -0.3711
 9407SOL    HW229510   0.784   2.867   2.086 -0.7486 -1.0283 -0.9599
 9408SOL     OW29511   1.227   8.071   8.282  0.0943 -0.0643  0.3369
 9408SOL    HW129512   1.203   8.019   8.205  1.4976 -1.5878  0.8563
 9408SOL    HW229513   1.150   8.066   8.339 -0.7879  0.7028 -0.7331
 9409SOL     OW29514   7.364   6.540   5.637  0.6837  0.8950 -0.0169
 9409SOL    HW129515   7.403   6.622   5.667  1.4120  1.0608 -1.2926
 9409SOL    HW229516   7.316   6.564   5.558  2.9532 -0.2165 -1.8805
 9410SOL     OW29517   8.502   4.696   3.064 -0.0268 -0.0570  0.2478
 9410SOL    HW129518   8.461   4.783   3.058  0.7389  0.3331  0.5821
 9410SOL    HW229519   8.496   4.673   3.156 -1.1388 -0.8230  0.0077
 9411SOL     OW29520   3.968   4.698   6.909 -0.1109  0.0127 -0.2006
 9411SOL    HW129521   3.884   4.735   6.937 -0.1441  0.1607 -0.4869
 9411SOL    HW229522   3.965   4.704   6.813 -0.4560 -1.4299 -0.3133
 9412SOL     OW29523   3.347   2.754   5.991 -0.3129  0.3875  0.8173
 9412SOL    HW129524   3.265   2.737   6.037 -1.1597  0.3936 -0.6412
 9412SOL    HW229525   3.356   2.849   5.992 -0.5363  0.4092  0.6010
 9413SOL     OW29526   4.530   5.064   0.523 -0.1610  0.0350  0.0812
 9413SOL    HW129527   4.562   4.977   0.550 -0.5344 -0.2847 -0.4799
 9413SOL    HW229528   4.532   5.116   0.603  1.4201 -0.0766  0.1483
 9414SOL     OW29529   2.923   5.030   3.771  0.2251  0.4486  0.0469
 9414SOL    HW129530   2.864   4.957   3.751 -1.3983  2.1567 -1.9693
 9414SOL    HW229531   2.919   5.038   3.866  1.3141 -2.6765  0.4860
 9415SOL     OW29532   7.577   0.171   5.180 -0.3971 -0.4559  0.0859
 9415SOL    HW129533   7.489   0.132   5.180 -0.2608 -0.8445  1.7080
 9415SOL    HW229534   7.631   0.107   5.134 -0.3133 -1.9917  2.1433
 9416SOL     OW29535   2.298   1.726   5.890 -0.3312 -0.0505 -0.0833
 9416SOL    HW129536   2.389   1.756   5.898 -0.3383  0.4561 -1.6564
 9416SOL    HW229537   2.275   1.743   5.799 -1.7687 -0.8809  0.1015
 9417SOL     OW29538   1.849   2.028   8.190  0.5876 -0.0616 -0.1710
 9417SOL    HW129539   1.881   1.944   8.158 -1.1942 -0.8933  0.0885
 9417SOL    HW229540   1.801   2.065   8.116 -0.2039 -0.1604  0.2757
 9418SOL     OW29541   4.877   3.605   1.495 -0.7377  0.3058 -0.1954
 9418SOL    HW129542   4.906   3.538   1.433  0.5471  1.5445 -0.9945
 9418SOL    HW229543   4.926   3.683   1.471  0.2247  0.7320  2.7128
 9419SOL     OW29544   0.478   5.436   2.332 -0.2631  1.4919 -0.3099
 9419SOL    HW129545   0.422   5.415   2.407 -0.2543  0.6275 -0.5365
 9419SOL    HW229546   0.532   5.358   2.319 -0.6758  1.3966 -1.5754
 9420SOL     OW29547   7.925   8.387   3.456  0.1700  0.5475  0.5638
 9420SOL    HW129548   7.910   8.446   3.530 -1.4807  0.7103  0.1570
 9420SOL    HW229549   7.872   8.425   3.385  0.5365 -0.4171 -0.2486
 9421SOL     OW29550   5.396   5.927   3.254 -0.1462  0.6757 -0.1853
 9421SOL    HW129551   5.305   5.916   3.227  0.2890  0.5644 -1.7076
 9421SOL    HW229552   5.393   5.928   3.350 -2.0313  3.0104 -0.1593
 9422SOL     OW29553   6.182   2.733   3.907 -0.4576  0.0241 -0.0711
 9422SOL    HW129554   6.125   2.733   3.830 -0.8094  0.6825  0.1881
 9422SOL    HW229555   6.266   2.700   3.875 -0.6657  0.0929 -0.6902
 9423SOL     OW29556   2.471   5.963   8.636 -0.4501 -1.0441 -1.3194
 9423SOL    HW129557   2.378   5.940   8.627 -0.5171 -0.3255 -2.6562
 9423SOL    HW229558   2.508   5.950   8.549  1.0782 -2.7572 -0.5062
 9424SOL     OW29559   1.785   7.372   4.045 -0.1049 -0.6852  0.0227
 9424SOL    HW129560   1.754   7.442   4.103 -0.1525 -0.0746 -0.7316
 9424SOL    HW229561   1.868   7.403   4.011 -0.3895 -0.7415 -0.7532
 9425SOL     OW29562   2.466   5.129   7.865  0.3165  0.4699 -0.4183
 9425SOL    HW129563   2.513   5.161   7.788  0.2848 -0.5079 -0.8581
 9425SOL    HW229564   2.476   5.033   7.862  0.2970  0.4075  0.7811
 9426SOL     OW29565   7.044   8.542   5.713  0.2384 -0.4047 -0.1330
 9426SOL    HW129566   7.026   8.468   5.656  0.7778 -0.6063 -0.0401
 9426SOL    HW229567   7.041   8.619   5.655  0.6093 -0.5897 -0.3952
 9427SOL     OW29568   4.397   8.106   0.896 -0.4660  0.0489  0.4897
 9427SOL    HW129569   4.320   8.065   0.857  0.2675 -0.8188 -0.0913
 9427SOL    HW229570   4.373   8.199   0.904 -1.9499 -0.3759  1.3076
 9428SOL     OW29571   5.693   4.753   7.421 -0.1708  0.3491  0.0933
 9428SOL    HW129572   5.637   4.824   7.390 -1.5001 -0.7416 -0.1612
 9428SOL    HW229573   5.727   4.783   7.505 -0.0542  1.5938 -0.3821
 9429SOL     OW29574   0.777   1.269   4.130  0.3022  0.0681 -0.2336
 9429SOL    HW129575   0.715   1.329   4.171  0.9225  1.2276 -0.9306
 9429SOL    HW229576   0.723   1.200   4.093 -0.3227 -0.6870  1.9341
 9430SOL     OW29577   8.537   7.638   1.722  0.4925 -0.0788  0.2126
 9430SOL    HW129578   8.591   7.665   1.795 -0.5762  1.2021  0.5764
 9430SOL    HW229579   8.459   7.600   1.762 -0.4113  1.2547 -0.1965
 9431SOL     OW29580   3.934   0.698   7.437 -0.3139  0.1781  0.0847
 9431SOL    HW129581   3.856   0.737   7.475 -0.2913 -0.8228  1.2123
 9431SOL    HW229582   4.003   0.763   7.451 -0.2376 -0.2600  2.1028
 9432SOL     OW29583   6.922   6.035   1.423  0.0679  0.6189  0.8535
 9432SOL    HW129584   6.953   6.027   1.513  1.5473  0.1737  0.3399
 9432SOL    HW229585   6.962   6.116   1.390  0.0289  0.4652  0.4137
 9433SOL     OW29586   8.012   2.196   1.619  0.1636 -0.6706 -0.4767
 9433SOL    HW129587   8.102   2.203   1.587  0.4192 -0.1458  0.3247
 9433SOL    HW229588   7.998   2.102   1.630  1.1721 -0.7077  0.8576
 9434SOL     OW29589   2.847   3.375   5.848 -0.1622  0.2178  0.0721
 9434SOL    HW129590   2.775   3.388   5.909 -1.0730  0.2036 -0.9800
 9434SOL    HW229591   2.806   3.372   5.761  0.9499 -1.0796 -0.4522
 9435SOL     OW29592   0.925   0.533   6.152 -0.4152 -0.1125 -0.0713
 9435SOL    HW129593   0.970   0.515   6.070  0.6661 -0.4058  0.5604
 9435SOL    HW229594   0.843   0.484   6.146 -0.4309  0.0146 -1.0402
 9436SOL     OW29595   7.591   0.092   5.705  0.0598 -0.2910 -0.6564
 9436SOL    HW129596   7.643   0.151   5.759 -0.3023 -0.6009  0.0408
 9436SOL    HW229597   7.647   0.074   5.629  0.9601 -0.5749  0.0452
 9437SOL     OW29598   1.466   6.672   5.390  0.0836 -0.3532  0.2950
 9437SOL    HW129599   1.414   6.611   5.443  0.1435 -0.1227  0.6212
 9437SOL    HW229600   1.474   6.751   5.445  1.1111 -0.5255  0.4155
 9438SOL     OW29601   2.519   6.954   0.869  0.3330  0.0171  0.0562
 9438SOL    HW129602   2.598   6.970   0.818  0.3846 -0.4137 -0.0003
 9438SOL    HW229603   2.502   7.037   0.913 -1.5742  1.5346 -3.1851
 9439SOL     OW29604   1.890   6.327   2.585  0.2670 -0.2573  0.1412
 9439SOL    HW129605   1.853   6.341   2.498 -1.0413 -1.8397  0.3845
 9439SOL    HW229606   1.955   6.397   2.596  0.1302  0.2426 -1.9015
 9440SOL     OW29607   7.165   6.472   6.733 -0.1642 -0.0964  0.0222
 9440SOL    HW129608   7.090   6.500   6.784  1.3585  3.0891  0.7804
 9440SOL    HW229609   7.216   6.418   6.793 -0.4089  0.1892  0.4934
 9441SOL     OW29610   6.466   5.861   1.324  0.2247  0.5576 -0.3294
 9441SOL    HW129611   6.543   5.917   1.336  1.2951 -1.1283  1.3016
 9441SOL    HW229612   6.424   5.894   1.244  2.1996  2.0351 -0.8389
 9442SOL     OW29613   6.094   3.110   3.444 -0.4262  0.3007  0.1804
 9442SOL    HW129614   5.999   3.113   3.441 -0.4949 -0.9398  0.7038
 9442SOL    HW229615   6.117   3.153   3.526 -0.3104  3.5507 -1.3864
 9443SOL     OW29616   7.621   4.751   7.766 -0.0973  0.4156 -0.0064
 9443SOL    HW129617   7.602   4.778   7.676 -0.3244 -0.0513 -0.1038
 9443SOL    HW229618   7.617   4.655   7.763  0.2704  0.3838  0.4189
 9444SOL     OW29619   1.139   4.979   1.677 -0.3418 -0.0243  0.1649
 9444SOL    HW129620   1.061   4.925   1.691  0.4661 -1.1696  0.4341
 9444SOL    HW229621   1.186   4.935   1.607  1.5410 -1.1266  1.9968
 9445SOL     OW29622   6.169   0.957   4.925 -0.3639 -0.2248  0.2111
 9445SOL    HW129623   6.241   0.941   4.986 -0.6453  0.5541  0.7601
 9445SOL    HW229624   6.106   0.888   4.944 -0.2242 -0.2860  0.4584
 9446SOL     OW29625   2.927   6.327   3.199 -0.1256 -0.3650 -0.0266
 9446SOL    HW129626   2.992   6.375   3.148  0.0244 -0.9953 -0.4373
 9446SOL    HW229627   2.857   6.391   3.216  0.4774  0.2415  0.2024
 9447SOL     OW29628   6.280   7.616   0.125 -0.5930  0.4497  0.4455
 9447SOL    HW129629   6.332   7.537   0.111 -1.3622 -0.2102  1.1487
 9447SOL    HW229630   6.341   7.688   0.115  0.7756 -0.3248  2.5239
 9448SOL     OW29631   5.084   7.067   4.570  0.1334 -0.3345 -0.0192
 9448SOL    HW129632   5.039   7.145   4.601  0.5939 -0.2209  0.3820
 9448SOL    HW229633   5.017   7.017   4.524 -0.1196  0.3768 -0.4366
 9449SOL     OW29634   1.518   4.734   8.059  0.3657  0.3422  0.8274
 9449SOL    HW129635   1.552   4.738   8.149  1.2464  0.0535  0.5231
 9449SOL    HW229636   1.524   4.641   8.036  1.2599  0.5758  0.0662
 9450SOL     OW29637   1.769   5.792   5.597  0.7972  0.3538  0.3246
 9450SOL    HW129638   1.758   5.836   5.512 -1.9348 -2.4168 -0.9671
 9450SOL    HW229639   1.863   5.799   5.615  1.0249  3.7499 -1.2921
 9451SOL     OW29640   4.465   6.762   7.759 -0.3082 -0.5537  0.1222
 9451SOL    HW129641   4.439   6.802   7.841 -0.1899  0.6800 -0.4176
 9451SOL    HW229642   4.388   6.713   7.730 -0.7342 -0.0675  0.4162
 9452SOL     OW29643   0.032   2.576   4.332  0.5977  0.4325 -0.3395
 9452SOL    HW129644   0.094   2.586   4.405 -1.9371 -1.2439  2.2481
 9452SOL    HW229645   0.019   2.481   4.324 -0.2636  0.6529 -2.0501
 9453SOL     OW29646   4.530   2.842   7.507  0.1786  0.1222  0.2494
 9453SOL    HW129647   4.545   2.748   7.498  0.4080  0.2917 -1.3875
 9453SOL    HW229648   4.569   2.865   7.592 -0.1717 -1.2928  0.8155
 9454SOL     OW29649   2.548   0.426   6.564  0.1937 -0.2469  0.0487
 9454SOL    HW129650   2.585   0.507   6.598 -0.0890 -0.3422  0.6044
 9454SOL    HW229651   2.592   0.357   6.613 -0.7112 -0.3615  0.7383
 9455SOL     OW29652   1.412   7.714   1.685  0.1364 -0.4425  0.4299
 9455SOL    HW129653   1.352   7.747   1.751  0.5499 -0.1661  0.6681
 9455SOL    HW229654   1.374   7.630   1.658 -0.9900  0.2637 -0.2770
 9456SOL     OW29655   5.015   5.392   4.652  0.4556 -0.7734 -0.5689
 9456SOL    HW129656   5.102   5.431   4.641  0.0400  0.1610 -0.6635
 9456SOL    HW229657   4.955   5.467   4.648 -0.3375 -1.3837 -0.3035
 9457SOL     OW29658   6.846   4.848   4.857  0.5459  0.2201  0.0359
 9457SOL    HW129659   6.905   4.798   4.801  1.5561 -0.1739  1.4168
 9457SOL    HW229660   6.801   4.782   4.910  0.5087  0.6598  0.5564
 9458SOL     OW29661   0.258   5.882   6.453 -0.4522 -0.4370  0.3217
 9458SOL    HW129662   0.349   5.911   6.453 -0.9452  1.2488  0.9406
 9458SOL    HW229663   0.209   5.956   6.414 -1.6762 -0.7971  1.1044
 9459SOL     OW29664   7.747   6.460   1.666  0.3162  0.6796  0.0962
 9459SOL    HW129665   7.802   6.473   1.589  0.5804 -1.3550 -0.1076
 9459SOL    HW229666   7.667   6.420   1.632  0.4200 -0.1989  0.8479
 9460SOL     OW29667   6.120   0.262   7.731  0.4596  0.1097 -0.3965
 9460SOL    HW129668   6.090   0.218   7.810 -1.9722  1.2324 -0.6144
 9460SOL    HW229669   6.139   0.352   7.759  1.7690 -0.0509 -0.6862
 9461SOL     OW29670   3.112   3.263   2.022  0.4854  0.6426 -0.2834
 9461SOL    HW129671   3.128   3.229   2.110 -1.4484  0.7114  0.1403
 9461SOL    HW229672   3.093   3.186   1.969  2.4802  0.5209 -0.8723
 9462SOL     OW29673   0.111   4.012   3.805  0.2719 -0.3495  0.4206
 9462SOL    HW129674   0.206   4.017   3.817  0.5006  0.7973 -1.5975
 9462SOL    HW229675   0.088   3.924   3.836  2.1881 -1.1340 -0.2367
 9463SOL     OW29676   1.508   2.442   6.119 -0.5290  0.4332 -0.0353
 9463SOL    HW129677   1.416   2.424   6.100 -0.4238 -0.6097  0.3614
 9463SOL    HW229678   1.556   2.367   6.083  0.2810  1.4279 -1.1066
 9464SOL     OW29679   7.844   6.764   6.018  0.4319 -0.7888  0.1939
 9464SOL    HW129680   7.856   6.695   5.953  2.5212 -0.1601 -0.1449
 9464SOL    HW229681   7.888   6.733   6.096  0.4983 -0.2807  0.3639
 9465SOL     OW29682   4.172   2.166   5.924 -0.3535 -0.2996  0.1045
 9465SOL    HW129683   4.243   2.217   5.885 -1.3806  1.6243  0.5965
 9465SOL    HW229684   4.201   2.075   5.918  1.0421  0.2092 -1.9302
 9466SOL     OW29685   8.556   0.809   1.997  0.0886  0.3739 -0.8210
 9466SOL    HW129686   8.470   0.839   1.967  0.4991  2.0800 -0.4183
 9466SOL    HW229687   8.548   0.807   2.093  0.4843  0.5124 -0.7846
 9467SOL     OW29688   4.216   6.140   5.683 -0.1944 -0.1827 -0.0654
 9467SOL    HW129689   4.275   6.065   5.691  1.2259  0.9278  0.3114
 9467SOL    HW229690   4.225   6.167   5.591 -1.0973 -0.7598 -0.3356
 9468SOL     OW29691   4.796   0.646   6.565  0.5687  0.1636  0.1348
 9468SOL    HW129692   4.740   0.707   6.517  1.5437  1.1544  0.2290
 9468SOL    HW229693   4.884   0.665   6.534  0.9294 -0.9986  0.3975
 9469SOL     OW29694   8.062   5.111   2.342 -0.5650  0.5328  0.1019
 9469SOL    HW129695   8.044   5.194   2.298 -0.8276 -0.0002 -0.8443
 9469SOL    HW229696   7.977   5.065   2.342 -0.0275 -0.5534 -1.2282
 9470SOL     OW29697   2.062   5.478   4.424 -0.3193  0.0823  0.1448
 9470SOL    HW129698   2.103   5.485   4.337  0.0093 -0.2433  0.2727
 9470SOL    HW229699   2.073   5.565   4.462 -1.6697  0.6389 -0.6673
 9471SOL     OW29700   3.941   2.931   2.260  0.1502 -0.2936  0.3673
 9471SOL    HW129701   4.007   3.000   2.255  0.3533 -0.4286  1.1800
 9471SOL    HW229702   3.858   2.976   2.245  0.3599 -0.0183  0.0167
 9472SOL     OW29703   7.503   1.301   8.656  0.4054 -0.4923 -0.2814
 9472SOL    HW129704   7.445   1.327   8.727  0.6956  1.9112 -0.8362
 9472SOL    HW229705   7.449   1.249   8.597 -1.2832  1.7122 -0.8113
 9473SOL     OW29706   1.574   4.742   6.107  0.0956  0.0012 -0.2465
 9473SOL    HW129707   1.627   4.665   6.085  0.7246  1.3191 -4.0708
 9473SOL    HW229708   1.639   4.810   6.128 -0.2523  0.5097 -0.7878
 9474SOL     OW29709   2.100   0.023   5.885 -0.2658 -0.1020 -0.2140
 9474SOL    HW129710   2.073  -0.047   5.944 -0.4044 -0.1063 -0.2818
 9474SOL    HW229711   2.019   0.051   5.843  0.0388 -1.3137 -1.7191
 9475SOL     OW29712   5.798   8.255   0.917  0.0148  0.1431  0.0355
 9475SOL    HW129713   5.735   8.234   0.848 -1.3172  4.4535 -0.3616
 9475SOL    HW229714   5.882   8.261   0.870 -0.0915 -1.0916 -0.3445
 9476SOL     OW29715   5.744   1.651   3.824  0.2325 -0.0275 -0.0508
 9476SOL    HW129716   5.716   1.720   3.885  0.4461 -1.3974  1.6787
 9476SOL    HW229717   5.796   1.591   3.878 -0.2645 -1.7484 -1.3894
 9477SOL     OW29718   8.009   2.950   0.842  0.0434  0.3235  0.3791
 9477SOL    HW129719   7.967   2.953   0.927 -0.4769 -0.7969  0.1772
 9477SOL    HW229720   7.943   2.984   0.781 -0.7920 -1.7999  0.0058
 9478SOL     OW29721   0.392   3.295   2.592 -0.2600 -0.6508  0.2075
 9478SOL    HW129722   0.428   3.217   2.550  0.1663 -0.3595  0.0282
 9478SOL    HW229723   0.467   3.337   2.634 -0.0874  0.7743 -1.4370
 9479SOL     OW29724   5.370   6.511   6.559  0.1385 -0.0081 -0.0163
 9479SOL    HW129725   5.360   6.416   6.555  1.4006 -0.2151  1.1516
 9479SOL    HW229726   5.352   6.541   6.470 -0.6891 -1.2843 -0.3090
 9480SOL     OW29727   7.946   7.798   6.416  0.0105 -0.1208  1.0629
 9480SOL    HW129728   7.878   7.845   6.464 -2.3841  0.5875 -2.6795
 9480SOL    HW229729   8.007   7.866   6.387 -1.0766  0.1797 -0.6555
 9481SOL     OW29730   7.819   6.102   4.327 -0.3609  0.0549  0.1914
 9481SOL    HW129731   7.751   6.143   4.380 -1.0872 -2.9282  1.7984
 9481SOL    HW229732   7.780   6.093   4.240 -1.6826 -0.6817  0.8260
 9482SOL     OW29733   7.260   3.163   0.839  0.2588 -0.0286  0.0483
 9482SOL    HW129734   7.307   3.239   0.806 -1.9605  1.3942 -0.0609
 9482SOL    HW229735   7.260   3.101   0.766  3.1513 -0.7476  0.5478
 9483SOL     OW29736   5.323   4.951   7.048  0.2256  0.3936  0.3829
 9483SOL    HW129737   5.240   4.997   7.061 -0.0290 -0.6153  2.9492
 9483SOL    HW229738   5.298   4.861   7.030  0.7782  0.4326 -0.6433
 9484SOL     OW29739   7.465   8.427   2.857 -0.6243 -0.0999 -0.2644
 9484SOL    HW129740   7.423   8.513   2.851 -2.9952 -1.2044 -0.5501
 9484SOL    HW229741   7.556   8.447   2.881 -0.4183  2.5817 -2.7623
 9485SOL     OW29742   0.705   3.137   0.482  0.0619 -0.8173 -0.0467
 9485SOL    HW129743   0.668   3.169   0.564 -0.7731  1.3277 -1.1961
 9485SOL    HW229744   0.729   3.046   0.501 -1.4221 -0.8332  2.1391
 9486SOL     OW29745   3.948   3.436   6.707 -0.2176 -0.0059 -0.4952
 9486SOL    HW129746   3.902   3.504   6.756 -0.6050 -0.1862 -0.6129
 9486SOL    HW229747   3.889   3.412   6.636  1.6567  2.7751 -3.2851
 9487SOL     OW29748   0.119   5.126   1.162 -0.4822  0.7222 -0.2088
 9487SOL    HW129749   0.086   5.139   1.251  0.8896  0.6397  0.3408
 9487SOL    HW229750   0.214   5.136   1.170 -0.3099  0.4677 -1.6279
 9488SOL     OW29751   3.170   0.381   3.169 -0.2402  0.0211  0.1455
 9488SOL    HW129752   3.179   0.331   3.250 -0.5897 -0.9763 -0.4118
 9488SOL    HW229753   3.075   0.394   3.160 -0.0948  1.9608  0.9559
 9489SOL     OW29754   5.611   7.304   7.135  0.2222  0.6985 -0.0525
 9489SOL    HW129755   5.519   7.290   7.114  0.1056 -0.3887  1.0623
 9489SOL    HW229756   5.611   7.337   7.225  0.9090  1.1163 -0.1948
 9490SOL     OW29757   6.903   5.117   6.659 -0.2457  0.6155 -0.4380
 9490SOL    HW129758   6.901   5.142   6.566 -1.5771 -0.5764 -0.7695
 9490SOL    HW229759   6.992   5.085   6.673  0.0986  1.2045 -1.1738
 9491SOL     OW29760   3.788   1.474   8.088 -0.1334 -0.3759 -0.0679
 9491SOL    HW129761   3.726   1.510   8.024  0.8283 -0.2087 -0.9295
 9491SOL    HW229762   3.805   1.546   8.149 -0.4409 -0.2854 -0.0881
 9492SOL     OW29763   6.698   1.211   1.774  0.3953  0.0892 -0.2126
 9492SOL    HW129764   6.735   1.133   1.732 -1.7650 -0.4758 -1.2044
 9492SOL    HW229765   6.618   1.180   1.817  0.6483  1.3687  1.2804
 9493SOL     OW29766   0.375   5.393   4.366  0.0953  0.4333  0.3639
 9493SOL    HW129767   0.448   5.371   4.423 -0.4777 -4.5303 -0.3971
 9493SOL    HW229768   0.298   5.390   4.423  0.0060  0.9523  0.2813
 9494SOL     OW29769   7.644   0.772   0.621  0.0191  0.0715 -0.1868
 9494SOL    HW129770   7.721   0.814   0.660 -1.7258  2.8717  0.5495
 9494SOL    HW229771   7.615   0.710   0.688  1.5699 -1.0412 -0.4833
 9495SOL     OW29772   0.670   4.595   1.167  0.3327 -0.0486 -0.1652
 9495SOL    HW129773   0.611   4.545   1.223 -0.4002  0.2345 -0.6699
 9495SOL    HW229774   0.613   4.656   1.120  1.2299  1.4901  0.6594
 9496SOL     OW29775   7.537   7.588   0.019  0.3021 -0.2737 -0.6130
 9496SOL    HW129776   7.554   7.681   0.006  3.1162 -0.7843 -1.1643
 9496SOL    HW229777   7.590   7.544  -0.047 -0.4905 -2.3151  0.0217
 9497SOL     OW29778   1.445   3.037   8.671  0.3365 -0.3096  0.6986
 9497SOL    HW129779   1.465   2.947   8.698  1.8746 -0.0534  0.4918
 9497SOL    HW229780   1.528   3.084   8.682 -0.1839  0.8462 -0.1772
 9498SOL     OW29781   3.672   0.755   1.374  0.4542  0.4236 -0.4468
 9498SOL    HW129782   3.662   0.690   1.443  0.2618  0.5477 -0.3562
 9498SOL    HW229783   3.762   0.784   1.380  0.2880  0.8315  0.1038
 9499SOL     OW29784   0.123   4.695   6.155 -0.1750  0.3128  0.0096
 9499SOL    HW129785   0.070   4.725   6.229  0.8583  1.4651  0.3112
 9499SOL    HW229786   0.154   4.608   6.181  1.8776  1.5308  1.8875
 9500SOL     OW29787   7.549   2.534   6.901  0.0472 -0.0167 -0.3146
 9500SOL    HW129788   7.456   2.514   6.893 -0.0356  0.3952 -0.3899
 9500SOL    HW229789   7.593   2.451   6.882 -0.3163 -0.3578  0.3035
 9501SOL     OW29790   5.313   3.801   8.132 -0.0174  0.7912 -0.0914
 9501SOL    HW129791   5.233   3.850   8.148 -0.1523  1.1833 -1.7202
 9501SOL    HW229792   5.295   3.750   8.053  0.7712 -0.4471  0.4887
 9502SOL     OW29793   7.473   6.429   8.188 -0.4431  0.1495 -0.0440
 9502SOL    HW129794   7.390   6.381   8.186 -0.0598 -0.5486  0.5212
 9502SOL    HW229795   7.471   6.478   8.270 -0.7026  0.8750 -0.4795
 9503SOL     OW29796   5.246   0.072   8.245  0.5446  0.0947 -0.6252
 9503SOL    HW129797   5.278   0.105   8.160 -0.5401  3.6434  0.1780
 9503SOL    HW229798   5.151   0.065   8.234  0.3528  0.9716  0.3986
 9504SOL     OW29799   3.164   3.391   4.000  0.2082  0.2238  0.1341
 9504SOL    HW129800   3.086   3.337   3.984  0.3744 -0.8204  2.4735
 9504SOL    HW229801   3.132   3.481   3.996 -1.6489 -0.1658  2.9176
 9505SOL     OW29802   3.720   1.153   5.634 -0.3880  0.5041  0.2727
 9505SOL    HW129803   3.744   1.118   5.549 -0.5074 -0.1603  0.5017
 9505SOL    HW229804   3.794   1.132   5.691 -1.1274 -0.8397  0.7925
 9506SOL     OW29805   6.365   5.985   5.451 -0.1662 -0.1773 -0.3323
 9506SOL    HW129806   6.325   6.068   5.426  1.6631  1.1397  0.9086
 9506SOL    HW229807   6.293   5.935   5.490 -2.0908 -0.5922 -3.9889
 9507SOL     OW29808   0.128   1.224   4.982 -0.7334  0.8077  0.4681
 9507SOL    HW129809   0.117   1.247   5.074 -1.1620 -1.3344  1.0170
 9507SOL    HW229810   0.039   1.221   4.947 -0.8217 -0.9993  0.7381
 9508SOL     OW29811   0.345   4.669   7.722 -0.2627  0.5822 -0.2645
 9508SOL    HW129812   0.412   4.709   7.778 -0.8670 -1.0827  1.7609
 9508SOL    HW229813   0.262   4.702   7.757 -0.6430 -0.2062 -0.4081
 9509SOL     OW29814   8.263   8.161   2.608 -0.8690 -0.7053  0.3739
 9509SOL    HW129815   8.347   8.136   2.568  0.1220  0.4596  1.6254
 9509SOL    HW229816   8.253   8.253   2.586 -2.5350 -1.1525 -0.9026
 9510SOL     OW29817   2.837   4.508   0.372 -0.3643  0.3433  0.1032
 9510SOL    HW129818   2.805   4.596   0.354 -0.6741  0.2760  0.3267
 9510SOL    HW229819   2.795   4.483   0.454 -2.4099 -1.0587 -1.2650
 9511SOL     OW29820   4.300   8.346   5.590  0.3024 -0.2146  0.4050
 9511SOL    HW129821   4.279   8.264   5.635  2.6829 -1.1658 -0.0708
 9511SOL    HW229822   4.388   8.368   5.619 -0.5470  2.6618  1.1061
 9512SOL     OW29823   3.471   0.114   2.777 -0.2162  0.2046 -0.1958
 9512SOL    HW129824   3.524   0.176   2.827  0.2230 -1.0336  0.9332
 9512SOL    HW229825   3.465   0.037   2.833  0.1846 -1.1938 -1.9751
 9513SOL     OW29826   0.049   5.449   1.250 -0.1295 -0.4080  0.3834
 9513SOL    HW129827   0.131   5.494   1.226  1.1078 -2.7360 -0.0669
 9513SOL    HW229828   0.026   5.486   1.335  0.4996  1.4233 -0.1822
 9514SOL     OW29829   3.264   7.530   7.380  0.1624  0.0834 -0.6037
 9514SOL    HW129830   3.248   7.435   7.377 -0.5504  0.1950 -0.6041
 9514SOL    HW229831   3.206   7.565   7.312  0.6510  0.4926 -0.8110
 9515SOL     OW29832   5.198   7.529   7.294  0.2809  0.3178 -0.1574
 9515SOL    HW129833   5.132   7.598   7.301  0.3494  0.5409 -1.3876
 9515SOL    HW229834   5.195   7.502   7.202  2.3675  0.8248 -0.4257
 9516SOL     OW29835   2.639   0.108   7.736  0.0364  0.4043  0.3143
 9516SOL    HW129836   2.559   0.088   7.686 -0.5686  1.8756  0.6292
 9516SOL    HW229837   2.633   0.202   7.753  2.0717  0.6406 -0.0256
 9517SOL     OW29838   4.007   0.399   0.639 -0.1617 -0.2654  0.1767
 9517SOL    HW129839   3.980   0.489   0.621  0.9307  0.2027  0.7458
 9517SOL    HW229840   4.095   0.392   0.602 -0.9731 -1.7322 -1.6023
 9518SOL     OW29841   6.012   3.385   5.371 -0.1522  0.2191 -0.4527
 9518SOL    HW129842   6.042   3.337   5.449  1.5257 -0.4135 -1.4154
 9518SOL    HW229843   5.941   3.332   5.336  0.5662 -0.7069 -0.5607
 9519SOL     OW29844   4.137   8.155   5.899 -0.1955 -0.3613  0.0830
 9519SOL    HW129845   4.105   8.152   5.809  2.5491 -0.3638 -0.9961
 9519SOL    HW229846   4.096   8.080   5.942 -0.7500 -0.9789 -1.4482
 9520SOL     OW29847   0.670   6.766   4.149  0.6664 -0.0781 -0.0801
 9520SOL    HW129848   0.662   6.719   4.065  0.2625  0.8419 -0.5667
 9520SOL    HW229849   0.581   6.793   4.170  0.5005 -1.7131  1.5035
 9521SOL     OW29850   5.290   4.179   7.077  0.2426  0.1875  0.9081
 9521SOL    HW129851   5.213   4.186   7.133  0.4580 -1.9545  1.5415
 9521SOL    HW229852   5.257   4.151   6.992  0.3133 -0.8229  1.2062
 9522SOL     OW29853   6.218   4.952   3.829  0.1001  0.0409 -0.4339
 9522SOL    HW129854   6.140   4.978   3.779  1.0781  0.1893 -1.9425
 9522SOL    HW229855   6.185   4.892   3.895 -1.3000  0.1064 -1.0326
 9523SOL     OW29856   2.876   7.425   4.216 -0.2583 -0.1132  0.0742
 9523SOL    HW129857   2.895   7.444   4.308 -2.0321 -0.1994  0.5025
 9523SOL    HW229858   2.855   7.510   4.177 -0.1068 -0.1522 -0.0926
 9524SOL     OW29859   5.426   3.032   1.565 -0.9058 -0.2360 -0.5497
 9524SOL    HW129860   5.511   2.990   1.554 -0.5159  0.5180 -0.4951
 9524SOL    HW229861   5.436   3.117   1.522 -1.3345  0.2354  0.2502
 9525SOL     OW29862   0.227   5.471   3.664 -0.7851 -0.2109 -0.1358
 9525SOL    HW129863   0.142   5.508   3.639 -1.5309  0.2042  2.6204
 9525SOL    HW229864   0.220   5.378   3.644 -2.5215 -0.4587  1.3879
 9526SOL     OW29865   6.273   2.112   8.270  0.1756 -0.5733 -0.3685
 9526SOL    HW129866   6.227   2.038   8.231 -0.2266 -1.3938  1.5856
 9526SOL    HW229867   6.354   2.076   8.303 -0.0120 -0.1440  0.5862
 9527SOL     OW29868   7.095   0.589   7.771  0.2504 -0.4922  0.4655
 9527SOL    HW129869   7.170   0.582   7.830 -0.1717  2.0449  1.4428
 9527SOL    HW229870   7.099   0.679   7.739 -0.1371 -1.4529 -2.6430
 9528SOL     OW29871   7.943   0.706   1.979  0.2496 -0.4230  0.2926
 9528SOL    HW129872   7.959   0.720   1.886  1.2118 -0.2507  0.4768
 9528SOL    HW229873   7.986   0.622   1.998  0.1153 -0.4243  0.5927
 9529SOL     OW29874   1.754   6.184   5.085  0.2711 -0.4016  0.4590
 9529SOL    HW129875   1.676   6.163   5.034  0.1463  0.3622  0.3286
 9529SOL    HW229876   1.772   6.276   5.065  0.1924 -0.0657  1.8371
 9530SOL     OW29877   5.190   7.391   2.984 -0.1548 -0.4568 -0.1912
 9530SOL    HW129878   5.241   7.451   2.930 -0.7519  0.2977  0.0624
 9530SOL    HW229879   5.132   7.448   3.035 -2.0673 -1.3323 -1.2843
 9531SOL     OW29880   0.340   5.362   2.836 -0.3023 -0.1278  0.3769
 9531SOL    HW129881   0.280   5.317   2.895 -0.3907  1.4127  1.5203
 9531SOL    HW229882   0.425   5.356   2.879 -0.0647 -0.3034 -0.1016
 9532SOL     OW29883   0.741   0.358   4.493 -0.7668  0.3809  0.1797
 9532SOL    HW129884   0.705   0.270   4.480  0.5616 -0.2463  0.6186
 9532SOL    HW229885   0.785   0.379   4.412 -2.3163  1.2914 -0.4816
 9533SOL     OW29886   1.737   0.133   8.581 -0.1244 -0.0200 -0.1530
 9533SOL    HW129887   1.726   0.038   8.582 -1.1935  0.0812 -0.7216
 9533SOL    HW229888   1.648   0.168   8.591  0.0807  0.8968 -1.2318
 9534SOL     OW29889   7.803   3.384   5.081 -0.0220 -0.4853 -0.2542
 9534SOL    HW129890   7.894   3.400   5.058  0.3849 -1.0124  0.9014
 9534SOL    HW229891   7.762   3.471   5.083  0.6961 -0.1500  0.1651
 9535SOL     OW29892   7.292   8.497   1.093 -0.0683  0.1323 -0.5386
 9535SOL    HW129893   7.259   8.549   1.020 -0.6197 -1.3055 -1.3729
 9535SOL    HW229894   7.342   8.426   1.051  1.8103  0.7046  0.5945
 9536SOL     OW29895   3.380   1.800   1.476  0.5155  0.8665  0.2993
 9536SOL    HW129896   3.312   1.858   1.442 -0.6141 -0.1529  0.7084
 9536SOL    HW229897   3.350   1.777   1.564  0.2640 -1.2890 -0.2924
 9537SOL     OW29898   7.168   4.273   1.006  0.2978 -0.0350 -0.4889
 9537SOL    HW129899   7.152   4.245   0.916 -1.9101  3.0370 -1.2318
 9537SOL    HW229900   7.093   4.239   1.055  0.5855 -0.2245 -0.1752
 9538SOL     OW29901   2.502   8.664   7.052  0.5641 -0.3683  0.3803
 9538SOL    HW129902   2.525   8.753   7.026 -0.9399  0.1877  0.8457
 9538SOL    HW229903   2.496   8.615   6.970 -0.6557  0.4986 -0.0799
 9539SOL     OW29904   0.038   2.884   1.488 -0.7245  0.3944 -0.9397
 9539SOL    HW129905   0.087   2.887   1.570 -3.2655  0.7243  0.6634
 9539SOL    HW229906  -0.031   2.820   1.504 -2.1566  1.5249 -2.2968
 9540SOL     OW29907   3.003   8.024   2.915 -0.3411  0.2440  0.8083
 9540SOL    HW129908   3.063   8.069   2.855 -1.5804  1.3177  0.3172
 9540SOL    HW229909   2.916   8.042   2.879 -1.0242 -0.4589  2.0431
 9541SOL     OW29910   4.316   2.907   5.768 -0.5138 -0.4084  0.9121
 9541SOL    HW129911   4.410   2.897   5.785 -0.5358 -0.6579  0.8928
 9541SOL    HW229912   4.289   2.977   5.827  0.2980  1.8988 -1.2552
 9542SOL     OW29913   5.041   0.081   5.956  0.3277  0.1086  0.2027
 9542SOL    HW129914   5.002   0.002   5.992 -1.1256 -0.1311 -1.6898
 9542SOL    HW229915   4.985   0.152   5.988 -0.0024  0.0590 -0.2447
 9543SOL     OW29916   0.103   8.153   5.593 -0.5076  0.4233  0.5110
 9543SOL    HW129917   0.164   8.099   5.543 -0.4334  2.3886 -1.6937
 9543SOL    HW229918   0.017   8.115   5.573 -0.5200  1.4041 -1.5496
 9544SOL     OW29919   0.461   0.833   4.228  0.7147 -0.7882  0.1183
 9544SOL    HW129920   0.428   0.755   4.272  1.7486 -1.9117 -1.0038
 9544SOL    HW229921   0.546   0.805   4.193  2.3240  1.5764  1.8409
 9545SOL     OW29922   5.518   0.612   5.001 -0.1226  0.1237  0.2250
 9545SOL    HW129923   5.588   0.549   5.018 -0.3131 -0.5193 -1.1872
 9545SOL    HW229924   5.544   0.691   5.048  2.0730  0.2447 -1.0475
 9546SOL     OW29925   7.489   1.920   7.099  0.5035  0.2127  0.1727
 9546SOL    HW129926   7.483   1.834   7.140  0.8727 -0.3577 -0.9233
 9546SOL    HW229927   7.431   1.976   7.150  0.2180 -0.7029  0.8668
 9547SOL     OW29928   3.170   7.825   8.206 -0.4280 -0.3201 -1.0484
 9547SOL    HW129929   3.234   7.756   8.188 -0.3228 -0.5794  0.2744
 9547SOL    HW229930   3.085   7.781   8.205 -0.4374 -0.3017 -1.0731
 9548SOL     OW29931   0.089   7.543   7.393  0.0825  0.5572  0.1576
 9548SOL    HW129932   0.002   7.577   7.373 -0.3427 -1.3044 -1.4040
 9548SOL    HW229933   0.090   7.533   7.488 -1.0819  1.3618  0.2767
 9549SOL     OW29934   7.162   0.710   4.370  0.0357 -0.7550 -0.3339
 9549SOL    HW129935   7.161   0.754   4.286  1.1899  1.8109  0.8803
 9549SOL    HW229936   7.255   0.701   4.392 -0.2303 -1.7565  0.4699
 9550SOL     OW29937   3.869   6.760   0.140 -0.0743 -0.5473  0.2046
 9550SOL    HW129938   3.807   6.779   0.210 -0.0119  1.5575 -0.2316
 9550SOL    HW229939   3.896   6.670   0.155 -0.8817 -0.5013  2.2298
 9551SOL     OW29940   3.158   5.080   6.240 -0.1360  0.7382 -0.0124
 9551SOL    HW129941   3.167   5.175   6.240  0.9257  0.6472  0.0664
 9551SOL    HW229942   3.124   5.059   6.153  0.0634  1.1554 -0.1925
 9552SOL     OW29943   2.105   8.584   5.214  0.0908 -0.3977 -0.3633
 9552SOL    HW129944   2.126   8.553   5.302 -1.5059  1.4084  0.7453
 9552SOL    HW229945   2.150   8.668   5.206  0.3441 -0.6080 -1.3526
 9553SOL     OW29946   7.899   5.918   3.082 -0.2850  0.5047 -0.2360
 9553SOL    HW129947   7.844   5.927   3.159 -1.0643 -1.6527 -0.4557
 9553SOL    HW229948   7.945   5.835   3.095 -0.9618 -0.2778 -2.3531
 9554SOL     OW29949   5.995   2.208   3.669 -0.0401  0.8504  0.3184
 9554SOL    HW129950   6.085   2.233   3.687 -0.2480  1.0764  1.0563
 9554SOL    HW229951   5.985   2.123   3.711 -0.4637  1.2789  1.0897
 9555SOL     OW29952   7.733   8.476   3.291  0.3573  0.2250  0.1171
 9555SOL    HW129953   7.709   8.397   3.243 -1.8545 -0.3078  1.9061
 9555SOL    HW229954   7.672   8.542   3.260  2.0234  1.2405 -1.1693
 9556SOL     OW29955   4.858   1.169   4.027  0.3627  0.1617 -0.3709
 9556SOL    HW129956   4.767   1.142   4.013  0.4521 -0.1716 -0.3188
 9556SOL    HW229957   4.860   1.261   4.000 -0.4466  0.7818  1.5152
 9557SOL     OW29958   6.824   7.660   4.771 -0.6432  0.2954  0.0267
 9557SOL    HW129959   6.897   7.676   4.712  1.3661 -0.1080  2.2519
 9557SOL    HW229960   6.832   7.728   4.838 -2.5852  0.4820  0.1161
 9558SOL     OW29961   0.144   0.542   4.068 -0.1729 -0.0283  0.7031
 9558SOL    HW129962   0.236   0.540   4.041 -0.0217 -1.0349  1.2439
 9558SOL    HW229963   0.135   0.467   4.126 -1.4218 -0.1210  0.4079
 9559SOL     OW29964   8.536   6.517   8.481  0.4603 -0.1624 -0.4628
 9559SOL    HW129965   8.526   6.426   8.454 -0.8745 -0.0974 -0.2341
 9559SOL    HW229966   8.558   6.512   8.574 -2.3734 -0.2365  0.2874
 9560SOL     OW29967   7.044   1.687   4.699 -0.1144  0.0395 -0.1807
 9560SOL    HW129968   7.088   1.667   4.617 -0.0517  2.4701 -0.8290
 9560SOL    HW229969   7.114   1.690   4.764  0.2120  0.6108 -0.5526
 9561SOL     OW29970   0.432   4.565   8.672 -0.0314  0.9284  0.6851
 9561SOL    HW129971   0.402   4.480   8.639  2.5052  0.0358  0.4600
 9561SOL    HW229972   0.353   4.608   8.703 -1.3345 -1.7592  1.3503
 9562SOL     OW29973   3.332   6.060   7.570  0.2319  0.6269  0.0459
 9562SOL    HW129974   3.318   6.127   7.637 -1.1340  1.8428 -1.3797
 9562SOL    HW229975   3.252   6.007   7.572  1.3362 -1.0848  1.2227
 9563SOL     OW29976   2.372   6.452   6.973  0.2554  0.1855  0.3207
 9563SOL    HW129977   2.419   6.434   6.892  0.5322 -2.1893  0.9481
 9563SOL    HW229978   2.299   6.508   6.947  0.2022 -0.7218 -1.6151
 9564SOL     OW29979   0.482   5.503   0.883 -0.5322 -0.0022 -0.1535
 9564SOL    HW129980   0.543   5.576   0.891 -0.3484 -0.1147 -0.5011
 9564SOL    HW229981   0.493   5.472   0.793 -0.8641 -0.2328 -0.1173
 9565SOL     OW29982   7.573   4.520   3.510 -0.0680  0.1667  0.1584
 9565SOL    HW129983   7.648   4.579   3.501 -0.3410  0.4486 -0.3137
 9565SOL    HW229984   7.523   4.555   3.584  0.2320  0.0144  0.4326
 9566SOL     OW29985   6.083   2.712   3.300 -0.4448  0.2946  0.8183
 9566SOL    HW129986   6.039   2.680   3.379  0.1769  0.0066  1.0493
 9566SOL    HW229987   6.175   2.718   3.323 -0.2104 -0.0583  0.0341
 9567SOL     OW29988   2.286   2.965   4.812  0.3641 -0.1523  0.5230
 9567SOL    HW129989   2.378   2.971   4.786 -0.0253 -0.3632 -1.0052
 9567SOL    HW229990   2.248   2.902   4.751 -1.2670  1.5781 -0.3531
 9568SOL     OW29991   2.879   4.714   2.436  0.1501 -0.1690 -0.5145
 9568SOL    HW129992   2.918   4.711   2.523  1.8667  1.1152 -1.1720
 9568SOL    HW229993   2.881   4.807   2.413  1.6778 -0.6744 -2.7128
 9569SOL     OW29994   0.709   5.038   6.785  0.3170  0.5540  0.6545
 9569SOL    HW129995   0.658   5.006   6.711  3.0847 -3.1504  0.0339
 9569SOL    HW229996   0.750   5.118   6.754  0.7927 -0.5098 -1.6411
 9570SOL     OW29997   7.912   6.848   8.018 -0.3149 -0.9592 -0.0160
 9570SOL    HW129998   7.837   6.798   7.987 -0.7399 -0.2544 -0.1622
 9570SOL    HW229999   7.959   6.874   7.939  0.1098 -1.4339  0.0780
 9571SOL     OW30000   3.476   0.771   0.253 -0.0329 -0.4161  0.1893
 9571SOL    HW130001   3.542   0.729   0.307 -1.0809  1.5765  3.3259
 9571SOL    HW230002   3.395   0.762   0.303 -1.2589  0.8699 -1.4483
 9572SOL     OW30003   2.549   4.748   2.149  0.2808  0.0573  0.4709
 9572SOL    HW130004   2.562   4.841   2.128 -1.1050  0.2466  0.3435
 9572SOL    HW230005   2.516   4.710   2.067 -1.4936 -0.0068  1.1666
 9573SOL     OW30006   1.439   2.300   3.365 -0.5185  0.0748 -0.1269
 9573SOL    HW130007   1.505   2.235   3.391 -0.8908 -0.4307 -0.4091
 9573SOL    HW230008   1.480   2.349   3.295  0.0182  0.5969  0.5411
 9574SOL     OW30009   3.283   8.208   4.889  0.0317  0.0532  0.2123
 9574SOL    HW130010   3.228   8.231   4.965 -0.0057  2.4099 -0.4464
 9574SOL    HW230011   3.276   8.284   4.831  2.4794 -0.3836 -0.7714
 9575SOL     OW30012   3.537   0.821   3.546 -0.0673 -0.1805 -0.1860
 9575SOL    HW130013   3.611   0.794   3.599 -0.5652 -1.6110 -0.1827
 9575SOL    HW230014   3.545   0.771   3.465 -0.3197  0.6215 -0.7291
 9576SOL     OW30015   7.528   2.728   5.602 -0.9003  0.2713 -0.8349
 9576SOL    HW130016   7.482   2.806   5.631  0.4375  0.3482  1.2592
 9576SOL    HW230017   7.494   2.658   5.658  1.4448  0.3399  0.8008
 9577SOL     OW30018   0.792   6.913   5.577 -0.3604 -0.0606 -0.1597
 9577SOL    HW130019   0.813   6.844   5.514  0.1196  0.6215 -0.7556
 9577SOL    HW230020   0.858   6.981   5.561  1.1570 -0.7717  2.5470
 9578SOL     OW30021   6.956   1.676   6.495 -0.3176  0.2059 -0.0200
 9578SOL    HW130022   6.898   1.630   6.434  1.0256  0.1550 -1.3074
 9578SOL    HW230023   6.909   1.673   6.579 -1.4356 -1.2476 -0.6406
 9579SOL     OW30024   6.604   5.057   7.053 -0.1425 -0.0856  0.2831
 9579SOL    HW130025   6.620   4.965   7.029  1.3298  0.4246 -0.8626
 9579SOL    HW230026   6.683   5.083   7.101  0.7867  1.3165 -1.8242
 9580SOL     OW30027   7.727   6.917   7.698 -0.0120 -0.3335 -0.4653
 9580SOL    HW130028   7.706   6.999   7.744 -1.9030  0.0375 -1.8542
 9580SOL    HW230029   7.730   6.851   7.768 -1.3745  0.4430  0.3808
 9581SOL     OW30030   6.886   4.433   7.024  0.2756  0.0694 -0.1728
 9581SOL    HW130031   6.921   4.428   6.935  2.4292  4.3025  0.2131
 9581SOL    HW230032   6.795   4.460   7.012 -0.2331 -1.8394 -1.0261
 9582SOL     OW30033   6.348   6.844   1.944  0.5856 -0.2089  0.3090
 9582SOL    HW130034   6.348   6.914   1.879  1.2708 -0.4537  0.0268
 9582SOL    HW230035   6.400   6.878   2.016  1.2576 -0.5638  0.0028
 9583SOL     OW30036   5.358   3.495   1.874  0.0998  0.1945 -0.5103
 9583SOL    HW130037   5.310   3.488   1.956  1.2433  0.9022  0.2498
 9583SOL    HW230038   5.291   3.493   1.806 -0.8973  0.0341  0.4634
 9584SOL     OW30039   7.828   6.007   2.522  0.4252  0.4121 -0.2560
 9584SOL    HW130040   7.826   5.918   2.486 -0.7672 -0.0299  0.8174
 9584SOL    HW230041   7.895   6.003   2.589 -2.9873 -1.3114  3.4930
 9585SOL     OW30042   2.375   4.897   3.469  0.4487 -0.3205 -0.1250
 9585SOL    HW130043   2.359   4.959   3.541 -1.1220 -1.4446  0.5568
 9585SOL    HW230044   2.425   4.948   3.405 -1.8692  2.1331 -0.1945
 9586SOL     OW30045   0.367   0.803   6.631 -0.3479  0.6168 -0.0717
 9586SOL    HW130046   0.394   0.713   6.614  0.8534  0.7101  1.1260
 9586SOL    HW230047   0.338   0.836   6.546 -1.0838 -0.9714 -0.4804
 9587SOL     OW30048   4.499   8.293   7.892  0.7003  0.6527  0.8810
 9587SOL    HW130049   4.568   8.358   7.888  0.9397  0.3408 -1.5679
 9587SOL    HW230050   4.544   8.209   7.900  0.8106  0.3245 -1.9980
 9588SOL     OW30051   7.221   4.463   4.928  0.4033 -0.4469  0.8923
 9588SOL    HW130052   7.258   4.395   4.870  2.4096 -0.6394  2.2835
 9588SOL    HW230053   7.296   4.493   4.979 -0.5129  2.5777  0.6077
 9589SOL     OW30054   6.872   8.226   4.281  0.0114  0.0732 -0.9463
 9589SOL    HW130055   6.831   8.297   4.330  0.2584 -0.4717  0.0803
 9589SOL    HW230056   6.811   8.208   4.209 -0.0135  1.3547 -1.2731
 9590SOL     OW30057   3.254   5.956   7.253 -0.2382  0.2235  0.1894
 9590SOL    HW130058   3.291   5.962   7.165  0.5889 -0.2568  0.4964
 9590SOL    HW230059   3.216   6.043   7.268  1.2974  0.9661  0.0776
 9591SOL     OW30060   4.097   8.344   7.630 -0.0254  0.4259 -0.2794
 9591SOL    HW130061   4.119   8.343   7.723 -0.8791  0.4381 -0.0666
 9591SOL    HW230062   4.010   8.303   7.625  0.3215 -0.2525 -1.1588
 9592SOL     OW30063   4.400   0.258   6.420  0.2871  0.3252  0.7997
 9592SOL    HW130064   4.417   0.341   6.464  2.8191 -0.8268  2.2018
 9592SOL    HW230065   4.448   0.193   6.471 -0.0162 -1.7227 -1.3339
 9593SOL     OW30066   4.509   2.664   5.227  0.1741  0.1316 -0.7286
 9593SOL    HW130067   4.451   2.658   5.151 -0.4949  0.9454 -0.2938
 9593SOL    HW230068   4.474   2.600   5.289  0.0543  0.2678 -0.6585
 9594SOL     OW30069   3.589   6.743   7.982 -0.1453  0.4392  0.0643
 9594SOL    HW130070   3.592   6.681   8.056 -0.0379  0.6634  0.2495
 9594SOL    HW230071   3.529   6.811   8.011  0.7077  1.0748  0.3750
 9595SOL     OW30072   7.677   2.459   5.600  0.0945  0.0225 -0.0004
 9595SOL    HW130073   7.662   2.508   5.681 -1.3336 -0.2787 -0.0484
 9595SOL    HW230074   7.700   2.525   5.535 -1.9459  0.7011 -0.1058
 9596SOL     OW30075   0.979   3.785   4.499 -0.0438 -0.0436  0.2585
 9596SOL    HW130076   0.892   3.766   4.535  0.5016 -0.9860  1.1326
 9596SOL    HW230077   1.034   3.799   4.576  0.9940 -1.4025 -0.2111
 9597SOL     OW30078   0.981   2.627   6.101 -0.1743  0.2634  0.2162
 9597SOL    HW130079   1.007   2.640   6.192  0.7710  1.7829 -0.2186
 9597SOL    HW230080   0.911   2.692   6.087  0.7656  1.1463 -0.5341
 9598SOL     OW30081   2.103   5.839   7.852  0.0253 -0.7489 -0.8117
 9598SOL    HW130082   2.135   5.752   7.826  2.6335  0.0618 -0.5497
 9598SOL    HW230083   2.160   5.900   7.807 -1.6470  0.8744 -0.8363
 9599SOL     OW30084   7.051   1.936   4.176 -0.1429 -0.0133  0.8213
 9599SOL    HW130085   7.055   1.855   4.125 -2.9192 -0.0828  0.5614
 9599SOL    HW230086   7.140   1.972   4.172  1.1791 -2.9846  0.9066
 9600SOL     OW30087   2.876   4.275   4.407 -0.3512 -0.2318 -0.2978
 9600SOL    HW130088   2.783   4.277   4.387 -0.3859 -2.3794 -0.5750
 9600SOL    HW230089   2.918   4.251   4.325  0.2376 -1.3611  0.3141
 9601SOL     OW30090   4.573   2.966   0.474  0.0212  0.4384  0.3520
 9601SOL    HW130091   4.639   2.911   0.517  0.2517  0.0790 -0.4476
 9601SOL    HW230092   4.490   2.925   0.495  0.1390  0.2032  0.3622
 9602SOL     OW30093   0.170   4.881   5.677  0.3564  0.4275  0.1701
 9602SOL    HW130094   0.205   4.889   5.588 -0.9843 -1.3313 -0.5877
 9602SOL    HW230095   0.079   4.910   5.669 -0.1068 -0.7991  0.6663
 9603SOL     OW30096   3.566   3.991   0.646 -0.1835 -0.2257 -0.1323
 9603SOL    HW130097   3.614   4.074   0.645 -1.1379  0.3420 -0.1290
 9603SOL    HW230098   3.476   4.016   0.669 -0.0690 -1.4769  1.9183
 9604SOL     OW30099   8.144   0.035   7.186  0.3022 -0.6008  0.2049
 9604SOL    HW130100   8.166   0.003   7.273  0.4729 -1.1507 -0.0407
 9604SOL    HW230101   8.049   0.027   7.180  0.2511 -0.2103  0.4778
 9605SOL     OW30102   1.110   2.174   3.946  0.1114 -0.6771  0.2300
 9605SOL    HW130103   1.139   2.200   3.858  0.1636 -1.2618  0.0690
 9605SOL    HW230104   1.154   2.091   3.962  2.3079  0.6998  1.9429
 9606SOL     OW30105   0.242   2.996   0.134 -0.1317  0.7312 -0.5299
 9606SOL    HW130106   0.288   2.934   0.191 -1.4510  0.0840 -0.1291
 9606SOL    HW230107   0.297   3.002   0.056  0.5576 -0.1173 -0.1318
 9607SOL     OW30108   0.601   3.829   3.283  0.5158 -0.2992 -0.0584
 9607SOL    HW130109   0.562   3.911   3.315  1.7931 -0.0694  1.0134
 9607SOL    HW230110   0.617   3.845   3.190  1.5225  1.0037  0.3124
 9608SOL     OW30111   7.104   5.218   7.130  0.7841 -0.0214  0.3044
 9608SOL    HW130112   7.124   5.303   7.169  3.5782 -0.6223  0.3965
 9608SOL    HW230113   7.105   5.233   7.036 -4.0275  1.0102  0.1280
 9609SOL     OW30114   4.025   2.109   4.541 -0.9646 -0.1179 -1.1670
 9609SOL    HW130115   4.068   2.178   4.593 -0.0074 -1.3903 -0.1862
 9609SOL    HW230116   3.975   2.156   4.475 -0.3375  1.5174 -0.5321
 9610SOL     OW30117   3.737   3.010   1.763 -0.0016  0.0762 -0.0967
 9610SOL    HW130118   3.668   3.075   1.754  0.2582  0.3716  0.0212
 9610SOL    HW230119   3.723   2.949   1.691 -0.9568 -0.4051  0.4743
 9611SOL     OW30120   3.221   7.531   2.317  0.0001 -0.4143 -0.2450
 9611SOL    HW130121   3.193   7.482   2.240 -0.3709 -0.5708 -0.0109
 9611SOL    HW230122   3.160   7.506   2.386 -1.8688  2.3312 -0.7669
 9612SOL     OW30123   5.802   6.933   3.093 -0.0685 -0.0174  0.2353
 9612SOL    HW130124   5.720   6.933   3.044 -0.6245 -0.4967  1.1339
 9612SOL    HW230125   5.775   6.925   3.185  0.8458  2.7679  0.8316
 9613SOL     OW30126   0.890   0.034   1.361  0.4831 -0.3622 -0.5502
 9613SOL    HW130127   0.849   0.097   1.301 -0.0546  0.0250  0.2022
 9613SOL    HW230128   0.882  -0.050   1.317  0.6243 -0.0048 -1.2801
 9614SOL     OW30129   8.616   1.930   4.503 -0.1674  0.2526 -0.3274
 9614SOL    HW130130   8.669   1.868   4.553  1.4550  2.2122  0.5492
 9614SOL    HW230131   8.645   1.920   4.412 -0.2757 -0.6049 -0.2685
 9615SOL     OW30132   3.792   6.903   4.412 -0.3333 -0.3361 -0.0989
 9615SOL    HW130133   3.783   6.809   4.397 -1.8730 -0.4727  1.3626
 9615SOL    HW230134   3.842   6.910   4.494  0.5397  0.1542 -0.6607
 9616SOL     OW30135   1.006   8.257   6.513 -0.5179 -0.0575 -0.1215
 9616SOL    HW130136   1.027   8.350   6.504  1.5779 -0.4627 -0.0844
 9616SOL    HW230137   0.984   8.228   6.425 -1.4952  0.5229 -0.0801
 9617SOL     OW30138   3.093   3.494   4.927 -0.2955  0.5261  0.3515
 9617SOL    HW130139   3.164   3.532   4.875 -1.6961  1.6556 -0.7857
 9617SOL    HW230140   3.016   3.499   4.871 -1.2025 -1.1414  1.3657
 9618SOL     OW30141   7.658   7.265   0.785  0.0612 -0.0462  0.3689
 9618SOL    HW130142   7.594   7.258   0.856  0.1192  0.6875  0.4956
 9618SOL    HW230143   7.737   7.224   0.820 -0.1988 -0.5626  0.3698
 9619SOL     OW30144   7.698   1.490   0.041  0.4675  0.3611 -0.3480
 9619SOL    HW130145   7.731   1.530  -0.040 -1.1273  2.2426 -0.1446
 9619SOL    HW230146   7.634   1.426   0.011  0.9189  0.0344 -0.6163
 9620SOL     OW30147   0.440   0.967   5.603 -0.2954 -0.4098  0.0174
 9620SOL    HW130148   0.472   0.935   5.519 -1.7319 -0.7945 -0.4082
 9620SOL    HW230149   0.386   1.043   5.581  1.2226  0.9819  0.8272
 9621SOL     OW30150   2.148   5.364   6.953 -0.0138  0.0416 -0.6436
 9621SOL    HW130151   2.118   5.290   6.901 -0.3562 -0.3135  0.0544
 9621SOL    HW230152   2.228   5.333   6.996  0.9006  0.6985 -1.8144
 9622SOL     OW30153   8.531   1.373   0.830  0.5576 -0.4973 -0.1548
 9622SOL    HW130154   8.465   1.306   0.849 -0.5215  0.4061 -0.5848
 9622SOL    HW230155   8.544   1.419   0.913  0.8367 -0.8328 -0.0103
 9623SOL     OW30156   1.669   5.549   5.694 -0.6683 -0.8984 -0.3960
 9623SOL    HW130157   1.716   5.621   5.652  0.0846 -0.6709  0.7880
 9623SOL    HW230158   1.578   5.578   5.699 -0.3516  0.0368  0.1838
 9624SOL     OW30159   7.139   5.736   5.197  0.1852  0.3090 -0.0649
 9624SOL    HW130160   7.180   5.789   5.265 -0.1693  1.4489 -0.7096
 9624SOL    HW230161   7.168   5.776   5.115 -1.1042  0.3138 -0.5434
 9625SOL     OW30162   0.105   3.638   4.315  0.6067  0.4006  0.1960
 9625SOL    HW130163   0.151   3.564   4.276 -2.0294 -0.7988 -0.9091
 9625SOL    HW230164   0.106   3.620   4.409  2.2361  0.3691  0.1962
 9626SOL     OW30165   8.088   6.284   2.396 -0.2284  0.3258 -0.4511
 9626SOL    HW130166   8.010   6.311   2.443 -0.6915  0.7795 -1.4532
 9626SOL    HW230167   8.132   6.224   2.456 -2.2406 -1.3430 -0.5215
 9627SOL     OW30168   0.850   1.792   1.899 -0.2473  0.7550  0.1404
 9627SOL    HW130169   0.856   1.816   1.992  1.7187  2.8820 -0.4095
 9627SOL    HW230170   0.941   1.780   1.872 -0.8620 -1.3432 -1.2094
 9628SOL     OW30171   6.912   3.268   6.998 -0.2393 -0.3051 -0.6061
 9628SOL    HW130172   6.997   3.262   7.041  0.0059 -0.4846 -1.1107
 9628SOL    HW230173   6.925   3.331   6.928 -0.7001  0.1580 -0.2839
 9629SOL     OW30174   5.582   7.589   1.372 -0.5345  0.1682  0.5991
 9629SOL    HW130175   5.606   7.622   1.458 -0.8032  0.5732  0.5193
 9629SOL    HW230176   5.662   7.545   1.340  0.3165  2.0196  0.0735
 9630SOL     OW30177   5.580   0.648   5.474 -0.3972 -0.3591 -0.0918
 9630SOL    HW130178   5.639   0.693   5.534  0.7484 -1.1870 -0.5542
 9630SOL    HW230179   5.539   0.579   5.526 -1.0559  0.2848  0.2570
 9631SOL     OW30180   7.612   6.111   3.056  0.3303  0.4448 -0.5131
 9631SOL    HW130181   7.609   6.022   3.021  0.8492 -0.0973  0.7817
 9631SOL    HW230182   7.661   6.103   3.138 -0.6116  1.7212  0.2073
 9632SOL     OW30183   1.403   0.253   5.550 -0.0185  0.4023  0.0669
 9632SOL    HW130184   1.347   0.182   5.521  0.5691 -0.0666  0.0725
 9632SOL    HW230185   1.481   0.210   5.585  0.5930  1.0637 -0.4496
 9633SOL     OW30186   7.954   7.149   1.429 -0.4136  0.1178  0.5909
 9633SOL    HW130187   7.923   7.079   1.372 -0.2694  0.6881 -0.2064
 9633SOL    HW230188   7.939   7.116   1.518 -0.9470 -0.6501  0.2294
 9634SOL     OW30189   3.667   8.653   1.358  0.0192  0.3020  0.4840
 9634SOL    HW130190   3.699   8.665   1.269 -2.5240 -1.1381 -0.7412
 9634SOL    HW230191   3.735   8.600   1.401  1.2631  0.9736 -0.5799
 9635SOL     OW30192   2.101   6.695   6.485  0.3238 -0.7648  0.0031
 9635SOL    HW130193   2.073   6.666   6.572 -0.2146  1.4414  0.6399
 9635SOL    HW230194   2.075   6.624   6.427 -0.0629 -1.9354  1.5363
 9636SOL     OW30195   5.418   5.857   4.005  0.3304 -0.1753  0.2927
 9636SOL    HW130196   5.364   5.799   3.951  1.1770  0.5469 -1.3966
 9636SOL    HW230197   5.377   5.854   4.091 -1.1867 -1.2356 -0.4160
 9637SOL     OW30198   3.683   7.695   2.165  0.5659 -0.0270 -0.3511
 9637SOL    HW130199   3.601   7.728   2.129  0.9674  1.8036  0.2922
 9637SOL    HW230200   3.749   7.721   2.102  0.7983 -0.3643 -0.2476
 9638SOL     OW30201   2.290   6.618   7.683  0.0116 -0.3499  0.0687
 9638SOL    HW130202   2.355   6.661   7.627 -2.1165  0.5456 -1.8884
 9638SOL    HW230203   2.294   6.526   7.658  0.9581 -0.4267  0.4602
 9639SOL     OW30204   8.671   4.946   5.927 -0.0576 -0.1410  0.2345
 9639SOL    HW130205   8.652   4.930   5.835 -1.9427  0.1599  0.5346
 9639SOL    HW230206   8.767   4.952   5.931  0.0496  0.2523 -1.7616
 9640SOL     OW30207   2.574   8.215   7.683  0.4240 -0.4178  0.2200
 9640SOL    HW130208   2.515   8.153   7.727  2.0792 -1.4518  1.0766
 9640SOL    HW230209   2.584   8.287   7.746  1.8310 -1.3231  1.0754
 9641SOL     OW30210   7.089   2.999   1.067 -0.5737 -0.1722  0.0777
 9641SOL    HW130211   7.113   3.039   1.150  0.5776  1.5327 -0.9996
 9641SOL    HW230212   7.014   2.943   1.087 -0.8240  0.8221  2.0933
 9642SOL     OW30213   2.269   2.886   2.761  0.1473  0.7473 -0.7080
 9642SOL    HW130214   2.318   2.882   2.679  1.4749  1.2604  0.0360
 9642SOL    HW230215   2.255   2.794   2.785  0.3575  0.5983 -1.1502
 9643SOL     OW30216   4.389   3.522   2.593  0.6875  0.1905 -0.3157
 9643SOL    HW130217   4.433   3.552   2.673  0.6756  0.9618 -0.5997
 9643SOL    HW230218   4.461   3.494   2.536  0.6694 -0.9192  0.1761
 9644SOL     OW30219   1.482   0.490   7.609  0.6427  0.0128 -0.4161
 9644SOL    HW130220   1.419   0.435   7.562  0.3125 -0.8161  0.9390
 9644SOL    HW230221   1.560   0.489   7.554  0.8535 -2.3036 -0.1859
 9645SOL     OW30222   6.618   2.015   0.097  0.3185  0.0249 -0.6754
 9645SOL    HW130223   6.616   2.069   0.017  1.0745 -1.1362 -1.5105
 9645SOL    HW230224   6.573   1.934   0.072  0.8493 -0.4821 -0.0355
 9646SOL     OW30225   7.161   4.218   5.096 -0.1214 -0.8696 -0.4766
 9646SOL    HW130226   7.168   4.206   5.001  0.0739  0.1489 -0.6039
 9646SOL    HW230227   7.252   4.217   5.127 -0.2165 -1.9315 -0.1898
 9647SOL     OW30228   8.003   5.312   4.022  0.2133 -0.1989 -0.0783
 9647SOL    HW130229   8.094   5.341   4.033 -0.3917  2.5734 -1.4373
 9647SOL    HW230230   7.957   5.345   4.099  0.1553 -0.7613  0.1346
 9648SOL     OW30231   2.346   3.468   4.970 -0.8043  0.3101  0.0686
 9648SOL    HW130232   2.368   3.472   5.063  0.7940 -0.2207 -0.2507
 9648SOL    HW230233   2.266   3.415   4.967 -0.7309  0.1135  1.1184
 9649SOL     OW30234   2.383   0.069   2.726 -0.0704 -0.1946 -0.4885
 9649SOL    HW130235   2.341   0.128   2.663 -0.8770 -0.3773 -0.1326
 9649SOL    HW230236   2.427   0.128   2.787  0.6350 -0.0134 -1.1505
 9650SOL     OW30237   7.451   2.814   4.918 -1.0994  0.3586 -0.4240
 9650SOL    HW130238   7.522   2.811   4.982 -0.6056 -1.2536 -1.0083
 9650SOL    HW230239   7.433   2.908   4.907  0.4121  0.7633  0.3064
 9651SOL     OW30240   3.216   2.002   6.531 -0.1940  0.0114  0.0791
 9651SOL    HW130241   3.232   1.907   6.529 -1.0926 -0.2178  2.0377
 9651SOL    HW230242   3.303   2.040   6.545  0.0551 -0.5753  0.1770
 9652SOL     OW30243   3.762   4.723   4.995  0.0751 -0.3669 -0.1017
 9652SOL    HW130244   3.774   4.635   5.032 -1.5015 -0.8904 -0.7154
 9652SOL    HW230245   3.674   4.720   4.957 -0.1944  1.6511  0.2903
 9653SOL     OW30246   2.164   1.932   7.507  0.5490 -0.1914  0.1700
 9653SOL    HW130247   2.182   2.012   7.457  0.1076 -0.5534 -0.5869
 9653SOL    HW230248   2.092   1.890   7.459  2.1027 -2.0764 -0.6453
 9654SOL     OW30249   6.146   6.638   4.456 -0.5999  0.2782 -0.1569
 9654SOL    HW130250   6.096   6.717   4.436 -1.2024  0.8509  3.1517
 9654SOL    HW230251   6.193   6.658   4.537  2.3405 -1.4637 -1.2612
 9655SOL     OW30252   2.683   0.691   8.598 -0.2772 -0.3351  0.1979
 9655SOL    HW130253   2.642   0.642   8.528  0.1043 -0.5875  0.1493
 9655SOL    HW230254   2.621   0.761   8.618 -1.0115 -1.0642  0.5393
 9656SOL     OW30255   6.999   8.070   7.654 -0.2445 -0.0239  0.3787
 9656SOL    HW130256   6.960   7.983   7.667  2.2973 -1.0555  2.1352
 9656SOL    HW230257   6.975   8.119   7.733 -1.9994  1.0728 -0.7846
 9657SOL     OW30258   7.763   1.088   4.583 -0.0528 -0.3385 -0.3384
 9657SOL    HW130259   7.703   1.118   4.651 -0.3965  2.0732 -1.5861
 9657SOL    HW230260   7.709   1.038   4.523 -0.1899 -0.6509  0.0430
 9658SOL     OW30261   0.075   3.083   7.482 -0.0560 -0.1887 -0.0778
 9658SOL    HW130262  -0.003   3.044   7.522  0.0236  0.5799  0.8799
 9658SOL    HW230263   0.140   3.086   7.553  0.5664 -0.0600 -0.6384
 9659SOL     OW30264   1.126   4.056   3.603  0.2169  0.3058  0.3093
 9659SOL    HW130265   1.212   4.039   3.641 -0.0068  1.0160  1.1855
 9659SOL    HW230266   1.071   4.079   3.678 -1.1371 -1.5806 -0.0367
 9660SOL     OW30267   4.129   7.699   5.924 -0.4125  0.2170  0.8173
 9660SOL    HW130268   4.090   7.678   6.009 -0.8032 -0.2732  0.5241
 9660SOL    HW230269   4.151   7.614   5.886 -1.3664  0.3455 -0.0833
 9661SOL     OW30270   7.619   3.824   7.040 -0.8999 -0.0578  0.4759
 9661SOL    HW130271   7.648   3.737   7.069  0.7865  0.1023 -0.5572
 9661SOL    HW230272   7.700   3.873   7.025 -1.8139  1.7929  1.2401
 9662SOL     OW30273   0.471   2.797   2.041  0.6403  0.4813 -0.3850
 9662SOL    HW130274   0.464   2.732   2.111  3.8646 -0.1039 -0.4229
 9662SOL    HW230275   0.557   2.838   2.055  0.8901  1.1882 -3.2680
 9663SOL     OW30276   8.092   5.142   2.635 -0.5395  0.3334  0.8358
 9663SOL    HW130277   8.075   5.076   2.567 -0.6612  1.3073 -0.0996
 9663SOL    HW230278   8.187   5.153   2.634 -0.5386  0.3243  0.8382
 9664SOL     OW30279   7.487   3.655   0.648  0.0245  0.1529  0.2427
 9664SOL    HW130280   7.442   3.605   0.580  2.9491 -1.0306 -1.0178
 9664SOL    HW230281   7.511   3.591   0.714 -1.2579  0.9924  1.5712
 9665SOL     OW30282   3.714   1.825   0.232 -0.1372 -0.1581 -0.0632
 9665SOL    HW130283   3.776   1.757   0.257 -0.9908 -1.0400 -0.2455
 9665SOL    HW230284   3.665   1.843   0.313  0.1111  0.2721 -0.0070
 9666SOL     OW30285   6.893   1.968   6.752 -0.2972 -0.0314  0.3891
 9666SOL    HW130286   6.928   2.011   6.830 -0.4888  0.3620  0.2602
 9666SOL    HW230287   6.902   1.875   6.770 -0.7835  0.0531  1.0856
 9667SOL     OW30288   3.248   7.969   6.005 -0.2636  0.1771  0.1888
 9667SOL    HW130289   3.336   7.931   5.998 -0.3430  0.2153 -1.4558
 9667SOL    HW230290   3.200   7.930   5.932 -0.1850  3.8376 -2.0360
 9668SOL     OW30291   3.980   3.256   3.773  0.2272  0.6599  0.0170
 9668SOL    HW130292   4.056   3.290   3.726  0.0139 -0.4774 -1.2081
 9668SOL    HW230293   3.906   3.307   3.740  0.1261  0.0838 -0.6947
 9669SOL     OW30294   5.253   6.395   0.411 -0.5113 -0.1106  0.1002
 9669SOL    HW130295   5.180   6.337   0.432 -0.2438 -0.2258  0.7534
 9669SOL    HW230296   5.325   6.364   0.467 -0.8408  1.8997  1.7532
 9670SOL     OW30297   4.483   4.923   1.290 -0.0304 -0.1683 -0.2094
 9670SOL    HW130298   4.548   4.989   1.312  1.0563 -0.2644 -2.8192
 9670SOL    HW230299   4.533   4.841   1.286 -0.7317 -0.6047 -0.1770
 9671SOL     OW30300   5.140   5.166   3.916 -0.2505  0.2988 -0.2604
 9671SOL    HW130301   5.087   5.241   3.942  0.8347  1.1510 -0.4494
 9671SOL    HW230302   5.146   5.172   3.821 -1.1137 -0.6997 -0.3968
 9672SOL     OW30303   2.686   0.764   5.348  0.2238  0.8514  0.1669
 9672SOL    HW130304   2.597   0.778   5.317  0.2814 -1.0540 -0.9736
 9672SOL    HW230305   2.677   0.714   5.429  0.2660 -1.5079 -1.2208
 9673SOL     OW30306   1.276   6.053   7.751  0.3214 -0.5851 -0.0829
 9673SOL    HW130307   1.221   5.976   7.739 -2.2705  1.0953  0.2114
 9673SOL    HW230308   1.301   6.050   7.844 -2.2725  0.3599  0.7408
 9674SOL     OW30309   0.093   3.978   7.052 -0.0187 -0.0463  0.1450
 9674SOL    HW130310   0.006   3.985   7.013 -0.6140 -0.1184  1.4103
 9674SOL    HW230311   0.131   4.066   7.043  0.3315 -0.3583 -1.6270
 9675SOL     OW30312   3.995   1.681   1.304  0.3442  0.1229  0.2628
 9675SOL    HW130313   4.019   1.769   1.332  0.8204  0.3090 -0.7082
 9675SOL    HW230314   3.899   1.680   1.307  0.3154  0.9022 -0.4213
 9676SOL     OW30315   3.474   5.047   2.148  0.8322  0.3457  0.3562
 9676SOL    HW130316   3.473   5.026   2.055  2.2147  0.0069  0.4000
 9676SOL    HW230317   3.493   4.964   2.191  0.8504  0.6259  0.8978
 9677SOL     OW30318   1.706   4.814   0.009  0.5035  0.6889 -0.0668
 9677SOL    HW130319   1.615   4.785   0.021 -0.3489  2.9324 -0.5617
 9677SOL    HW230320   1.714   4.892   0.065  2.0260  0.7171 -0.2766
 9678SOL     OW30321   5.881   0.343   0.567  0.1294 -0.3813 -0.3479
 9678SOL    HW130322   5.812   0.407   0.589  1.4574  0.4642  1.5906
 9678SOL    HW230323   5.927   0.327   0.649  2.3335 -0.8303 -1.5825
 9679SOL     OW30324   8.345   6.115   1.986  0.0023  0.2019  0.5582
 9679SOL    HW130325   8.423   6.076   2.025  0.1779  0.3473  0.3559
 9679SOL    HW230326   8.294   6.146   2.061 -0.0925 -0.3246  0.7145
 9680SOL     OW30327   8.060   6.637   1.662  0.3305 -0.2588  0.1470
 9680SOL    HW130328   8.030   6.577   1.593  3.9545 -2.0009 -0.1604
 9680SOL    HW230329   7.981   6.681   1.692 -1.8451 -1.6896 -2.9892
 9681SOL     OW30330   4.460   5.320   4.024 -0.1770  0.0459  0.0689
 9681SOL    HW130331   4.555   5.315   4.039 -0.1352  1.4666  0.5086
 9681SOL    HW230332   4.424   5.348   4.109 -0.9656 -0.2997 -0.1480
 9682SOL     OW30333   4.313   4.186   1.022 -0.1896  0.0765 -0.4294
 9682SOL    HW130334   4.255   4.259   0.999 -0.4498 -0.4610 -1.5324
 9682SOL    HW230335   4.363   4.219   1.097  0.5541  1.8449 -1.6263
 9683SOL     OW30336   0.283   2.561   0.172 -0.0553  0.7771 -0.5932
 9683SOL    HW130337   0.341   2.490   0.146  0.6481  0.9464  0.4320
 9683SOL    HW230338   0.245   2.532   0.255 -0.9355  0.9605 -0.9181
 9684SOL     OW30339   5.997   4.540   8.367 -0.7428  0.2098 -0.6170
 9684SOL    HW130340   5.933   4.496   8.312 -0.1276 -0.5714 -0.7284
 9684SOL    HW230341   6.067   4.476   8.379 -0.4600  0.6738  0.3578
 9685SOL     OW30342   0.198   4.179   7.517 -0.0104  0.1035  0.8023
 9685SOL    HW130343   0.126   4.219   7.468  0.5162  1.6073  1.1960
 9685SOL    HW230344   0.249   4.254   7.549 -0.1510 -0.8101  3.3615
 9686SOL     OW30345   1.996   8.413   7.898  0.1726 -0.7093 -0.5712
 9686SOL    HW130346   1.985   8.320   7.918 -0.1806 -0.2256  1.8600
 9686SOL    HW230347   1.971   8.457   7.979  0.5914  1.5033 -1.5844
 9687SOL     OW30348   6.923   7.360   0.118 -0.3420 -0.2914 -0.1109
 9687SOL    HW130349   6.981   7.286   0.100  0.5500  0.4476 -0.3531
 9687SOL    HW230350   6.935   7.377   0.212 -0.9905 -0.8079  0.0744
 9688SOL     OW30351   6.850   2.358   1.533 -0.8319 -0.0763 -0.7873
 9688SOL    HW130352   6.776   2.365   1.472 -0.8755 -1.8970 -1.0180
 9688SOL    HW230353   6.895   2.278   1.506  1.1551  0.8978 -0.5374
 9689SOL     OW30354   3.104   3.621   8.395  0.0561 -0.1513  0.2231
 9689SOL    HW130355   3.155   3.697   8.369  1.9159 -1.4242 -0.0063
 9689SOL    HW230356   3.134   3.551   8.337 -2.2945 -0.8700 -0.2291
 9690SOL     OW30357   3.425   5.336   0.205 -0.1162  0.3877  0.7036
 9690SOL    HW130358   3.455   5.257   0.159 -0.7969  1.1284 -1.1083
 9690SOL    HW230359   3.336   5.350   0.172 -0.0950  1.7730  1.2040
 9691SOL     OW30360   7.806   4.859   4.490  0.1270 -0.1973  0.5533
 9691SOL    HW130361   7.752   4.788   4.525  0.0627 -0.4081  0.0330
 9691SOL    HW230362   7.879   4.866   4.552 -0.6096  0.2588  1.4118
 9692SOL     OW30363   2.992   6.181   6.236  0.3267 -0.2603 -0.1176
 9692SOL    HW130364   2.937   6.199   6.313  0.1144  0.7005 -0.4785
 9692SOL    HW230365   3.031   6.096   6.254 -0.0663 -0.2488  0.8585
 9693SOL     OW30366   2.497   3.866   4.233  0.3585  0.0211 -0.0294
 9693SOL    HW130367   2.489   3.884   4.139 -1.5826 -1.1055 -0.1382
 9693SOL    HW230368   2.554   3.935   4.266  1.1242  0.4279 -2.0295
 9694SOL     OW30369   4.125   7.508   0.261 -0.1246  0.0891 -0.4649
 9694SOL    HW130370   4.097   7.588   0.216  0.8310  0.5472 -0.2712
 9694SOL    HW230371   4.143   7.446   0.191 -2.0342 -0.3751 -0.5823
 9695SOL     OW30372   7.384   7.287   0.450 -0.0864 -0.1007  0.1414
 9695SOL    HW130373   7.358   7.203   0.411 -1.0238  0.0682  0.3794
 9695SOL    HW230374   7.446   7.324   0.387 -0.2579 -0.6212 -0.3427
 9696SOL     OW30375   5.094   4.649   1.659 -0.2354  0.3169  0.5286
 9696SOL    HW130376   5.164   4.679   1.717  0.1990  0.5316 -0.0995
 9696SOL    HW230377   5.025   4.619   1.719 -0.3943  1.8698  1.1762
 9697SOL     OW30378   2.804   6.268   2.696  0.0061 -0.0361 -0.3923
 9697SOL    HW130379   2.817   6.260   2.790 -1.0607  0.7557 -0.1588
 9697SOL    HW230380   2.891   6.256   2.658  0.7898  1.5242  0.8131
 9698SOL     OW30381   5.735   5.225   0.419 -0.3686  0.5852  0.5896
 9698SOL    HW130382   5.714   5.180   0.500  3.1800  0.0666  1.4057
 9698SOL    HW230383   5.771   5.156   0.362  2.0274  1.6844  0.6191
 9699SOL     OW30384   2.806   0.976   5.496  0.2640 -0.7719  0.1420
 9699SOL    HW130385   2.794   1.031   5.419  1.3848  0.1080  0.5635
 9699SOL    HW230386   2.806   0.887   5.463 -3.4300 -0.7389 -0.3639
 9700SOL     OW30387   0.230   4.043   1.926  0.4027 -0.3953  0.1202
 9700SOL    HW130388   0.317   4.033   1.964  0.9890  0.2418 -0.9761
 9700SOL    HW230389   0.247   4.070   1.835 -0.8650 -3.4074 -1.1587
 9701SOL     OW30390   7.201   8.494   2.172  0.0567  0.3626 -0.6296
 9701SOL    HW130391   7.229   8.496   2.080 -2.8751 -0.2614 -1.6305
 9701SOL    HW230392   7.217   8.404   2.200  1.2207  0.6250 -0.3928
 9702SOL     OW30393   4.098   5.370   5.531  0.2193 -0.2257  0.1251
 9702SOL    HW130394   4.163   5.438   5.510  0.4949 -1.0023 -1.7749
 9702SOL    HW230395   4.143   5.312   5.593  0.6658  0.2694  0.2711
 9703SOL     OW30396   3.881   5.144   4.880 -0.6596  0.1501  0.8489
 9703SOL    HW130397   3.972   5.161   4.854 -0.6893  0.5316  0.9927
 9703SOL    HW230398   3.867   5.201   4.955 -0.7558 -0.5207  1.3519
 9704SOL     OW30399   6.730   5.588   1.552 -0.0186  0.1047  0.1221
 9704SOL    HW130400   6.816   5.582   1.510  0.5256 -1.2511  1.3495
 9704SOL    HW230401   6.748   5.627   1.638 -0.4745 -1.0105  0.7447
 9705SOL     OW30402   2.445   7.075   7.091  0.0549  0.2830 -0.6838
 9705SOL    HW130403   2.421   7.087   6.999 -1.6869  0.9727 -0.1667
 9705SOL    HW230404   2.375   7.022   7.128  2.0383 -2.2459 -0.3015
 9706SOL     OW30405   7.017   1.078   5.168  0.1096 -0.3229 -0.2178
 9706SOL    HW130406   7.012   1.001   5.110  0.7093 -0.3663 -0.2235
 9706SOL    HW230407   7.010   1.153   5.109  0.7378 -0.3668 -0.3641
 9707SOL     OW30408   7.050   4.545   5.865 -0.1712  0.0417 -0.0026
 9707SOL    HW130409   7.037   4.512   5.776  0.0496 -0.9418  0.3205
 9707SOL    HW230410   7.031   4.638   5.858  0.1876  0.0510 -1.1568
 9708SOL     OW30411   5.104   2.856   5.812 -0.2608  0.3492 -0.3812
 9708SOL    HW130412   5.030   2.799   5.791  0.5652 -0.9362  0.0950
 9708SOL    HW230413   5.155   2.860   5.730 -0.5986  0.8444 -0.5692
 9709SOL     OW30414   0.611   2.433   6.326 -0.4044  0.3013  0.3711
 9709SOL    HW130415   0.580   2.430   6.235 -0.9678  0.2005  0.5598
 9709SOL    HW230416   0.623   2.341   6.350 -1.7479  0.2327  0.8827
 9710SOL     OW30417   2.419   4.995   2.889 -0.2463 -0.5404 -0.3039
 9710SOL    HW130418   2.353   4.929   2.873  0.5439 -1.0984 -1.4418
 9710SOL    HW230419   2.502   4.948   2.882  0.3338  0.5750 -1.2343
 9711SOL     OW30420   0.344   0.001   7.415  0.6232  0.7058  0.4356
 9711SOL    HW130421   0.406  -0.070   7.428  1.7750  1.6281  0.1846
 9711SOL    HW230422   0.258  -0.041   7.419  1.2784 -0.7828 -0.2815
 9712SOL     OW30423   1.513   1.247   8.297  0.0323 -0.2639  0.3790
 9712SOL    HW130424   1.443   1.186   8.318  1.3947 -1.3888  1.8321
 9712SOL    HW230425   1.502   1.319   8.359 -0.6865  0.2832 -0.3625
 9713SOL     OW30426   7.167   8.120   1.383 -0.5460 -0.1845 -0.0488
 9713SOL    HW130427   7.103   8.192   1.390  1.8451  1.9129  2.9698
 9713SOL    HW230428   7.152   8.067   1.461  0.5500 -0.3850  0.0389
 9714SOL     OW30429   4.779   0.251   2.978  0.2841 -0.3820 -0.3571
 9714SOL    HW130430   4.822   0.333   2.999 -1.3817  0.2539  0.8104
 9714SOL    HW230431   4.716   0.273   2.909  0.3552 -0.8346 -0.5707
 9715SOL     OW30432   8.585   1.484   4.731  0.7286 -0.1128  0.2071
 9715SOL    HW130433   8.605   1.442   4.647  0.1092  0.0402 -0.0254
 9715SOL    HW230434   8.536   1.563   4.707  2.1569  0.9318  0.6250
 9716SOL     OW30435   2.956   8.150   3.746  0.3950  0.2981 -0.5014
 9716SOL    HW130436   2.907   8.228   3.772 -0.0150 -0.2237  0.3208
 9716SOL    HW230437   3.019   8.136   3.817  0.9189  0.2590 -0.9679
 9717SOL     OW30438   0.282   2.063   4.137  0.0622 -0.0487 -0.3479
 9717SOL    HW130439   0.354   2.104   4.089  1.1043 -2.0123 -0.6032
 9717SOL    HW230440   0.320   1.981   4.171 -1.5112 -0.1840  1.2319
 9718SOL     OW30441   1.286   6.893   4.839 -0.3123  0.7454 -0.1782
 9718SOL    HW130442   1.377   6.877   4.865 -0.4089 -0.9969 -0.7609
 9718SOL    HW230443   1.289   6.893   4.743 -0.8783  1.0048 -0.1994
 9719SOL     OW30444   1.690   7.434   5.196  0.1641 -0.6014  0.1189
 9719SOL    HW130445   1.740   7.491   5.255 -0.2922  0.6411 -0.6350
 9719SOL    HW230446   1.755   7.398   5.136  0.4378 -0.6805  0.4635
 9720SOL     OW30447   1.950   0.603   1.735  0.0323 -0.4087  0.3580
 9720SOL    HW130448   1.930   0.565   1.821  1.0300 -1.0662  0.3190
 9720SOL    HW230449   1.894   0.555   1.674 -0.2515 -0.3476  0.5662
 9721SOL     OW30450   6.139   8.431   2.145 -0.3768 -0.1920  0.1302
 9721SOL    HW130451   6.143   8.359   2.082  0.5008 -0.6818  0.7367
 9721SOL    HW230452   6.145   8.510   2.090 -0.3373 -0.5882 -0.4502
 9722SOL     OW30453   0.244   1.758   2.160 -0.6000 -0.3194 -0.4385
 9722SOL    HW130454   0.339   1.764   2.152 -0.7365  1.2832 -1.2029
 9722SOL    HW230455   0.222   1.672   2.125  0.5939 -0.8761  0.1388
 9723SOL     OW30456   0.714   7.650   6.751 -0.2227 -0.5076  0.2336
 9723SOL    HW130457   0.678   7.730   6.790 -0.4357 -0.6112  0.2500
 9723SOL    HW230458   0.671   7.644   6.666  0.9589  0.2440 -0.4378
 9724SOL     OW30459   1.931   7.724   2.398  0.0565  0.6002 -0.5722
 9724SOL    HW130460   1.857   7.783   2.384  0.0839  0.3647 -1.8843
 9724SOL    HW230461   1.963   7.705   2.310  0.8667 -0.3373 -0.0990
 9725SOL     OW30462   1.369   1.567   8.225 -0.1189 -0.1025 -0.0925
 9725SOL    HW130463   1.384   1.600   8.314  0.7504  1.5598 -0.8031
 9725SOL    HW230464   1.281   1.598   8.203 -1.1971 -2.2543  0.8617
 9726SOL     OW30465   7.803   7.507   7.227  0.4622 -0.0408 -0.1938
 9726SOL    HW130466   7.822   7.417   7.201  0.5516  0.0554 -0.4750
 9726SOL    HW230467   7.777   7.550   7.145  1.0163  0.3400 -0.1762
 9727SOL     OW30468   5.206   5.289   1.152 -0.1134 -0.9463 -0.0993
 9727SOL    HW130469   5.136   5.318   1.210  0.2102 -0.3661  0.0095
 9727SOL    HW230470   5.203   5.193   1.157  0.1518 -0.9128  1.1845
 9728SOL     OW30471   1.362   8.500   1.635  0.6506  0.1367  0.0523
 9728SOL    HW130472   1.401   8.412   1.630 -0.3190 -0.3469  0.8077
 9728SOL    HW230473   1.437   8.559   1.630  1.2896 -0.7116 -0.9005
 9729SOL     OW30474   8.562   4.854   4.880 -0.4650 -0.4342  0.3310
 9729SOL    HW130475   8.517   4.769   4.886 -1.5669  0.1300  0.2444
 9729SOL    HW230476   8.510   4.913   4.934 -0.3140  0.4310 -0.4436
 9730SOL     OW30477   4.857   0.608   2.452 -0.0117  0.2137  0.0786
 9730SOL    HW130478   4.950   0.624   2.469 -0.1973  0.7878  0.6021
 9730SOL    HW230479   4.814   0.628   2.536 -0.3935 -2.0628  0.4798
 9731SOL     OW30480   5.567   4.197   6.214 -0.3534 -0.1144 -0.1742
 9731SOL    HW130481   5.530   4.114   6.185  2.9644 -0.8964 -2.7794
 9731SOL    HW230482   5.573   4.250   6.135 -1.1130  2.1541  1.1889
 9732SOL     OW30483   6.060   7.490   2.267  0.5676 -0.1555  0.0901
 9732SOL    HW130484   6.103   7.404   2.265  1.9099  0.4916 -0.9296
 9732SOL    HW230485   6.132   7.552   2.257 -0.5345  1.0317 -0.6852
 9733SOL     OW30486   1.094   1.097   2.735 -0.6134  0.0888  0.0680
 9733SOL    HW130487   1.165   1.123   2.793 -1.0966 -1.0776  1.2367
 9733SOL    HW230488   1.131   1.024   2.685 -0.6654  0.1517 -0.0626
 9734SOL     OW30489   5.477   6.962   7.663 -0.5280 -0.0914  0.1433
 9734SOL    HW130490   5.417   6.997   7.597  0.8376 -1.6889 -2.0962
 9734SOL    HW230491   5.428   6.890   7.703 -1.0871  0.3916  0.3523
 9735SOL     OW30492   7.429   5.638   5.241 -0.5565  0.2868  0.4694
 9735SOL    HW130493   7.457   5.548   5.258 -0.1543  0.1178 -0.9389
 9735SOL    HW230494   7.479   5.665   5.164 -0.8262  1.6504  0.7377
 9736SOL     OW30495   4.984   6.154   0.079 -0.5255  0.2585 -0.0223
 9736SOL    HW130496   4.889   6.145   0.078 -0.4086 -1.5987 -1.8743
 9736SOL    HW230497   5.000   6.248   0.077 -2.3416  0.5823 -0.8974
 9737SOL     OW30498   6.042   4.493   1.273 -0.9512  0.1617  0.0269
 9737SOL    HW130499   6.081   4.579   1.283  0.6030 -0.1794 -2.1763
 9737SOL    HW230500   5.955   4.509   1.237 -0.1609  0.8585 -1.7049
 9738SOL     OW30501   7.432   1.127   6.017 -0.0112 -0.2277 -0.0824
 9738SOL    HW130502   7.378   1.114   6.095  1.7896 -3.1261  0.8287
 9738SOL    HW230503   7.511   1.171   6.050 -0.2641  0.7916 -0.7746
 9739SOL     OW30504   5.856   3.623   8.453  0.2656 -0.1278  0.0641
 9739SOL    HW130505   5.789   3.670   8.404  0.0941  0.4546  0.8447
 9739SOL    HW230506   5.811   3.594   8.533 -0.0366 -2.8115 -0.9448
 9740SOL     OW30507   2.295   0.885   1.156 -0.1618  0.5189 -0.1101
 9740SOL    HW130508   2.302   0.906   1.249 -0.1674  1.0427 -0.2268
 9740SOL    HW230509   2.215   0.929   1.127 -2.4914 -2.8408  0.5013
 9741SOL     OW30510   6.482   1.811   1.772 -0.2641  0.0582  0.3706
 9741SOL    HW130511   6.409   1.756   1.800 -1.6169  1.8996  0.6670
 9741SOL    HW230512   6.445   1.867   1.703  0.6856  1.4317  0.9333
 9742SOL     OW30513   3.756   4.757   1.292  0.1073  0.3137 -0.6085
 9742SOL    HW130514   3.729   4.769   1.383  1.9124 -1.0258  0.1482
 9742SOL    HW230515   3.684   4.796   1.241 -0.7021  1.5652  1.3610
 9743SOL     OW30516   0.032   7.626   8.259 -0.0609  0.0267 -0.5325
 9743SOL    HW130517  -0.026   7.700   8.276 -0.1063 -0.2174  0.4089
 9743SOL    HW230518   0.017   7.566   8.332 -0.3658 -1.1321 -1.5275
 9744SOL     OW30519   5.213   6.730   5.859 -0.2014  0.1920 -0.4011
 9744SOL    HW130520   5.285   6.667   5.860  0.4259  0.9009  0.5335
 9744SOL    HW230521   5.221   6.774   5.775  0.0263 -0.2149 -0.5959
 9745SOL     OW30522   7.084   0.553   6.751 -0.3289 -0.1515 -0.2229
 9745SOL    HW130523   7.005   0.511   6.785  0.1383 -1.3163 -0.5309
 9745SOL    HW230524   7.074   0.550   6.656  0.4883 -1.1341 -0.2889
 9746SOL     OW30525   3.492   8.497   6.139  0.4893 -0.5151 -0.0594
 9746SOL    HW130526   3.510   8.421   6.194  1.0105 -0.8772 -0.7154
 9746SOL    HW230527   3.516   8.469   6.050 -0.7443 -0.0996 -0.5562
 9747SOL     OW30528   0.471   6.736   8.230  0.7401 -0.3287  0.6205
 9747SOL    HW130529   0.421   6.817   8.225  2.4846  0.7545 -0.3040
 9747SOL    HW230530   0.483   6.709   8.139 -0.9229 -2.4195  0.9183
 9748SOL     OW30531   2.936   6.573   2.995  0.0899  0.0035  0.4501
 9748SOL    HW130532   2.959   6.645   2.937 -1.4456 -0.8863 -1.3505
 9748SOL    HW230533   3.003   6.506   2.979  0.2869  0.1786  0.5353
 9749SOL     OW30534   8.433   7.313   4.172  0.5899  0.0068  0.1332
 9749SOL    HW130535   8.384   7.393   4.153  1.3956  0.1640 -1.5257
 9749SOL    HW230536   8.413   7.255   4.098  0.9828 -0.8469  0.6874
 9750SOL     OW30537   7.695   6.735   7.238  0.0714  0.4493  0.5514
 9750SOL    HW130538   7.754   6.777   7.300  0.4130  1.8272 -0.6511
 9750SOL    HW230539   7.643   6.806   7.202  0.0263 -0.2677 -0.8804
 9751SOL     OW30540   8.435   6.242   3.473  0.5342  0.1691 -0.1423
 9751SOL    HW130541   8.494   6.316   3.456  0.3421  0.6465  1.1852
 9751SOL    HW230542   8.428   6.238   3.568  0.5071 -1.5595 -0.1858
 9752SOL     OW30543   6.005   3.236   0.549  0.2563 -0.1997  0.3172
 9752SOL    HW130544   5.928   3.239   0.606 -0.9387  0.7519 -1.2645
 9752SOL    HW230545   6.009   3.145   0.519 -1.4989  0.1354 -1.1309
 9753SOL     OW30546   7.707   8.710   7.360 -0.8129  0.7328 -0.6805
 9753SOL    HW130547   7.669   8.796   7.379 -0.2615  0.8972 -0.2596
 9753SOL    HW230548   7.786   8.708   7.414 -0.0674  0.5237 -1.7487
 9754SOL     OW30549   2.298   5.805   2.174  0.1474 -0.2351  0.0376
 9754SOL    HW130550   2.346   5.847   2.245  0.3713  0.2405 -0.3929
 9754SOL    HW230551   2.208   5.798   2.207  0.0978  0.6221  0.0950
 9755SOL     OW30552   6.796   6.762   8.558 -0.1230 -0.1172 -0.0718
 9755SOL    HW130553   6.837   6.685   8.519  1.5007  1.1895 -1.0855
 9755SOL    HW230554   6.847   6.779   8.637 -0.3126  0.0961  0.0075
 9756SOL     OW30555   0.455   7.126   7.565 -0.1416 -0.2735  0.1457
 9756SOL    HW130556   0.383   7.180   7.533  0.8873 -0.4655 -2.7666
 9756SOL    HW230557   0.531   7.155   7.516  0.4386 -4.3608 -1.8087
 9757SOL     OW30558   5.505   8.421   5.447  0.4133  0.2272 -0.2205
 9757SOL    HW130559   5.513   8.328   5.464 -1.0210  0.0370 -0.4698
 9757SOL    HW230560   5.455   8.427   5.366 -0.6769  1.2105  0.4870
 9758SOL     OW30561   5.803   8.089   4.342 -0.3334  0.0087 -0.1069
 9758SOL    HW130562   5.843   8.084   4.255  0.6120 -0.4600  0.3456
 9758SOL    HW230563   5.798   7.998   4.372  1.9387  0.3166  1.4590
 9759SOL     OW30564   3.358   3.969   4.341  0.4258  0.1235  0.0919
 9759SOL    HW130565   3.289   3.955   4.276  1.9158  0.7247 -1.7368
 9759SOL    HW230566   3.318   4.025   4.407 -1.0395 -0.1608 -0.5177
 9760SOL     OW30567   8.281   1.148   4.201 -0.0308  0.4304  0.2180
 9760SOL    HW130568   8.228   1.220   4.167 -0.0501  0.7987  0.9962
 9760SOL    HW230569   8.332   1.187   4.272  0.8735 -0.0470 -0.1471
 9761SOL     OW30570   7.163   1.934   1.169 -0.2675  0.0762 -0.1454
 9761SOL    HW130571   7.236   1.872   1.165 -1.0961 -0.8858 -1.1241
 9761SOL    HW230572   7.104   1.897   1.235 -0.8948 -0.3577 -0.9252
 9762SOL     OW30573   3.877   2.162   4.821  0.3182  0.3196 -0.0693
 9762SOL    HW130574   3.823   2.174   4.743 -0.5504  1.9298  0.7060
 9762SOL    HW230575   3.841   2.085   4.864 -1.0572  1.0294  0.1297
 9763SOL     OW30576   6.197   1.970   7.080  0.0636 -0.1770  0.2962
 9763SOL    HW130577   6.198   2.063   7.103  0.7909  0.5267 -2.2662
 9763SOL    HW230578   6.200   1.968   6.984 -0.2532 -2.8519  0.2453
 9764SOL     OW30579   0.057   7.490   0.814  0.3444  0.3835  0.2902
 9764SOL    HW130580   0.130   7.454   0.763 -0.5967 -0.8195 -0.2737
 9764SOL    HW230581   0.098   7.547   0.878  1.6777  0.8645 -0.9287
 9765SOL     OW30582   3.773   3.991   4.533 -0.0779 -0.2893 -0.1437
 9765SOL    HW130583   3.680   4.011   4.521 -0.3209 -0.8815  0.7150
 9765SOL    HW230584   3.818   4.065   4.492 -0.9165 -0.1002 -0.7546
 9766SOL     OW30585   1.918   0.096   5.424 -0.3674  0.5136  0.4764
 9766SOL    HW130586   1.972   0.161   5.468  3.0612 -2.8897  1.9002
 9766SOL    HW230587   1.847   0.078   5.486  1.8911 -1.0198  2.8060
 9767SOL     OW30588   4.487   1.610   5.612  0.2101 -0.0964  0.3101
 9767SOL    HW130589   4.493   1.667   5.689  0.2805  0.3904 -0.0510
 9767SOL    HW230590   4.461   1.525   5.647 -1.0769  0.4478  0.7505
 9768SOL     OW30591   4.196   0.991   4.494  0.0611  0.3542 -0.0380
 9768SOL    HW130592   4.119   0.939   4.519 -0.0985 -0.0088 -1.2034
 9768SOL    HW230593   4.253   0.928   4.448 -0.2165  1.2249 -1.6409
 9769SOL     OW30594   7.705   3.062   5.645 -0.4891 -0.3862 -0.2188
 9769SOL    HW130595   7.710   3.059   5.549  0.4929  1.4860 -0.2597
 9769SOL    HW230596   7.793   3.088   5.673 -0.6254 -1.3764  1.2411
 9770SOL     OW30597   6.150   1.553   7.502 -0.0895  0.2232 -1.1682
 9770SOL    HW130598   6.202   1.519   7.575 -0.5769 -1.9380 -1.7490
 9770SOL    HW230599   6.184   1.641   7.487 -2.4270  2.3706  4.0284
 9771SOL     OW30600   3.004   3.072   3.370  0.8739 -0.4451 -0.1609
 9771SOL    HW130601   2.908   3.072   3.375  0.8148  2.4807  0.1678
 9771SOL    HW230602   3.025   3.004   3.306 -1.5517  0.3283 -1.9093
 9772SOL     OW30603   0.476   6.774   3.298  0.3700 -0.3464 -0.6113
 9772SOL    HW130604   0.420   6.765   3.221  0.2576  0.4582 -0.6331
 9772SOL    HW230605   0.561   6.799   3.264  0.0018  1.2896 -0.4303
 9773SOL     OW30606   2.259   2.543   5.278  0.2399 -0.0297 -0.1737
 9773SOL    HW130607   2.183   2.602   5.278  0.5010  0.4111 -2.5231
 9773SOL    HW230608   2.335   2.602   5.284  0.4965 -0.0683 -2.3759
 9774SOL     OW30609   6.360   1.115   0.793 -0.9102  0.2484 -0.1799
 9774SOL    HW130610   6.392   1.189   0.844 -0.3678  1.0684 -1.6666
 9774SOL    HW230611   6.410   1.118   0.711 -0.6775 -1.9255 -0.1791
 9775SOL     OW30612   2.560   5.047   1.809  0.0149  0.2348 -0.1111
 9775SOL    HW130613   2.504   5.071   1.883 -0.2475 -0.3911 -0.1019
 9775SOL    HW230614   2.561   5.125   1.754 -0.0209  0.6076  0.4033
 9776SOL     OW30615   6.642   8.139   8.146 -0.2502 -0.1798  0.0310
 9776SOL    HW130616   6.671   8.188   8.224  2.6218  0.3781 -1.2444
 9776SOL    HW230617   6.600   8.205   8.091  1.8086  0.5363 -0.7980
 9777SOL     OW30618   3.558   4.024   6.621 -0.4672 -0.1826 -0.4508
 9777SOL    HW130619   3.637   4.077   6.630 -1.7852  2.1389 -1.5553
 9777SOL    HW230620   3.530   4.038   6.531 -2.9576  0.3109  0.3265
 9778SOL     OW30621   7.337   5.493   1.197  0.2580 -0.0183 -0.4459
 9778SOL    HW130622   7.374   5.561   1.253 -0.2990  0.1588 -0.2885
 9778SOL    HW230623   7.304   5.541   1.120 -1.8275  0.1647  0.4852
 9779SOL     OW30624   1.614   3.550   3.011 -0.4638 -0.6317  0.0705
 9779SOL    HW130625   1.553   3.515   3.075 -2.3064  0.8506 -0.7806
 9779SOL    HW230626   1.605   3.492   2.935  0.2860 -1.2533  0.4437
 9780SOL     OW30627   4.518   0.743   5.487  0.7896  0.0518  0.2351
 9780SOL    HW130628   4.464   0.726   5.564  0.8583 -0.4394  0.1823
 9780SOL    HW230629   4.544   0.655   5.457  2.0553  0.2949  0.5736
 9781SOL     OW30630   8.636   1.145   6.302  0.7773 -0.0431  0.3295
 9781SOL    HW130631   8.676   1.141   6.389 -0.6160  1.6784  1.1143
 9781SOL    HW230632   8.583   1.225   6.304 -0.2100 -0.5870 -1.7125
 9782SOL     OW30633   0.172   2.608   3.084  0.3546  0.4131 -0.2750
 9782SOL    HW130634   0.242   2.562   3.131  1.0829  0.2190 -1.5106
 9782SOL    HW230635   0.153   2.684   3.139  0.9270  0.0059  0.5158
 9783SOL     OW30636   5.813   5.552   6.375 -0.4197  0.0593 -0.3445
 9783SOL    HW130637   5.856   5.485   6.428  0.8734  1.5685  0.5842
 9783SOL    HW230638   5.719   5.534   6.385 -0.1144 -1.8062 -0.4396
 9784SOL     OW30639   1.537   1.665   6.554 -0.1106  0.0133 -0.1315
 9784SOL    HW130640   1.461   1.715   6.524 -0.4207 -0.7574 -0.6675
 9784SOL    HW230641   1.613   1.715   6.523 -0.3567  1.1947  1.0705
 9785SOL     OW30642   0.537   8.457   4.649  0.4836  0.6876  0.2097
 9785SOL    HW130643   0.608   8.488   4.706 -0.3918  2.1773  0.5448
 9785SOL    HW230644   0.562   8.368   4.626  1.4352  0.4350  2.0226
 9786SOL     OW30645   0.799   4.873   3.865 -0.6796  0.0690 -0.2241
 9786SOL    HW130646   0.769   4.783   3.848  2.6634 -0.8725 -1.9269
 9786SOL    HW230647   0.887   4.863   3.902 -0.8225  2.6748  1.0480
 9787SOL     OW30648   5.551   7.640   3.069  1.2551  0.5754 -0.4161
 9787SOL    HW130649   5.625   7.582   3.051  1.3078  0.2035  0.8712
 9787SOL    HW230650   5.586   7.708   3.126  0.8386  0.9947 -0.6504
 9788SOL     OW30651   5.185   6.846   4.685 -0.5929 -0.2837 -0.0353
 9788SOL    HW130652   5.102   6.820   4.725 -0.5850  1.9888  1.6689
 9788SOL    HW230653   5.168   6.933   4.649  1.2574  0.6818  1.2436
 9789SOL     OW30654   0.332   6.126   0.932  0.4431  0.4146  0.8131
 9789SOL    HW130655   0.403   6.062   0.922  0.5310  0.4982  0.8984
 9789SOL    HW230656   0.338   6.155   1.023 -0.4200 -0.4117  1.1414
 9790SOL     OW30657   5.374   0.026   4.956  0.1952  0.1074 -0.5910
 9790SOL    HW130658   5.417   0.067   5.031 -2.7149  0.7507  0.8507
 9790SOL    HW230659   5.403   0.079   4.881  1.3341  0.9178  0.3765
 9791SOL     OW30660   4.844   0.272   7.725 -0.5567 -0.4608  0.3154
 9791SOL    HW130661   4.767   0.241   7.772 -0.8159 -0.0261  0.1801
 9791SOL    HW230662   4.917   0.225   7.765 -0.6491  0.6199  1.8407
 9792SOL     OW30663   2.433   1.823   4.464 -0.5430 -0.3997  0.8811
 9792SOL    HW130664   2.346   1.855   4.441 -0.1859 -1.0209 -1.6142
 9792SOL    HW230665   2.485   1.902   4.479 -0.3914  0.2551 -2.3889
 9793SOL     OW30666   6.408   6.887   3.475 -0.3206 -0.2155  0.5072
 9793SOL    HW130667   6.368   6.812   3.520 -0.2538 -3.6392 -4.3953
 9793SOL    HW230668   6.501   6.882   3.499 -0.2433 -2.0508  0.0166
 9794SOL     OW30669   2.823   1.962   8.084  0.6314  0.6133  0.1523
 9794SOL    HW130670   2.793   1.935   8.171  1.0417 -0.8263 -0.1268
 9794SOL    HW230671   2.784   1.899   8.024  1.4685  0.7518 -0.5614
 9795SOL     OW30672   5.210   5.101   8.467  0.0366 -0.0874 -1.0864
 9795SOL    HW130673   5.127   5.070   8.431 -1.5006  1.1624  1.1009
 9795SOL    HW230674   5.244   5.026   8.516 -1.1383  0.1287  0.1077
 9796SOL     OW30675   8.700   2.669   8.223 -0.4669 -0.1238 -0.5430
 9796SOL    HW130676   8.654   2.687   8.141  0.8952 -2.0957 -1.8395
 9796SOL    HW230677   8.787   2.707   8.211 -0.6889  0.8117  0.6025
 9797SOL     OW30678   8.468   7.376   2.873 -0.0035  0.1612 -0.5078
 9797SOL    HW130679   8.460   7.471   2.879  0.1727  0.1736 -0.4886
 9797SOL    HW230680   8.547   7.354   2.922 -0.0503  0.0029 -0.5021
 9798SOL     OW30681   4.496   6.034   5.145 -0.4606 -0.0007 -0.2719
 9798SOL    HW130682   4.546   5.975   5.089 -1.7759 -0.6371 -0.8323
 9798SOL    HW230683   4.547   6.040   5.226  1.8173  1.4363 -1.6945
 9799SOL     OW30684   3.039   6.773   1.020 -0.4897  0.0756 -0.1498
 9799SOL    HW130685   3.104   6.826   1.066  0.3198 -2.6630  2.1130
 9799SOL    HW230686   3.091   6.720   0.959 -1.2307  1.3534 -1.9917
 9800SOL     OW30687   4.570   6.193   5.845  0.2560  0.6678  0.2318
 9800SOL    HW130688   4.601   6.103   5.843 -1.2859 -0.0265  2.7382
 9800SOL    HW230689   4.565   6.215   5.938 -0.6727  2.8909 -0.2634
 9801SOL     OW30690   4.068   1.991   4.965 -0.4524  0.2554  0.1672
 9801SOL    HW130691   3.985   2.038   4.952 -0.3546  0.1695 -0.8766
 9801SOL    HW230692   4.050   1.902   4.933  0.4370  0.6213 -1.4563
 9802SOL     OW30693   0.028   6.227   5.585  0.7786  0.8598 -0.0488
 9802SOL    HW130694  -0.044   6.169   5.560  2.0658 -0.6346 -0.4538
 9802SOL    HW230695   0.006   6.257   5.673 -1.5754  2.5243 -1.1048
 9803SOL     OW30696   6.409   2.058   4.535 -0.4126 -0.3142 -0.2390
 9803SOL    HW130697   6.490   2.071   4.487  0.2712  0.4036  1.0649
 9803SOL    HW230698   6.340   2.065   4.469  0.5652 -0.7278 -1.3253
 9804SOL     OW30699   0.471   3.732   7.163  0.2543 -0.0705 -0.0354
 9804SOL    HW130700   0.394   3.745   7.218  0.7549  0.0588  0.6503
 9804SOL    HW230701   0.437   3.737   7.073 -0.5609 -0.2086  0.2543
 9805SOL     OW30702   7.100   4.189   0.750  0.0704 -0.7726  0.0738
 9805SOL    HW130703   7.049   4.249   0.696  2.6128  1.2645 -0.2645
 9805SOL    HW230704   7.102   4.107   0.699  0.0601  0.2091 -1.5814
 9806SOL     OW30705   6.141   4.773   4.043 -0.0159 -0.0037  0.1084
 9806SOL    HW130706   6.074   4.708   4.062 -0.1946  0.7289  2.2082
 9806SOL    HW230707   6.217   4.745   4.094  0.7014  0.1568 -0.8359
 9807SOL     OW30708   0.230   1.268   0.854  0.4975  0.0301  0.5664
 9807SOL    HW130709   0.326   1.258   0.859  0.4449 -0.4477  0.7097
 9807SOL    HW230710   0.214   1.358   0.884  0.8286 -0.2234  1.5476
 9808SOL     OW30711   2.125   3.092   7.855 -0.2496  0.2767  0.0539
 9808SOL    HW130712   2.110   3.134   7.940 -0.9006  0.7778 -0.2965
 9808SOL    HW230713   2.217   3.064   7.858 -0.5595 -0.6872  1.3325
 9809SOL     OW30714   1.782   2.378   4.697 -0.6104 -0.1551  0.1479
 9809SOL    HW130715   1.800   2.413   4.610  1.6459 -0.6305  0.3403
 9809SOL    HW230716   1.767   2.284   4.683  0.1420 -0.3058  0.2688
 9810SOL     OW30717   4.498   1.019   2.796 -0.0043  0.0520 -0.5147
 9810SOL    HW130718   4.457   0.933   2.789 -0.7051  0.4761 -1.8241
 9810SOL    HW230719   4.463   1.056   2.877  0.6311 -1.0414  0.2898
 9811SOL     OW30720   5.490   7.458   5.052 -0.4846 -0.2619  0.2942
 9811SOL    HW130721   5.577   7.420   5.063 -0.8569 -1.3590 -0.4292
 9811SOL    HW230722   5.440   7.424   5.126 -0.3883  0.1534  0.5578
 9812SOL     OW30723   8.268   5.342   4.034 -0.0654 -0.0514 -0.2415
 9812SOL    HW130724   8.292   5.412   4.095  0.0667  0.5661 -0.9895
 9812SOL    HW230725   8.352   5.303   4.009 -0.2395 -1.9091  1.7903
 9813SOL     OW30726   1.760   5.194   7.900 -0.4732 -0.2328  0.4707
 9813SOL    HW130727   1.782   5.219   7.811 -2.0954 -0.0240  0.0976
 9813SOL    HW230728   1.739   5.101   7.895  2.6589 -1.1076  1.3099
 9814SOL     OW30729   0.897   2.949   6.305 -0.1709  0.3408 -0.5080
 9814SOL    HW130730   0.906   2.940   6.211 -1.6354 -1.4733 -0.5404
 9814SOL    HW230731   0.985   2.934   6.340 -0.1405 -2.1190 -1.4566
 9815SOL     OW30732   4.596   3.928   5.378  0.0379  0.5844 -0.2280
 9815SOL    HW130733   4.657   3.892   5.314 -0.9432 -0.0148 -0.8466
 9815SOL    HW230734   4.571   4.014   5.343 -0.6130  0.1937 -0.7370
 9816SOL     OW30735   4.848   1.407   8.272  0.0136 -0.0806  0.4089
 9816SOL    HW130736   4.856   1.452   8.188 -0.4564 -0.7234  0.0205
 9816SOL    HW230737   4.806   1.324   8.252 -1.0590  0.1917  1.4190
 9817SOL     OW30738   3.357   7.614   8.188  0.1110  0.7664  0.4777
 9817SOL    HW130739   3.327   7.523   8.195  1.0567  0.3665 -0.4242
 9817SOL    HW230740   3.380   7.638   8.277  0.2341 -0.0203  0.6681
 9818SOL     OW30741   0.008   2.665   2.860 -0.2404 -1.0003 -0.3535
 9818SOL    HW130742   0.011   2.598   2.792  0.6274 -0.7807 -0.5380
 9818SOL    HW230743   0.079   2.642   2.920  1.8598  1.2218 -1.8238
 9819SOL     OW30744   0.816   2.662   7.122 -0.5206  0.2525  0.6821
 9819SOL    HW130745   0.857   2.612   7.193  0.2172 -0.1298 -0.0091
 9819SOL    HW230746   0.873   2.650   7.047 -0.9308  1.2213  0.1919
 9820SOL     OW30747   6.286   6.571   5.481 -0.4969  0.4618 -0.0662
 9820SOL    HW130748   6.281   6.650   5.428  2.0245  0.0344 -1.1063
 9820SOL    HW230749   6.198   6.534   5.478 -1.8497  3.3273  0.7510
 9821SOL     OW30750   5.481   6.934   3.237  0.3617 -0.4123 -0.1348
 9821SOL    HW130751   5.408   6.949   3.177 -0.7044 -1.8988  0.7108
 9821SOL    HW230752   5.489   7.015   3.286 -1.4003 -0.5476  0.4364
 9822SOL     OW30753   4.520   6.732   6.254  0.0233 -0.4630 -0.0166
 9822SOL    HW130754   4.460   6.715   6.182  2.2529 -1.5188 -1.7396
 9822SOL    HW230755   4.552   6.821   6.238  1.1445 -0.9991 -0.8595
 9823SOL     OW30756   4.968   0.068   5.201 -0.9319  0.2348 -0.5908
 9823SOL    HW130757   4.941  -0.011   5.248 -0.6308 -0.4051 -1.4767
 9823SOL    HW230758   5.057   0.050   5.172 -0.8190  0.9448 -0.7152
 9824SOL     OW30759   6.694   1.937   4.857  0.7065 -0.0205 -0.0452
 9824SOL    HW130760   6.660   1.856   4.894  0.4261  0.2511  0.3061
 9824SOL    HW230761   6.719   1.915   4.768 -1.2397 -0.0269 -0.6234
 9825SOL     OW30762   7.726   2.360   1.331  0.0761  0.1544 -0.1188
 9825SOL    HW130763   7.682   2.427   1.279  1.3044 -0.7683 -2.4621
 9825SOL    HW230764   7.791   2.322   1.272 -0.3850 -2.9359  1.1686
 9826SOL     OW30765   7.263   3.628   2.799  0.0205  0.3249 -0.2155
 9826SOL    HW130766   7.171   3.602   2.805 -0.3558  1.9526  2.8377
 9826SOL    HW230767   7.312   3.553   2.832 -0.3805  0.2914  0.3033
 9827SOL     OW30768   4.109   7.272   3.549  0.0882  0.0212  0.1003
 9827SOL    HW130769   4.166   7.315   3.486 -0.2933 -0.2983 -0.4662
 9827SOL    HW230770   4.034   7.330   3.557 -0.6173 -0.7232 -0.9734
 9828SOL     OW30771   5.366   0.648   3.331 -0.3749 -0.1913 -0.1700
 9828SOL    HW130772   5.378   0.599   3.413 -1.8804 -0.3766 -0.0217
 9828SOL    HW230773   5.296   0.601   3.285 -1.6870  1.6140 -0.1584
 9829SOL     OW30774   7.020   2.521   1.714 -0.0678 -0.2741 -0.0072
 9829SOL    HW130775   7.014   2.462   1.639  0.1600 -0.6566  0.2707
 9829SOL    HW230776   7.097   2.576   1.696 -0.7621  0.5181 -0.6661
 9830SOL     OW30777   7.059   4.744   6.752 -0.1175  0.4289 -0.1873
 9830SOL    HW130778   7.057   4.648   6.758  0.2153  0.3213 -1.4272
 9830SOL    HW230779   6.999   4.774   6.821 -0.0242 -0.6546  0.3879
 9831SOL     OW30780   6.155   4.426   6.968  0.0105  0.5179  0.7001
 9831SOL    HW130781   6.201   4.342   6.957 -0.0029  0.6992 -0.9499
 9831SOL    HW230782   6.101   4.413   7.046 -1.0125 -1.4844 -0.2727
 9832SOL     OW30783   1.871   7.551   2.602 -0.4470  0.0641 -0.0263
 9832SOL    HW130784   1.961   7.523   2.618 -0.3137  0.7047  0.3561
 9832SOL    HW230785   1.873   7.595   2.517 -0.4624 -0.1885 -0.1588
 9833SOL     OW30786   7.273   2.786   1.092  0.3891 -0.0869  0.2213
 9833SOL    HW130787   7.185   2.777   1.130  0.9255  2.0928  2.2010
 9833SOL    HW230788   7.265   2.858   1.030  1.1517  1.7162  2.0751
 9834SOL     OW30789   3.815   4.436   6.487  0.2641  0.1734  0.2972
 9834SOL    HW130790   3.839   4.356   6.441 -1.0776 -0.4010  0.5478
 9834SOL    HW230791   3.877   4.442   6.560  1.8092  0.5929 -0.9948
 9835SOL     OW30792   4.222   8.332   6.421  0.4817  0.2222  0.0335
 9835SOL    HW130793   4.213   8.269   6.349 -1.0380 -1.2569  1.4372
 9835SOL    HW230794   4.296   8.300   6.472 -1.4229 -1.6916  1.8127
 9836SOL     OW30795   8.587   4.218   7.338 -0.1759  0.0293  0.4252
 9836SOL    HW130796   8.536   4.223   7.257  0.7151 -1.6382 -0.2963
 9836SOL    HW230797   8.575   4.129   7.369  2.1111 -0.3996  0.3022
 9837SOL     OW30798   2.788   6.293   5.540 -0.0172  0.2530  0.4350
 9837SOL    HW130799   2.837   6.267   5.463 -0.1984 -0.8236  0.6666
 9837SOL    HW230800   2.848   6.278   5.613 -0.5539 -0.7072  0.6850
 9838SOL     OW30801   6.195   8.230   5.267 -0.2771 -0.3298  0.8134
 9838SOL    HW130802   6.251   8.298   5.229 -2.0269  0.8109  0.1208
 9838SOL    HW230803   6.241   8.203   5.347  1.1889  0.5971  0.3283
 9839SOL     OW30804   2.783   6.178   3.828 -0.4712  0.3931 -0.1421
 9839SOL    HW130805   2.716   6.229   3.873 -1.9819 -1.3316 -0.2835
 9839SOL    HW230806   2.861   6.233   3.829 -1.5697  2.0138  1.0500
 9840SOL     OW30807   1.944   3.518   2.718  0.0221 -0.1787  0.0284
 9840SOL    HW130808   1.863   3.473   2.740 -0.1356  0.0624 -0.0482
 9840SOL    HW230809   1.954   3.585   2.785  0.4524 -0.5662  0.3581
 9841SOL     OW30810   4.603   2.037   2.026 -0.2714 -0.1950  0.8406
 9841SOL    HW130811   4.598   2.129   2.000  0.9986 -0.5300 -0.7443
 9841SOL    HW230812   4.532   1.995   1.977 -0.1230 -0.2371  0.6589
 9842SOL     OW30813   7.482   5.989   3.642 -0.6835 -0.0598  0.7255
 9842SOL    HW130814   7.451   6.079   3.634 -1.5862 -0.2935  1.4020
 9842SOL    HW230815   7.407   5.935   3.617  0.0825 -0.6375 -0.4157
 9843SOL     OW30816   2.280   5.989   3.499 -0.6279  0.3528 -0.1986
 9843SOL    HW130817   2.216   6.060   3.498 -0.6034  0.3798  0.0711
 9843SOL    HW230818   2.365   6.033   3.489 -0.7738  0.1373 -3.4889
 9844SOL     OW30819   4.511   4.178   4.451  0.6686  0.3506  0.1367
 9844SOL    HW130820   4.477   4.245   4.392  2.2376 -1.3590 -2.9362
 9844SOL    HW230821   4.570   4.226   4.510  0.6013  1.8618 -0.9745
 9845SOL     OW30822   6.928   7.869   0.752 -0.1177  0.4982 -0.6152
 9845SOL    HW130823   6.865   7.797   0.762 -0.6150  0.2623 -4.1861
 9845SOL    HW230824   7.000   7.846   0.810 -1.2393 -1.7357  0.0008
 9846SOL     OW30825   2.820   0.068   7.531  0.3528  0.9786 -0.5553
 9846SOL    HW130826   2.778   0.041   7.613  0.7527 -0.8517 -0.9051
 9846SOL    HW230827   2.891   0.125   7.558  1.6430 -1.0383  0.5884
 9847SOL     OW30828   1.954   4.848   5.942  0.0824  0.2349  0.4792
 9847SOL    HW130829   1.907   4.875   6.021  0.0219 -0.1433  0.5736
 9847SOL    HW230830   1.994   4.928   5.909 -0.4178  0.5162  0.5401
 9848SOL     OW30831   3.961   0.905   6.781  0.0449 -0.0552 -0.4397
 9848SOL    HW130832   3.922   0.844   6.844  2.1038 -0.7387  0.2317
 9848SOL    HW230833   3.909   0.893   6.702 -2.8647  1.0872  1.1204
 9849SOL     OW30834   1.725   6.478   2.804 -0.0487  0.5107 -0.0180
 9849SOL    HW130835   1.733   6.556   2.749  2.4490  1.9414  2.1844
 9849SOL    HW230836   1.798   6.422   2.777 -0.7431 -0.2862 -0.3149
 9850SOL     OW30837   8.548   2.260   7.503 -0.2759 -0.0310 -0.3942
 9850SOL    HW130838   8.557   2.246   7.409  0.2675 -1.8647 -0.0892
 9850SOL    HW230839   8.454   2.255   7.519 -0.2528 -1.2858 -0.6175
 9851SOL     OW30840   0.502   5.753   3.371 -0.3982  0.0401 -0.1028
 9851SOL    HW130841   0.477   5.770   3.281  0.1640 -1.6286 -0.6037
 9851SOL    HW230842   0.593   5.725   3.366 -0.1406  0.5634  1.0763
 9852SOL     OW30843   7.264   6.012   3.856 -0.5463 -0.3052 -0.1436
 9852SOL    HW130844   7.274   5.935   3.800 -1.0084 -1.5822  1.4382
 9852SOL    HW230845   7.315   6.080   3.813 -0.9185 -1.1937 -2.1239
 9853SOL     OW30846   1.771   2.069   5.371  0.2008 -0.1328 -0.2994
 9853SOL    HW130847   1.789   2.018   5.451  0.5008 -1.5634 -1.2332
 9853SOL    HW230848   1.700   2.021   5.328 -0.4184  1.0057 -0.5725
 9854SOL     OW30849   6.657   1.269   8.540  0.2742  0.2947 -0.2437
 9854SOL    HW130850   6.582   1.271   8.480  1.3475  0.7358 -1.6427
 9854SOL    HW230851   6.652   1.184   8.583 -1.3688  0.5694  0.1755
 9855SOL     OW30852   7.498   6.735   0.492  0.2069 -0.7177  0.2327
 9855SOL    HW130853   7.586   6.704   0.473  0.6646  0.2113  0.7409
 9855SOL    HW230854   7.476   6.792   0.418 -0.8310 -2.5378 -0.9558
 9856SOL     OW30855   8.473   4.632   6.902 -0.1028 -0.1824 -0.0303
 9856SOL    HW130856   8.440   4.606   6.988 -0.0160  1.4406  0.5218
 9856SOL    HW230857   8.523   4.711   6.918  1.1001 -0.6296 -1.3969
 9857SOL     OW30858   1.691   8.362   1.457 -0.1069  0.5529 -0.4919
 9857SOL    HW130859   1.690   8.319   1.543 -2.2090  0.7128 -0.4002
 9857SOL    HW230860   1.749   8.437   1.469  1.0210 -0.4009  0.2618
 9858SOL     OW30861   8.380   7.103   1.304  0.4471  0.4097 -0.0585
 9858SOL    HW130862   8.348   7.013   1.310  0.9003  0.1454 -1.2932
 9858SOL    HW230863   8.302   7.157   1.308 -0.1693 -0.1999 -2.5548
 9859SOL     OW30864   7.720   3.175   1.045 -0.8026  0.8381  0.5528
 9859SOL    HW130865   7.658   3.124   0.992 -1.0887  1.1144  0.6236
 9859SOL    HW230866   7.776   3.109   1.086  1.2808  0.6323 -2.2882
 9860SOL     OW30867   0.813   3.942   5.891  0.6832  0.2762 -0.2938
 9860SOL    HW130868   0.837   3.914   5.803  0.1969  0.0663 -0.3606
 9860SOL    HW230869   0.779   3.864   5.934 -1.4747  0.8786 -0.7596
 9861SOL     OW30870   7.134   7.869   8.012  0.1740  0.2473 -0.1338
 9861SOL    HW130871   7.078   7.945   8.026 -0.1616  0.1119 -0.6789
 9861SOL    HW230872   7.151   7.835   8.099 -1.7571 -0.5392 -0.0088
 9862SOL     OW30873   3.390   1.793   7.177 -0.0261  0.0733 -0.4326
 9862SOL    HW130874   3.367   1.885   7.186 -1.0661 -0.1136 -1.0065
 9862SOL    HW230875   3.357   1.768   7.090 -0.3657 -1.0056 -0.0186
 9863SOL     OW30876   3.566   5.644   3.760 -0.4901  0.1189  0.2762
 9863SOL    HW130877   3.540   5.707   3.827 -0.7915  1.6411 -1.2253
 9863SOL    HW230878   3.659   5.660   3.746 -0.4649 -0.0844  0.2027
 9864SOL     OW30879   7.070   0.035   3.756  0.1055  0.5500 -0.0168
 9864SOL    HW130880   7.100  -0.056   3.752 -2.0696 -0.2386  0.4795
 9864SOL    HW230881   7.118   0.079   3.685  1.1565 -0.9699 -0.2962
 9865SOL     OW30882   6.660   5.844   4.107 -0.1211  0.5478 -0.1180
 9865SOL    HW130883   6.572   5.856   4.072  0.3937  0.8676 -1.3474
 9865SOL    HW230884   6.653   5.764   4.160 -1.1939  0.6954 -0.0069
 9866SOL     OW30885   8.107   1.472   2.183  0.2436  0.2160 -0.0195
 9866SOL    HW130886   8.043   1.446   2.250  0.7497 -1.7674 -0.2205
 9866SOL    HW230887   8.069   1.442   2.101  1.9831 -2.3824  0.0035
 9867SOL     OW30888   5.872   3.717   5.754  0.4948 -0.0202 -0.3637
 9867SOL    HW130889   5.822   3.798   5.762  2.0303  1.1411 -1.6770
 9867SOL    HW230890   5.948   3.730   5.811  0.4011 -0.8653 -0.0227
 9868SOL     OW30891   4.311   5.763   5.143 -0.1906 -0.1350 -0.1872
 9868SOL    HW130892   4.243   5.775   5.209  0.5886 -2.4272  1.1340
 9868SOL    HW230893   4.378   5.828   5.166  0.7777 -1.8897  2.3458
 9869SOL     OW30894   5.754   6.288   5.187  0.1302  0.1788  0.3137
 9869SOL    HW130895   5.709   6.242   5.116  0.7250 -1.9228  1.2117
 9869SOL    HW230896   5.735   6.381   5.172 -1.0450 -0.3265 -1.6659
 9870SOL     OW30897   7.523   7.434   4.913 -0.2413 -0.3735 -0.6247
 9870SOL    HW130898   7.538   7.363   4.975 -0.1760 -0.1262 -0.3505
 9870SOL    HW230899   7.501   7.391   4.831 -0.5196 -0.7048 -0.3780
 9871SOL     OW30900   4.017   7.449   4.516 -0.2009 -0.0893 -0.4703
 9871SOL    HW130901   4.055   7.362   4.526 -0.0848  0.0421  0.3338
 9871SOL    HW230902   3.933   7.444   4.562  0.2828  0.5132  0.5107
 9872SOL     OW30903   7.906   6.626   7.639  0.1789  0.1459  0.1615
 9872SOL    HW130904   7.926   6.577   7.559 -0.2701 -0.9768  0.7073
 9872SOL    HW230905   7.813   6.647   7.632 -0.6008 -2.4069  1.5926
 9873SOL     OW30906   6.492   7.813   2.515  0.2659  0.0111 -0.2680
 9873SOL    HW130907   6.525   7.759   2.586  0.5255 -1.1246 -1.2163
 9873SOL    HW230908   6.413   7.853   2.550 -0.0378 -1.1359  0.4123
 9874SOL     OW30909   4.031   0.863   1.159  0.0833 -0.2683 -0.1867
 9874SOL    HW130910   4.069   0.926   1.098 -0.2849 -0.5556 -0.7173
 9874SOL    HW230911   4.102   0.802   1.178  0.0682 -0.4458 -0.6926
 9875SOL     OW30912   0.621   8.314   3.024  0.0791 -0.7561 -0.6900
 9875SOL    HW130913   0.604   8.405   3.046  0.5526 -0.7846 -0.1840
 9875SOL    HW230914   0.540   8.283   2.983 -1.0523 -0.8410  1.4683
 9876SOL     OW30915   8.609   8.392   4.134 -0.2131  0.1069  0.1033
 9876SOL    HW130916   8.599   8.348   4.050 -0.4037  0.4978 -0.0790
 9876SOL    HW230917   8.521   8.394   4.172 -0.2433  0.5009  0.0223
 9877SOL     OW30918   6.939   7.498   2.139  0.1196 -0.0693  0.3113
 9877SOL    HW130919   6.981   7.484   2.224  1.4033  1.8437  0.0621
 9877SOL    HW230920   7.012   7.517   2.080 -0.9499  2.1820 -0.4082
 9878SOL     OW30921   5.952   5.367   4.165  0.1060 -0.7390  0.6414
 9878SOL    HW130922   5.954   5.397   4.256 -0.9677 -0.8302  0.7091
 9878SOL    HW230923   5.906   5.436   4.118  0.1817 -0.9430  0.2620
 9879SOL     OW30924   8.315   7.885   5.529  0.3562 -0.1848  0.6504
 9879SOL    HW130925   8.331   7.796   5.497  0.6107  0.2410 -0.4756
 9879SOL    HW230926   8.262   7.925   5.460 -0.8423  0.1597  1.7313
 9880SOL     OW30927   8.241   5.369   8.267  0.8311  0.4269 -0.4712
 9880SOL    HW130928   8.146   5.381   8.258  0.6858  0.0227  0.3650
 9880SOL    HW230929   8.275   5.375   8.178 -0.0453  0.0083 -0.8496
 9881SOL     OW30930   8.178   2.791   7.051 -0.2631  0.5108  0.2937
 9881SOL    HW130931   8.109   2.817   7.112 -1.8195  0.2927 -1.2888
 9881SOL    HW230932   8.174   2.695   7.048  1.3799  0.3527  1.5452
 9882SOL     OW30933   1.629   7.086   8.017  0.5016  0.2856 -0.0620
 9882SOL    HW130934   1.681   7.079   8.097  1.4254  1.4430 -0.5249
 9882SOL    HW230935   1.547   7.040   8.037  2.0608 -2.5865  0.3357
 9883SOL     OW30936   0.861   1.923   3.866 -0.7145  0.3985  0.4618
 9883SOL    HW130937   0.940   1.921   3.812 -0.6735  1.0989  0.4916
 9883SOL    HW230938   0.886   1.878   3.947 -0.2579  0.8544  0.5809
 9884SOL     OW30939   1.280   0.827   1.592  0.0917 -0.1380  0.2390
 9884SOL    HW130940   1.343   0.760   1.567 -0.3275 -0.1770 -0.7571
 9884SOL    HW230941   1.197   0.780   1.601 -0.0349  0.1068  0.3650
 9885SOL     OW30942   2.314   5.699   3.665 -0.2416  0.0951 -0.7275
 9885SOL    HW130943   2.394   5.744   3.638  1.2361 -0.6523  2.0073
 9885SOL    HW230944   2.251   5.770   3.680  1.1925  1.0922  0.8841
 9886SOL     OW30945   7.132   1.366   5.366 -0.8581 -0.1308  0.4730
 9886SOL    HW130946   7.092   1.321   5.440 -0.4558 -1.4768 -0.0949
 9886SOL    HW230947   7.069   1.357   5.295  0.2586 -2.1170 -0.3779
 9887SOL     OW30948   6.951   5.367   3.407  0.0735 -0.3474  0.5927
 9887SOL    HW130949   6.987   5.431   3.469  1.6914  2.6169 -3.0403
 9887SOL    HW230950   7.028   5.325   3.369 -0.4164  1.2681 -2.5304
 9888SOL     OW30951   3.964   7.137   8.306 -0.2789  0.5017 -0.1285
 9888SOL    HW130952   4.043   7.168   8.349 -0.5464  1.1825 -0.1247
 9888SOL    HW230953   3.913   7.095   8.376  0.2249 -0.2363 -0.1980
 9889SOL     OW30954   0.657   6.568   1.446 -0.1596 -0.2541 -0.0868
 9889SOL    HW130955   0.710   6.491   1.465 -0.0015  0.0509  0.7495
 9889SOL    HW230956   0.624   6.596   1.531  0.3171  0.9874 -0.2974
 9890SOL     OW30957   8.606   7.483   8.080  0.6483  0.1593  0.4432
 9890SOL    HW130958   8.521   7.528   8.072  0.2247 -0.5005  1.1341
 9890SOL    HW230959   8.649   7.526   8.153  0.5384 -0.0886  0.6548
 9891SOL     OW30960   1.259   4.359   4.986  0.1983  0.4696  0.2434
 9891SOL    HW130961   1.263   4.264   4.996  0.6957  0.5226  0.6233
 9891SOL    HW230962   1.170   4.382   5.011 -0.0268  0.0712 -0.1739
 9892SOL     OW30963   8.363   2.756   3.886  0.3698 -0.4222 -0.3642
 9892SOL    HW130964   8.271   2.740   3.909  0.3241 -0.5105 -0.6053
 9892SOL    HW230965   8.413   2.720   3.960  0.2315 -0.8400 -0.4698
 9893SOL     OW30966   4.041   4.536   8.672  0.0865  0.0021  0.2462
 9893SOL    HW130967   4.063   4.470   8.738 -1.6243  0.1184  0.9919
 9893SOL    HW230968   4.126   4.566   8.639  0.9688 -3.1010 -0.7030
 9894SOL     OW30969   6.007   4.759   5.711 -0.5805 -0.3498  0.2679
 9894SOL    HW130970   6.066   4.690   5.680  0.7341  0.3771  1.0437
 9894SOL    HW230971   6.026   4.834   5.654 -0.4751 -0.0016  0.7507
 9895SOL     OW30972   8.244   7.493   5.950 -0.0096  0.4600  0.2115
 9895SOL    HW130973   8.241   7.584   5.919 -1.9881  0.1352 -0.7607
 9895SOL    HW230974   8.265   7.442   5.871 -0.3855 -0.0290  0.4235
 9896SOL     OW30975   6.310   7.732   1.369  0.0241  0.5734 -0.1038
 9896SOL    HW130976   6.225   7.713   1.328  0.3571  2.3852 -1.7552
 9896SOL    HW230977   6.287   7.778   1.450 -0.5690  0.4125 -0.1700
 9897SOL     OW30978   5.029   0.897   8.372  0.1575  0.0409 -0.4290
 9897SOL    HW130979   5.101   0.836   8.392  2.1235  1.7872 -1.7578
 9897SOL    HW230980   4.992   0.863   8.290  1.4133  0.7136 -1.3054
 9898SOL     OW30981   4.582   7.754   4.097  0.6180 -0.7707 -0.0294
 9898SOL    HW130982   4.654   7.691   4.102  1.3105  0.0937  1.9465
 9898SOL    HW230983   4.504   7.700   4.089  1.4074 -1.7400 -1.9322
 9899SOL     OW30984   2.026   4.933   0.040  0.3508  0.3850  0.1360
 9899SOL    HW130985   1.957   4.999   0.040 -2.1081 -1.9597 -1.4360
 9899SOL    HW230986   2.016   4.888   0.123  1.4245  1.3063  0.8023
 9900SOL     OW30987   6.323   0.898   7.447  0.4696  0.6494 -0.0307
 9900SOL    HW130988   6.347   0.979   7.402  0.5281  1.3976  1.2951
 9900SOL    HW230989   6.240   0.918   7.490  0.4331 -0.0250  0.2247
 9901SOL     OW30990   2.590   4.451   5.265  0.1988 -0.2492 -0.1115
 9901SOL    HW130991   2.597   4.475   5.173 -0.4973 -0.9280 -0.3433
 9901SOL    HW230992   2.611   4.532   5.312  0.0838  0.2232 -0.8589
 9902SOL     OW30993   5.041   1.190   8.432 -0.3792  0.1732 -0.7570
 9902SOL    HW130994   5.019   1.100   8.407 -1.2056  0.4459 -1.0399
 9902SOL    HW230995   5.010   1.243   8.359 -0.6772  0.7642 -0.2081
 9903SOL     OW30996   8.620   8.250   6.994  0.0461 -0.5532  0.0867
 9903SOL    HW130997   8.644   8.280   6.906 -3.4677  0.9250 -0.5391
 9903SOL    HW230998   8.609   8.156   6.985 -0.8660 -0.3423 -1.2515
 9904SOL     OW30999   0.476   2.640   6.428  0.0828 -0.6765 -0.0883
 9904SOL    HW131000   0.545   2.694   6.465 -0.6883 -0.5996  1.3010
 9904SOL    HW231001   0.520   2.560   6.401  1.2143  0.5283 -2.0259
 9905SOL     OW31002   5.315   8.048   5.760  0.6600 -0.6547  0.5738
 9905SOL    HW131003   5.243   7.985   5.753 -0.5715  0.8474 -1.1079
 9905SOL    HW231004   5.374   8.025   5.688  1.7610 -1.6780  1.7517
 9906SOL     OW31005   6.617   8.590   6.138  0.0381  0.0553 -0.2862
 9906SOL    HW131006   6.655   8.621   6.056  1.3794  0.3985  0.4353
 9906SOL    HW231007   6.678   8.524   6.170 -0.8523 -0.6179  0.0724
 9907SOL     OW31008   2.202   2.762   2.401 -0.4736  0.3877  0.3732
 9907SOL    HW131009   2.137   2.816   2.446  0.8288  0.9821  1.6133
 9907SOL    HW231010   2.235   2.817   2.330 -2.5984 -0.5846 -1.5226
 9908SOL     OW31011   1.538   4.150   1.532  0.3278 -0.5924 -0.1666
 9908SOL    HW131012   1.599   4.140   1.605 -1.2989  0.2966  1.4057
 9908SOL    HW231013   1.510   4.061   1.512  2.7987 -1.1435 -1.6189
 9909SOL     OW31014   6.677   4.214   0.921  0.5711  0.3433  0.2437
 9909SOL    HW131015   6.609   4.148   0.914 -1.2585  1.7839  2.7021
 9909SOL    HW231016   6.698   4.237   0.831 -0.2948 -1.9721 -0.6240
 9910SOL     OW31017   1.863   4.919   3.222  0.4777  0.4071 -0.3194
 9910SOL    HW131018   1.789   4.861   3.203 -0.4910  1.9452 -1.3868
 9910SOL    HW231019   1.830   4.977   3.291  1.0215  0.5213 -0.1516
 9911SOL     OW31020   3.284   2.934   1.607  0.1270 -0.2433  0.5818
 9911SOL    HW131021   3.258   2.848   1.576 -1.0290  0.2417  0.1591
 9911SOL    HW231022   3.344   2.967   1.539 -1.8598  0.5325 -0.8901
 9912SOL     OW31023   7.382   3.334   6.774 -0.5769  0.0432 -0.4730
 9912SOL    HW131024   7.457   3.329   6.715 -0.4629 -0.6284 -0.2865
 9912SOL    HW231025   7.306   3.335   6.716 -0.4244  1.0001 -0.6713
 9913SOL     OW31026   1.268   2.481   2.667 -1.3146  0.5733 -0.3599
 9913SOL    HW131027   1.226   2.439   2.592 -2.3731 -1.0316  1.0332
 9913SOL    HW231028   1.253   2.420   2.739  3.0720  0.0651  0.3901
 9914SOL     OW31029   5.079   5.107   7.097 -0.4501 -0.0000  0.1777
 9914SOL    HW131030   5.021   5.035   7.123 -0.0194 -0.5460 -0.3698
 9914SOL    HW231031   5.035   5.185   7.131 -1.5307 -0.3960 -0.2593
 9915SOL     OW31032   7.954   0.271   3.612  0.0119  0.0741  0.0770
 9915SOL    HW131033   7.894   0.224   3.554  1.1677 -1.9910  0.4313
 9915SOL    HW231034   7.915   0.262   3.699 -0.2957  0.7081  0.0076
 9916SOL     OW31035   0.754   7.218   8.124  0.0958 -0.4477  0.1105
 9916SOL    HW131036   0.798   7.148   8.173  0.3101  0.2994  1.0281
 9916SOL    HW231037   0.791   7.214   8.036  1.0953 -0.6219  0.5337
 9917SOL     OW31038   5.333   6.787   2.977  0.3254 -0.7454  0.0609
 9917SOL    HW131039   5.407   6.819   2.925 -0.4352  0.0712 -0.5644
 9917SOL    HW231040   5.301   6.865   3.022 -1.0853 -0.7458 -0.8723
 9918SOL     OW31041   6.963   3.977   5.124 -0.4916 -0.4145  0.4762
 9918SOL    HW131042   6.939   3.957   5.214 -0.0440  0.7731  0.8758
 9918SOL    HW231043   7.057   3.998   5.128 -0.9672  2.0534  0.1789
 9919SOL     OW31044   4.104   5.750   6.438 -0.3552 -0.2378 -0.5743
 9919SOL    HW131045   4.116   5.734   6.344  0.4367 -0.1128 -0.4966
 9919SOL    HW231046   4.099   5.846   6.445  0.2038 -0.2206 -0.4158
 9920SOL     OW31047   2.352   7.038   6.796  0.1169 -0.5265 -0.1963
 9920SOL    HW131048   2.316   7.046   6.707  1.8280  0.0511 -0.8801
 9920SOL    HW231049   2.335   6.947   6.820  0.6946 -1.0404 -1.6239
 9921SOL     OW31050   3.608   2.797   0.469  0.8804  0.1843 -0.1900
 9921SOL    HW131051   3.520   2.797   0.430  1.0486  0.6216 -0.5773
 9921SOL    HW231052   3.600   2.854   0.546  0.4930 -0.8553  0.5591
 9922SOL     OW31053   5.502   4.382   2.160 -0.0714  0.2486 -0.0791
 9922SOL    HW131054   5.521   4.462   2.210 -0.0403 -1.0436  2.0858
 9922SOL    HW231055   5.543   4.312   2.210  0.2695 -1.1181 -2.1545
 9923SOL     OW31056   6.024   5.039   7.603  0.1143  0.0324 -0.4604
 9923SOL    HW131057   6.067   4.965   7.648 -0.1617  1.1056  1.7053
 9923SOL    HW231058   6.064   5.117   7.642 -0.5947  1.0457 -1.6926
 9924SOL     OW31059   0.516   6.015   4.929  0.2535 -0.2065  0.0091
 9924SOL    HW131060   0.575   6.017   4.853 -1.6969 -0.3679 -1.6074
 9924SOL    HW231061   0.571   5.984   5.001  2.0459 -0.7264 -1.4879
 9925SOL     OW31062   4.056   5.200   3.096 -0.3381  0.7621  0.1242
 9925SOL    HW131063   4.089   5.267   3.156 -0.4324  1.5094 -0.6413
 9925SOL    HW231064   4.070   5.237   3.009  3.3557 -1.8161 -0.6324
 9926SOL     OW31065   6.908   5.252   7.527 -0.3281 -0.2336  0.0457
 9926SOL    HW131066   6.841   5.287   7.468  1.1781  3.2370  0.1310
 9926SOL    HW231067   6.889   5.292   7.612  0.0473 -1.7274  0.8742
 9927SOL     OW31068   0.358   0.321   1.055 -0.4865 -0.2358 -0.3084
 9927SOL    HW131069   0.294   0.309   0.985  1.3892 -0.0309 -2.1411
 9927SOL    HW231070   0.405   0.400   1.032  2.3964 -1.9235 -0.6917
 9928SOL     OW31071   5.843   6.964   8.296  0.1689 -0.1236  0.0828
 9928SOL    HW131072   5.922   6.934   8.342 -1.2934 -1.5718  1.7808
 9928SOL    HW231073   5.807   6.885   8.255 -0.4899  0.4965 -0.5656
 9929SOL     OW31074   1.308   7.855   8.572 -0.0497  0.2969 -0.0542
 9929SOL    HW131075   1.263   7.784   8.617  1.0470 -0.8820 -0.7401
 9929SOL    HW231076   1.246   7.928   8.573 -1.4222 -0.8395  0.1880
 9930SOL     OW31077   2.721   2.472   5.521  0.2161  0.4988  0.1146
 9930SOL    HW131078   2.681   2.543   5.572  1.4068  0.6829  0.8374
 9930SOL    HW231079   2.815   2.489   5.526  0.5346 -1.1589  0.3451
 9931SOL     OW31080   3.904   5.674   6.135  0.0663 -0.1182 -0.0947
 9931SOL    HW131081   3.868   5.632   6.057 -0.3416 -0.9561  0.5300
 9931SOL    HW231082   3.832   5.674   6.198 -0.5376  3.0818 -0.5916
 9932SOL     OW31083   2.555   6.685   2.801 -0.2965  0.4382  0.4316
 9932SOL    HW131084   2.594   6.606   2.839 -0.5137  0.2059  0.1811
 9932SOL    HW231085   2.589   6.757   2.854 -0.4049  0.1419  0.9109
 9933SOL     OW31086   2.321   1.475   2.309  0.2408  0.2628 -0.3773
 9933SOL    HW131087   2.302   1.455   2.401  1.2661 -1.6444 -0.5258
 9933SOL    HW231088   2.403   1.523   2.311  0.7439 -0.5858 -0.3333
 9934SOL     OW31089   3.868   5.510   3.254  0.0260 -0.2286  0.6532
 9934SOL    HW131090   3.902   5.509   3.343 -2.2935  0.1597  1.6335
 9934SOL    HW231091   3.837   5.600   3.242 -0.9547 -0.6418 -0.0160
 9935SOL     OW31092   7.618   3.692   2.955 -0.0806  0.2324  0.0505
 9935SOL    HW131093   7.557   3.631   2.996  0.6734 -1.1302 -0.7589
 9935SOL    HW231094   7.669   3.728   3.027 -0.3428 -0.3283  0.5225
 9936SOL     OW31095   6.793   5.593   3.981 -0.2606  0.9199 -0.0584
 9936SOL    HW131096   6.795   5.679   4.023 -0.2620  0.8155  0.1566
 9936SOL    HW231097   6.717   5.597   3.923 -0.8248  0.7352  0.6511
 9937SOL     OW31098   7.257   4.026   0.583 -0.5302 -0.0157 -0.1687
 9937SOL    HW131099   7.274   4.045   0.491  1.0953  0.9086  0.2871
 9937SOL    HW231100   7.270   3.932   0.592 -1.0156 -0.1578 -0.9388
 9938SOL     OW31101   0.738   7.777   4.007  0.5672  0.0700 -0.0788
 9938SOL    HW131102   0.741   7.800   3.914  1.7657 -0.9045 -0.3186
 9938SOL    HW231103   0.714   7.684   4.007  2.1270 -0.3601  0.4796
 9939SOL     OW31104   0.766   8.207   7.123 -0.5437 -0.2931  0.0244
 9939SOL    HW131105   0.781   8.257   7.204  0.5691  0.8239 -0.8384
 9939SOL    HW231106   0.711   8.264   7.070 -1.4421 -1.1134  0.0572
 9940SOL     OW31107   1.364   8.232   1.824  0.0270 -0.4731 -0.0188
 9940SOL    HW131108   1.279   8.204   1.857  0.1312 -0.3269  0.3797
 9940SOL    HW231109   1.375   8.184   1.742 -0.4864 -0.4085 -0.1282
 9941SOL     OW31110   8.221   4.775   6.838  0.1118  0.0556  0.4698
 9941SOL    HW131111   8.261   4.707   6.784 -0.8728 -0.2012  0.0482
 9941SOL    HW231112   8.199   4.731   6.920 -2.0712 -0.6204 -0.4082
 9942SOL     OW31113   6.704   8.012   1.434 -0.2031  0.0089 -0.6932
 9942SOL    HW131114   6.629   7.991   1.379  0.9480 -0.3703 -2.2047
 9942SOL    HW231115   6.773   7.953   1.404  0.6432  0.1548  0.8370
 9943SOL     OW31116   7.444   3.448   0.136 -0.2898 -0.1512  0.0625
 9943SOL    HW131117   7.378   3.517   0.135 -1.1395 -0.5624  4.7952
 9943SOL    HW231118   7.394   3.367   0.119  0.2802  0.0104 -2.8979
 9944SOL     OW31119   6.986   8.645   0.480  0.1024 -0.3218 -0.4173
 9944SOL    HW131120   6.987   8.734   0.446  1.4766 -0.5768 -1.1055
 9944SOL    HW231121   6.973   8.590   0.403 -0.0390 -0.7619 -0.0862
 9945SOL     OW31122   2.337   6.893   2.807  0.1440  0.0411 -0.1397
 9945SOL    HW131123   2.408   6.930   2.859  0.6291 -0.7874 -0.1868
 9945SOL    HW231124   2.380   6.831   2.748 -0.7795 -2.3362  1.4786
 9946SOL     OW31125   3.566   0.737   7.880 -0.2292 -0.8811 -1.1540
 9946SOL    HW131126   3.484   0.780   7.856 -1.1464 -2.3069 -0.6354
 9946SOL    HW231127   3.610   0.801   7.937 -0.5864  0.2078 -2.0506
 9947SOL     OW31128   4.430   8.268   5.320  0.2261 -0.2370 -0.3063
 9947SOL    HW131129   4.341   8.243   5.343  0.0665  0.4216 -0.1931
 9947SOL    HW231130   4.443   8.233   5.232 -0.5813  0.7281 -0.8270
 9948SOL     OW31131   8.557   1.113   5.271  0.2854 -0.2494  0.2895
 9948SOL    HW131132   8.595   1.048   5.211 -1.2520  0.6351 -1.7465
 9948SOL    HW231133   8.607   1.193   5.255  0.6153 -0.2947  1.0550
 9949SOL     OW31134   3.465   5.293   6.997  0.5684 -0.6407  0.1027
 9949SOL    HW131135   3.515   5.236   7.056  0.8629  0.4659  0.9557
 9949SOL    HW231136   3.389   5.241   6.973 -0.0870 -0.7981  2.2684
 9950SOL     OW31137   5.003   8.189   6.966 -0.2424 -0.1622 -0.3273
 9950SOL    HW131138   4.916   8.227   6.980 -0.8564 -2.1787  2.2441
 9950SOL    HW231139   5.054   8.259   6.925 -2.5634  1.7140 -0.2225
 9951SOL     OW31140   7.891   5.319   5.164  0.3302 -0.0971 -0.2001
 9951SOL    HW131141   7.807   5.291   5.201  0.3026 -0.8455 -0.7980
 9951SOL    HW231142   7.935   5.237   5.141  0.7148  0.3239 -0.9992
 9952SOL     OW31143   4.705   4.151   6.620  0.4716  0.4643  0.0326
 9952SOL    HW131144   4.664   4.234   6.645  0.2931  0.3798  0.0240
 9952SOL    HW231145   4.733   4.164   6.530 -1.3626 -0.1518 -0.6697
 9953SOL     OW31146   3.347   3.617   7.305  0.7497 -0.5587 -0.4605
 9953SOL    HW131147   3.336   3.636   7.211 -2.1980 -1.6941 -0.4558
 9953SOL    HW231148   3.442   3.616   7.318  1.2533  1.3596 -3.0310
 9954SOL     OW31149   4.547   0.029   2.874 -0.4776  0.6773 -0.0112
 9954SOL    HW131150   4.581   0.092   2.810 -1.3289 -2.6620 -4.2310
 9954SOL    HW231151   4.453   0.046   2.876 -0.3421  1.4064  1.2723
 9955SOL     OW31152   0.575   0.866   1.916 -0.4934  0.3616 -0.4514
 9955SOL    HW131153   0.578   0.863   1.821 -0.0401 -1.0686 -0.4134
 9955SOL    HW231154   0.640   0.931   1.941 -1.2783  1.4459 -1.1277
 9956SOL     OW31155   2.895   7.008   4.024 -0.2235  0.2939  0.4764
 9956SOL    HW131156   2.917   7.100   4.037 -2.9547  0.9416  1.2200
 9956SOL    HW231157   2.940   6.984   3.942 -0.9060  2.8613 -0.7626
 9957SOL     OW31158   2.301   3.709   2.702  0.5622 -0.3510  0.1047
 9957SOL    HW131159   2.381   3.660   2.685 -0.0210 -0.5827 -2.2223
 9957SOL    HW231160   2.331   3.800   2.711  1.0950 -0.4302 -0.7696
 9958SOL     OW31161   6.368   5.948   1.752  0.4892 -0.0232  0.3827
 9958SOL    HW131162   6.284   5.948   1.706  1.2459 -0.7991 -1.0877
 9958SOL    HW231163   6.348   5.981   1.839 -1.1867  0.6278 -0.2083
 9959SOL     OW31164   0.775   1.325   7.982 -0.7763 -0.3287  0.0398
 9959SOL    HW131165   0.789   1.419   7.993 -0.7372  0.0480 -2.6004
 9959SOL    HW231166   0.680   1.315   7.982 -0.7843 -0.4689  1.2042
 9960SOL     OW31167   2.549   1.568   3.648 -0.3373  0.4307  0.1696
 9960SOL    HW131168   2.484   1.511   3.688  0.0843 -0.3548 -0.2351
 9960SOL    HW231169   2.595   1.511   3.586  0.9474  0.8725  0.6858
 9961SOL     OW31170   5.053   5.153   2.536 -0.0903 -0.5349 -0.1373
 9961SOL    HW131171   5.105   5.231   2.518 -0.0560 -0.8307 -1.3638
 9961SOL    HW231172   4.981   5.185   2.590 -0.5467  0.5051 -1.3257
 9962SOL     OW31173   8.232   2.786   1.352 -0.2186  0.3585 -0.4741
 9962SOL    HW131174   8.281   2.845   1.409  1.1868 -0.0253 -1.2449
 9962SOL    HW231175   8.164   2.841   1.313 -0.1296  1.0098  0.2745
 9963SOL     OW31176   8.072   0.778   6.529 -0.0228 -0.0833 -0.0467
 9963SOL    HW131177   8.014   0.798   6.603 -0.9635 -0.4810 -0.6506
 9963SOL    HW231178   8.039   0.695   6.495  0.4316  0.0703 -0.8814
 9964SOL     OW31179   1.964   4.621   3.997  0.3635 -1.0076  0.7926
 9964SOL    HW131180   2.036   4.605   4.058  0.8108 -2.7763 -0.1334
 9964SOL    HW231181   1.944   4.714   4.008  1.4187 -0.9332  2.5265
 9965SOL     OW31182   6.381   5.821   7.565 -0.1532  0.2131 -0.3554
 9965SOL    HW131183   6.376   5.881   7.640  0.8574 -0.5527  0.3469
 9965SOL    HW231184   6.300   5.839   7.516  0.7341  3.1445 -0.9742
 9966SOL     OW31185   8.047   2.383   2.468 -0.9141  0.3055 -0.0614
 9966SOL    HW131186   8.066   2.476   2.449  0.0356  0.0549 -0.4276
 9966SOL    HW231187   8.134   2.343   2.475 -1.3165 -0.7492 -0.8779
 9967SOL     OW31188   2.763   1.595   4.407  0.4376  0.3912  0.0328
 9967SOL    HW131189   2.700   1.524   4.415  0.0383  0.8539  1.1542
 9967SOL    HW231190   2.775   1.628   4.496  0.3546  1.9411 -0.4912
 9968SOL     OW31191   0.024   8.244   6.556  0.5697  0.0209 -0.2360
 9968SOL    HW131192  -0.037   8.264   6.627  0.1501 -1.3331 -0.1926
 9968SOL    HW231193  -0.030   8.204   6.488  1.5319 -2.5464  0.3769
 9969SOL     OW31194   4.778   5.598   7.517  0.1709 -0.4833 -0.7235
 9969SOL    HW131195   4.731   5.545   7.453 -1.4867 -0.7422  0.6331
 9969SOL    HW231196   4.718   5.669   7.539  1.0178  0.0483 -0.0254
 9970SOL     OW31197   4.948   6.751   8.404  0.1209  0.2608 -0.9995
 9970SOL    HW131198   4.952   6.799   8.487 -1.2018 -0.0486 -0.7387
 9970SOL    HW231199   4.879   6.795   8.354 -0.2291 -0.5697 -1.2634
 9971SOL     OW31200   7.138   7.704   6.138  0.4123 -0.3622 -0.2123
 9971SOL    HW131201   7.206   7.771   6.141 -0.2472  0.3380 -0.6214
 9971SOL    HW231202   7.083   7.722   6.215  1.0165 -1.2881  0.4499
 9972SOL     OW31203   1.720   7.716   3.870 -0.1556  0.2523  0.3628
 9972SOL    HW131204   1.735   7.635   3.821 -0.0065  0.7962 -0.5291
 9972SOL    HW231205   1.636   7.748   3.837 -0.0834  0.5966  0.5116
 9973SOL     OW31206   5.498   4.126   0.518  0.5621  0.2985 -0.6472
 9973SOL    HW131207   5.465   4.036   0.512  1.9737 -0.5535  2.5152
 9973SOL    HW231208   5.419   4.180   0.520 -0.3796 -1.0197 -0.6455
 9974SOL     OW31209   0.481   2.364   0.120 -0.2741 -0.0738  0.9117
 9974SOL    HW131210   0.537   2.374   0.043 -1.4093  1.7888  0.2675
 9974SOL    HW231211   0.541   2.365   0.194  0.6755  0.1510  0.1598
 9975SOL     OW31212   4.647   6.802   1.378 -0.4711 -0.1371  0.7504
 9975SOL    HW131213   4.640   6.780   1.285  0.0109 -0.2623  0.7423
 9975SOL    HW231214   4.738   6.781   1.401 -0.7102 -0.5205  1.3586
 9976SOL     OW31215   3.533   1.152   7.926  0.3885  0.1309  0.3600
 9976SOL    HW131216   3.466   1.131   7.991  0.4441 -1.4436 -0.0548
 9976SOL    HW231217   3.484   1.188   7.852 -0.1687 -1.9753 -0.3604
 9977SOL     OW31218   6.384   6.929   4.593 -0.0191  0.3520  1.1284
 9977SOL    HW131219   6.383   6.981   4.512 -1.2300 -1.3406 -0.0327
 9977SOL    HW231220   6.379   6.993   4.663 -1.9126  1.8139 -0.2324
 9978SOL     OW31221   6.475   7.094   8.009 -0.1724 -0.5386 -0.0136
 9978SOL    HW131222   6.469   7.082   8.104 -0.4917  1.8241  0.3344
 9978SOL    HW231223   6.388   7.123   7.983 -0.6057 -2.7791 -1.3878
 9979SOL     OW31224   3.922   2.350   6.072 -0.1630  0.6533  0.0479
 9979SOL    HW131225   3.960   2.386   6.153 -1.6713  0.9841  0.6416
 9979SOL    HW231226   3.998   2.331   6.017  0.8410  2.0149  0.8718
 9980SOL     OW31227   0.065   6.495   1.287  0.5351 -0.3409 -0.1693
 9980SOL    HW131228   0.029   6.426   1.344 -0.7514 -0.3968 -0.9853
 9980SOL    HW231229   0.145   6.523   1.331  0.7654 -1.9158  0.5202
 9981SOL     OW31230   7.785   6.766   0.655 -0.6764 -0.1760  0.5029
 9981SOL    HW131231   7.771   6.713   0.734  0.3241 -2.0462 -0.4951
 9981SOL    HW231232   7.878   6.755   0.635 -1.1122 -0.6629 -1.5129
 9982SOL     OW31233   4.319   2.561   7.605 -0.5171 -0.0216  0.2141
 9982SOL    HW131234   4.349   2.554   7.695 -0.7752  2.4711  0.5713
 9982SOL    HW231235   4.399   2.568   7.553 -0.3862  1.0850  0.5486
 9983SOL     OW31236   7.563   1.332   1.578 -0.6032  0.2998 -0.0457
 9983SOL    HW131237   7.619   1.350   1.502  0.0309 -2.4902 -0.3383
 9983SOL    HW231238   7.600   1.386   1.648  0.3048  1.0956 -1.1043
 9984SOL     OW31239   6.538   3.603   8.178 -0.7285  0.2888  0.1223
 9984SOL    HW131240   6.594   3.666   8.223 -0.6701 -1.1460  2.2388
 9984SOL    HW231241   6.457   3.603   8.229 -1.9339  0.9025 -1.7287
 9985SOL     OW31242   6.138   1.484   6.021 -0.3979 -0.2316 -0.3179
 9985SOL    HW131243   6.143   1.578   6.033 -0.4992 -0.2503 -0.1336
 9985SOL    HW231244   6.140   1.448   6.110  2.5997 -0.5505 -0.4328
 9986SOL     OW31245   2.749   0.844   7.812 -0.3774 -0.3590 -0.1643
 9986SOL    HW131246   2.656   0.866   7.822 -0.2575  0.3613 -0.5745
 9986SOL    HW231247   2.758   0.759   7.854 -0.9021  0.2784  1.2871
 9987SOL     OW31248   8.527   5.265   3.979  0.5018 -0.5016 -0.0193
 9987SOL    HW131249   8.564   5.339   3.931  1.6577 -1.7219 -1.0950
 9987SOL    HW231250   8.585   5.253   4.054 -0.5114  0.5342  0.9807
 9988SOL     OW31251   1.362   2.843   8.485  0.0961 -0.0579  0.1338
 9988SOL    HW131252   1.450   2.844   8.448  0.3650 -0.3426  0.7488
 9988SOL    HW231253   1.352   2.928   8.526  0.4439 -0.3687  0.8755
 9989SOL     OW31254   2.725   3.368   4.186  0.1353 -0.5884 -0.0286
 9989SOL    HW131255   2.788   3.440   4.180  0.0831 -0.6296 -1.3218
 9989SOL    HW231256   2.642   3.405   4.156 -0.3782 -0.6603  1.2343
 9990SOL     OW31257   6.369   3.792   0.935  0.3347  0.1572 -0.7565
 9990SOL    HW131258   6.364   3.709   0.982 -1.2170  0.6103 -0.0556
 9990SOL    HW231259   6.441   3.839   0.977 -1.6473  0.9833  2.0462
 9991SOL     OW31260   1.138   7.926   7.621  0.3998 -0.1262  0.1015
 9991SOL    HW131261   1.166   7.930   7.530 -0.2945  1.8779 -0.0610
 9991SOL    HW231262   1.107   7.836   7.632 -0.3703 -0.1568 -1.9061
 9992SOL     OW31263   2.042   3.492   8.522 -0.2022  0.1169  0.2685
 9992SOL    HW131264   1.981   3.554   8.482 -0.0193  0.1434  0.0246
 9992SOL    HW231265   2.002   3.469   8.606 -1.4763 -1.2632 -0.6586
 9993SOL     OW31266   6.989   7.787   3.199 -0.4820 -0.1292 -0.2529
 9993SOL    HW131267   6.940   7.705   3.190 -1.4128  0.5322 -1.6302
 9993SOL    HW231268   6.966   7.837   3.120 -0.5935  1.7935  0.9417
 9994SOL     OW31269   1.180   6.287   8.567  0.1504 -0.2103  0.1717
 9994SOL    HW131270   1.242   6.354   8.537  1.3752 -1.0309  0.7862
 9994SOL    HW231271   1.101   6.302   8.515  1.2664  0.1109 -1.5183
 9995SOL     OW31272   8.359   5.859   0.812  0.2943  0.3662  0.3854
 9995SOL    HW131273   8.336   5.917   0.884  0.8354  1.5040 -0.3329
 9995SOL    HW231274   8.311   5.894   0.736  0.8548  0.0568 -0.1214
 9996SOL     OW31275   1.778   6.872   2.114 -0.4052 -0.0663 -0.3289
 9996SOL    HW131276   1.818   6.857   2.200  0.8474 -0.6322 -0.9897
 9996SOL    HW231277   1.728   6.953   2.125  0.8202  0.6034  0.5828
 9997SOL     OW31278   2.615   7.251   8.277  0.2642  0.0184  0.9967
 9997SOL    HW131279   2.650   7.182   8.221  0.3734 -0.0897  1.1977
 9997SOL    HW231280   2.627   7.218   8.366  0.4512  0.3592  1.0983
 9998SOL     OW31281   2.527   6.113   3.587 -0.4244 -0.2615  0.2728
 9998SOL    HW131282   2.571   6.197   3.585 -0.0492 -0.4334 -1.9603
 9998SOL    HW231283   2.598   6.048   3.588 -0.7046 -0.5784  1.6002
 9999SOL     OW31284   2.940   8.397   5.370 -0.4123 -0.4852 -0.0636
 9999SOL    HW131285   2.894   8.455   5.310 -2.6496 -0.2183  1.7810
 9999SOL    HW231286   2.993   8.455   5.425 -1.1529 -0.3445  0.5198
10000SOL     OW31287   1.771   3.693   2.476 -0.4433 -0.1293  0.1827
10000SOL    HW131288   1.787   3.741   2.557  1.7533 -0.2993 -0.0863
10000SOL    HW231289   1.795   3.602   2.497  1.4886  0.0619 -0.9791
10001SOL     OW31290   3.485   1.625   6.094  0.1155  0.7349 -0.0998
10001SOL    HW131291   3.429   1.702   6.086  1.4714  1.6244 -1.7000
10001SOL    HW231292   3.528   1.636   6.179 -2.0106  0.0576  1.1304
10002SOL     OW31293   2.290   4.461   0.052  0.3683 -0.0291 -0.4007
10002SOL    HW131294   2.365   4.442   0.109  0.1455 -0.4914 -0.2583
10002SOL    HW231295   2.300   4.554   0.031  0.5011  0.1299  0.3227
10003SOL     OW31296   4.412   4.003   7.896 -0.0091 -0.2349  0.3657
10003SOL    HW131297   4.417   3.908   7.884  1.3175 -0.3456  1.5493
10003SOL    HW231298   4.486   4.037   7.846 -0.9159  0.2847 -0.6843
10004SOL     OW31299   0.139   6.271   3.157  0.2480 -0.2076  0.1924
10004SOL    HW131300   0.194   6.205   3.198  0.5961  0.8981  1.5725
10004SOL    HW231301   0.059   6.224   3.132  0.4005 -1.1144  1.3225
10005SOL     OW31302   7.528   7.697   6.067  0.8662 -0.0093 -0.1270
10005SOL    HW131303   7.488   7.638   6.003 -1.8302  0.0968  1.3054
10005SOL    HW231304   7.575   7.639   6.127  2.8759 -0.1569 -1.7441
10006SOL     OW31305   5.538   3.850   0.982 -0.0072 -0.0399  0.0553
10006SOL    HW131306   5.499   3.792   1.047  1.3630 -1.9756 -0.7625
10006SOL    HW231307   5.466   3.870   0.922 -0.9068  0.5355  1.2743
10007SOL     OW31308   6.735   5.961   4.651 -0.0303 -0.4542 -0.4976
10007SOL    HW131309   6.715   6.039   4.702  0.3156 -1.9897  2.1499
10007SOL    HW231310   6.818   5.981   4.608  1.1587 -0.0509  1.8244
10008SOL     OW31311   0.562   1.072   8.326 -0.0846 -0.1180 -0.2667
10008SOL    HW131312   0.652   1.039   8.320 -0.8170 -2.4196  0.1156
10008SOL    HW231313   0.561   1.125   8.406  0.9477  0.0059 -0.3204
10009SOL     OW31314   5.546   2.623   7.851 -0.0597 -0.0010  0.0588
10009SOL    HW131315   5.480   2.650   7.914 -0.7503 -0.3224 -0.5083
10009SOL    HW231316   5.518   2.663   7.768  0.8895  0.5092 -0.0324
10010SOL     OW31317   1.972   2.008   4.895  0.4409 -0.1244 -0.1853
10010SOL    HW131318   1.890   1.973   4.930 -0.7416  1.1950 -1.4928
10010SOL    HW231319   2.015   1.933   4.855 -2.1883 -0.2396 -3.2639
10011SOL     OW31320   1.424   6.840   6.613 -0.4614 -0.3890 -0.1799
10011SOL    HW131321   1.409   6.898   6.539 -0.0417  1.2478  0.9631
10011SOL    HW231322   1.339   6.798   6.628 -1.1201  0.8801 -0.2523
10012SOL     OW31323   2.018   0.108   8.531  0.2072 -0.0398  0.0852
10012SOL    HW131324   1.923   0.116   8.529  0.0076 -1.9495 -2.2230
10012SOL    HW231325   2.050   0.192   8.497 -0.6940  0.2660 -0.0303
10013SOL     OW31326   0.962   3.000   8.127 -0.0026  0.1387  0.6276
10013SOL    HW131327   0.956   2.904   8.120  1.7496  0.0924 -1.1110
10013SOL    HW231328   0.930   3.032   8.043  0.4179  1.0394  0.8031
10014SOL     OW31329   5.768   2.827   2.018 -0.5988 -0.3290 -0.1323
10014SOL    HW131330   5.794   2.764   2.084 -0.5060 -0.1270  0.0232
10014SOL    HW231331   5.710   2.888   2.064 -2.5451 -1.5871 -0.7827
10015SOL     OW31332   4.684   1.427   0.490 -0.1549 -0.4627 -0.2807
10015SOL    HW131333   4.686   1.503   0.432  0.7175  0.2469  0.6400
10015SOL    HW231334   4.644   1.459   0.571 -0.0406 -1.0589  0.0192
10016SOL     OW31335   0.802   6.380   6.269  0.3014 -0.3696 -0.3341
10016SOL    HW131336   0.736   6.338   6.325 -1.0494  1.4481 -0.4565
10016SOL    HW231337   0.869   6.410   6.330  0.3740 -1.0720 -0.0535
10017SOL     OW31338   8.192   3.998   6.869  0.0547  0.5220  0.1746
10017SOL    HW131339   8.285   3.977   6.864  0.4427  2.3337 -1.3273
10017SOL    HW231340   8.166   4.013   6.778 -1.8144 -0.2307  0.5241
10018SOL     OW31341   7.676   8.038   2.478  0.4315 -0.5922 -0.4055
10018SOL    HW131342   7.707   8.073   2.561  1.2941  0.1430 -1.0107
10018SOL    HW231343   7.666   7.944   2.494 -0.1041 -0.3595  0.7155
10019SOL     OW31344   1.449   1.638   4.108  0.7845 -0.2176 -0.3057
10019SOL    HW131345   1.518   1.631   4.042  0.7459 -0.6028 -0.3076
10019SOL    HW231346   1.481   1.704   4.170  1.5040 -0.9526  0.1149
10020SOL     OW31347   2.318   2.445   1.931 -0.5930 -0.2381  0.1254
10020SOL    HW131348   2.337   2.411   1.843  0.3396  0.0069  0.2169
10020SOL    HW231349   2.389   2.410   1.985 -1.7431 -1.2571  1.0110
10021SOL     OW31350   5.892   2.720   0.817 -0.3807 -0.4671 -0.4941
10021SOL    HW131351   5.847   2.728   0.733 -0.7201 -1.8778 -0.4748
10021SOL    HW231352   5.985   2.728   0.797 -0.4841 -0.4677 -0.9645
10022SOL     OW31353   8.292   6.325   3.770 -0.1590  0.0198 -0.0321
10022SOL    HW131354   8.291   6.401   3.828  1.0516 -1.1046  1.5657
10022SOL    HW231355   8.288   6.250   3.829 -3.9586 -1.2663 -1.6136
10023SOL     OW31356   8.563   7.995   5.503  0.0757 -0.3321  0.1655
10023SOL    HW131357   8.568   7.980   5.409 -0.1124 -1.1537  0.2783
10023SOL    HW231358   8.480   7.954   5.529 -0.1323  0.3470  0.6068
10024SOL     OW31359   4.675   4.165   3.254  0.2545 -0.8201  0.0191
10024SOL    HW131360   4.741   4.231   3.273 -0.3676 -0.3419  0.5604
10024SOL    HW231361   4.723   4.082   3.258  1.2295 -0.3744 -1.5395
10025SOL     OW31362   4.283   7.051   7.520 -0.2142 -0.0523  0.7040
10025SOL    HW131363   4.372   7.030   7.546 -1.0837 -1.9794  2.3475
10025SOL    HW231364   4.250   7.107   7.590 -0.5110  0.1070  0.4393
10026SOL     OW31365   1.371   6.943   7.586 -0.2141  0.2719 -0.1560
10026SOL    HW131366   1.455   6.909   7.556  0.7807  1.2263  1.4300
10026SOL    HW231367   1.363   7.028   7.543  0.3655  0.8529  0.8728
10027SOL     OW31368   1.080   0.115   0.008 -0.4237  0.1072  0.6222
10027SOL    HW131369   1.054   0.202   0.037  0.7900  0.3447  1.0237
10027SOL    HW231370   1.115   0.129  -0.080 -2.3048 -0.3348 -0.2648
10028SOL     OW31371   8.588   3.758   7.518 -0.7962  0.3737 -0.1165
10028SOL    HW131372   8.683   3.754   7.508 -0.7789 -0.1077  0.2114
10028SOL    HW231373   8.562   3.835   7.469 -0.3114  0.0985 -0.8231
10029SOL     OW31374   6.788   3.379   8.277 -0.0482 -0.2598 -0.0214
10029SOL    HW131375   6.874   3.339   8.287 -0.6664 -1.0994  2.6401
10029SOL    HW231376   6.787   3.450   8.341 -0.7273  0.9572 -1.3152
10030SOL     OW31377   2.651   3.962   7.728 -0.5077  0.5194  0.1525
10030SOL    HW131378   2.718   4.030   7.735  0.2346 -0.3290  1.8280
10030SOL    HW231379   2.575   3.998   7.774 -0.4565  0.5927  0.1790
10031SOL     OW31380   8.354   6.729   7.656 -0.8124 -0.4342 -0.1487
10031SOL    HW131381   8.443   6.721   7.691 -0.4241 -1.1085 -1.2221
10031SOL    HW231382   8.368   6.763   7.567 -1.7038  0.4429  0.0342
10032SOL     OW31383   1.603   0.641   2.092 -0.7092 -0.4672  0.4054
10032SOL    HW131384   1.629   0.728   2.061  0.7148 -0.5953  1.1450
10032SOL    HW231385   1.513   0.653   2.124 -0.6072  0.6920  0.3190
10033SOL     OW31386   2.354   2.797   6.545  0.2963 -0.1211  0.2101
10033SOL    HW131387   2.422   2.757   6.491  1.1275 -0.7932  1.6668
10033SOL    HW231388   2.398   2.814   6.629 -1.5934 -1.6805  1.6254
10034SOL     OW31389   0.942   5.717   5.436  0.2208  0.1210  0.0022
10034SOL    HW131390   0.851   5.687   5.433  0.0076  0.7910 -1.7829
10034SOL    HW231391   0.945   5.775   5.512 -0.9884  0.4356 -0.1536
10035SOL     OW31392   6.511   7.106   1.079  0.5292 -0.0848 -0.3022
10035SOL    HW131393   6.419   7.129   1.090 -0.0105 -2.2777  0.3045
10035SOL    HW231394   6.516   7.066   0.992  0.6052 -1.2285  0.2146
10036SOL     OW31395   8.394   4.598   4.072 -0.1223  0.3991 -0.0367
10036SOL    HW131396   8.466   4.613   4.133 -1.0890 -0.2592  1.3402
10036SOL    HW231397   8.377   4.504   4.079 -1.6108  0.6654  0.2876
10037SOL     OW31398   8.033   4.467   1.713 -0.1779 -0.6524 -0.5739
10037SOL    HW131399   7.971   4.518   1.764  1.3959 -0.8274  1.6630
10037SOL    HW231400   8.051   4.521   1.636  2.3025  2.9516  2.1939
10038SOL     OW31401   6.052   6.252   8.404  0.0179  0.0163  0.5790
10038SOL    HW131402   6.035   6.299   8.486 -2.3686 -2.1678  1.4396
10038SOL    HW231403   6.147   6.256   8.395  0.1177  3.6620  1.3211
10039SOL     OW31404   3.715   5.366   3.076  0.2602 -0.2189 -0.1764
10039SOL    HW131405   3.776   5.400   3.142 -1.7010  2.3783  0.4498
10039SOL    HW231406   3.755   5.391   2.993  0.5227  0.6900  0.2009
10040SOL     OW31407   5.535   2.306   7.392 -0.5160  0.5578  0.1409
10040SOL    HW131408   5.486   2.224   7.380 -0.4812  0.7520 -1.5791
10040SOL    HW231409   5.586   2.316   7.311  1.0373  1.2654  1.1604
10041SOL     OW31410   4.162   6.929   3.286  0.0396 -0.8211 -0.3190
10041SOL    HW131411   4.190   6.924   3.377 -0.5561  0.2336 -0.0556
10041SOL    HW231412   4.241   6.958   3.239  0.1976 -0.8076 -0.0474
10042SOL     OW31413   4.696   2.466   7.839  0.0713  0.0502  0.4565
10042SOL    HW131414   4.730   2.510   7.761 -0.5584  0.4037  0.3828
10042SOL    HW231415   4.668   2.380   7.807  1.0966 -0.3486  0.5614
10043SOL     OW31416   3.893   3.150   7.108 -0.2491 -0.1617 -0.4453
10043SOL    HW131417   3.960   3.124   7.172 -0.5807 -2.1411 -0.8394
10043SOL    HW231418   3.937   3.141   7.023 -0.1082  1.5125 -0.5728
10044SOL     OW31419   2.853   3.893   4.136 -0.3259  0.2784 -1.0186
10044SOL    HW131420   2.773   3.942   4.154 -0.4899 -0.2562 -0.2472
10044SOL    HW231421   2.823   3.810   4.099 -0.0316  0.9569 -2.8852
10045SOL     OW31422   4.312   2.176   3.079  0.0752 -0.5030 -0.1706
10045SOL    HW131423   4.235   2.119   3.091 -0.1285 -0.0698  0.6563
10045SOL    HW231424   4.386   2.115   3.072 -0.2450 -0.9014 -0.1298
10046SOL     OW31425   3.347   8.409   1.122 -0.6177  0.3614  0.6915
10046SOL    HW131426   3.307   8.382   1.040 -0.8603  1.4423  0.4324
10046SOL    HW231427   3.281   8.465   1.164 -0.4622 -0.1017  1.5778
10047SOL     OW31428   6.162   0.859   6.015 -0.0916  0.2218  0.3098
10047SOL    HW131429   6.234   0.860   6.077  0.0965 -1.4662  0.1596
10047SOL    HW231430   6.085   0.883   6.066 -0.2210 -2.6239  1.6322
10048SOL     OW31431   7.860   2.433   3.447  0.5999 -0.2743  0.3600
10048SOL    HW131432   7.786   2.404   3.394 -0.6932  2.6339  0.3762
10048SOL    HW231433   7.917   2.356   3.453 -2.5695 -2.8188  0.6995
10049SOL     OW31434   2.154   2.441   5.961 -0.1479 -0.6574 -0.2930
10049SOL    HW131435   2.169   2.390   6.041 -1.0177 -0.9782 -0.3288
10049SOL    HW231436   2.229   2.421   5.906  0.3069 -0.6755  0.3190
10050SOL     OW31437   0.183   4.447   6.232  0.0298  0.2208 -0.1114
10050SOL    HW131438   0.220   4.398   6.306 -0.4639 -0.4028 -0.2716
10050SOL    HW231439   0.199   4.392   6.156  2.7653  1.9206 -0.9427
10051SOL     OW31440   3.962   4.739   7.603  0.1107 -0.2016 -0.0877
10051SOL    HW131441   3.908   4.745   7.682  0.1835  0.6490 -0.0962
10051SOL    HW231442   3.931   4.810   7.547 -0.8253 -1.5715 -1.4016
10052SOL     OW31443   4.671   2.873   5.010  0.1410 -0.6118 -0.0375
10052SOL    HW131444   4.667   2.856   5.105 -0.8532 -0.9967 -0.1410
10052SOL    HW231445   4.618   2.952   4.998  0.1852 -0.6207 -0.2886
10053SOL     OW31446   1.761   4.166   7.453  0.5799  0.0605 -0.0934
10053SOL    HW131447   1.684   4.109   7.457  0.0867  0.6908 -0.4264
10053SOL    HW231448   1.834   4.106   7.442  0.0601 -0.5090 -0.5279
10054SOL     OW31449   7.650   5.425   2.970 -0.6701 -0.2537  0.2149
10054SOL    HW131450   7.681   5.338   2.996  0.7793  0.5336  1.3158
10054SOL    HW231451   7.608   5.412   2.885  0.1848 -1.9113  0.0107
10055SOL     OW31452   3.694   2.323   0.631 -0.3544 -0.2080 -0.5687
10055SOL    HW131453   3.769   2.378   0.610  0.0235 -0.8175 -0.8484
10055SOL    HW231454   3.667   2.287   0.546  0.1071 -1.3284 -0.2595
10056SOL     OW31455   0.922   7.883   7.833 -0.5987  0.4742  0.0932
10056SOL    HW131456   0.965   7.797   7.838 -0.7580  0.4722  2.4744
10056SOL    HW231457   0.954   7.921   7.751  0.7405 -1.1980 -0.2103
10057SOL     OW31458   3.765   3.765   4.223  0.5467 -0.0571  0.6406
10057SOL    HW131459   3.840   3.770   4.163 -1.3758 -0.6070 -2.0229
10057SOL    HW231460   3.726   3.852   4.220  0.5177 -0.0493  1.2238
10058SOL     OW31461   2.001   1.551   4.085 -0.2948  0.3169 -0.0892
10058SOL    HW131462   1.925   1.500   4.115  0.4691 -1.3917 -0.9123
10058SOL    HW231463   1.968   1.640   4.076 -2.2236 -0.3797 -0.4434
10059SOL     OW31464   1.191   6.047   2.620  0.1080  0.1620 -0.0706
10059SOL    HW131465   1.239   6.024   2.700 -1.1685  0.9711  0.9659
10059SOL    HW231466   1.100   6.033   2.642 -0.2619  0.1581 -1.4939
10060SOL     OW31467   6.080   0.463   6.773  0.3357 -0.1993 -0.4607
10060SOL    HW131468   6.022   0.408   6.720  0.5415 -0.0197 -0.8781
10060SOL    HW231469   6.133   0.402   6.823 -0.5464 -0.3680  0.3010
10061SOL     OW31470   6.959   3.852   4.114 -0.2975 -0.3807  0.2908
10061SOL    HW131471   7.043   3.889   4.140 -1.1302  0.0503  2.6170
10061SOL    HW231472   6.902   3.868   4.189 -1.6458 -3.3543  0.0096
10062SOL     OW31473   8.416   4.602   1.284  0.2660  0.1201 -0.0677
10062SOL    HW131474   8.342   4.662   1.272  0.1073 -0.2105 -0.7750
10062SOL    HW231475   8.379   4.527   1.331  0.3689  0.3752  0.4300
10063SOL     OW31476   4.516   5.563   2.561  0.0784 -0.6149 -0.4008
10063SOL    HW131477   4.443   5.527   2.511 -1.3992  0.7361  0.6744
10063SOL    HW231478   4.502   5.658   2.559  1.5405 -0.3619  0.2449
10064SOL     OW31479   3.946   1.910   0.058 -0.1798 -0.0776 -0.2696
10064SOL    HW131480   3.986   1.850  -0.005  4.7682  1.1972  1.1646
10064SOL    HW231481   3.899   1.853   0.119  1.8614 -2.3072 -0.6020
10065SOL     OW31482   8.402   0.854   4.023 -0.2564  0.1667  0.0244
10065SOL    HW131483   8.431   0.806   4.101 -0.1063 -0.6617 -0.5238
10065SOL    HW231484   8.414   0.792   3.951 -0.9578  0.7084 -0.5775
10066SOL     OW31485   2.069   1.311   3.798  0.4265 -0.7894  0.0669
10066SOL    HW131486   2.024   1.294   3.882 -1.2152  0.5237 -0.4891
10066SOL    HW231487   2.095   1.224   3.767 -0.2675 -1.4388  1.2348
10067SOL     OW31488   3.302   0.787   7.807  0.3635 -0.2640  0.5650
10067SOL    HW131489   3.358   0.739   7.746  0.2211  0.6697 -0.3106
10067SOL    HW231490   3.213   0.774   7.774  0.2014 -0.4326  1.0499
10068SOL     OW31491   3.796   3.445   4.800 -0.1256 -0.6776  0.4391
10068SOL    HW131492   3.836   3.524   4.837  0.2524 -0.9378  0.5925
10068SOL    HW231493   3.801   3.380   4.871 -1.1919 -0.6028  0.6121
10069SOL     OW31494   0.584   1.472   6.021  0.0771 -0.0972 -0.6108
10069SOL    HW131495   0.596   1.516   5.937  0.0525 -0.7657 -0.9668
10069SOL    HW231496   0.491   1.486   6.042 -0.2238 -0.9899 -1.3049
10070SOL     OW31497   3.927   5.155   0.179  0.4960  0.1542 -0.0624
10070SOL    HW131498   3.987   5.081   0.173 -2.3139 -2.3230 -0.1373
10070SOL    HW231499   3.936   5.185   0.270  1.2413 -0.7392  0.1767
10071SOL     OW31500   1.287   2.441   7.047 -0.6149  0.3369 -0.1037
10071SOL    HW131501   1.262   2.509   6.984 -0.0751  1.4094  0.7950
10071SOL    HW231502   1.342   2.381   6.996  0.5800  1.6792 -0.4870
10072SOL     OW31503   8.131   2.100   8.587 -0.3941  0.1904 -0.1590
10072SOL    HW131504   8.184   2.155   8.646 -0.7369 -0.0917  0.4138
10072SOL    HW231505   8.051   2.150   8.574  0.1103  0.7605 -1.2717
10073SOL     OW31506   5.726   7.740   3.256  0.3989 -0.7852  0.1885
10073SOL    HW131507   5.790   7.683   3.299 -1.1777 -2.5710  0.2932
10073SOL    HW231508   5.670   7.770   3.327  1.4202  1.2672  0.1880
10074SOL     OW31509   1.943   4.144   1.534  0.0211 -0.1167 -0.2339
10074SOL    HW131510   1.889   4.109   1.605  0.9414 -1.4142 -0.1324
10074SOL    HW231511   2.023   4.091   1.536  0.7614  0.9164 -1.1902
10075SOL     OW31512   3.196   0.796   6.666 -0.3496 -0.5942  0.0477
10075SOL    HW131513   3.219   0.704   6.661  1.8649 -0.1553  0.7427
10075SOL    HW231514   3.185   0.813   6.760 -0.3331 -0.0642 -0.0403
10076SOL     OW31515   5.794   7.394   5.046 -0.2351  0.2592  0.0828
10076SOL    HW131516   5.852   7.391   5.122 -0.8633 -1.2216  0.5400
10076SOL    HW231517   5.834   7.458   4.988  1.1068  0.2780  0.9840
10077SOL     OW31518   7.112   2.917   1.432  0.2130 -0.5390 -0.0167
10077SOL    HW131519   7.194   2.936   1.477  0.5331 -2.0091  0.0418
10077SOL    HW231520   7.086   3.001   1.394  1.6006  0.0015  0.1834
10078SOL     OW31521   0.510   2.923   1.558 -0.1592 -0.0639  0.5357
10078SOL    HW131522   0.532   2.959   1.473  2.4159  0.4554  1.3193
10078SOL    HW231523   0.469   2.995   1.605 -0.6521 -0.0440  0.0814
10079SOL     OW31524   8.232   1.505   4.675  0.1583  0.1852  0.3373
10079SOL    HW131525   8.204   1.423   4.714 -0.7503  0.6769  0.7469
10079SOL    HW231526   8.245   1.484   4.582 -0.6412 -0.2824  0.3251
10080SOL     OW31527   3.035   2.659   8.352  0.2153 -0.1598 -0.0764
10080SOL    HW131528   2.978   2.709   8.293 -3.4787 -1.0851  2.3665
10080SOL    HW231529   3.077   2.595   8.295 -2.4236 -0.4240 -1.9177
10081SOL     OW31530   1.813   0.515   4.787  0.2267  0.1421  0.1422
10081SOL    HW131531   1.791   0.450   4.854 -2.2315  0.2419 -0.4831
10081SOL    HW231532   1.818   0.464   4.706  1.2646  0.3214  0.0747
10082SOL     OW31533   3.342   1.875   5.426  0.6339 -0.2079 -0.5316
10082SOL    HW131534   3.303   1.918   5.502 -0.5702 -0.4733 -0.9620
10082SOL    HW231535   3.436   1.891   5.434  0.4028  0.8336  0.3315
10083SOL     OW31536   2.566   1.102   0.792 -0.0311  0.0362  0.7640
10083SOL    HW131537   2.551   1.113   0.886 -0.6994 -0.2229  0.6974
10083SOL    HW231538   2.578   1.008   0.780  0.8981  0.1547  0.6966
10084SOL     OW31539   7.718   5.301   4.736  0.1469 -0.1487  0.7840
10084SOL    HW131540   7.622   5.309   4.734  0.2279  1.2227 -1.5539
10084SOL    HW231541   7.746   5.365   4.801 -0.4823  0.6295  0.3105
10085SOL     OW31542   1.003   8.190   5.367  0.2710  0.2262 -0.2656
10085SOL    HW131543   0.923   8.140   5.354  0.4433 -0.1980  0.2824
10085SOL    HW231544   0.979   8.261   5.425  0.3632 -0.0868  0.1560
10086SOL     OW31545   2.236   7.609   4.862 -0.1181 -0.2498 -0.3455
10086SOL    HW131546   2.175   7.636   4.793 -0.0811 -0.3142 -0.4039
10086SOL    HW231547   2.278   7.690   4.891 -0.0892 -0.2302 -0.4423
10087SOL     OW31548   3.301   1.432   3.873 -0.4284 -0.0381  0.2894
10087SOL    HW131549   3.212   1.458   3.850  0.1043  1.4202 -0.2000
10087SOL    HW231550   3.321   1.481   3.952  0.5439  0.9726 -0.5589
10088SOL     OW31551   0.046   2.363   8.018  0.1046  0.2680  0.2089
10088SOL    HW131552  -0.050   2.363   8.027  0.0852  2.8780  0.9373
10088SOL    HW231553   0.064   2.432   7.954  1.5161  0.5036  0.8281
10089SOL     OW31554   6.223   5.221   5.908 -0.3070  0.1371  0.1731
10089SOL    HW131555   6.268   5.287   5.961 -1.0933  1.9524 -1.2820
10089SOL    HW231556   6.133   5.221   5.942  0.0090 -1.2489  1.0764
10090SOL     OW31557   3.159   6.469   8.560 -0.1303 -0.3708  0.1990
10090SOL    HW131558   3.236   6.460   8.503  0.4503  0.6994  0.7937
10090SOL    HW231559   3.191   6.449   8.648  0.0146  2.1287  0.7853
10091SOL     OW31560   5.640   7.117   3.793 -0.6767  0.2322 -0.1581
10091SOL    HW131561   5.732   7.135   3.776 -0.9115 -0.7940 -3.2682
10091SOL    HW231562   5.631   7.122   3.888  3.0890 -1.9572  0.5267
10092SOL     OW31563   2.618   5.643   2.295 -0.6321  0.5811 -0.1311
10092SOL    HW131564   2.651   5.730   2.320 -0.6894  0.1055  1.6707
10092SOL    HW231565   2.694   5.601   2.254 -1.1253  2.1274 -2.9130
10093SOL     OW31566   6.631   4.032   3.302 -0.1550  0.1708  0.3099
10093SOL    HW131567   6.705   4.014   3.360  0.0654 -4.0824 -0.9445
10093SOL    HW231568   6.668   4.083   3.230  1.2893 -0.6379  0.4473
10094SOL     OW31569   6.106   2.139   3.200  0.9881 -0.1059 -0.2103
10094SOL    HW131570   6.040   2.081   3.162  1.7476  0.2503 -2.2173
10094SOL    HW231571   6.060   2.187   3.268 -0.5790 -0.5111 -0.9422
10095SOL     OW31572   5.270   7.764   5.256 -0.1463 -0.4221  0.3530
10095SOL    HW131573   5.337   7.746   5.190 -1.6160 -2.1913 -0.7355
10095SOL    HW231574   5.189   7.770   5.206 -1.0239  0.2779  1.8040
10096SOL     OW31575   6.178   4.309   2.074  0.2124  0.2027  0.3372
10096SOL    HW131576   6.258   4.260   2.095  0.0060 -0.9446 -1.2955
10096SOL    HW231577   6.110   4.267   2.126  0.4474  0.3166  0.7384
10097SOL     OW31578   7.441   0.486   7.723 -0.4272 -0.6881  0.4878
10097SOL    HW131579   7.526   0.468   7.682 -1.7253  1.0240 -3.4516
10097SOL    HW231580   7.383   0.418   7.690 -1.5188  0.7281 -0.6723
10098SOL     OW31581   8.450   0.298   5.493 -0.1866  0.5194  0.4143
10098SOL    HW131582   8.366   0.277   5.453  1.1051 -1.1258 -1.6190
10098SOL    HW231583   8.504   0.328   5.420  1.7531 -0.9718  1.1762
10099SOL     OW31584   7.329   7.351   7.492  0.1000  0.5126  0.1165
10099SOL    HW131585   7.309   7.305   7.411 -1.1492 -1.4159  1.4370
10099SOL    HW231586   7.418   7.386   7.479  0.3425 -0.6596 -1.6560
10100SOL     OW31587   2.320   4.926   7.165  0.5180  0.1588 -0.3349
10100SOL    HW131588   2.379   4.987   7.121 -0.2279 -0.0243 -1.6292
10100SOL    HW231589   2.250   4.910   7.102 -0.1480 -0.7820  0.6053
10101SOL     OW31590   1.946   3.022   2.338 -0.0856  0.3311  0.6089
10101SOL    HW131591   1.883   3.094   2.351 -1.9443 -1.4637  2.3092
10101SOL    HW231592   1.892   2.943   2.340  1.8324 -1.1449 -1.6180
10102SOL     OW31593   2.810   1.570   4.695 -0.3873 -0.2708  0.8742
10102SOL    HW131594   2.719   1.540   4.692 -0.0765 -1.2616  0.9501
10102SOL    HW231595   2.804   1.662   4.719 -1.5483  0.5703 -2.1615
10103SOL     OW31596   1.264   1.517   7.604  0.3228  0.0498  0.1317
10103SOL    HW131597   1.266   1.519   7.508  0.1527  0.9610  0.1404
10103SOL    HW231598   1.170   1.514   7.625  0.3447 -2.5633  0.2666
10104SOL     OW31599   5.902   0.593   6.502  0.4763  0.3517  0.1564
10104SOL    HW131600   5.841   0.536   6.550  0.2359  0.5505  0.0886
10104SOL    HW231601   5.868   0.593   6.412  2.5729 -2.4256 -0.7828
10105SOL     OW31602   4.881   8.568   7.514  0.5100 -0.2698 -0.1777
10105SOL    HW131603   4.950   8.626   7.482 -0.5858  0.7240 -0.8378
10105SOL    HW231604   4.800   8.612   7.488 -0.3643 -1.6400  0.1620
10106SOL     OW31605   6.945   2.808   3.969 -0.2219  0.0775  0.2809
10106SOL    HW131606   6.991   2.737   3.925 -0.1273  0.6415 -0.5444
10106SOL    HW231607   6.984   2.811   4.056 -0.6828 -1.3069  0.5703
10107SOL     OW31608   6.453   0.505   4.179  0.3054  0.0517  0.2417
10107SOL    HW131609   6.511   0.575   4.209 -1.1204  1.0539  0.7894
10107SOL    HW231610   6.507   0.452   4.121  1.2669  2.0211 -0.7749
10108SOL     OW31611   6.831   6.650   8.087  0.2809  0.0294 -0.1122
10108SOL    HW131612   6.885   6.697   8.151 -0.0319 -0.5723  0.6136
10108SOL    HW231613   6.759   6.711   8.069 -0.5696 -0.4383  1.4480
10109SOL     OW31614   3.592   2.273   5.320  0.4181 -0.1538 -0.3469
10109SOL    HW131615   3.506   2.300   5.288  0.7255  1.5507  0.1331
10109SOL    HW231616   3.653   2.298   5.250  0.6316 -0.3962 -0.2481
10110SOL     OW31617   1.746   2.326   5.652  0.3148  0.1718 -0.1488
10110SOL    HW131618   1.754   2.410   5.698  1.2636  1.5500 -2.5999
10110SOL    HW231619   1.827   2.280   5.673  1.0544  1.0766 -0.8980
10111SOL     OW31620   1.351   0.610   2.138  0.1950 -0.0553  0.6581
10111SOL    HW131621   1.353   0.580   2.229  0.7086  0.7222  0.9208
10111SOL    HW231622   1.284   0.678   2.137 -0.7228 -0.9542  0.1517
10112SOL     OW31623   0.569   5.884   7.391 -0.2717 -0.6745 -0.0532
10112SOL    HW131624   0.612   5.914   7.471 -0.4298  0.9737 -0.5311
10112SOL    HW231625   0.476   5.885   7.412 -0.3511  0.2816 -0.3877
10113SOL     OW31626   0.317   7.464   8.399  0.9287  0.4479 -0.5078
10113SOL    HW131627   0.309   7.555   8.370 -0.8258  0.5444  0.1028
10113SOL    HW231628   0.345   7.416   8.321 -1.7501  0.9857 -1.9345
10114SOL     OW31629   0.548   2.667   3.161  0.3414  0.6133 -0.3254
10114SOL    HW131630   0.471   2.611   3.157 -0.8610  2.1854 -0.3905
10114SOL    HW231631   0.618   2.616   3.120 -0.8702 -0.5408 -1.0240
10115SOL     OW31632   4.236   0.308   0.216 -0.0856  0.0817 -0.4588
10115SOL    HW131633   4.287   0.232   0.188 -2.7794 -2.0811  0.1527
10115SOL    HW231634   4.158   0.307   0.162 -0.0520  2.7255 -0.7130
10116SOL     OW31635   4.214   4.688   8.171  0.7187  0.4483 -0.0725
10116SOL    HW131636   4.158   4.741   8.114  1.8004  1.3894 -0.3048
10116SOL    HW231637   4.189   4.713   8.260  0.0384  0.0663 -0.1537
10117SOL     OW31638   7.530   3.129   8.659  0.2485 -0.1919 -0.8507
10117SOL    HW131639   7.481   3.131   8.741  0.7540 -2.9885 -0.3781
10117SOL    HW231640   7.496   3.203   8.609 -2.0173 -0.0118  0.7841
10118SOL     OW31641   5.624   6.744   7.115  0.3770  0.4599  0.7361
10118SOL    HW131642   5.641   6.831   7.078 -1.3223  0.5967  0.1813
10118SOL    HW231643   5.672   6.684   7.057 -1.2381  0.7738 -1.0217
10119SOL     OW31644   0.634   5.483   8.063  0.1093 -0.1463 -0.3943
10119SOL    HW131645   0.667   5.395   8.080  2.1454  0.1969 -2.1881
10119SOL    HW231646   0.623   5.487   7.968  0.0624  1.5424 -0.3511
10120SOL     OW31647   3.617   4.944   6.709  0.6652  0.5443 -0.0257
10120SOL    HW131648   3.614   4.959   6.803  0.5327  0.8833 -0.0801
10120SOL    HW231649   3.627   4.850   6.699 -1.4367  0.2357  0.3196
10121SOL     OW31650   3.122   0.863   7.479 -0.6037  0.2770 -0.4140
10121SOL    HW131651   3.155   0.948   7.508  1.7925  0.0469 -2.2365
10121SOL    HW231652   3.168   0.845   7.397 -1.8534 -2.2921 -0.6564
10122SOL     OW31653   5.567   6.294   5.728  0.5730  0.1125  0.4828
10122SOL    HW131654   5.568   6.351   5.651  2.2239  0.5628  0.8033
10122SOL    HW231655   5.640   6.325   5.781  0.1751 -0.9534  1.6842
10123SOL     OW31656   2.552   8.342   6.503  0.9590 -0.0186 -0.0435
10123SOL    HW131657   2.558   8.309   6.413 -0.6939  1.0248 -0.5690
10123SOL    HW231658   2.547   8.262   6.556  1.2428 -0.6477 -0.9267
10124SOL     OW31659   6.488   7.997   3.703 -0.6704  1.1104  0.3906
10124SOL    HW131660   6.576   7.965   3.687 -0.6555  0.8250  1.0036
10124SOL    HW231661   6.465   7.961   3.789 -3.3831 -3.2381 -1.8061
10125SOL     OW31662   0.787   1.412   6.802 -0.3845 -0.0297 -0.3959
10125SOL    HW131663   0.768   1.450   6.888  0.6755  0.6163 -0.4336
10125SOL    HW231664   0.881   1.393   6.803 -0.2220  0.5621 -1.6188
10126SOL     OW31665   3.800   5.524   3.522 -0.2678  0.0256  0.0984
10126SOL    HW131666   3.878   5.572   3.549  1.2133 -0.7195 -2.5501
10126SOL    HW231667   3.777   5.471   3.599  0.8777  1.3765  1.4319
10127SOL     OW31668   7.274   0.980   5.845 -0.1519 -0.5875  0.3734
10127SOL    HW131669   7.196   1.026   5.876  1.1712  1.1592  1.3052
10127SOL    HW231670   7.345   1.018   5.896  1.6237 -0.4191 -2.0688
10128SOL     OW31671   3.321   1.417   4.861 -0.1491  0.8095 -0.2038
10128SOL    HW131672   3.330   1.372   4.945  1.5711  1.2164 -0.1294
10128SOL    HW231673   3.410   1.439   4.836 -0.5289 -0.2079 -2.6746
10129SOL     OW31674   3.356   0.213   3.413 -0.0604 -0.3138 -0.1000
10129SOL    HW131675   3.378   0.146   3.348 -1.2302 -2.4211  1.5093
10129SOL    HW231676   3.425   0.204   3.479  0.4187  0.9122 -0.4235
10130SOL     OW31677   6.938   4.322   7.241 -0.5831  0.6224  0.2093
10130SOL    HW131678   7.010   4.273   7.200 -2.5336 -1.4284 -1.0477
10130SOL    HW231679   6.905   4.379   7.171 -0.1333  1.6139  0.8018
10131SOL     OW31680   1.827   6.117   2.212 -0.1719 -0.3094 -0.0547
10131SOL    HW131681   1.898   6.176   2.185 -0.0465  0.0001  0.8955
10131SOL    HW231682   1.772   6.171   2.269 -2.7802  0.3143 -2.8654
10132SOL     OW31683   1.915   0.062   2.657  0.0679  0.4311  0.1644
10132SOL    HW131684   1.947   0.145   2.622 -2.8826  3.1442  3.0811
10132SOL    HW231685   1.942   0.063   2.749 -1.3189 -1.0797  0.6316
10133SOL     OW31686   7.142   0.938   4.727  0.8481 -0.3041  0.0421
10133SOL    HW131687   7.146   1.028   4.760  2.1578 -0.8699  1.5080
10133SOL    HW231688   7.200   0.889   4.784 -1.3999 -2.5207  0.5681
10134SOL     OW31689   6.897   5.704   7.825  0.0848 -0.4319 -0.0053
10134SOL    HW131690   6.865   5.621   7.789  2.0042 -0.8910 -0.7572
10134SOL    HW231691   6.990   5.706   7.802  0.2346  1.6187  0.6030
10135SOL     OW31692   3.286   5.888   2.575 -0.0812 -0.7266  0.4332
10135SOL    HW131693   3.250   5.884   2.663  1.0131  0.6760  0.9980
10135SOL    HW231694   3.271   5.979   2.548 -0.0593 -1.0436 -0.6786
10136SOL     OW31695   1.830   8.594   5.781 -0.0213  0.2174  0.4662
10136SOL    HW131696   1.843   8.689   5.780  1.6431  0.0172  0.1837
10136SOL    HW231697   1.794   8.576   5.868 -1.8249  1.2481 -0.0208
10137SOL     OW31698   5.978   3.655   5.173 -0.2070  0.0568 -0.0274
10137SOL    HW131699   5.935   3.575   5.203 -0.6437  0.3053  0.0216
10137SOL    HW231700   5.943   3.668   5.084  0.4692 -0.2397 -0.3446
10138SOL     OW31701   7.576   1.031   3.862 -0.3266  0.2938 -0.4984
10138SOL    HW131702   7.659   0.984   3.852 -0.2185 -0.2326  2.1021
10138SOL    HW231703   7.594   1.118   3.827  0.8067 -0.2783 -1.4339
10139SOL     OW31704   7.000   3.554   2.768 -0.4558  0.0774  0.1584
10139SOL    HW131705   6.929   3.618   2.771 -0.7316 -0.2428  0.5748
10139SOL    HW231706   6.956   3.469   2.760 -0.1229 -0.1217  0.3837
10140SOL     OW31707   0.036   3.268   2.856 -0.1603  0.2507  0.1918
10140SOL    HW131708   0.083   3.347   2.830  1.3203 -1.2824 -2.2701
10140SOL    HW231709   0.098   3.221   2.912 -0.8995  0.6203  1.3547
10141SOL     OW31710   7.689   0.800   6.464 -0.8114 -0.6563 -0.6412
10141SOL    HW131711   7.735   0.827   6.384 -1.0013  1.9730  0.0446
10141SOL    HW231712   7.628   0.872   6.482 -2.4851 -2.2803  0.5924
10142SOL     OW31713   0.355   4.307   2.003  0.2488  0.0687  0.3903
10142SOL    HW131714   0.305   4.386   2.021 -0.4313 -0.2437 -0.0543
10142SOL    HW231715   0.291   4.236   2.011  0.8972 -0.4657  1.0295
10143SOL     OW31716   0.413   6.209   4.301 -0.1818 -0.7514 -0.3166
10143SOL    HW131717   0.459   6.292   4.309 -1.5799  0.0291 -0.1070
10143SOL    HW231718   0.480   6.143   4.323  0.6290  0.3693  0.7537
10144SOL     OW31719   6.526   2.988   2.001 -0.4729  0.0689 -0.6251
10144SOL    HW131720   6.601   3.013   2.055  0.3091  0.1264 -1.7178
10144SOL    HW231721   6.530   3.047   1.926 -1.4048 -0.1753 -0.8746
10145SOL     OW31722   8.201   0.711   8.167  0.0196 -0.2345 -0.0184
10145SOL    HW131723   8.190   0.782   8.231 -0.3441 -1.6091  1.5273
10145SOL    HW231724   8.207   0.755   8.083  1.3924  1.7308  1.0312
10146SOL     OW31725   5.911   2.160   1.105 -0.5402  0.0871 -0.0585
10146SOL    HW131726   5.823   2.140   1.073 -1.8174  2.6753  1.4348
10146SOL    HW231727   5.898   2.234   1.165  2.5777  0.0532  0.8480
10147SOL     OW31728   5.886   6.717   2.255 -0.5671  0.2165  0.3965
10147SOL    HW131729   5.913   6.725   2.164 -1.4354  1.1685  0.1981
10147SOL    HW231730   5.820   6.648   2.255  0.2641 -0.5962  0.5163
10148SOL     OW31731   1.616   1.243   0.731 -0.5580  0.0737  0.2052
10148SOL    HW131732   1.591   1.217   0.819 -1.0184 -1.3568 -0.3189
10148SOL    HW231733   1.546   1.300   0.701  0.0709  1.3648  1.0851
10149SOL     OW31734   6.100   1.627   8.096  0.0274 -0.2662 -0.0108
10149SOL    HW131735   6.191   1.599   8.096  0.7240  1.7701 -1.4759
10149SOL    HW231736   6.057   1.569   8.159  2.2934 -1.3274  0.6583
10150SOL     OW31737   5.325   0.725   4.726  0.4393 -0.6684  0.1573
10150SOL    HW131738   5.296   0.804   4.681  0.5642  0.1669  1.4750
10150SOL    HW231739   5.337   0.752   4.817  0.7360 -2.1486  0.5944
10151SOL     OW31740   8.318   4.899   5.038  0.0248  0.1817 -0.1726
10151SOL    HW131741   8.256   4.855   5.095  1.4444 -1.1238  0.4467
10151SOL    HW231742   8.264   4.942   4.972 -1.5715  0.1976  1.0850
10152SOL     OW31743   8.277   3.168   4.807 -0.0533  0.1279 -0.1097
10152SOL    HW131744   8.224   3.165   4.726  1.5338  2.7634 -1.3690
10152SOL    HW231745   8.350   3.110   4.789 -0.9135 -1.1689  0.4432
10153SOL     OW31746   1.816   5.156   2.682 -0.1777  0.5456 -0.2098
10153SOL    HW131747   1.870   5.221   2.727 -1.0095  0.2769  1.2380
10153SOL    HW231748   1.811   5.083   2.744 -1.7553  0.3549 -0.5257
10154SOL     OW31749   4.012   5.724   6.961 -0.5994 -0.1598  0.1063
10154SOL    HW131750   3.944   5.790   6.945 -1.0359 -0.5859  0.1581
10154SOL    HW231751   4.005   5.664   6.887  0.0313  0.0489 -0.1192
10155SOL     OW31752   5.846   2.890   3.332  0.0615 -0.5157 -0.1631
10155SOL    HW131753   5.772   2.856   3.281 -0.4503 -1.2829  1.0510
10155SOL    HW231754   5.907   2.816   3.339 -0.6391 -0.9633  1.7182
10156SOL     OW31755   5.914   1.109   3.054 -0.2834  0.1992 -0.4878
10156SOL    HW131756   5.961   1.041   3.103 -1.0127  0.2911  0.3544
10156SOL    HW231757   5.945   1.191   3.092 -1.5976  0.2499  0.5656
10157SOL     OW31758   6.065   0.974   7.569  0.0452 -0.4698  0.0835
10157SOL    HW131759   6.058   0.912   7.496  0.6636 -2.5789  1.6932
10157SOL    HW231760   5.980   0.969   7.613  0.0673 -0.0859  0.1732
10158SOL     OW31761   4.806   6.707   8.136  0.1722 -0.8928 -0.2032
10158SOL    HW131762   4.736   6.770   8.118  1.5299  0.8406  0.2348
10158SOL    HW231763   4.805   6.647   8.062 -1.0812 -0.2509 -0.7269
10159SOL     OW31764   3.659   5.922   6.236  0.2564 -0.4121 -0.4452
10159SOL    HW131765   3.715   5.884   6.303 -0.1386  0.0084  0.1355
10159SOL    HW231766   3.589   5.857   6.224  0.0642 -0.2746 -0.0940
10160SOL     OW31767   0.456   5.584   0.082 -0.3881 -0.0042  0.5099
10160SOL    HW131768   0.540   5.539   0.075  0.1298  0.3917  3.1059
10160SOL    HW231769   0.460   5.652   0.015  1.0100 -0.5318  0.0200
10161SOL     OW31770   5.518   3.255   3.838 -0.1259 -0.0888  0.3635
10161SOL    HW131771   5.460   3.191   3.797  2.0582 -1.1710 -1.2555
10161SOL    HW231772   5.471   3.338   3.832  0.0302 -0.0736 -4.7227
10162SOL     OW31773   6.992   2.479   8.549 -0.5551  0.4517  0.0217
10162SOL    HW131774   7.085   2.464   8.534 -0.6713  0.4621 -0.7615
10162SOL    HW231775   6.955   2.391   8.559 -0.5207  0.4309 -0.0322
10163SOL     OW31776   2.597   8.442   6.840  0.0070 -0.0905  0.1329
10163SOL    HW131777   2.532   8.457   6.772 -0.1618 -1.3027 -0.0004
10163SOL    HW231778   2.592   8.348   6.857  1.3411 -0.1151  0.4992
10164SOL     OW31779   5.505   2.071   2.112  0.2847 -0.5077 -0.2845
10164SOL    HW131780   5.581   2.128   2.102 -0.2466  0.1775 -0.4593
10164SOL    HW231781   5.435   2.115   2.064 -0.1092 -1.3598 -0.5115
10165SOL     OW31782   4.503   0.535   1.225  0.6461  0.1782 -0.1188
10165SOL    HW131783   4.501   0.596   1.151  2.1265  1.9286  1.1864
10165SOL    HW231784   4.443   0.464   1.200  1.7434  0.2411 -3.3258
10166SOL     OW31785   3.005   3.972   6.700 -0.2970  0.6045  0.0250
10166SOL    HW131786   3.069   3.950   6.768 -0.3991 -0.0640 -0.0882
10166SOL    HW231787   3.019   4.065   6.684  0.0026  0.6787  0.6744
10167SOL     OW31788   1.721   2.385   3.562 -0.5114 -0.4126 -0.0386
10167SOL    HW131789   1.663   2.393   3.638  1.4816  0.7019  1.4680
10167SOL    HW231790   1.771   2.305   3.578  1.8999  1.2496  1.4076
10168SOL     OW31791   5.947   6.825   6.796 -0.0026  0.3661  0.7101
10168SOL    HW131792   5.980   6.830   6.886 -0.3202 -0.1687  0.8602
10168SOL    HW231793   5.900   6.908   6.784  0.4864  0.6679  0.8548
10169SOL     OW31794   1.620   3.510   1.402 -0.4373  0.0252 -0.0694
10169SOL    HW131795   1.614   3.600   1.371  0.1834  1.1742  2.8901
10169SOL    HW231796   1.685   3.469   1.345  0.2294  1.8079 -0.6454
10170SOL     OW31797   7.469   7.811   1.512  0.0881 -0.1546  0.0321
10170SOL    HW131798   7.482   7.847   1.424  1.2484 -0.7444 -0.0585
10170SOL    HW231799   7.419   7.878   1.558  0.4251  0.6559 -0.7436
10171SOL     OW31800   8.126   0.059   5.592 -0.1500 -0.1528  0.0090
10171SOL    HW131801   8.159   0.035   5.678  0.2168  0.3657  0.0187
10171SOL    HW231802   8.087  -0.021   5.558  1.1120 -0.7896 -0.0024
10172SOL     OW31803   6.176   5.222   4.061  0.1408  0.8891  0.0519
10172SOL    HW131804   6.105   5.269   4.104  0.0410  1.4730 -0.7271
10172SOL    HW231805   6.190   5.144   4.116  0.7318  2.1121  1.7189
10173SOL     OW31806   4.110   1.230   7.139 -0.0517 -0.2674  0.5291
10173SOL    HW131807   4.161   1.306   7.112 -0.3295  0.4208  1.8872
10173SOL    HW231808   4.073   1.254   7.224 -3.2352 -0.4602 -0.6631
10174SOL     OW31809   2.032   8.512   0.477  0.1683 -0.1171 -0.3740
10174SOL    HW131810   1.979   8.434   0.493 -0.9283  0.6950  0.1413
10174SOL    HW231811   2.090   8.518   0.553  0.0399 -0.2699 -0.2635
10175SOL     OW31812   4.218   1.249   4.616 -0.4428  0.2553  0.1614
10175SOL    HW131813   4.201   1.235   4.709  0.2919  0.6815  0.3665
10175SOL    HW231814   4.206   1.163   4.576 -1.3723  0.1998  0.5513
10176SOL     OW31815   3.447   2.167   4.689  0.4266  0.1106 -0.4969
10176SOL    HW131816   3.469   2.260   4.699 -0.2704  0.3799 -1.3396
10176SOL    HW231817   3.357   2.167   4.659  0.2519 -0.8716 -0.0303
10177SOL     OW31818   0.606   8.577   3.132 -0.2398  0.6358  0.3059
10177SOL    HW131819   0.609   8.565   3.227 -0.5129  3.0443  0.6757
10177SOL    HW231820   0.605   8.671   3.120  0.6831  0.4005 -2.1480
10178SOL     OW31821   0.103   3.445   0.418  0.2347 -0.1186  0.4875
10178SOL    HW131822   0.107   3.362   0.370 -0.4249 -0.6061  1.2591
10178SOL    HW231823   0.185   3.449   0.467  0.0965 -0.5034  0.7524
10179SOL     OW31824   2.419   7.179   0.411 -0.8213 -0.5565  0.4213
10179SOL    HW131825   2.375   7.129   0.342 -1.7123  0.9153 -0.1203
10179SOL    HW231826   2.482   7.233   0.364 -0.5559 -0.4570  0.8938
10180SOL     OW31827   5.311   2.697   4.322 -0.4676  0.1332  0.3831
10180SOL    HW131828   5.281   2.787   4.328 -1.3124 -0.1909  1.3665
10180SOL    HW231829   5.304   2.663   4.412  0.9193 -0.5745  0.2513
10181SOL     OW31830   6.735   4.374   3.375 -0.1125  0.2146  0.2642
10181SOL    HW131831   6.640   4.381   3.379 -0.1355  0.7516 -0.8517
10181SOL    HW231832   6.764   4.460   3.344  0.6544 -0.2896 -0.4569
10182SOL     OW31833   3.008   1.463   7.996  0.1719  0.0597  0.2428
10182SOL    HW131834   2.986   1.422   8.080 -2.2537  0.7179  0.0117
10182SOL    HW231835   3.101   1.444   7.984  0.0427 -2.0949  1.9317
10183SOL     OW31836   3.144   5.836   2.233  0.1537 -0.3872 -0.1796
10183SOL    HW131837   3.101   5.868   2.153  1.5685 -0.4950 -1.0250
10183SOL    HW231838   3.086   5.863   2.304  0.5190  2.8296 -0.9478
10184SOL     OW31839   6.822   4.503   4.251  0.3018  0.2649  0.8801
10184SOL    HW131840   6.842   4.418   4.289 -0.7185 -0.0269  0.7985
10184SOL    HW231841   6.850   4.566   4.318  1.7611 -0.0789  0.6315
10185SOL     OW31842   1.149   7.161   8.493  0.1181  0.1242 -0.2163
10185SOL    HW131843   1.139   7.241   8.544 -2.1473 -0.6057  0.6336
10185SOL    HW231844   1.142   7.190   8.402 -1.3871  0.8573  0.0938
10186SOL     OW31845   5.887   6.645   4.085  0.1914 -0.4073 -0.1707
10186SOL    HW131846   5.960   6.613   4.139  1.0806  2.0002  0.1672
10186SOL    HW231847   5.820   6.577   4.093  0.6560 -0.6421  3.1845
10187SOL     OW31848   1.577   4.537   3.541  0.7457 -0.5304  0.3580
10187SOL    HW131849   1.665   4.502   3.522  1.0164  0.8864 -1.1838
10187SOL    HW231850   1.548   4.575   3.458 -0.7129  0.3464  1.2359
10188SOL     OW31851   4.399   7.090   4.966 -0.3573 -0.2970  0.0334
10188SOL    HW131852   4.393   6.997   4.944  2.0416 -0.3457 -0.7107
10188SOL    HW231853   4.457   7.093   5.042  0.3409  0.6157 -0.5050
10189SOL     OW31854   5.515   4.864   0.679 -0.6654  0.6321 -0.3689
10189SOL    HW131855   5.448   4.819   0.729 -0.7418 -0.6540 -1.5524
10189SOL    HW231856   5.506   4.830   0.590  2.9594 -1.3480 -0.1945
10190SOL     OW31857   8.050   8.195   0.901 -0.0844 -0.4436  0.1718
10190SOL    HW131858   8.101   8.120   0.930 -0.6572 -1.0865 -0.4248
10190SOL    HW231859   7.972   8.156   0.859 -0.8373  0.4958  0.6562
10191SOL     OW31860   0.326   5.533   1.265  0.4524  0.1468 -0.1298
10191SOL    HW131861   0.380   5.612   1.258  0.6901 -0.1632 -4.0318
10191SOL    HW231862   0.369   5.470   1.207 -2.1870 -1.3118 -0.6400
10192SOL     OW31863   1.393   6.313   3.850 -0.0415 -0.1677 -0.0230
10192SOL    HW131864   1.397   6.402   3.885 -0.2440 -0.1829  0.0433
10192SOL    HW231865   1.308   6.280   3.879 -0.7228  0.2250 -1.4641
10193SOL     OW31866   7.779   3.460   4.336  0.1095  0.2044 -0.2836
10193SOL    HW131867   7.848   3.518   4.302  0.1405 -1.0409 -2.5237
10193SOL    HW231868   7.823   3.376   4.349 -0.7637 -0.3542 -0.8537
10194SOL     OW31869   5.064   6.663   6.374  0.1223 -0.0664  0.0557
10194SOL    HW131870   5.085   6.570   6.382 -0.4169 -0.1733  0.2649
10194SOL    HW231871   4.988   6.676   6.431  0.8430  0.7274  0.8797
10195SOL     OW31872   7.628   3.880   8.039 -0.0716 -0.5233 -0.3107
10195SOL    HW131873   7.711   3.833   8.043 -0.1982 -0.7222  0.0472
10195SOL    HW231874   7.591   3.871   8.127 -1.1716 -1.7268 -0.8576
10196SOL     OW31875   8.604   3.861   0.820  0.1215  0.4982  0.8844
10196SOL    HW131876   8.535   3.903   0.872 -0.6241 -0.2508  0.5250
10196SOL    HW231877   8.637   3.791   0.876  0.3654  0.6465  0.9276
10197SOL     OW31878   5.188   3.622   3.559  0.2660 -0.8175 -0.2630
10197SOL    HW131879   5.107   3.572   3.549  0.7031 -1.5978 -0.0002
10197SOL    HW231880   5.241   3.597   3.482  0.5358 -0.8707 -0.0643
10198SOL     OW31881   4.853   5.503   4.087 -0.3428 -0.0616 -0.1130
10198SOL    HW131882   4.839   5.587   4.044  1.8377  0.7570  0.6494
10198SOL    HW231883   4.821   5.515   4.177  2.4395  0.9659  0.8486
10199SOL     OW31884   2.245   3.999   6.288  0.1533  0.0491 -0.0861
10199SOL    HW131885   2.161   3.995   6.244  1.3481 -0.4929 -2.4736
10199SOL    HW231886   2.261   3.910   6.319 -0.0350  0.1037  0.1729
10200SOL     OW31887   7.690   6.338   0.052  0.3092  0.6464 -0.0154
10200SOL    HW131888   7.751   6.359  -0.019  0.0889 -0.5669 -0.5945
10200SOL    HW231889   7.675   6.243   0.044 -1.4399  0.8579  0.2627
10201SOL     OW31890   7.144   8.299   4.447 -0.2252 -0.7465  0.1543
10201SOL    HW131891   7.077   8.306   4.379  0.9524  1.3419 -0.8959
10201SOL    HW231892   7.215   8.356   4.417  1.2648 -1.4417  2.1117
10202SOL     OW31893   8.664   2.503   7.560  0.0478 -1.2345 -0.4772
10202SOL    HW131894   8.641   2.411   7.544 -0.2729 -1.0062 -1.3979
10202SOL    HW231895   8.595   2.553   7.515  0.4919 -0.5459 -0.4099
10203SOL     OW31896   6.369   1.166   0.370 -0.3558 -0.4306 -0.3365
10203SOL    HW131897   6.296   1.104   0.359 -0.1798 -0.3391 -2.4655
10203SOL    HW231898   6.326   1.251   0.379 -0.5646 -0.6913  1.3186
10204SOL     OW31899   2.060   3.229   2.133 -0.5943 -0.7114  0.5626
10204SOL    HW131900   2.045   3.154   2.189 -1.0965 -0.0337  1.3545
10204SOL    HW231901   1.973   3.250   2.097 -0.4676 -0.4853  0.3870
10205SOL     OW31902   2.682   0.577   7.264  0.6428 -0.4427  0.0618
10205SOL    HW131903   2.695   0.669   7.238 -1.8036 -0.3678 -1.1872
10205SOL    HW231904   2.771   0.544   7.278  1.6424  1.9075 -0.1545
10206SOL     OW31905   7.394   1.360   5.705  0.1023  0.3442  0.2570
10206SOL    HW131906   7.341   1.347   5.784  0.5399 -0.2057  0.4681
10206SOL    HW231907   7.439   1.444   5.720 -0.2181  0.4988  0.3596
10207SOL     OW31908   1.342   1.080   2.268 -0.1665 -0.2202 -0.0380
10207SOL    HW131909   1.384   1.166   2.267 -0.0101 -0.2332  1.5309
10207SOL    HW231910   1.407   1.021   2.230 -0.4485  0.3985 -1.5440
10208SOL     OW31911   5.911   2.318   5.840 -0.4576  0.2371 -0.6577
10208SOL    HW131912   5.874   2.404   5.859 -0.4963  0.4746 -1.7190
10208SOL    HW231913   5.976   2.304   5.908 -2.3538 -0.1267  1.1775
10209SOL     OW31914   4.772   1.897   3.864 -0.3546  0.1971  0.4910
10209SOL    HW131915   4.698   1.929   3.813  0.5053  0.9678 -0.3129
10209SOL    HW231916   4.827   1.974   3.877  0.0439 -0.2464  1.5457
10210SOL     OW31917   1.851   5.573   7.744 -0.0603 -0.1812  0.3218
10210SOL    HW131918   1.946   5.585   7.747 -0.2697  1.6462  0.7763
10210SOL    HW231919   1.825   5.564   7.835 -0.3122 -0.8965  0.1844
10211SOL     OW31920   6.490   7.571   0.682 -0.2681 -0.6175  0.0579
10211SOL    HW131921   6.453   7.657   0.704 -2.6272 -1.5931  0.2166
10211SOL    HW231922   6.487   7.568   0.586 -0.7909 -0.7351  0.0711
10212SOL     OW31923   8.381   6.551   0.765 -0.5064  0.0710 -0.8240
10212SOL    HW131924   8.300   6.591   0.795 -0.0761  1.3011 -1.2550
10212SOL    HW231925   8.418   6.614   0.703  0.1035 -1.0836 -1.6638
10213SOL     OW31926   2.788   4.913   4.425 -0.2988 -0.5054  0.2990
10213SOL    HW131927   2.852   4.957   4.368 -2.0514  2.7070  0.5603
10213SOL    HW231928   2.842   4.860   4.485  1.8085 -1.0306 -1.9108
10214SOL     OW31929   6.251   5.955   3.015  0.2917  0.1128  0.3981
10214SOL    HW131930   6.195   6.032   3.003  0.6189  0.1958 -0.7632
10214SOL    HW231931   6.332   5.990   3.051  0.1042  0.1878  0.7463
10215SOL     OW31932   4.891   4.321   3.299 -0.5126 -0.0758  0.4576
10215SOL    HW131933   4.951   4.320   3.373  0.7742 -0.7487 -0.5344
10215SOL    HW231934   4.897   4.409   3.263 -2.7665  0.9321  2.3538
10216SOL     OW31935   6.459   7.090   8.299  0.1387 -0.1528 -0.5294
10216SOL    HW131936   6.438   7.040   8.378 -1.8856  1.9262  0.3442
10216SOL    HW231937   6.451   7.182   8.325  4.9011  0.9105 -1.7058
10217SOL     OW31938   6.742   5.127   6.018 -0.0447  0.2126 -0.4803
10217SOL    HW131939   6.724   5.217   5.992 -0.8058  0.1818 -0.0667
10217SOL    HW231940   6.656   5.087   6.031  0.2915 -0.3716  0.0263
10218SOL     OW31941   4.516   1.978   3.032  0.1083 -0.0451  0.4203
10218SOL    HW131942   4.579   1.929   2.978 -0.2446  0.1183 -0.1454
10218SOL    HW231943   4.436   1.927   3.027  0.0053  0.1026  0.5889
10219SOL     OW31944   0.353   7.604   0.610  0.4239  0.0977 -0.2425
10219SOL    HW131945   0.404   7.553   0.547  0.4145 -0.6225  0.3152
10219SOL    HW231946   0.297   7.539   0.653  1.5636  0.2917  1.6304
10220SOL     OW31947   5.341   8.358   2.183 -0.1426 -0.0690 -0.0723
10220SOL    HW131948   5.370   8.418   2.114 -1.9149  0.0495 -0.7587
10220SOL    HW231949   5.381   8.274   2.159  0.9837  0.4376 -0.0388
10221SOL     OW31950   5.911   5.074   0.933 -0.9130 -0.1179  1.2534
10221SOL    HW131951   5.850   5.087   0.860 -0.3850  1.8999  1.1026
10221SOL    HW231952   5.902   5.154   0.985 -0.3068 -0.9447  2.6735
10222SOL     OW31953   1.063   8.265   7.941 -0.3046  0.0730 -0.4148
10222SOL    HW131954   1.119   8.342   7.945  0.6525 -0.6265  2.7808
10222SOL    HW231955   1.109   8.204   7.884  1.9286 -0.2032  1.5513
10223SOL     OW31956   7.898   7.180   8.154 -0.5254  0.2084  0.2808
10223SOL    HW131957   7.943   7.115   8.209  0.0906  1.1876  0.9657
10223SOL    HW231958   7.805   7.164   8.171 -0.4027 -0.6905  0.1936
10224SOL     OW31959   6.670   4.457   8.184 -0.5076 -0.0159 -0.0240
10224SOL    HW131960   6.604   4.423   8.123  0.6484 -1.2932 -0.6099
10224SOL    HW231961   6.662   4.401   8.261 -1.7324  1.3823  0.9359
10225SOL     OW31962   2.122   3.303   2.734  0.3860  0.0052 -0.1125
10225SOL    HW131963   2.171   3.338   2.660  0.0383  1.3434  0.2685
10225SOL    HW231964   2.061   3.372   2.758 -0.3119 -0.8577  0.6934
10226SOL     OW31965   0.728   0.853   2.231  0.2176 -0.3646 -0.6433
10226SOL    HW131966   0.726   0.857   2.327 -2.4538 -1.8866 -0.5304
10226SOL    HW231967   0.683   0.932   2.203  0.1066 -0.4204 -0.6202
10227SOL     OW31968   6.594   5.760   2.921 -0.2922  0.3791  0.2490
10227SOL    HW131969   6.669   5.769   2.980 -1.0055 -1.5612  1.5472
10227SOL    HW231970   6.531   5.825   2.953 -0.5043 -0.3580  1.3775
10228SOL     OW31971   7.302   1.756   3.566  0.3050 -0.4352 -0.0642
10228SOL    HW131972   7.335   1.713   3.645  1.4011 -0.0591 -0.2979
10228SOL    HW231973   7.380   1.771   3.513 -0.0243  1.8450 -0.0004
10229SOL     OW31974   2.460   3.977   5.344 -0.4531 -0.2934  0.4505
10229SOL    HW131975   2.406   3.899   5.353 -0.3372 -0.3620  0.5426
10229SOL    HW231976   2.543   3.945   5.308 -0.4843 -0.1845  0.2816
10230SOL     OW31977   7.303   3.426   0.751  0.7610 -0.0501  0.2298
10230SOL    HW131978   7.232   3.440   0.689  0.2100  0.4707  0.9589
10230SOL    HW231979   7.283   3.484   0.825  1.5775 -0.4002  0.7515
10231SOL     OW31980   3.155   3.816   7.154  0.4339 -0.2041 -0.8786
10231SOL    HW131981   3.101   3.745   7.119 -1.2238  0.4230  0.2987
10231SOL    HW231982   3.095   3.890   7.164  1.3604  0.3618  0.9949
10232SOL     OW31983   1.393   4.003   4.614 -0.8899  0.0360  0.4633
10232SOL    HW131984   1.479   4.020   4.574 -1.5577 -0.0216 -1.0704
10232SOL    HW231985   1.357   4.090   4.631 -1.0984  0.0930 -0.2196
10233SOL     OW31986   6.309   4.551   2.023 -0.2750 -0.3274  0.1522
10233SOL    HW131987   6.396   4.551   2.063 -0.5736  0.6606  0.8539
10233SOL    HW231988   6.272   4.466   2.047  0.5343 -0.8068 -0.2651
10234SOL     OW31989   3.191   6.289   1.270 -0.4442  0.6328 -0.1583
10234SOL    HW131990   3.167   6.364   1.216 -1.7209  0.0199 -0.4774
10234SOL    HW231991   3.121   6.225   1.255  0.2877 -0.3794  0.5863
10235SOL     OW31992   5.281   3.579   1.373 -0.6938  0.3849  0.0635
10235SOL    HW131993   5.331   3.617   1.446 -0.0238 -0.2296 -0.0689
10235SOL    HW231994   5.226   3.513   1.414 -1.4626  1.1084  0.2189
10236SOL     OW31995   3.864   2.105   5.226  0.1606  0.8573  0.4304
10236SOL    HW131996   3.772   2.129   5.210 -0.0375 -1.0861 -1.7719
10236SOL    HW231997   3.864   2.009   5.225  1.8671  0.7264  2.9458
10237SOL     OW31998   3.982   2.124   8.537  0.3310 -0.2599 -0.0968
10237SOL    HW131999   3.903   2.177   8.549 -0.2087 -0.8056 -1.1636
10237SOL    HW232000   3.987   2.073   8.618 -0.1625  0.0859  0.1655
10238SOL     OW32001   4.302   6.213   5.432 -0.8336  0.0390  0.4500
10238SOL    HW132002   4.306   6.307   5.412 -0.8876  0.7605  3.3330
10238SOL    HW232003   4.342   6.170   5.356  0.8399  2.5046 -0.1718
10239SOL     OW32004   5.878   6.618   8.627 -0.2695 -0.3847 -0.6545
10239SOL    HW132005   5.825   6.648   8.553 -2.3890  1.0507  1.3163
10239SOL    HW232006   5.909   6.698   8.669 -0.7267 -1.0641  1.0902
10240SOL     OW32007   5.135   2.090   8.276 -0.1963 -0.3064 -0.2836
10240SOL    HW132008   5.052   2.057   8.241  0.0050 -0.9749 -0.1457
10240SOL    HW232009   5.152   2.170   8.227  0.3571 -1.5016 -2.1263
10241SOL     OW32010   8.141   4.570   2.066  1.0498 -0.0650  0.6468
10241SOL    HW132011   8.105   4.658   2.078  0.8031  0.2961 -2.1666
10241SOL    HW232012   8.068   4.518   2.032  1.8561 -0.6669 -0.2188
10242SOL     OW32013   5.975   5.402   3.017 -0.2990 -0.3786  0.0989
10242SOL    HW132014   5.899   5.356   3.053 -0.4078 -0.0574  0.2887
10242SOL    HW232015   5.974   5.487   3.062  0.7296 -0.7325  0.8229
10243SOL     OW32016   3.853   6.849   6.143 -0.3742  0.3288  0.1921
10243SOL    HW132017   3.868   6.837   6.049 -1.8167 -1.1240  0.0857
10243SOL    HW232018   3.936   6.825   6.184 -0.1523 -0.4212 -0.6607
10244SOL     OW32019   8.573   4.696   6.624  0.5566  0.0975  0.2030
10244SOL    HW132020   8.547   4.673   6.714 -0.7180  0.3613 -0.0757
10244SOL    HW232021   8.588   4.611   6.582 -3.6296 -0.4103 -0.6757
10245SOL     OW32022   3.238   5.187   2.122  0.2569  0.0605 -0.1382
10245SOL    HW132023   3.265   5.279   2.119 -1.8636  0.7754  0.4867
10245SOL    HW232024   3.319   5.139   2.139  1.3752  1.8412 -0.1102
10246SOL     OW32025   0.842   7.758   3.011 -0.0988 -0.0350 -0.6202
10246SOL    HW132026   0.924   7.802   3.035  0.8846 -0.9102 -2.2001
10246SOL    HW232027   0.842   7.760   2.916 -1.2593 -1.2666 -0.6565
10247SOL     OW32028   4.334   0.299   7.498  0.1610  0.4252 -0.3603
10247SOL    HW132029   4.366   0.347   7.574  0.2936 -1.2883  0.7282
10247SOL    HW232030   4.409   0.298   7.438  0.1279  1.6054 -0.4438
10248SOL     OW32031   7.153   0.824   3.688  0.1573  0.1786  0.5751
10248SOL    HW132032   7.142   0.743   3.737  2.3321  0.0376  0.9598
10248SOL    HW232033   7.248   0.832   3.677 -0.0225  2.4224  0.1492
10249SOL     OW32034   5.231   1.116   3.093 -0.1293  0.4986 -0.4556
10249SOL    HW132035   5.227   1.024   3.118  1.1278  0.5897  0.1612
10249SOL    HW232036   5.318   1.145   3.120 -1.0047  2.2528  0.6838
10250SOL     OW32037   2.974   1.277   4.086 -0.5300  0.5250  0.2918
10250SOL    HW132038   2.926   1.357   4.108 -1.7855 -0.5251  1.5543
10250SOL    HW232039   3.050   1.278   4.145  0.1029  1.3288 -0.5063
10251SOL     OW32040   7.095   1.459   2.056  0.1204  0.9794 -0.3641
10251SOL    HW132041   7.061   1.438   1.969  0.8414 -2.6654  0.1069
10251SOL    HW232042   7.186   1.432   2.054 -0.5314 -1.9916  2.2516
10252SOL     OW32043   4.460   0.238   1.068  0.0084  0.2986  0.1904
10252SOL    HW132044   4.544   0.232   1.020 -0.4685  0.5864 -0.7069
10252SOL    HW232045   4.485   0.239   1.160  0.9942  0.2851 -0.0632
10253SOL     OW32046   0.115   7.130   8.319  0.2840 -0.5276 -0.3675
10253SOL    HW132047   0.194   7.166   8.359  0.0474 -0.0529 -0.3294
10253SOL    HW232048   0.094   7.190   8.248 -0.7561  0.0465  0.4063
10254SOL     OW32049   1.037   0.650   1.396 -0.6037 -0.3347 -0.5159
10254SOL    HW132050   1.061   0.646   1.489 -0.9386  0.1845 -0.4015
10254SOL    HW232051   1.116   0.682   1.352 -0.7329  0.3368 -0.2799
10255SOL     OW32052   2.466   5.378   2.603 -0.0335  0.0823 -0.6049
10255SOL    HW132053   2.447   5.294   2.562  1.3354  0.1235 -1.3635
10255SOL    HW232054   2.505   5.356   2.687 -2.1278  0.0022  0.4282
10256SOL     OW32055   1.213   1.322   6.946  0.1230  0.2045  0.4835
10256SOL    HW132056   1.179   1.341   6.858 -0.8322  2.1561  1.2297
10256SOL    HW232057   1.300   1.363   6.947 -0.3171  1.1509  0.7908
10257SOL     OW32058   1.718   2.208   8.323 -0.3311 -0.1433 -0.4515
10257SOL    HW132059   1.667   2.180   8.399  0.3697  0.5324  0.2899
10257SOL    HW232060   1.770   2.132   8.299 -1.3112 -0.6913 -0.9214
10258SOL     OW32061   6.296   1.397   3.073  0.2337 -0.6357  0.2428
10258SOL    HW132062   6.287   1.400   2.978  1.6673 -1.4948  0.0433
10258SOL    HW232063   6.361   1.464   3.094 -0.8875  0.3161  0.7586
10259SOL     OW32064   6.180   3.315   1.210 -0.2925 -0.4119  0.4114
10259SOL    HW132065   6.226   3.265   1.277 -0.0436  0.9727  1.3086
10259SOL    HW232066   6.087   3.302   1.229 -0.3343 -2.5875 -0.9385
10260SOL     OW32067   5.649   2.146   1.021  0.4634 -0.0169 -0.4015
10260SOL    HW132068   5.644   2.130   0.926  0.6560 -0.0990 -0.3995
10260SOL    HW232069   5.574   2.101   1.058 -0.8655  1.7986 -0.7390
10261SOL     OW32070   1.121   0.162   4.598 -0.3717  0.4390  0.3132
10261SOL    HW132071   1.123   0.192   4.507  1.4074  2.5763  0.9808
10261SOL    HW232072   1.099   0.240   4.649  0.3051 -0.3349  1.8569
10262SOL     OW32073   0.904   6.226   7.157 -0.2372  0.0602 -0.8212
10262SOL    HW132074   0.976   6.288   7.166 -0.1842 -0.1687  0.4668
10262SOL    HW232075   0.843   6.270   7.097  0.8017  0.3907 -1.6611
10263SOL     OW32076   3.373   0.999   6.726 -0.2496 -0.0108  0.5493
10263SOL    HW132077   3.334   0.935   6.667 -0.2635 -0.6680  1.2590
10263SOL    HW232078   3.439   0.950   6.775  2.1953  1.2416 -1.2432
10264SOL     OW32079   5.684   5.332   5.370 -0.1156 -0.1937 -0.5478
10264SOL    HW132080   5.755   5.314   5.432 -1.1770  0.3328  0.9029
10264SOL    HW232081   5.671   5.249   5.324 -0.0772 -0.9923  0.8041
10265SOL     OW32082   2.649   5.755   1.786  0.2787  0.4541  0.3791
10265SOL    HW132083   2.566   5.732   1.827  0.2205 -1.3983 -0.6634
10265SOL    HW232084   2.649   5.851   1.783 -0.7392  0.5588  2.4992
10266SOL     OW32085   1.690   5.152   7.395 -0.1097  0.4197  0.3134
10266SOL    HW132086   1.745   5.123   7.323  1.2038  0.1453  1.3942
10266SOL    HW232087   1.601   5.146   7.360  0.2529 -2.4301 -0.3936
10267SOL     OW32088   3.182   4.078   3.883 -0.0369 -0.5895  0.4468
10267SOL    HW132089   3.103   4.039   3.845 -0.1603 -0.2933  0.3961
10267SOL    HW232090   3.168   4.172   3.875  0.5559 -0.5386 -0.0428
10268SOL     OW32091   5.300   0.109   7.975  0.4182 -0.0049  0.9425
10268SOL    HW132092   5.369   0.175   7.983  1.6867 -1.2182  0.4472
10268SOL    HW232093   5.345   0.031   7.944 -1.3972 -0.4858 -0.7143
10269SOL     OW32094   6.632   6.024   0.495 -0.6263 -0.1704  0.1188
10269SOL    HW132095   6.697   6.087   0.525  1.3360 -1.9166 -0.3001
10269SOL    HW232096   6.635   6.029   0.400 -0.3859 -0.9503  0.0789
10270SOL     OW32097   0.947   0.196   2.535  0.2746  0.1987 -0.1847
10270SOL    HW132098   0.939   0.113   2.583  0.1775  0.2924 -0.0399
10270SOL    HW232099   0.867   0.244   2.556  0.7656  0.7265  0.4842
10271SOL     OW32100   3.600   6.051   7.008 -0.3397  0.2105  0.0515
10271SOL    HW132101   3.556   5.965   7.008 -0.3796  0.2308  0.0638
10271SOL    HW232102   3.529   6.113   7.023 -0.1506  0.1596  1.2657
10272SOL     OW32103   7.564   6.840   4.854 -0.6592 -0.4383  0.0674
10272SOL    HW132104   7.631   6.772   4.851  1.0809  0.7112  4.8523
10272SOL    HW232105   7.592   6.905   4.790  1.1601 -1.3563 -0.1157
10273SOL     OW32106   5.051   5.218   1.608  0.2233 -0.4628  0.4248
10273SOL    HW132107   5.010   5.297   1.572  1.2094 -0.8441 -1.6782
10273SOL    HW232108   4.977   5.160   1.628 -0.4120 -0.2030 -1.0016
10274SOL     OW32109   4.251   1.338   5.993 -0.0957  0.3937  0.1562
10274SOL    HW132110   4.319   1.291   6.040 -0.6682 -1.2453 -0.5922
10274SOL    HW232111   4.173   1.327   6.046 -0.0335  1.3798  0.4775
10275SOL     OW32112   8.280   2.263   7.454  0.0614  0.1174 -0.2797
10275SOL    HW132113   8.294   2.257   7.359  0.3881 -0.3461 -0.2050
10275SOL    HW232114   8.187   2.243   7.466 -0.1047  0.7106 -0.5508
10276SOL     OW32115   4.726   3.340   4.943 -0.6852 -0.2555  0.4541
10276SOL    HW132116   4.645   3.380   4.977 -1.1014 -1.0385  0.4205
10276SOL    HW232117   4.721   3.354   4.848 -2.2028 -2.7064  0.0838
10277SOL     OW32118   2.785   2.096   7.373  0.8741  0.1322  0.2141
10277SOL    HW132119   2.760   2.167   7.314  1.7468 -0.9000 -1.4771
10277SOL    HW232120   2.864   2.127   7.417 -0.1925  1.2055  1.4770
10278SOL     OW32121   0.340   0.057   1.214 -0.1094 -0.4932  0.0072
10278SOL    HW132122   0.376   0.144   1.197 -1.1144 -0.1079 -0.1931
10278SOL    HW232123   0.372   0.003   1.141 -1.3602  0.2639 -1.1363
10279SOL     OW32124   8.283   4.576   5.530  0.0923 -0.6930 -0.1314
10279SOL    HW132125   8.199   4.537   5.555 -0.1527 -0.6507 -0.8648
10279SOL    HW232126   8.348   4.528   5.582 -0.0147 -3.3379 -2.2258
10280SOL     OW32127   7.053   8.252   8.581 -0.5424  0.1769  0.1863
10280SOL    HW132128   7.060   8.170   8.532 -0.4382 -0.3325  1.0270
10280SOL    HW232129   7.138   8.294   8.570 -1.0685  0.9208 -1.4822
10281SOL     OW32130   6.331   2.953   2.560 -0.0834  0.2390 -0.0012
10281SOL    HW132131   6.359   2.986   2.645 -0.5723  0.8653 -0.0768
10281SOL    HW232132   6.413   2.940   2.511  0.2686 -1.0690  0.8830
10282SOL     OW32133   5.703   6.562   6.374 -0.0512 -0.1723 -0.5740
10282SOL    HW132134   5.769   6.584   6.440 -0.3204  0.5272 -0.5312
10282SOL    HW232135   5.631   6.522   6.423  0.3895 -1.0730 -0.6379
10283SOL     OW32136   8.468   1.332   6.252  0.2008 -0.0661  0.0777
10283SOL    HW132137   8.392   1.302   6.203 -0.0296 -0.0127  0.3987
10283SOL    HW232138   8.476   1.424   6.230  0.4652 -0.1850 -0.3327
10284SOL     OW32139   5.243   2.337   1.358  0.1333 -0.5175 -0.3630
10284SOL    HW132140   5.329   2.298   1.341 -0.4758 -1.8776 -0.4703
10284SOL    HW232141   5.228   2.394   1.284  1.5063  0.7978  0.3097
10285SOL     OW32142   7.149   6.795   8.538  0.1948  0.0537  0.1837
10285SOL    HW132143   7.228   6.848   8.526  0.2510 -0.5695 -2.8335
10285SOL    HW232144   7.176   6.725   8.598  1.7065  0.3012 -0.1735
10286SOL     OW32145   1.498   4.392   0.504  0.2723  0.3489  0.0721
10286SOL    HW132146   1.437   4.321   0.523  0.9745 -0.2614  0.0926
10286SOL    HW232147   1.539   4.367   0.421  0.5725  0.6942  0.1158
10287SOL     OW32148   2.804   5.162   5.034 -0.1754  0.0370  0.5932
10287SOL    HW132149   2.727   5.112   5.006 -0.3732  0.2371  0.7927
10287SOL    HW232150   2.832   5.208   4.955  0.7056 -1.2946  0.0810
10288SOL     OW32151   7.250   4.315   3.451  0.4549 -0.4080 -0.4606
10288SOL    HW132152   7.315   4.246   3.466  0.0292 -0.4190  1.6669
10288SOL    HW232153   7.300   4.396   3.453  0.5237 -0.4616  0.4978
10289SOL     OW32154   5.008   7.960   3.532  0.6810 -1.0142 -0.1477
10289SOL    HW132155   5.094   7.925   3.509  1.2656  1.7307 -2.8449
10289SOL    HW232156   5.025   8.018   3.606  1.0432 -0.9017 -0.3188
10290SOL     OW32157   3.096   4.307   2.953 -0.6383 -0.9479  0.7392
10290SOL    HW132158   3.142   4.297   2.870  0.8902 -1.6072  1.6134
10290SOL    HW232159   3.011   4.267   2.939  0.1350 -2.3890 -0.1116
10291SOL     OW32160   3.292   2.672   3.450  0.2148 -0.0120  0.2819
10291SOL    HW132161   3.342   2.591   3.448 -1.6575 -1.2304  0.9833
10291SOL    HW232162   3.359   2.741   3.458  1.8538 -1.4249 -0.7290
10292SOL     OW32163   4.190   7.705   3.034  0.2032  0.1079 -0.6771
10292SOL    HW132164   4.137   7.728   3.111 -0.5764 -0.0589 -1.1576
10292SOL    HW232165   4.243   7.631   3.063 -0.1347  0.0059 -0.3183
10293SOL     OW32166   5.561   5.270   8.133 -0.1133 -0.2782  0.2311
10293SOL    HW132167   5.475   5.228   8.127 -0.2023 -0.2587  1.2180
10293SOL    HW232168   5.548   5.355   8.092 -0.2039 -0.7811 -0.8373
10294SOL     OW32169   1.692   3.718   1.176  0.0478  0.1460  0.0600
10294SOL    HW132170   1.712   3.645   1.117 -0.6849 -0.6413  0.7582
10294SOL    HW232171   1.689   3.795   1.119  0.8443 -0.3601 -0.6878
10295SOL     OW32172   1.674   1.587   2.270 -1.0095 -0.0297  0.0467
10295SOL    HW132173   1.733   1.576   2.195 -0.3685  1.9809  0.1735
10295SOL    HW232174   1.711   1.533   2.339 -1.0764 -1.1786 -0.7984
10296SOL     OW32175   5.074   8.152   3.713  0.5128  0.1182  0.7196
10296SOL    HW132176   5.055   8.235   3.667  0.0389 -0.2233  0.2831
10296SOL    HW232177   5.145   8.174   3.772  0.3707  0.8544  0.6358
10297SOL     OW32178   6.951   7.541   7.243 -0.2514  0.0395  0.0886
10297SOL    HW132179   6.969   7.496   7.326 -2.2678  0.3848  0.7666
10297SOL    HW232180   7.032   7.588   7.223  0.2807 -0.0593  1.8664
10298SOL     OW32181   1.027   6.907   1.828 -0.1562 -0.7105  0.0035
10298SOL    HW132182   1.102   6.913   1.769 -0.1189 -0.2830  0.0906
10298SOL    HW232183   1.064   6.926   1.915 -0.1306 -1.7230  0.2344
10299SOL     OW32184   4.072   6.409   3.580 -0.4123 -0.1735  0.0477
10299SOL    HW132185   4.101   6.342   3.642 -1.7067  0.0156  0.9055
10299SOL    HW232186   4.090   6.492   3.624  1.7679  0.1274 -1.2716
10300SOL     OW32187   3.367   8.071   6.422  0.0214 -0.1660  0.1942
10300SOL    HW132188   3.391   8.140   6.484  0.4053  0.0642 -0.2084
10300SOL    HW232189   3.407   7.992   6.459  0.5036  0.0244  0.0984
10301SOL     OW32190   1.166   5.300   6.250 -0.6529  0.0057 -0.2023
10301SOL    HW132191   1.255   5.264   6.249 -0.5453  0.2729 -0.7960
10301SOL    HW232192   1.179   5.394   6.234 -0.9199  0.3397  1.3758
10302SOL     OW32193   2.629   1.155   0.264 -0.7267 -0.1026  0.5171
10302SOL    HW132194   2.710   1.188   0.225 -1.5177  0.2580 -0.8944
10302SOL    HW232195   2.655   1.123   0.350  1.0782 -0.7475 -0.2179
10303SOL     OW32196   5.674   7.293   3.098 -0.0204  0.1802 -0.0947
10303SOL    HW132197   5.762   7.327   3.083 -0.4651  1.8440  0.8570
10303SOL    HW232198   5.684   7.232   3.171  0.3031  0.6572  0.2671
10304SOL     OW32199   2.230   2.076   5.805 -0.2513 -0.2620  0.1104
10304SOL    HW132200   2.279   2.049   5.728  1.7020  1.9139  0.4564
10304SOL    HW232201   2.262   2.164   5.824 -1.6921 -0.1615  2.5789
10305SOL     OW32202   6.379   1.878   3.801 -0.9972  0.2168  0.2848
10305SOL    HW132203   6.387   1.946   3.734  0.5650  0.0362  0.2683
10305SOL    HW232204   6.454   1.820   3.787 -2.2346 -1.4886  0.3577
10306SOL     OW32205   0.440   1.144   6.603  0.0781 -0.5780 -0.4509
10306SOL    HW132206   0.475   1.093   6.530  1.3540 -0.0153 -0.2635
10306SOL    HW232207   0.414   1.227   6.563 -0.9504 -0.9425 -0.5643
10307SOL     OW32208   7.169   4.708   1.653  0.0436 -0.5481  0.0739
10307SOL    HW132209   7.246   4.698   1.709  1.1477  1.2923 -1.0132
10307SOL    HW232210   7.178   4.640   1.586  2.1523  1.1134 -1.4939
10308SOL     OW32211   7.946   0.626   8.056  0.8039  0.1264 -0.3729
10308SOL    HW132212   7.881   0.561   8.029 -0.2440  0.4765  1.1642
10308SOL    HW232213   8.027   0.576   8.065  0.2202 -0.7975 -0.0777
10309SOL     OW32214   5.283   6.327   7.557 -0.1339 -0.2378  0.4026
10309SOL    HW132215   5.197   6.325   7.516 -0.2802 -0.2484  0.7017
10309SOL    HW232216   5.335   6.385   7.502  0.3532 -1.9776 -1.0587
10310SOL     OW32217   6.163   6.633   7.924 -0.8547  0.2327  0.6468
10310SOL    HW132218   6.144   6.703   7.987 -1.8102  1.3388 -0.8251
10310SOL    HW232219   6.258   6.633   7.917 -0.8710  2.0790 -0.0532
10311SOL     OW32220   6.456   6.487   2.002 -0.3328  0.0678  1.0042
10311SOL    HW132221   6.548   6.500   1.979  0.3502  0.6443  3.6312
10311SOL    HW232222   6.448   6.392   2.014 -0.1412 -0.0075  0.5445
10312SOL     OW32223   3.462   7.696   3.503  0.2687 -0.0973 -0.3917
10312SOL    HW132224   3.534   7.680   3.564  0.3513  1.3194 -0.0871
10312SOL    HW232225   3.415   7.770   3.540 -1.4100 -1.0356 -0.5627
10313SOL     OW32226   3.613   6.039   4.462 -0.1968  0.6773 -0.2569
10313SOL    HW132227   3.538   6.090   4.431 -0.5737  0.6602  0.6046
10313SOL    HW232228   3.673   6.104   4.498  0.7626  0.8192 -2.0084
10314SOL     OW32229   7.858   4.976   6.987  0.2516 -0.0638  0.2069
10314SOL    HW132230   7.858   4.915   7.062 -0.9208 -0.3075  0.0410
10314SOL    HW232231   7.861   5.063   7.027  1.9747 -0.2133  0.4457
10315SOL     OW32232   7.348   1.412   0.924 -0.6593  0.3948 -0.2875
10315SOL    HW132233   7.352   1.335   0.867  1.7752  0.3167 -0.1044
10315SOL    HW232234   7.392   1.385   1.005 -1.5606  1.3846  0.5736
10316SOL     OW32235   5.072   5.459   7.681 -0.3205 -0.3511  0.2644
10316SOL    HW132236   5.077   5.500   7.595  0.8551 -0.1564  0.4111
10316SOL    HW232237   4.982   5.427   7.687 -0.5447  0.0279 -0.8498
10317SOL     OW32238   7.400   1.130   5.033 -0.2605  0.3499  0.5162
10317SOL    HW132239   7.331   1.170   4.979 -1.0930 -1.4061  0.2065
10317SOL    HW232240   7.392   1.173   5.118 -0.5547  1.4303 -0.0443
10318SOL     OW32241   7.812   4.843   7.240  0.3148 -0.0194 -0.2792
10318SOL    HW132242   7.770   4.908   7.296  1.0087  0.2299 -0.0355
10318SOL    HW232243   7.814   4.763   7.294 -0.3823 -0.2091 -0.5170
10319SOL     OW32244   6.472   2.417   8.109 -1.4060 -0.1036 -0.1303
10319SOL    HW132245   6.490   2.496   8.160  0.5382 -0.3437 -0.3712
10319SOL    HW232246   6.495   2.440   8.019 -1.7911 -0.6524 -0.3801
10320SOL     OW32247   0.207   5.598   2.428 -0.0166 -0.6252 -0.1835
10320SOL    HW132248   0.225   5.676   2.479  0.7819  0.6564 -2.2795
10320SOL    HW232249   0.288   5.580   2.381 -0.7369 -1.6363 -1.1106
10321SOL     OW32250   2.820   8.021   0.341 -0.0755 -0.1689  0.2816
10321SOL    HW132251   2.864   8.103   0.319  0.1431 -0.5902 -0.9430
10321SOL    HW232252   2.839   8.007   0.433 -1.0174  1.6904  0.7875
10322SOL     OW32253   8.151   2.724   0.799  0.6847  0.2600 -0.0022
10322SOL    HW132254   8.241   2.749   0.819  0.3121  0.9635  0.8486
10322SOL    HW232255   8.097   2.791   0.840 -0.2466 -0.3938 -0.1123
10323SOL     OW32256   1.625   7.295   3.847  0.7767 -0.6482 -0.0357
10323SOL    HW132257   1.658   7.332   3.929  0.9581 -0.4364 -0.2031
10323SOL    HW232258   1.703   7.273   3.798  0.6688 -1.0109 -0.0507
10324SOL     OW32259   6.193   5.073   6.440 -0.1409 -0.5291 -0.0913
10324SOL    HW132260   6.216   5.146   6.498 -0.4792 -1.6622  1.5326
10324SOL    HW232261   6.154   5.008   6.498 -0.5404 -1.7045 -1.6255
10325SOL     OW32262   7.985   1.891   8.651  0.0334  0.4777  0.4841
10325SOL    HW132263   7.995   1.872   8.744 -1.3846 -1.0339  0.3830
10325SOL    HW232264   8.045   1.963   8.634  1.4051 -0.1889  2.2505
10326SOL     OW32265   6.818   4.176   5.968  0.0208 -0.0339  0.2206
10326SOL    HW132266   6.740   4.147   6.015 -0.7510  1.0616 -0.3445
10326SOL    HW232267   6.832   4.266   5.998  0.2195  0.2640 -0.7402
10327SOL     OW32268   2.057   3.305   7.678 -0.3916  0.4436 -0.1035
10327SOL    HW132269   1.967   3.298   7.708 -0.3132  0.9693  0.2698
10327SOL    HW232270   2.104   3.236   7.726 -0.7920 -0.5930 -1.1414
10328SOL     OW32271   4.419   7.474   0.965 -0.0523  0.1067  0.0336
10328SOL    HW132272   4.378   7.487   1.050  0.2301  0.8857  0.0559
10328SOL    HW232273   4.513   7.478   0.982  0.0203 -0.5905 -0.1834
10329SOL     OW32274   7.283   8.167   1.122  0.1771 -0.3456 -0.4503
10329SOL    HW132275   7.278   8.157   1.217 -1.5610 -0.3043 -0.5067
10329SOL    HW232276   7.193   8.186   1.095  0.5279 -0.9554 -2.1794
10330SOL     OW32277   1.467   3.008   7.391 -0.2373 -0.3041 -0.2589
10330SOL    HW132278   1.413   2.929   7.384 -0.6905  0.0600 -1.0706
10330SOL    HW232279   1.551   2.977   7.423 -1.5589 -0.6328  3.3383
10331SOL     OW32280   2.563   4.131   1.988 -0.3419  0.1120  0.7498
10331SOL    HW132281   2.471   4.158   1.992 -0.0700  1.6087 -1.3600
10331SOL    HW232282   2.560   4.040   1.959 -1.1889  0.7669 -1.4296
10332SOL     OW32283   8.012   8.029   2.560 -0.0923 -0.4203  0.1917
10332SOL    HW132284   8.007   8.006   2.467  1.9624  0.1933 -0.1181
10332SOL    HW232285   8.104   8.048   2.575 -0.5447  0.4657  2.1434
10333SOL     OW32286   5.437   6.355   8.130  0.3963 -0.5449  0.3228
10333SOL    HW132287   5.520   6.353   8.176  0.5717  0.3556  0.0688
10333SOL    HW232288   5.408   6.446   8.136  0.4878 -0.3513 -1.4082
10334SOL     OW32289   3.010   7.059   2.748  0.1634  0.0566 -0.6066
10334SOL    HW132290   2.964   7.111   2.814 -1.5416 -1.1805 -0.7369
10334SOL    HW232291   3.082   7.115   2.718  1.1820  0.5608  2.4643
10335SOL     OW32292   2.030   2.483   1.597  0.4343  0.7272  0.1874
10335SOL    HW132293   1.982   2.557   1.634 -0.3262  0.2743  0.1117
10335SOL    HW232294   2.015   2.490   1.502  0.4230  0.5210  0.1732
10336SOL     OW32295   7.427   8.339   6.200 -0.2451 -0.0535  0.4877
10336SOL    HW132296   7.406   8.372   6.287 -0.9199 -0.1827  0.3807
10336SOL    HW232297   7.521   8.321   6.203 -0.4893 -1.3033  1.6090
10337SOL     OW32298   2.371   1.852   1.200 -0.6692  0.0143  0.3051
10337SOL    HW132299   2.460   1.823   1.221 -0.5770  0.0941  0.0318
10337SOL    HW232300   2.359   1.830   1.108 -1.4967 -1.3831  0.7259
10338SOL     OW32301   6.522   6.293   7.673 -0.2604  0.4978  0.3438
10338SOL    HW132302   6.580   6.299   7.597  0.8619 -2.8187  0.7976
10338SOL    HW232303   6.561   6.352   7.737  0.4836  1.0881 -0.6205
10339SOL     OW32304   0.616   5.176   5.110 -0.5092 -0.2083  0.1433
10339SOL    HW132305   0.565   5.183   5.029  0.8940 -0.0778 -0.7787
10339SOL    HW232306   0.645   5.085   5.112  0.1160 -0.0228  0.0517
10340SOL     OW32307   2.085   3.868   4.662  0.2222  1.0714 -0.6950
10340SOL    HW132308   2.105   3.813   4.738  3.9450  1.6007 -1.0799
10340SOL    HW232309   2.069   3.954   4.699  0.4602  0.9944 -0.4037
10341SOL     OW32310   2.121   4.015   7.006 -0.2041  0.1521  0.8015
10341SOL    HW132311   2.086   3.977   6.925  0.8138  0.0421  0.3975
10341SOL    HW232312   2.166   3.942   7.049 -0.7012  0.2211  1.4521
10342SOL     OW32313   1.762   3.149   1.296  0.3219  0.3442  0.1497
10342SOL    HW132314   1.808   3.138   1.379  1.0414 -0.5581 -0.3530
10342SOL    HW232315   1.827   3.130   1.229 -0.5706 -0.2076 -0.5951
10343SOL     OW32316   1.116   0.511   5.301 -0.1483 -0.3615  0.1385
10343SOL    HW132317   1.145   0.484   5.214  0.3725 -0.7105  0.4161
10343SOL    HW232318   1.100   0.605   5.293  3.4656  0.4347  0.5656
10344SOL     OW32319   2.157   1.784   5.105  0.1642 -0.3221  0.8614
10344SOL    HW132320   2.159   1.872   5.143  1.3941 -0.6835  1.6908
10344SOL    HW232321   2.104   1.732   5.166  0.9621 -0.5747  1.3456
10345SOL     OW32322   6.495   0.870   8.205  0.3344 -0.4315  0.2704
10345SOL    HW132323   6.518   0.868   8.112 -1.1350 -2.0363 -0.1032
10345SOL    HW232324   6.400   0.881   8.206  0.3399 -0.3504  1.5873
10346SOL     OW32325   1.739   1.059   4.198  0.0810  0.1966 -0.2101
10346SOL    HW132326   1.659   1.052   4.146 -0.3118  0.1027  0.4010
10346SOL    HW232327   1.713   1.107   4.277 -0.4925 -3.5992  2.1436
10347SOL     OW32328   5.874   4.496   0.732 -0.4991  0.2447  0.4636
10347SOL    HW132329   5.908   4.517   0.645  1.8100 -1.2374  0.9313
10347SOL    HW232330   5.846   4.404   0.725 -1.7155  0.5671  0.9013
10348SOL     OW32331   2.028   5.401   1.383  0.1293  0.3673 -0.0447
10348SOL    HW132332   2.102   5.423   1.440  1.5681 -0.0226 -1.6661
10348SOL    HW232333   2.031   5.468   1.315 -0.3118 -0.3122 -0.7383
10349SOL     OW32334   1.126   3.616   0.174 -0.7446  0.3377  0.0068
10349SOL    HW132335   1.068   3.677   0.220 -0.9907  1.6958 -1.9955
10349SOL    HW232336   1.214   3.639   0.206 -0.7415  2.3820 -1.2800
10350SOL     OW32337   2.598   5.498   2.030 -0.2452  0.2518  0.2717
10350SOL    HW132338   2.692   5.517   2.036 -0.0733  0.0210 -1.1940
10350SOL    HW232339   2.556   5.568   2.081  0.7127  0.4476  0.8132
10351SOL     OW32340   0.281   0.189   3.245 -0.6721  0.4552  0.4965
10351SOL    HW132341   0.327   0.225   3.170  0.4063 -1.0252  0.3953
10351SOL    HW232342   0.342   0.201   3.318 -0.6650 -0.3100  0.6269
10352SOL     OW32343   7.048   3.932   6.977 -0.1002 -0.3068  0.2813
10352SOL    HW132344   7.005   4.017   6.983 -0.9980 -0.7275 -0.1596
10352SOL    HW232345   7.120   3.946   6.915 -0.9765 -0.1569 -0.7258
10353SOL     OW32346   7.396   8.256   0.064  0.4487 -0.2307  0.2429
10353SOL    HW132347   7.338   8.318   0.109  1.4938  0.3701  0.7908
10353SOL    HW232348   7.384   8.276  -0.029  1.4737  1.4860  0.4391
10354SOL     OW32349   1.731   6.357   5.709  0.4500  0.2751 -0.6246
10354SOL    HW132350   1.636   6.354   5.724  0.4240  1.5938 -0.4632
10354SOL    HW232351   1.769   6.334   5.794  0.3263 -2.5542 -1.2278
10355SOL     OW32352   4.789   6.161   4.008 -0.0687 -0.2057 -0.3328
10355SOL    HW132353   4.724   6.225   4.037  0.8612  0.2327  0.8321
10355SOL    HW232354   4.769   6.147   3.915 -2.8343 -1.3078  0.3452
10356SOL     OW32355   2.619   7.999   6.151 -0.1247  0.9071  0.3914
10356SOL    HW132356   2.592   7.931   6.090 -0.8176 -0.1047  1.7746
10356SOL    HW232357   2.701   8.034   6.114 -0.3226  0.0701 -0.8841
10357SOL     OW32358   2.310   1.269   3.342 -0.3726  0.2066  0.4266
10357SOL    HW132359   2.273   1.354   3.318  0.1926 -0.1387 -1.8717
10357SOL    HW232360   2.255   1.239   3.415 -1.1363  2.1164  0.6949
10358SOL     OW32361   5.485   8.336   7.140  0.0916  0.7630  0.0772
10358SOL    HW132362   5.515   8.420   7.103  0.9825  0.5361  0.2420
10358SOL    HW232363   5.392   8.332   7.119  0.3283  1.1632 -1.1397
10359SOL     OW32364   4.254   5.077   1.306  0.4669 -0.3226  0.6023
10359SOL    HW132365   4.223   5.004   1.360 -1.4719 -0.9858 -1.2691
10359SOL    HW232366   4.339   5.048   1.273  0.0640 -1.4382  0.5042
10360SOL     OW32367   5.650   2.413   1.025 -0.2348  0.1527  0.4801
10360SOL    HW132368   5.655   2.321   1.050 -2.0900  0.0665  0.6568
10360SOL    HW232369   5.582   2.450   1.080  0.1751  1.5381  0.1030
10361SOL     OW32370   5.056   3.839   7.477 -0.2693  0.2675  0.1274
10361SOL    HW132371   5.149   3.828   7.456 -0.3346  1.3032 -0.7875
10361SOL    HW232372   5.054   3.847   7.572  0.5060 -0.4213  0.2125
10362SOL     OW32373   5.898   8.145   7.154 -0.7425  0.1293  0.1267
10362SOL    HW132374   5.947   8.100   7.085 -2.0037 -0.2605 -0.5649
10362SOL    HW232375   5.860   8.074   7.206 -0.7276  0.4134  0.5246
10363SOL     OW32376   0.157   2.335   2.827  0.4001 -0.3647 -0.1151
10363SOL    HW132377   0.110   2.323   2.910  0.0526  2.2510  0.1603
10363SOL    HW232378   0.249   2.340   2.853  0.2671  0.8014  0.2229
10364SOL     OW32379   2.481   6.253   1.938 -0.6137 -0.1363 -0.5878
10364SOL    HW132380   2.425   6.303   1.997  0.6161 -0.9741  1.3938
10364SOL    HW232381   2.552   6.314   1.916  0.8400 -0.8578  1.7591
10365SOL     OW32382   7.030   0.156   4.410 -0.6400  0.0660 -0.1098
10365SOL    HW132383   6.948   0.205   4.419 -1.5512 -1.2451 -0.8538
10365SOL    HW232384   7.099   0.219   4.432 -1.8711  1.0248  1.1574
10366SOL     OW32385   7.416   2.450   1.763  0.1226  0.2632  0.3211
10366SOL    HW132386   7.352   2.497   1.709  1.2131  0.7609 -0.5833
10366SOL    HW232387   7.416   2.495   1.847 -0.7357  0.2307  0.3446
10367SOL     OW32388   4.733   8.674   0.119  0.4510 -0.0830  0.1560
10367SOL    HW132389   4.826   8.651   0.125  0.3119 -2.2895 -3.2037
10367SOL    HW232390   4.692   8.596   0.080 -2.3311  1.7593 -0.8992
10368SOL     OW32391   5.190   0.236   1.136  0.0838  0.4280  0.0831
10368SOL    HW132392   5.125   0.196   1.194  0.6246  0.3631  0.6605
10368SOL    HW232393   5.195   0.176   1.061  0.6780 -0.4625  0.8085
10369SOL     OW32394   2.570   8.591   4.062  0.3485 -0.8805  0.3009
10369SOL    HW132395   2.646   8.647   4.078  0.7617 -1.2015 -0.4794
10369SOL    HW232396   2.558   8.544   4.145  1.0283 -0.8592  0.4219
10370SOL     OW32397   1.849   7.116   6.649 -0.0457  0.4342 -0.2460
10370SOL    HW132398   1.837   7.135   6.742  0.6130 -0.1588 -0.0235
10370SOL    HW232399   1.856   7.020   6.646  0.7348  0.4991 -0.7966
10371SOL     OW32400   2.439   6.618   8.444  0.3201 -0.3560 -0.2022
10371SOL    HW132401   2.507   6.633   8.511 -0.2247 -1.4951  0.6246
10371SOL    HW232402   2.419   6.525   8.450 -0.4607 -0.2756 -1.2845
10372SOL     OW32403   1.119   1.192   2.148  0.0672 -0.1846  0.0778
10372SOL    HW132404   1.197   1.184   2.203  0.0694  0.2337  0.1356
10372SOL    HW232405   1.134   1.129   2.076  1.6234  1.6426 -1.2902
10373SOL     OW32406   1.085   3.815   5.284  0.4920 -0.0053  0.3501
10373SOL    HW132407   1.025   3.820   5.358 -1.6794 -3.5234 -0.9431
10373SOL    HW232408   1.064   3.892   5.230 -0.5204  0.5615  1.5202
10374SOL     OW32409   5.602   8.463   4.557 -0.0812 -0.1007 -0.4152
10374SOL    HW132410   5.638   8.543   4.595 -0.0948 -1.5121  2.8963
10374SOL    HW232411   5.678   8.409   4.536 -0.0970 -0.5723  0.6705
10375SOL     OW32412   5.149   8.337   6.435 -0.2707  0.5881 -0.9991
10375SOL    HW132413   5.054   8.342   6.424 -0.2551  0.0897 -1.4131
10375SOL    HW232414   5.178   8.429   6.441 -0.7776  0.7389 -0.8636
10376SOL     OW32415   6.970   4.215   3.348  0.1261 -0.2182 -0.2900
10376SOL    HW132416   6.894   4.271   3.364  0.4251 -0.0604  0.6714
10376SOL    HW232417   7.045   4.269   3.375  0.3948 -1.1770  0.9797
10377SOL     OW32418   7.904   0.834   2.229  0.0726  0.3765  0.4449
10377SOL    HW132419   7.881   0.802   2.141  0.6177  0.1965  0.3649
10377SOL    HW232420   7.979   0.780   2.255  1.4266  1.9535  0.0452
10378SOL     OW32421   5.263   6.270   8.504 -0.2520 -0.6624  0.1321
10378SOL    HW132422   5.236   6.354   8.467 -0.3511 -0.8010 -0.1159
10378SOL    HW232423   5.260   6.210   8.430 -1.9211 -1.2822  0.6511
10379SOL     OW32424   1.928   4.464   2.424  0.4861 -0.0173 -0.0445
10379SOL    HW132425   1.871   4.526   2.379  0.4424 -0.8851 -1.2270
10379SOL    HW232426   1.939   4.501   2.511 -1.0497  0.6884 -0.1176
10380SOL     OW32427   6.148   0.167   6.025  0.1190  0.4058 -0.1583
10380SOL    HW132428   6.151   0.124   5.940  2.4447  0.8628 -0.3739
10380SOL    HW232429   6.171   0.258   6.006 -1.9862  1.1809  0.6603
10381SOL     OW32430   7.909   1.396   7.073 -0.3065  0.8796  0.1698
10381SOL    HW132431   7.870   1.400   6.986 -0.5830 -0.9323  0.1732
10381SOL    HW232432   7.995   1.436   7.062  0.1049 -0.2979 -1.2312
10382SOL     OW32433   3.517   6.942   1.124 -0.2566  0.2398  0.2920
10382SOL    HW132434   3.558   6.888   1.191 -0.0029  0.9830  0.7480
10382SOL    HW232435   3.585   7.005   1.099 -0.8312  0.9141  0.4081
10383SOL     OW32436   6.062   3.699   4.078 -0.4524  0.2759 -0.0910
10383SOL    HW132437   6.136   3.708   4.018  0.4388  1.2846  1.1134
10383SOL    HW232438   6.099   3.717   4.164 -1.7363 -0.9619  0.7610
10384SOL     OW32439   7.091   0.506   2.293  0.7289 -0.4792 -0.3128
10384SOL    HW132440   7.084   0.418   2.258 -0.4674  0.1172 -1.6790
10384SOL    HW232441   7.038   0.505   2.373  0.4899 -0.9367 -0.4754
10385SOL     OW32442   4.618   6.558   6.751  0.5559 -0.2563  0.0569
10385SOL    HW132443   4.688   6.516   6.701 -0.3354 -1.4338 -0.2419
10385SOL    HW232444   4.585   6.627   6.694  1.4184  0.2776  0.1820
10386SOL     OW32445   4.773   7.939   8.186 -0.4842 -0.1085  0.0064
10386SOL    HW132446   4.816   7.919   8.103 -0.8526  0.2423 -0.2705
10386SOL    HW232447   4.841   7.980   8.239 -0.1912 -0.5222 -0.0428
10387SOL     OW32448   1.033   8.070   8.585  0.9314  0.1098 -0.1271
10387SOL    HW132449   1.022   8.024   8.668  1.7777  3.0622  1.8098
10387SOL    HW232450   0.946   8.070   8.546  0.7178 -2.1538  0.2446
10388SOL     OW32451   5.803   7.919   7.526 -0.0481  0.0692  0.5319
10388SOL    HW132452   5.711   7.915   7.499 -0.6116 -1.5437  2.4126
10388SOL    HW232453   5.852   7.898   7.446 -1.2594  1.2667 -0.5838
10389SOL     OW32454   7.081   7.632   1.361 -0.0326  0.0341 -0.8594
10389SOL    HW132455   7.139   7.570   1.406  0.6070  0.5849 -0.9121
10389SOL    HW232456   7.140   7.701   1.329 -0.7800  0.8703 -0.4576
10390SOL     OW32457   3.004   4.452   8.658 -0.4412 -0.0207 -0.1845
10390SOL    HW132458   2.981   4.416   8.572  1.0125  0.3808 -0.7756
10390SOL    HW232459   3.007   4.547   8.643  1.2690 -0.0339 -0.0993
10391SOL     OW32460   3.873   1.385   0.153  0.3789  0.2831  0.3975
10391SOL    HW132461   3.887   1.447   0.081 -2.0098  1.0899  0.5424
10391SOL    HW232462   3.844   1.439   0.226 -0.4870 -0.8590  0.9301
10392SOL     OW32463   0.343   7.899   6.218 -0.0999 -0.4375  0.4988
10392SOL    HW132464   0.252   7.926   6.230  0.6807  2.0575  1.2244
10392SOL    HW232465   0.342   7.804   6.234 -2.4212 -0.3374  1.2524
10393SOL     OW32466   1.183   2.442   1.350  1.0242  0.4415  0.0725
10393SOL    HW132467   1.200   2.370   1.289 -0.0617 -0.8355  1.2222
10393SOL    HW232468   1.208   2.520   1.302  3.3202 -0.7498 -0.8451
10394SOL     OW32469   6.613   7.119   5.613  0.2452 -0.3332 -0.0697
10394SOL    HW132470   6.574   7.040   5.575  1.8343 -1.4313  0.4970
10394SOL    HW232471   6.571   7.127   5.699  0.8615 -1.2052  0.3245
10395SOL     OW32472   6.496   6.621   2.859  0.2186  0.3234  0.4086
10395SOL    HW132473   6.461   6.571   2.933 -1.0698  1.2652  0.4551
10395SOL    HW232474   6.420   6.657   2.815  1.0217  0.5863 -0.8308
10396SOL     OW32475   3.651   0.617   0.079  0.3817 -0.1369  0.5130
10396SOL    HW132476   3.573   0.631   0.026  1.6937  1.5190 -1.1022
10396SOL    HW232477   3.723   0.652   0.026  2.0864 -0.5866  2.4049
10397SOL     OW32478   4.730   1.149   8.230 -0.4584 -0.4259  0.3505
10397SOL    HW132479   4.644   1.186   8.246  0.0319  0.6329  0.6543
10397SOL    HW232480   4.721   1.056   8.251 -1.4253 -0.2559  0.7282
10398SOL     OW32481   3.449   3.930   8.518 -0.0987 -0.1340 -0.1380
10398SOL    HW132482   3.405   3.846   8.534  2.0938 -0.7452  4.3037
10398SOL    HW232483   3.537   3.906   8.488  0.0549  0.6411 -0.3317
10399SOL     OW32484   0.859   6.314   5.376 -0.6073 -0.3046 -0.7067
10399SOL    HW132485   0.944   6.317   5.333 -1.6308  1.6156 -2.7717
10399SOL    HW232486   0.869   6.367   5.455  0.1863 -0.3593 -0.7691
10400SOL     OW32487   3.482   3.186   7.346 -0.7873  0.4213  0.4663
10400SOL    HW132488   3.520   3.174   7.433 -0.7908  2.3078  0.7539
10400SOL    HW232489   3.527   3.262   7.309 -1.8400  0.5736 -0.5678
10401SOL     OW32490   8.539   5.184   2.368 -0.3048 -0.4239  0.1637
10401SOL    HW132491   8.467   5.122   2.358 -0.6826 -0.0746  0.6324
10401SOL    HW232492   8.596   5.144   2.434 -0.0590 -0.7092 -0.2207
10402SOL     OW32493   1.471   7.324   0.357  0.6565  0.0843  0.1433
10402SOL    HW132494   1.520   7.391   0.309 -0.4736  0.1428 -0.9784
10402SOL    HW232495   1.385   7.363   0.372 -0.1065 -1.2012 -0.7553
10403SOL     OW32496   5.801   5.660   2.699 -0.2056 -0.0335 -0.4205
10403SOL    HW132497   5.822   5.747   2.732 -1.1429 -0.3200  0.9840
10403SOL    HW232498   5.826   5.663   2.607  1.5524  1.1102  0.0435
10404SOL     OW32499   8.241   4.347   3.110  0.4007  0.3592  0.0738
10404SOL    HW132500   8.328   4.314   3.133 -0.2874 -1.2539  0.5388
10404SOL    HW232501   8.226   4.315   3.021 -0.9380 -2.1783  1.1145
10405SOL     OW32502   0.571   7.199   1.977  0.3146  0.5448 -0.1344
10405SOL    HW132503   0.496   7.226   1.924 -1.0105 -0.1036  1.3360
10405SOL    HW232504   0.596   7.114   1.941 -0.5293  0.1436  0.1823
10406SOL     OW32505   7.645   7.229   3.799 -0.1106  0.1220 -0.0284
10406SOL    HW132506   7.703   7.182   3.858  0.5703  0.4152 -0.4558
10406SOL    HW232507   7.700   7.296   3.758 -1.5470  3.0082  2.3631
10407SOL     OW32508   0.025   1.389   6.457 -0.1869  0.3785 -0.3294
10407SOL    HW132509   0.018   1.325   6.527  1.1793  0.8038  0.2373
10407SOL    HW232510  -0.051   1.446   6.467 -1.1253 -0.8002 -0.5096
10408SOL     OW32511   4.286   2.998   6.337 -0.8597 -0.1353 -0.6837
10408SOL    HW132512   4.302   3.034   6.249 -2.9194  1.4931 -0.4587
10408SOL    HW232513   4.287   2.903   6.324  1.6648 -0.0203 -1.9026
10409SOL     OW32514   0.700   0.734   4.145 -0.6566  0.2168  0.2030
10409SOL    HW132515   0.715   0.702   4.056  0.0853 -0.3270  0.5112
10409SOL    HW232516   0.776   0.790   4.163 -0.6212  0.0415  0.6142
10410SOL     OW32517   6.844   1.285   3.281  0.3483 -0.2788 -0.1439
10410SOL    HW132518   6.884   1.371   3.273 -0.7085  0.1384 -1.3621
10410SOL    HW232519   6.761   1.301   3.325  0.3097 -0.7265 -0.0451
10411SOL     OW32520   0.626   5.202   2.754 -0.7539  0.4177  0.0315
10411SOL    HW132521   0.706   5.222   2.705 -1.8194  1.8525 -1.2094
10411SOL    HW232522   0.593   5.287   2.781 -2.5860 -0.0312 -0.6654
10412SOL     OW32523   6.564   0.749   5.432 -0.5446 -0.6595 -0.2346
10412SOL    HW132524   6.590   0.680   5.493 -0.5337 -0.3425  0.1285
10412SOL    HW232525   6.542   0.704   5.351  0.4735 -1.0080 -0.3382
10413SOL     OW32526   8.076   2.213   3.526 -0.9527  0.1036  0.0621
10413SOL    HW132527   8.132   2.224   3.603  0.5914  0.1250 -1.0170
10413SOL    HW232528   8.016   2.142   3.550  0.4237 -0.8603  0.7873
10414SOL     OW32529   7.934   6.193   8.451 -0.0074  0.3460 -0.3449
10414SOL    HW132530   7.931   6.277   8.497  1.1567  0.5467 -0.5831
10414SOL    HW232531   7.996   6.207   8.380 -1.7252  0.0303 -1.9874
10415SOL     OW32532   2.086   3.913   4.041  0.2064  0.0448  0.2016
10415SOL    HW132533   2.106   3.822   4.019 -3.3825 -0.8236 -0.1593
10415SOL    HW232534   2.052   3.909   4.130 -1.0456  0.8230 -0.2207
10416SOL     OW32535   3.069   6.165   2.764 -0.1881 -0.4067 -0.1124
10416SOL    HW132536   3.148   6.172   2.710  0.1388 -1.3064  0.2379
10416SOL    HW232537   3.061   6.252   2.804 -0.1694  0.1251 -1.2195
10417SOL     OW32538   5.444   2.809   6.548  0.3292  0.3260 -0.1858
10417SOL    HW132539   5.486   2.882   6.504  1.3913 -0.7453 -1.0303
10417SOL    HW232540   5.516   2.747   6.566 -0.7255 -1.1309 -0.7801
10418SOL     OW32541   8.624   1.065   5.741  0.5135 -0.1263  0.1343
10418SOL    HW132542   8.698   1.030   5.692  1.1806  1.3322  0.0480
10418SOL    HW232543   8.662   1.104   5.819  0.0552  1.9695 -0.6301
10419SOL     OW32544   7.605   2.018   1.930  0.1555  0.0410  0.1037
10419SOL    HW132545   7.602   1.958   2.005  0.8828  1.2861  1.1683
10419SOL    HW232546   7.521   2.063   1.932 -1.0477 -1.9534 -1.6290
10420SOL     OW32547   2.973   0.357   6.122 -0.2015 -0.3572  0.5842
10420SOL    HW132548   2.879   0.377   6.119 -0.0053  0.6313  0.7299
10420SOL    HW232549   2.979   0.266   6.094 -1.0264  0.1579 -1.3962
10421SOL     OW32550   6.996   7.706   5.905 -0.2275  0.5253  0.6731
10421SOL    HW132551   7.051   7.742   5.835 -1.5201 -0.6966 -1.0881
10421SOL    HW232552   7.032   7.741   5.986  1.1204  2.3092 -0.6367
10422SOL     OW32553   7.158   3.037   0.036  0.2255  0.2794 -0.1079
10422SOL    HW132554   7.091   2.969   0.047  1.1756 -0.3991  1.8996
10422SOL    HW232555   7.194   3.021  -0.051 -0.8992 -0.5356 -0.4548
10423SOL     OW32556   3.819   4.778   1.738  0.0922  0.0321  0.4045
10423SOL    HW132557   3.811   4.690   1.700  0.2538 -0.4590  1.4793
10423SOL    HW232558   3.878   4.767   1.812 -0.2595  0.9584  0.8373
10424SOL     OW32559   1.201   0.129   2.656 -0.0223  0.4021  0.4242
10424SOL    HW132560   1.116   0.159   2.624 -0.8098 -1.2281  0.8888
10424SOL    HW232561   1.182   0.092   2.743  1.5060  1.7796  1.4120
10425SOL     OW32562   6.339   7.087   3.830  0.2728 -0.1272 -0.1263
10425SOL    HW132563   6.405   7.022   3.855  0.2339 -0.0577  0.1600
10425SOL    HW232564   6.260   7.036   3.812  0.5154 -0.2503 -0.8750
10426SOL     OW32565   2.980   6.161   4.523  0.1930 -0.3864 -0.0732
10426SOL    HW132566   3.013   6.169   4.434  0.9144  0.0560  0.2243
10426SOL    HW232567   3.001   6.245   4.564 -2.4629  0.4541 -0.2299
10427SOL     OW32568   6.202   2.519   6.470 -0.7632  0.2214  0.1407
10427SOL    HW132569   6.242   2.488   6.552  0.4964 -0.0957 -0.5675
10427SOL    HW232570   6.224   2.612   6.467 -1.0489  0.2941  0.2975
10428SOL     OW32571   0.523   4.124   7.037  0.3318  0.1964  0.6776
10428SOL    HW132572   0.592   4.059   7.023  1.4834  1.3497  0.8442
10428SOL    HW232573   0.501   4.115   7.129  0.1866 -0.2375  0.6044
10429SOL     OW32574   7.718   4.841   4.940  0.4917  0.0374  0.7762
10429SOL    HW132575   7.719   4.799   4.854  0.6743 -0.1428  0.8647
10429SOL    HW232576   7.659   4.915   4.930  1.2944  0.6151  0.2193
10430SOL     OW32577   3.029   4.234   4.181  0.0243  0.2462 -0.3392
10430SOL    HW132578   3.093   4.295   4.217  0.8910 -0.3224 -0.8862
10430SOL    HW232579   2.988   4.281   4.109 -0.1643  0.6085  0.0042
10431SOL     OW32580   8.192   0.873   7.935  0.4848  0.1175 -0.1548
10431SOL    HW132581   8.166   0.965   7.940  0.3531  0.0472  0.5359
10431SOL    HW232582   8.270   0.874   7.880 -0.0415  0.5256 -0.9215
10432SOL     OW32583   1.138   1.596   3.244  0.1097 -0.8553 -0.9524
10432SOL    HW132584   1.133   1.678   3.293 -0.4670 -1.0782 -0.6262
10432SOL    HW232585   1.093   1.614   3.162  0.3142 -0.7345 -1.0378
10433SOL     OW32586   2.459   2.342   1.699 -0.4842  0.3218 -0.2645
10433SOL    HW132587   2.543   2.386   1.687 -0.3333  0.4931  1.2171
10433SOL    HW232588   2.435   2.312   1.611  1.8584 -1.1049 -0.5073
10434SOL     OW32589   1.176   5.747   7.544 -0.4620 -0.3694  0.5113
10434SOL    HW132590   1.172   5.687   7.470 -0.0464  1.2969 -0.9326
10434SOL    HW232591   1.245   5.713   7.600  1.8475  0.3000 -1.7541
10435SOL     OW32592   8.320   1.632   0.368  0.3187 -0.2266  0.3081
10435SOL    HW132593   8.342   1.620   0.460  0.0998 -0.4995  0.3265
10435SOL    HW232594   8.240   1.581   0.355  1.7597 -2.4001 -0.6428
10436SOL     OW32595   0.416   6.931   6.522  0.2977  0.0853 -0.1759
10436SOL    HW132596   0.353   6.868   6.559  0.4322 -1.3328 -2.2123
10436SOL    HW232597   0.500   6.907   6.561 -0.2030  1.4323  1.8837
10437SOL     OW32598   0.433   0.365   6.775  0.3716  0.3300 -0.1408
10437SOL    HW132599   0.413   0.424   6.703 -0.9997 -0.3997 -0.3880
10437SOL    HW232600   0.492   0.300   6.738 -0.0973  0.1263 -0.5355
10438SOL     OW32601   7.882   8.246   4.704 -0.0572  0.5047  0.0030
10438SOL    HW132602   7.791   8.273   4.717 -0.5544 -1.2438  0.4938
10438SOL    HW232603   7.921   8.250   4.791  0.7370  2.4451 -0.3924
10439SOL     OW32604   4.185   2.248   6.473  0.4235  0.3472  0.6913
10439SOL    HW132605   4.227   2.297   6.403 -0.3768 -0.8153 -0.6481
10439SOL    HW232606   4.140   2.315   6.525 -0.1913  1.1220 -0.7711
10440SOL     OW32607   7.133   2.884   0.515  0.0848  0.1115  0.2076
10440SOL    HW132608   7.070   2.919   0.452 -0.6709  0.6764  1.2383
10440SOL    HW232609   7.120   2.789   0.512  1.3258 -0.0563 -1.7585
10441SOL     OW32610   7.839   2.920   6.999 -0.5634  0.6395 -0.0122
10441SOL    HW132611   7.833   2.974   7.078 -0.5750 -0.0822  0.4911
10441SOL    HW232612   7.771   2.854   7.010 -1.2459  1.1288 -1.1150
10442SOL     OW32613   5.435   1.479   1.839  0.6610  0.4936 -0.1098
10442SOL    HW132614   5.395   1.426   1.770  1.0961  0.7106 -0.5316
10442SOL    HW232615   5.527   1.452   1.839  0.5966  0.2389  0.6272
10443SOL     OW32616   2.640   5.063   2.655  0.0595  0.2149 -0.4082
10443SOL    HW132617   2.673   5.004   2.723  0.8371  0.5187 -0.5059
10443SOL    HW232618   2.627   5.146   2.701 -0.4980  0.1219 -0.3918
10444SOL     OW32619   3.833   6.867   0.733 -0.0005 -0.1243 -0.0615
10444SOL    HW132620   3.808   6.775   0.745  0.0437 -0.0150  0.9815
10444SOL    HW232621   3.844   6.877   0.639 -1.5998 -0.7833 -0.3477
10445SOL     OW32622   6.459   2.843   6.966  0.0405 -0.1388 -0.5617
10445SOL    HW132623   6.415   2.875   7.045 -0.1708  1.4372 -1.2617
10445SOL    HW232624   6.528   2.786   6.998 -0.2776  0.1702  0.7421
10446SOL     OW32625   0.420   5.706   6.278  0.2763 -0.7510 -0.3608
10446SOL    HW132626   0.371   5.721   6.359 -2.0815  0.1750 -1.8656
10446SOL    HW232627   0.493   5.768   6.282 -1.4641  1.3980 -0.1893
10447SOL     OW32628   3.568   3.504   0.895 -0.5328 -0.3594  0.2241
10447SOL    HW132629   3.583   3.593   0.864  0.8593 -0.4213  0.6098
10447SOL    HW232630   3.520   3.461   0.825  2.2863 -0.4296 -1.8577
10448SOL     OW32631   4.707   4.014   2.920 -0.3526  0.4082 -0.5254
10448SOL    HW132632   4.632   4.074   2.922 -1.1130 -0.4955 -1.3711
10448SOL    HW232633   4.771   4.055   2.978 -1.5532  1.1204  0.3503
10449SOL     OW32634   8.614   6.613   3.054 -0.3794 -0.1268  0.4733
10449SOL    HW132635   8.584   6.670   2.983 -0.6758  1.4188  1.7937
10449SOL    HW232636   8.577   6.527   3.033  0.2829  0.0593 -1.6898
10450SOL     OW32637   1.443   0.515   1.044  0.1929 -0.0343 -0.1011
10450SOL    HW132638   1.463   0.500   0.952 -0.4829 -1.6793 -0.0174
10450SOL    HW232639   1.439   0.610   1.053  0.3880  0.1483 -1.7339
10451SOL     OW32640   8.270   0.019   5.165  0.1001  0.5851  0.0149
10451SOL    HW132641   8.362   0.009   5.141  0.2407 -0.8917  0.9965
10451SOL    HW232642   8.262   0.110   5.195  1.1234  0.8534 -0.5034
10452SOL     OW32643   0.471   8.117   6.377  0.1304  0.1576  0.5765
10452SOL    HW132644   0.458   8.056   6.304 -0.5762  1.5294 -0.4866
10452SOL    HW232645   0.503   8.062   6.448 -1.6551 -1.6668  0.0687
10453SOL     OW32646   2.377   5.017   3.712  0.2999  0.4679  0.1650
10453SOL    HW132647   2.325   5.092   3.740  1.0054  1.4125 -0.9118
10453SOL    HW232648   2.458   5.056   3.678  1.6716 -0.9266  1.6385
10454SOL     OW32649   8.222   3.186   5.120  0.2982 -0.0785 -0.0193
10454SOL    HW132650   8.249   3.244   5.048  1.3933 -0.4743  0.0491
10454SOL    HW232651   8.204   3.246   5.193  3.8063  0.1563  0.8216
10455SOL     OW32652   4.949   2.612   1.749  0.2290  0.9867 -0.0881
10455SOL    HW132653   4.868   2.636   1.796  0.0874  0.0621  0.1565
10455SOL    HW232654   5.006   2.688   1.759 -0.1638  1.1789  0.7715
10456SOL     OW32655   1.793   5.821   3.206  0.0525  0.1490  0.2738
10456SOL    HW132656   1.872   5.774   3.230 -0.1556 -0.7044 -0.6380
10456SOL    HW232657   1.809   5.912   3.233  1.5519  0.1038 -0.3817
10457SOL     OW32658   6.829   1.115   6.895  0.5100  0.2048 -0.4681
10457SOL    HW132659   6.874   1.103   6.978  2.2439  1.4011 -1.1670
10457SOL    HW232660   6.844   1.034   6.847 -0.1359 -0.3190  0.1817
10458SOL     OW32661   5.285   5.781   4.528  0.2969 -0.0683 -0.2055
10458SOL    HW132662   5.357   5.830   4.567 -0.6131  1.6641 -0.5971
10458SOL    HW232663   5.325   5.736   4.453  0.8539  1.5690 -0.9513
10459SOL     OW32664   3.686   4.954   8.393 -0.0049 -0.1354 -0.0341
10459SOL    HW132665   3.751   4.966   8.325 -1.0137  1.7337 -0.7510
10459SOL    HW232666   3.663   5.043   8.420 -1.3943 -0.7717  1.0335
10460SOL     OW32667   6.921   0.619   4.998 -0.0717  0.2807 -0.1325
10460SOL    HW132668   6.851   0.681   5.016  0.6478  1.4123 -1.1669
10460SOL    HW232669   6.890   0.569   4.923 -0.3554 -0.1859  0.2824
10461SOL     OW32670   6.263   1.853   7.795 -1.3284 -0.1558 -0.3017
10461SOL    HW132671   6.169   1.856   7.781 -1.5558  1.2832  1.2152
10461SOL    HW232672   6.280   1.919   7.862  0.4738 -1.7612  0.9666
10462SOL     OW32673   7.998   8.308   0.193  0.3289  0.1143  0.7768
10462SOL    HW132674   7.995   8.214   0.178  0.6492  0.2459 -0.1657
10462SOL    HW232675   7.906   8.334   0.199  0.2074 -0.1103  0.0175
10463SOL     OW32676   2.557   6.422   1.114  0.3293 -0.7295 -0.3587
10463SOL    HW132677   2.569   6.517   1.121 -1.6253 -0.5443  1.4384
10463SOL    HW232678   2.542   6.407   1.020 -0.5375  0.9324 -0.5365
10464SOL     OW32679   1.678   3.262   6.031 -0.1825  0.7661  0.6006
10464SOL    HW132680   1.602   3.320   6.044 -1.6109 -0.5986 -1.1270
10464SOL    HW232681   1.695   3.226   6.118 -2.0322  0.5227  0.9063
10465SOL     OW32682   3.607   2.511   0.299  0.3602  0.3242 -0.1009
10465SOL    HW132683   3.694   2.542   0.272  0.2840  1.1917  0.5876
10465SOL    HW232684   3.546   2.565   0.250  0.2256  1.3637  1.1373
10466SOL     OW32685   0.797   1.385   2.313 -0.1392 -0.1880 -0.7066
10466SOL    HW132686   0.721   1.387   2.371 -0.1170  1.3633 -0.7125
10466SOL    HW232687   0.783   1.456   2.251  1.1989 -0.0149 -0.8488
10467SOL     OW32688   5.556   4.319   0.303 -0.1191 -0.1684 -0.1977
10467SOL    HW132689   5.610   4.383   0.349 -1.1314  0.1142  0.6325
10467SOL    HW232690   5.611   4.241   0.298  0.5879  0.2971  0.0954
10468SOL     OW32691   2.254   7.455   5.880 -0.6272 -0.6055 -0.0901
10468SOL    HW132692   2.260   7.386   5.813 -0.1529  0.2865 -0.9986
10468SOL    HW232693   2.193   7.519   5.843 -1.6835 -0.9013  1.0951
10469SOL     OW32694   0.709   4.403   0.323 -0.0345  0.3646 -0.1474
10469SOL    HW132695   0.745   4.320   0.356  1.1981  1.3833  1.2215
10469SOL    HW232696   0.626   4.378   0.283  0.7168 -1.6573 -0.5909
10470SOL     OW32697   1.783   5.249   8.474  0.3483 -0.0183 -0.1985
10470SOL    HW132698   1.786   5.226   8.382  0.7865  0.1051 -0.2213
10470SOL    HW232699   1.757   5.169   8.519 -1.3336  0.2992 -0.5502
10471SOL     OW32700   5.859   2.980   6.506 -0.0029 -0.1293 -0.4561
10471SOL    HW132701   5.954   2.992   6.502  0.1931 -1.0810  0.6841
10471SOL    HW232702   5.835   3.013   6.593 -0.7892  0.5290 -0.9177
10472SOL     OW32703   3.357   2.741   1.221 -0.3621  0.1900  0.4912
10472SOL    HW132704   3.349   2.656   1.178  0.9866 -0.6411  1.7782
10472SOL    HW232705   3.403   2.796   1.157 -1.6042  0.1061 -0.5075
10473SOL     OW32706   5.544   1.754   2.964  0.2423  0.1055 -0.3933
10473SOL    HW132707   5.571   1.845   2.972  2.4005 -0.0931 -3.5296
10473SOL    HW232708   5.450   1.754   2.982 -0.2592  3.3547 -2.3298
10474SOL     OW32709   5.528   3.129   0.992  0.2769 -0.0837  0.6233
10474SOL    HW132710   5.572   3.045   0.986  0.4860  0.0262  0.6211
10474SOL    HW232711   5.550   3.174   0.910 -1.1955 -0.6842 -0.1379
10475SOL     OW32712   3.396   0.943   3.300  0.1472  0.1988  0.4875
10475SOL    HW132713   3.444   0.872   3.257  1.4594  1.0610  0.4702
10475SOL    HW232714   3.305   0.927   3.277  0.6702 -0.0457 -1.6471
10476SOL     OW32715   3.996   0.594   5.997 -0.0993  0.3097  0.3923
10476SOL    HW132716   3.938   0.535   6.046 -1.4442  1.7929  0.7028
10476SOL    HW232717   3.950   0.678   5.999  1.2128  1.0993 -0.9798
10477SOL     OW32718   3.094   2.885   3.961 -0.3354 -0.1615 -0.3886
10477SOL    HW132719   3.072   2.811   3.905  1.1194 -0.7332 -0.2501
10477SOL    HW232720   3.104   2.959   3.900 -0.4322 -0.3957 -0.6904
10478SOL     OW32721   4.110   4.237   6.906  0.8329  0.2054  0.6073
10478SOL    HW132722   4.031   4.275   6.945  0.9808  0.3010  0.8157
10478SOL    HW232723   4.106   4.144   6.929  1.1175  0.3321  1.1881
10479SOL     OW32724   5.552   0.069   8.225 -0.2727  0.5732 -0.1101
10479SOL    HW132725   5.588   0.134   8.165 -1.7303 -0.1257 -1.8401
10479SOL    HW232726   5.584  -0.015   8.192 -0.3769  0.2339  0.6242
10480SOL     OW32727   3.985   7.691   6.199 -0.0876  0.7813  0.2666
10480SOL    HW132728   3.925   7.700   6.272 -1.6500  1.1253 -1.0085
10480SOL    HW232729   3.931   7.657   6.127  2.1083 -3.3017  0.2427
10481SOL     OW32730   1.787   4.708   2.043  0.4034 -0.0002  0.5373
10481SOL    HW132731   1.711   4.669   2.001  1.0739 -1.0811  0.2944
10481SOL    HW232732   1.859   4.695   1.982  0.9555  0.3014  1.1020
10482SOL     OW32733   0.298   2.616   8.610 -0.1946 -0.1057 -0.0963
10482SOL    HW132734   0.248   2.693   8.585 -0.5847 -0.4304 -0.3349
10482SOL    HW232735   0.301   2.619   8.706 -0.6669 -0.0712 -0.0770
10483SOL     OW32736   1.135   2.053   2.561 -0.7250 -0.0866 -0.5976
10483SOL    HW132737   1.137   1.972   2.511  0.4162  0.1735 -1.0112
10483SOL    HW232738   1.112   2.120   2.497  0.0092  0.1428 -0.6343
10484SOL     OW32739   8.261   7.289   7.763 -0.1938 -0.2330 -0.0009
10484SOL    HW132740   8.336   7.322   7.714 -1.4379  0.3916 -1.5768
10484SOL    HW232741   8.220   7.366   7.802  0.8848 -0.7326  2.3157
10485SOL     OW32742   1.068   1.175   6.144  0.7192 -0.1753 -0.0870
10485SOL    HW132743   0.980   1.153   6.173  1.6180 -2.1302  1.3864
10485SOL    HW232744   1.059   1.185   6.049 -0.8553 -1.7916 -0.1804
10486SOL     OW32745   3.244   6.062   3.582 -0.0562 -0.2194  0.2276
10486SOL    HW132746   3.218   6.059   3.674 -1.6613  1.0977 -0.1194
10486SOL    HW232747   3.172   6.108   3.539  1.1089  0.0612 -1.5294
10487SOL     OW32748   4.130   0.690   8.068 -0.2862  0.5099 -0.1249
10487SOL    HW132749   4.148   0.679   8.162  0.8020  0.3730 -0.3377
10487SOL    HW232750   4.064   0.623   8.048 -0.7500  0.7374  0.5970
10488SOL     OW32751   5.855   0.204   1.307 -0.2465 -0.1366 -0.4578
10488SOL    HW132752   5.839   0.207   1.402  1.6622  0.7745 -0.0992
10488SOL    HW232753   5.860   0.111   1.286 -1.3521 -0.3566  0.2018
10489SOL     OW32754   2.635   8.412   5.738 -0.0903 -0.2546  0.2667
10489SOL    HW132755   2.620   8.471   5.811 -1.5159 -0.9380  0.5466
10489SOL    HW232756   2.571   8.342   5.749  1.2744 -1.6579 -0.2858
10490SOL     OW32757   8.017   6.619   3.629  0.6428 -0.5962 -0.1452
10490SOL    HW132758   8.099   6.596   3.586 -1.0327 -1.1491 -3.3269
10490SOL    HW232759   8.021   6.575   3.714  3.1249 -1.5270 -0.6678
10491SOL     OW32760   5.756   2.432   6.775  0.0525  0.0995 -0.5038
10491SOL    HW132761   5.679   2.469   6.817  0.7677  0.8604  0.1729
10491SOL    HW232762   5.795   2.375   6.842 -1.0107 -1.9326 -1.5125
10492SOL     OW32763   7.893   6.263   6.096  0.1763  0.9236  0.1785
10492SOL    HW132764   7.973   6.239   6.050  0.6483  1.6180  0.6210
10492SOL    HW232765   7.837   6.186   6.088  1.5573 -0.2835  1.3675
10493SOL     OW32766   2.070   7.621   7.976  0.0968 -0.1528  0.2079
10493SOL    HW132767   2.104   7.542   8.018  0.5375 -0.1190 -0.0826
10493SOL    HW232768   2.120   7.628   7.895 -1.8084 -1.1111 -1.1332
10494SOL     OW32769   2.491   6.081   5.944  0.1208  0.1680  0.1793
10494SOL    HW132770   2.545   6.105   5.868  0.0962  1.8392  0.6341
10494SOL    HW232771   2.487   5.986   5.942 -0.3559  0.1713 -2.2585
10495SOL     OW32772   4.089   6.348   5.173  0.0324 -0.0131  0.6216
10495SOL    HW132773   4.118   6.360   5.263  1.4568  0.3846  0.1363
10495SOL    HW232774   4.126   6.422   5.126 -1.4345  0.2754 -0.1479
10496SOL     OW32775   8.343   3.044   3.752 -0.5954  0.2261  0.1429
10496SOL    HW132776   8.247   3.042   3.749 -0.5766 -1.0765 -0.0972
10496SOL    HW232777   8.369   2.952   3.756  0.6752  0.5245 -0.5914
10497SOL     OW32778   6.522   2.383   0.967 -0.3851  0.2763 -0.2814
10497SOL    HW132779   6.502   2.341   1.051  1.1974  1.6169  0.8194
10497SOL    HW232780   6.485   2.323   0.901 -2.6765 -0.2539  1.3516
10498SOL     OW32781   6.825   1.861   4.643 -0.3530 -0.0311 -0.3524
10498SOL    HW132782   6.856   1.894   4.559 -0.2273 -1.2412 -0.7870
10498SOL    HW232783   6.899   1.814   4.680 -0.8900 -0.8439 -0.2848
10499SOL     OW32784   7.883   0.322   4.446 -0.4306 -0.2600 -0.2109
10499SOL    HW132785   7.826   0.329   4.370 -0.5610  1.0170 -0.0169
10499SOL    HW232786   7.831   0.356   4.518  0.6312  1.1189 -0.0673
10500SOL     OW32787   1.589   7.506   4.568 -1.0804 -0.8205 -0.3535
10500SOL    HW132788   1.513   7.525   4.514 -2.2229  1.7691  1.9201
10500SOL    HW232789   1.652   7.575   4.546 -1.3113 -0.1171  1.0673
10501SOL     OW32790   8.109   1.991   3.234  0.2361 -0.1834 -0.3208
10501SOL    HW132791   8.112   2.047   3.312  0.8967 -1.5990  0.7206
10501SOL    HW232792   8.054   2.038   3.172 -0.4428  0.9100  1.0719
10502SOL     OW32793   1.766   5.349   3.287  0.3680 -0.1905  0.1327
10502SOL    HW132794   1.850   5.390   3.270  0.8480  0.2498  2.9936
10502SOL    HW232795   1.705   5.422   3.298 -0.7452 -0.5107 -3.0223
10503SOL     OW32796   1.057   7.336   2.724  0.2387  0.0568  0.3483
10503SOL    HW132797   0.966   7.311   2.705  0.1478 -0.7232  1.7097
10503SOL    HW232798   1.081   7.395   2.652 -0.9251 -0.6977 -0.6930
10504SOL     OW32799   8.346   5.409   8.014  0.2602  0.1223 -0.1297
10504SOL    HW132800   8.340   5.400   7.919  0.9673 -2.4297  0.0183
10504SOL    HW232801   8.433   5.447   8.029  0.4568 -0.1880 -0.4690
10505SOL     OW32802   3.457   3.430   0.468  0.6841  0.3972 -0.5820
10505SOL    HW132803   3.406   3.447   0.548  1.1420  1.1063 -0.4366
10505SOL    HW232804   3.391   3.407   0.403  0.0645  2.0273 -0.5951
10506SOL     OW32805   4.456   8.159   6.975  0.2652 -0.1228 -0.1063
10506SOL    HW132806   4.402   8.081   6.964  1.5209 -0.7778 -2.2750
10506SOL    HW232807   4.537   8.140   6.928  0.6665  2.4411 -0.6477
10507SOL     OW32808   8.405   1.659   8.601 -0.0355  0.0853  0.2712
10507SOL    HW132809   8.412   1.680   8.694  1.6361 -1.1318  0.4694
10507SOL    HW232810   8.435   1.738   8.556  2.4744 -0.4212  0.8905
10508SOL     OW32811   6.639   2.886   2.565  0.4992  0.3077 -0.0795
10508SOL    HW132812   6.576   2.857   2.499 -0.2154  0.9572  0.3062
10508SOL    HW232813   6.623   2.831   2.641  0.2775  0.5834  0.0759
10509SOL     OW32814   2.545   8.633   8.151  0.0783 -0.7057 -0.4051
10509SOL    HW132815   2.455   8.616   8.180  0.0229 -0.1111 -0.2019
10509SOL    HW232816   2.564   8.565   8.087  0.4450 -2.5076  1.5131
10510SOL     OW32817   4.651   6.226   6.960  0.4181 -0.5579  0.5769
10510SOL    HW132818   4.557   6.209   6.973  0.2897 -0.0560  0.3127
10510SOL    HW232819   4.663   6.316   6.990  0.3604  0.1997 -1.5472
10511SOL     OW32820   5.682   5.951   4.037  0.5679  0.2168 -0.1136
10511SOL    HW132821   5.702   5.912   4.123 -1.6531  0.4106  0.5481
10511SOL    HW232822   5.726   5.893   3.974  0.7829 -0.9487  1.0504
10512SOL     OW32823   3.401   5.171   1.088  0.1134  0.5950  0.4172
10512SOL    HW132824   3.494   5.150   1.091  0.3553  1.7088  1.1171
10512SOL    HW232825   3.368   5.122   1.012  1.2201  0.0521  0.2664
10513SOL     OW32826   7.163   0.513   5.382 -0.5754 -0.2485 -0.3967
10513SOL    HW132827   7.228   0.443   5.381  2.0708  2.0052  0.5632
10513SOL    HW232828   7.163   0.547   5.293  0.4770  0.4274 -0.1673
10514SOL     OW32829   5.685   3.538   6.348 -0.1313 -0.2318 -0.0940
10514SOL    HW132830   5.595   3.511   6.331  0.2792 -0.6922 -1.6223
10514SOL    HW232831   5.682   3.634   6.348 -0.7595 -0.2451  0.7061
10515SOL     OW32832   6.613   8.439   8.424 -0.5624 -0.0170  0.0302
10515SOL    HW132833   6.529   8.394   8.420 -0.2530 -0.6784  0.6256
10515SOL    HW232834   6.604   8.499   8.499 -0.2896 -0.5563  0.4999
10516SOL     OW32835   8.172   7.158   6.501  0.3901 -1.2212 -0.1812
10516SOL    HW132836   8.229   7.141   6.576 -0.0546 -0.0041  0.4478
10516SOL    HW232837   8.085   7.169   6.539  0.4694  1.4562 -0.5952
10517SOL     OW32838   2.088   4.495   2.173 -0.0284 -0.3866  0.3459
10517SOL    HW132839   2.178   4.509   2.201 -0.1408  1.6530 -0.1803
10517SOL    HW232840   2.041   4.473   2.254  0.4192  1.4111  1.1310
10518SOL     OW32841   6.951   3.468   6.792 -0.3065 -0.5995  0.3938
10518SOL    HW132842   6.885   3.516   6.742  0.3860  1.0976  1.0277
10518SOL    HW232843   7.027   3.464   6.734 -0.1930 -0.4516  0.5295
10519SOL     OW32844   4.767   6.166   3.472  0.2599  0.2974  0.2654
10519SOL    HW132845   4.762   6.261   3.485  1.9119  0.5150 -0.5188
10519SOL    HW232846   4.859   6.149   3.451 -0.2960 -1.2894 -1.0964
10520SOL     OW32847   5.425   3.871   6.950 -0.1702 -0.0980 -0.1998
10520SOL    HW132848   5.493   3.877   7.017  0.4064 -0.0314 -0.7823
10520SOL    HW232849   5.343   3.869   7.000  0.1944  0.8085  0.4751
10521SOL     OW32850   8.322   4.017   5.451 -0.2601  0.3732 -0.2009
10521SOL    HW132851   8.404   4.010   5.401  0.8066 -1.8134  1.6561
10521SOL    HW232852   8.334   4.093   5.507  1.3824 -0.9165  1.3465
10522SOL     OW32853   0.463   4.554   5.880  0.7351 -0.3565  0.0217
10522SOL    HW132854   0.449   4.477   5.934  0.0599  0.4090  0.9793
10522SOL    HW232855   0.377   4.596   5.874  1.2131  0.6864  0.1212
10523SOL     OW32856   4.916   6.068   6.026  0.0527 -0.6100 -0.3702
10523SOL    HW132857   4.929   6.147   5.973 -0.4092 -1.4992 -1.8638
10523SOL    HW232858   4.834   6.031   5.994 -1.5267  0.0056  2.5748
10524SOL     OW32859   5.442   7.834   0.082 -0.3227  0.3442  0.2465
10524SOL    HW132860   5.446   7.901   0.014 -1.0826 -0.7255 -0.8941
10524SOL    HW232861   5.362   7.854   0.130 -0.6110  0.2022 -0.1657
10525SOL     OW32862   3.688   0.442   0.688  0.4753  0.5468  0.2115
10525SOL    HW132863   3.732   0.358   0.676 -0.6549  0.0731 -0.8230
10525SOL    HW232864   3.708   0.466   0.779  1.4477 -0.4529  0.2935
10526SOL     OW32865   1.561   6.320   2.985  0.4561  0.4995 -0.4047
10526SOL    HW132866   1.560   6.415   2.996  1.3152  0.8036 -2.5311
10526SOL    HW232867   1.604   6.305   2.901  1.9871 -1.8511  0.6546
10527SOL     OW32868   8.486   5.094   6.089  0.3169  0.5604  0.6239
10527SOL    HW132869   8.475   5.187   6.068  2.5389  1.3397  2.5255
10527SOL    HW232870   8.541   5.060   6.019  0.6868  1.0529  0.6656
10528SOL     OW32871   6.603   3.124   3.827  0.0915 -0.2615 -0.4135
10528SOL    HW132872   6.518   3.168   3.827 -0.1161 -0.6269 -1.3770
10528SOL    HW232873   6.637   3.138   3.738  2.4586  2.5313  0.7998
10529SOL     OW32874   2.020   5.953   2.611  0.0511  0.3002 -0.8339
10529SOL    HW132875   2.025   5.988   2.522 -1.1502  3.1000  0.0778
10529SOL    HW232876   1.995   6.028   2.665 -0.8175 -1.6265  1.6582
10530SOL     OW32877   7.984   2.965   6.771 -0.7075  0.0896 -0.2843
10530SOL    HW132878   7.958   3.057   6.769 -2.9660 -0.5008 -0.6235
10530SOL    HW232879   7.950   2.932   6.855 -2.0549 -0.9576 -1.1912
10531SOL     OW32880   6.372   1.563   8.069  0.0079  0.0614 -0.4511
10531SOL    HW132881   6.420   1.588   7.990 -0.7221  1.4909 -0.4687
10531SOL    HW232882   6.439   1.558   8.137  0.4513  0.1317 -0.8786
10532SOL     OW32883   1.725   3.936   5.410 -0.3703  0.0083  0.0079
10532SOL    HW132884   1.741   3.945   5.316 -0.7639 -2.2212 -0.3302
10532SOL    HW232885   1.806   3.897   5.444 -0.7377 -0.4933  0.3285
10533SOL     OW32886   2.945   5.425   0.545 -0.1643  0.1776  0.4267
10533SOL    HW132887   2.980   5.362   0.608 -2.2679 -1.4032  0.1225
10533SOL    HW232888   2.918   5.499   0.599 -2.1927 -1.2651  1.5336
10534SOL     OW32889   4.271   8.463   1.989 -0.2465  0.5745  0.2068
10534SOL    HW132890   4.303   8.406   2.058 -0.1627  0.3850  0.0120
10534SOL    HW232891   4.339   8.531   1.981 -1.0311  1.5419  1.4369
10535SOL     OW32892   5.373   6.591   7.120  0.0219 -0.2872 -0.0755
10535SOL    HW132893   5.404   6.534   7.049  0.9076 -0.6081  0.5482
10535SOL    HW232894   5.449   6.644   7.142 -1.0158  1.8141 -1.2342
10536SOL     OW32895   7.914   2.073   0.686  0.2405 -0.0325 -0.1142
10536SOL    HW132896   7.857   2.005   0.721 -1.1076  0.6349 -0.9277
10536SOL    HW232897   7.905   2.066   0.591 -1.1744  2.2171 -0.2312
10537SOL     OW32898   5.684   3.598   4.879  0.3734 -0.8064  0.0993
10537SOL    HW132899   5.688   3.682   4.832  2.4871 -0.8620  0.1027
10537SOL    HW232900   5.697   3.532   4.810  1.2914 -0.9928  0.4419
10538SOL     OW32901   6.635   8.465   0.414 -0.4571 -0.4118  0.0588
10538SOL    HW132902   6.573   8.537   0.420 -0.5030 -0.4689  0.2674
10538SOL    HW232903   6.691   8.475   0.490  1.0901  0.8352 -1.1768
10539SOL     OW32904   7.560   4.918   3.387 -0.2402 -0.3301 -0.0295
10539SOL    HW132905   7.602   4.944   3.468  0.3996 -1.0085 -0.1324
10539SOL    HW232906   7.628   4.928   3.320 -1.1375  1.4939 -0.7233
10540SOL     OW32907   2.844   2.471   4.373  0.0096  0.6758 -0.8091
10540SOL    HW132908   2.778   2.460   4.304  1.3405 -0.5122 -1.9739
10540SOL    HW232909   2.857   2.565   4.379 -1.7427  0.9209 -0.5942
10541SOL     OW32910   7.083   8.277   3.670 -0.2741  0.2908 -0.5282
10541SOL    HW132911   7.160   8.254   3.722 -0.6672 -0.8990 -0.4545
10541SOL    HW232912   7.119   8.313   3.589  0.6664 -4.6890 -2.7293
10542SOL     OW32913   6.089   5.732   2.839  0.1818  0.2855 -0.1530
10542SOL    HW132914   6.145   5.786   2.895 -1.4247 -0.2434  2.1197
10542SOL    HW232915   6.028   5.794   2.798 -2.2224  0.3444  3.1096
10543SOL     OW32916   4.754   7.674   4.386  0.1918 -0.0519 -0.3987
10543SOL    HW132917   4.752   7.681   4.291 -0.9856 -0.6970 -0.4448
10543SOL    HW232918   4.797   7.590   4.403 -1.0787 -0.7498 -0.4498
10544SOL     OW32919   2.578   8.375   2.928  0.1656 -0.0811 -0.0976
10544SOL    HW132920   2.555   8.361   3.020 -0.8015 -1.9568 -0.5900
10544SOL    HW232921   2.598   8.288   2.894  2.6940  0.8078 -1.1585
10545SOL     OW32922   8.507   2.224   1.953 -0.1520  0.4642  0.0451
10545SOL    HW132923   8.427   2.274   1.939 -1.5378 -1.6459 -0.1102
10545SOL    HW232924   8.526   2.184   1.868 -0.5588 -1.2335  0.7037
10546SOL     OW32925   0.208   7.863   0.454  0.8671 -0.1290 -0.4451
10546SOL    HW132926   0.170   7.786   0.497  1.0941 -0.6417 -1.1533
10546SOL    HW232927   0.151   7.935   0.481  0.3183 -0.6356 -0.2290
10547SOL     OW32928   5.239   3.559   7.989 -0.4530 -0.1737  0.3810
10547SOL    HW132929   5.270   3.522   8.071  1.1464  1.8731  0.7701
10547SOL    HW232930   5.299   3.523   7.923 -0.9608 -0.8331  0.2693
10548SOL     OW32931   8.147   2.171   2.138  0.3403  0.6675 -0.0365
10548SOL    HW132932   8.133   2.265   2.124 -0.9617  0.5387  0.2835
10548SOL    HW232933   8.211   2.166   2.208  1.1176  1.3151 -0.6915
10549SOL     OW32934   7.345   5.910   7.271  0.3277  0.1216  0.8786
10549SOL    HW132935   7.402   5.947   7.203  1.2556 -3.2024 -0.3329
10549SOL    HW232936   7.258   5.911   7.231  0.3853  0.6266  0.7513
10550SOL     OW32937   8.636   4.004   3.086 -0.3383  0.0178 -0.7819
10550SOL    HW132938   8.583   4.058   3.145 -0.9358 -0.5810 -0.7657
10550SOL    HW232939   8.618   4.039   2.999 -2.0297 -1.1693 -0.9704
10551SOL     OW32940   0.921   6.627   4.273  0.2148  0.5893 -0.4680
10551SOL    HW132941   0.870   6.704   4.251 -0.1367 -0.0139 -1.9272
10551SOL    HW232942   0.856   6.557   4.284  0.4171  0.6963  2.0530
10552SOL     OW32943   2.228   0.318   7.264  0.1885 -0.3547 -0.0646
10552SOL    HW132944   2.271   0.398   7.292  0.1628  0.1574 -1.3789
10552SOL    HW232945   2.300   0.256   7.249  0.2173 -0.5487  0.8282
10553SOL     OW32946   3.427   3.980   3.919 -0.1484  0.3837  0.5497
10553SOL    HW132947   3.414   4.013   4.008  0.2866  0.5882  0.5425
10553SOL    HW232948   3.346   4.001   3.873 -0.2507  0.5657  0.8142
10554SOL     OW32949   5.197   3.801   8.460  0.2131 -0.2806 -0.3318
10554SOL    HW132950   5.199   3.838   8.372 -1.4946  2.5951  0.7011
10554SOL    HW232951   5.106   3.776   8.474  0.2225  0.2909  0.9292
10555SOL     OW32952   4.563   2.997   7.265 -0.4007 -0.4771 -0.3499
10555SOL    HW132953   4.511   2.921   7.240 -0.7616 -0.5192  0.5018
10555SOL    HW232954   4.561   2.997   7.360  0.2485  0.1566 -0.3290
10556SOL     OW32955   5.470   3.533   4.480  0.4371 -0.1543 -0.1660
10556SOL    HW132956   5.476   3.570   4.392  0.5128  0.9418  0.2918
10556SOL    HW232957   5.385   3.560   4.512  0.0780 -1.2171 -0.1800
10557SOL     OW32958   2.177   2.050   5.531  0.4416 -0.3916 -0.7933
10557SOL    HW132959   2.262   2.037   5.488  1.1466 -0.1992  0.4863
10557SOL    HW232960   2.157   1.966   5.571  1.3574  0.2523  1.1492
10558SOL     OW32961   2.750   1.932   0.753  0.4142  0.1848 -0.7029
10558SOL    HW132962   2.678   1.904   0.696 -0.1084 -0.7638  0.3877
10558SOL    HW232963   2.754   2.027   0.741 -1.6871  0.4126 -0.0647
10559SOL     OW32964   7.229   3.698   4.278  0.4452 -0.0041 -0.3920
10559SOL    HW132965   7.239   3.705   4.183  3.6572 -2.4109 -0.4001
10559SOL    HW232966   7.214   3.788   4.307  0.0286  0.8891 -3.0790
10560SOL     OW32967   4.482   6.039   3.092 -0.2995  0.0258  0.3146
10560SOL    HW132968   4.444   6.001   3.013 -2.1005  1.0250  0.6387
10560SOL    HW232969   4.556   6.090   3.061 -1.1529  0.6476 -0.8078
10561SOL     OW32970   1.378   6.486   1.016  0.0182  0.2584 -0.3484
10561SOL    HW132971   1.420   6.521   1.095  0.2955  1.2064 -0.8965
10561SOL    HW232972   1.297   6.536   1.009 -0.7213 -0.8231  0.1108
10562SOL     OW32973   3.598   2.456   6.270 -0.2378  0.0421  0.2367
10562SOL    HW132974   3.614   2.534   6.323  0.9598  0.1327 -0.2209
10562SOL    HW232975   3.664   2.393   6.299 -2.3482 -1.5347  1.9216
10563SOL     OW32976   7.551   2.667   3.131  0.0767  0.3616  0.1951
10563SOL    HW132977   7.615   2.682   3.062 -0.4040  2.7244  0.1880
10563SOL    HW232978   7.467   2.659   3.084 -0.4867  3.4804  0.4543
10564SOL     OW32979   6.047   0.752   2.197 -0.3326 -0.4620  0.1855
10564SOL    HW132980   6.024   0.667   2.160 -0.6119 -0.1520 -0.3590
10564SOL    HW232981   5.964   0.795   2.216 -0.1949 -0.3819  0.6471
10565SOL     OW32982   1.620   7.427   3.050  0.3498 -0.2094  0.4451
10565SOL    HW132983   1.628   7.417   2.955  0.7462 -1.5032  0.5849
10565SOL    HW232984   1.581   7.513   3.062  0.1185 -0.0958 -0.9006
10566SOL     OW32985   6.200   6.770   0.069  0.2941 -0.4357  0.6166
10566SOL    HW132986   6.224   6.837   0.133  0.6542 -0.1691  0.2019
10566SOL    HW232987   6.130   6.809   0.018 -0.4373 -0.8850  1.2486
10567SOL     OW32988   2.885   1.374   3.642  0.1160  0.6013  0.2604
10567SOL    HW132989   2.908   1.460   3.678 -1.0606  0.0943  2.3195
10567SOL    HW232990   2.903   1.312   3.713  0.5408 -0.8343 -1.0409
10568SOL     OW32991   7.663   5.532   1.360 -0.8829 -0.0691 -0.3772
10568SOL    HW132992   7.591   5.582   1.323 -0.6508  0.3880 -0.2240
10568SOL    HW232993   7.677   5.570   1.446 -0.5226 -0.2163 -0.3688
10569SOL     OW32994   3.495   6.409   2.687 -0.6919 -0.7775  0.1197
10569SOL    HW132995   3.589   6.428   2.687 -0.5484 -1.2908  1.8651
10569SOL    HW232996   3.454   6.491   2.659  0.2766 -0.6389 -0.9459
10570SOL     OW32997   3.277   1.553   1.328  0.0489  0.4617  0.0974
10570SOL    HW132998   3.283   1.635   1.279  1.1765  0.9426  0.9852
10570SOL    HW232999   3.286   1.579   1.420 -1.0346 -0.5191  0.5055
10571SOL     OW33000   3.915   1.666   3.767 -0.2607  0.1674 -0.4688
10571SOL    HW133001   3.874   1.581   3.754  0.2236 -0.0341 -0.6732
10571SOL    HW233002   4.008   1.651   3.753 -0.3302  1.0563 -2.0721
10572SOL     OW33003   2.187   5.775   5.259 -0.6721  0.2314 -0.4523
10572SOL    HW133004   2.172   5.856   5.209  0.0685  1.0763  0.6528
10572SOL    HW233005   2.243   5.722   5.201 -0.1981  1.0008 -0.7151
10573SOL     OW33006   2.458   3.476   1.403 -0.5251 -0.3907  0.1004
10573SOL    HW133007   2.496   3.414   1.340 -1.0089 -0.3423 -0.2491
10573SOL    HW233008   2.394   3.525   1.352 -1.0239 -0.4396  0.6629
10574SOL     OW33009   8.194   2.534   3.258  0.0043 -0.3009  0.0551
10574SOL    HW133010   8.282   2.572   3.257 -0.1845  0.2323 -2.2174
10574SOL    HW233011   8.205   2.448   3.218 -0.7073  0.4379 -1.8606
10575SOL     OW33012   0.093   6.518   3.852  0.1489  0.2723 -0.1058
10575SOL    HW133013   0.043   6.452   3.898 -1.0734  1.2198 -0.0220
10575SOL    HW233014   0.076   6.501   3.759  1.0596 -0.4456 -0.1536
10576SOL     OW33015   0.097   3.315   0.140 -0.2040  0.4566  0.2921
10576SOL    HW133016   0.123   3.240   0.193  0.0014  0.6058  0.4045
10576SOL    HW233017   0.001   3.314   0.143 -0.2236 -0.2431 -0.3352
10577SOL     OW33018   4.322   8.182   6.170 -0.1498 -0.3402 -0.0576
10577SOL    HW133019   4.402   8.144   6.205 -0.0806  0.3607  0.5919
10577SOL    HW233020   4.290   8.118   6.107 -0.0783 -1.4796  1.0349
10578SOL     OW33021   2.478   6.473   6.716  0.1283 -0.1699 -0.4982
10578SOL    HW133022   2.525   6.390   6.709  1.5371  0.5316  0.0871
10578SOL    HW233023   2.435   6.484   6.632  0.9698 -0.8852 -1.0398
10579SOL     OW33024   1.126   0.329   1.356  0.0412  0.5618  0.1869
10579SOL    HW133025   1.139   0.268   1.283  0.1870  0.0532  0.6340
10579SOL    HW233026   1.206   0.381   1.359 -0.4349  1.3776 -0.7479
10580SOL     OW33027   3.625   6.705   4.712 -0.2834 -0.4437  0.2876
10580SOL    HW133028   3.675   6.670   4.639  2.1639  1.4981  0.8681
10580SOL    HW233029   3.534   6.682   4.693  0.3485 -0.7362 -2.9142
10581SOL     OW33030   0.032   4.329   8.701 -0.1603  0.6260 -0.7352
10581SOL    HW133031  -0.003   4.285   8.779 -0.5813 -0.1118 -1.3179
10581SOL    HW233032   0.060   4.414   8.732  1.6654 -0.4197  0.6634
10582SOL     OW33033   5.300   6.085   1.638  0.1144 -0.9599  0.4748
10582SOL    HW133034   5.232   6.044   1.584 -0.9934  1.3618  0.0194
10582SOL    HW233035   5.254   6.120   1.714  0.1913  2.8018 -0.9896
10583SOL     OW33036   5.398   4.319   7.930  0.0157 -0.6089  0.1789
10583SOL    HW133037   5.426   4.367   7.852 -0.0021  1.9599  1.6416
10583SOL    HW233038   5.320   4.366   7.960  0.9579 -0.4772  2.6330
10584SOL     OW33039   2.963   1.120   4.579 -0.3998  0.3375  0.0334
10584SOL    HW133040   3.016   1.046   4.551 -0.1919  0.1660  0.8565
10584SOL    HW233041   2.932   1.159   4.497  0.1443 -0.1722 -0.4288
10585SOL     OW33042   1.111   5.571   6.026 -0.2329  0.2711  0.3083
10585SOL    HW133043   1.124   5.652   5.977 -0.8056  0.0315 -0.2478
10585SOL    HW233044   1.060   5.514   5.967  3.3511 -1.9989 -0.9185
10586SOL     OW33045   5.860   6.085   7.709  0.1357 -0.2859  0.1521
10586SOL    HW133046   5.883   5.993   7.710  2.1163  0.1744  0.7517
10586SOL    HW233047   5.798   6.095   7.782 -1.9892 -1.5150 -1.3617
10587SOL     OW33048   2.482   5.518   4.089  0.1652  0.2134  0.4360
10587SOL    HW133049   2.509   5.609   4.103 -0.4909  0.3866  0.5973
10587SOL    HW233050   2.555   5.466   4.122  0.7065  0.6821  0.0005
10588SOL     OW33051   5.720   0.632   0.402  0.6285  0.7594 -0.1080
10588SOL    HW133052   5.713   0.716   0.448 -1.2869  0.8370 -0.4536
10588SOL    HW233053   5.735   0.568   0.471 -1.8230  0.9210  0.6564
10589SOL     OW33054   6.882   1.341   0.054  0.5352 -0.0688  0.1403
10589SOL    HW133055   6.823   1.267   0.041  0.2288  0.2450 -0.3296
10589SOL    HW233056   6.964   1.302   0.083  0.2764 -0.5619  0.2258
10590SOL     OW33057   3.410   4.985   3.793  0.2127  0.6000  0.7775
10590SOL    HW133058   3.407   4.963   3.700 -1.8705  1.4827  0.5858
10590SOL    HW233059   3.416   4.900   3.837 -4.1687 -0.4372 -0.0685
10591SOL     OW33060   8.439   7.465   3.694 -0.5643 -0.3802  0.4547
10591SOL    HW133061   8.462   7.383   3.649 -0.4920 -0.4581  0.6293
10591SOL    HW233062   8.501   7.529   3.660  1.0259 -0.9499  2.0957
10592SOL     OW33063   6.647   8.495   2.285  0.7336  0.5650 -0.1774
10592SOL    HW133064   6.558   8.468   2.263 -0.2073  2.5917  0.8721
10592SOL    HW233065   6.699   8.474   2.207 -0.9492  0.6304 -1.3593
10593SOL     OW33066   6.052   1.621   0.329  0.2262  0.2081  0.5221
10593SOL    HW133067   6.050   1.681   0.254 -1.0592  0.4766  0.7424
10593SOL    HW233068   5.991   1.551   0.306  0.4394 -0.1343  0.9754
10594SOL     OW33069   1.687   5.753   0.177  0.3057  0.0244  0.1753
10594SOL    HW133070   1.699   5.846   0.199 -1.2374 -0.0630  1.6183
10594SOL    HW233071   1.593   5.744   0.165  0.3253 -1.5251  0.9793
10595SOL     OW33072   3.603   5.709   3.077  0.0743  0.2757  0.1979
10595SOL    HW133073   3.557   5.676   3.154  0.7683 -0.5002  0.3055
10595SOL    HW233074   3.696   5.709   3.103  0.2277  0.9309 -0.3118
10596SOL     OW33075   4.499   4.713   7.961 -0.0816  0.0778  0.1296
10596SOL    HW133076   4.434   4.727   8.030 -1.3005 -1.9171 -0.5317
10596SOL    HW233077   4.559   4.648   7.998 -0.5815 -0.7929 -0.5531
10597SOL     OW33078   6.548   4.752   1.128  0.0047  0.7403  0.3758
10597SOL    HW133079   6.623   4.767   1.070 -0.3739  1.5549  0.0628
10597SOL    HW233080   6.476   4.800   1.085 -0.6879 -0.0227  0.6681
10598SOL     OW33081   4.536   3.049   2.256  0.0537 -0.2845  0.2093
10598SOL    HW133082   4.478   3.097   2.315 -1.7384 -0.7165 -1.1297
10598SOL    HW233083   4.525   3.093   2.171  0.4669 -1.3644 -0.4212
10599SOL     OW33084   0.141   0.940   2.058  0.2936  0.0363  0.6250
10599SOL    HW133085   0.159   0.847   2.074  1.4372  0.0585 -0.4164
10599SOL    HW233086   0.084   0.940   1.982  2.6329  0.2169 -1.2676
10600SOL     OW33087   3.089   3.080   7.788 -0.5277 -0.0945 -0.2223
10600SOL    HW133088   3.111   3.082   7.694 -1.3086 -1.5555 -0.4571
10600SOL    HW233089   3.007   3.130   7.794 -0.6204 -0.2252 -0.3727
10601SOL     OW33090   4.209   6.386   7.737  0.1727  0.2089 -0.3399
10601SOL    HW133091   4.173   6.343   7.815  1.9408  0.0793  0.4616
10601SOL    HW233092   4.270   6.322   7.700  0.1422  0.6741 -1.2106
10602SOL     OW33093   2.282   5.090   6.618  0.3298  0.0360  0.5488
10602SOL    HW133094   2.260   5.026   6.686  0.3308  0.4210  0.9152
10602SOL    HW233095   2.204   5.095   6.563  1.0241 -1.7960 -0.7077
10603SOL     OW33096   4.692   6.431   5.478  0.2364 -0.2008 -0.8367
10603SOL    HW133097   4.680   6.522   5.451 -0.4243 -0.0675 -0.1347
10603SOL    HW233098   4.615   6.412   5.531  1.6046 -0.3311  1.2067
10604SOL     OW33099   7.785   2.232   3.776  0.0037 -0.1385 -0.3520
10604SOL    HW133100   7.806   2.169   3.845 -1.0513  0.6361  0.7155
10604SOL    HW233101   7.697   2.208   3.747 -0.3563  0.7496 -0.0262
10605SOL     OW33102   2.207   0.863   5.423 -0.4118 -0.1908  0.0510
10605SOL    HW133103   2.259   0.913   5.486 -0.5871 -1.9776  1.7294
10605SOL    HW233104   2.119   0.898   5.431 -0.2200  0.3083  0.0053
10606SOL     OW33105   2.786   1.016   8.012 -0.2755  0.4379 -0.4670
10606SOL    HW133106   2.839   1.095   8.005 -1.9953  1.5251 -2.4360
10606SOL    HW233107   2.790   0.977   7.925 -3.1618  0.9567 -0.9238
10607SOL     OW33108   1.111   8.657   0.235 -0.0817  0.7898 -0.6386
10607SOL    HW133109   1.081   8.722   0.172  0.6574  1.2621 -0.5159
10607SOL    HW233110   1.034   8.602   0.251 -0.6575  1.4932 -0.9085
10608SOL     OW33111   1.772   8.273   1.725  0.1325  0.1810  0.3241
10608SOL    HW133112   1.727   8.330   1.788  0.1524  0.6907 -0.1174
10608SOL    HW233113   1.792   8.194   1.774  1.4208  1.1249  1.3611
10609SOL     OW33114   4.623   0.687   3.096  0.4629  0.3137  0.1846
10609SOL    HW133115   4.596   0.658   3.183  0.7680  0.7496  0.4279
10609SOL    HW233116   4.611   0.782   3.098  1.6561  0.4769  0.1685
10610SOL     OW33117   6.558   6.159   4.095 -0.1670  0.0729  0.1150
10610SOL    HW133118   6.489   6.144   4.031 -3.1795 -0.0889  3.1471
10610SOL    HW233119   6.562   6.254   4.104 -3.2374  0.1230  2.8878
10611SOL     OW33120   1.767   3.583   7.973 -0.4287  0.6879  0.1396
10611SOL    HW133121   1.812   3.668   7.977  0.1310  0.5673 -2.3443
10611SOL    HW233122   1.773   3.557   7.881 -1.0050 -1.8463  0.7562
10612SOL     OW33123   0.046   8.531   6.109  0.2373 -0.6714  0.6523
10612SOL    HW133124   0.080   8.452   6.151 -2.1201 -1.4165  1.3170
10612SOL    HW233125   0.082   8.528   6.020  0.7074 -2.1514  0.8588
10613SOL     OW33126   4.921   7.203   6.018  0.1590 -0.0722 -0.0011
10613SOL    HW133127   4.930   7.263   5.944  1.5270  0.5158  0.6091
10613SOL    HW233128   4.864   7.133   5.985 -0.1320  0.7179 -1.2495
10614SOL     OW33129   7.363   3.488   4.657 -0.5397 -0.6929 -0.2807
10614SOL    HW133130   7.405   3.545   4.721 -0.5893 -0.1628 -0.7184
10614SOL    HW233131   7.431   3.426   4.631 -0.0684  0.0381 -0.8413
10615SOL     OW33132   5.112   4.740   7.432 -0.0252  0.7429  0.4369
10615SOL    HW133133   5.208   4.739   7.438 -0.0023  0.4345  0.0790
10615SOL    HW233134   5.094   4.715   7.341 -0.4549  0.4948  0.5894
10616SOL     OW33135   3.844   5.048   2.402 -0.4071 -0.1829 -0.1524
10616SOL    HW133136   3.923   5.054   2.456  0.0100  0.7857 -0.8535
10616SOL    HW233137   3.772   5.067   2.462  0.1410  2.1466 -0.1664
10617SOL     OW33138   4.695   2.668   3.084 -0.2342 -0.5178  0.1072
10617SOL    HW133139   4.606   2.702   3.081 -0.2987 -0.7310 -0.7205
10617SOL    HW233140   4.723   2.666   2.993  1.1485  0.8851  0.4616
10618SOL     OW33141   2.064   2.540   6.732  0.5503 -0.0359 -0.0703
10618SOL    HW133142   2.033   2.625   6.699  0.7421  0.2023  0.3515
10618SOL    HW233143   2.000   2.516   6.799 -0.5256 -1.1015 -1.4194
10619SOL     OW33144   5.675   1.363   7.576  0.2295 -0.7770  0.4672
10619SOL    HW133145   5.659   1.312   7.496  0.6557  0.3798 -0.3803
10619SOL    HW233146   5.770   1.361   7.586  0.0986 -2.0386  1.7278
10620SOL     OW33147   2.726   1.658   1.901 -0.2310 -0.8635  0.1369
10620SOL    HW133148   2.727   1.565   1.881  0.5595 -0.8882  0.2562
10620SOL    HW233149   2.810   1.690   1.869  0.0098 -0.4239  1.1617
10621SOL     OW33150   5.776   0.993   2.851  0.2616 -0.1112 -0.3178
10621SOL    HW133151   5.710   0.927   2.874  1.2075 -0.8171  0.4925
10621SOL    HW233152   5.811   1.021   2.936 -0.5131  1.8941 -0.6133
10622SOL     OW33153   6.196   5.485   7.465 -0.3018  0.4997 -0.4909
10622SOL    HW133154   6.255   5.521   7.532  0.2647  0.0232 -0.7320
10622SOL    HW233155   6.143   5.421   7.512 -1.0699  1.3541 -0.1382
10623SOL     OW33156   2.958   5.889   2.742  0.0072  0.5276  0.2582
10623SOL    HW133157   2.866   5.898   2.769 -0.3163  0.8006 -0.8920
10623SOL    HW233158   2.997   5.973   2.765 -0.6910  1.4291 -1.6632
10624SOL     OW33159   3.474   8.563   2.225  0.2219  0.0501 -0.1805
10624SOL    HW133160   3.495   8.605   2.141  2.0390 -1.1140 -0.3647
10624SOL    HW233161   3.378   8.566   2.230  0.0712  0.2587 -2.2436
10625SOL     OW33162   0.931   1.177   4.683 -0.4450  0.6706 -0.0347
10625SOL    HW133163   0.958   1.191   4.592  0.0035 -0.8389 -0.1629
10625SOL    HW233164   1.013   1.177   4.732 -0.3752 -1.5800 -0.0866
10626SOL     OW33165   1.314   8.560   8.563  0.5188  0.1983 -0.1613
10626SOL    HW133166   1.337   8.582   8.653 -0.8860  1.9360 -0.1719
10626SOL    HW233167   1.248   8.492   8.571 -2.4893  2.9634  0.4039
10627SOL     OW33168   2.873   5.503   4.235  0.0449 -0.2415  0.2414
10627SOL    HW133169   2.860   5.569   4.167  0.2118  0.3454  0.7703
10627SOL    HW233170   2.837   5.543   4.315  1.3392 -0.2243  0.8540
10628SOL     OW33171   3.961   8.287   5.486  0.3319  0.2025  0.4996
10628SOL    HW133172   4.006   8.230   5.423  0.0069  0.0718  0.3827
10628SOL    HW233173   3.872   8.292   5.453 -0.0143 -0.4100  1.3105
10629SOL     OW33174   4.377   5.893   6.363 -0.0018  0.5482 -0.7108
10629SOL    HW133175   4.341   5.978   6.391  1.4337  1.1122 -0.4800
10629SOL    HW233176   4.306   5.852   6.314 -0.9922  1.5550 -0.1713
10630SOL     OW33177   3.899   5.252   7.392  0.3634 -0.2536 -0.3405
10630SOL    HW133178   3.987   5.289   7.397 -0.0371  0.8510 -1.1248
10630SOL    HW233179   3.853   5.290   7.466 -0.0482  0.8546 -1.1462
10631SOL     OW33180   7.235   2.962   5.916 -0.2461 -0.4459 -0.1841
10631SOL    HW133181   7.150   2.927   5.940 -1.0910  0.5876 -1.4895
10631SOL    HW233182   7.283   2.887   5.880 -0.7572 -0.9497  0.1707
10632SOL     OW33183   6.430   3.642   6.752 -0.0411  0.0197 -0.3813
10632SOL    HW133184   6.388   3.611   6.672 -2.4076  1.1267  0.3307
10632SOL    HW233185   6.478   3.721   6.725  1.3815 -1.0513 -1.1339
10633SOL     OW33186   6.968   6.421   7.380  0.0333 -0.4718  0.1216
10633SOL    HW133187   6.923   6.478   7.317 -1.3528 -0.8622  0.7245
10633SOL    HW233188   6.997   6.479   7.450 -0.8894 -0.4156  0.4654
10634SOL     OW33189   6.963   2.801   2.961 -0.0111  0.3363  0.1946
10634SOL    HW133190   7.020   2.729   2.986  0.8295  1.2529  1.0070
10634SOL    HW233191   6.914   2.823   3.041 -0.6624  0.3174 -0.1878
10635SOL     OW33192   6.667   4.239   3.636 -0.2274 -0.2486  0.2481
10635SOL    HW133193   6.742   4.196   3.678 -0.2091 -0.5632 -0.1088
10635SOL    HW233194   6.706   4.307   3.582 -0.2540  0.1938  0.7742
10636SOL     OW33195   1.315   2.998   5.918  0.4612 -0.0941  0.2213
10636SOL    HW133196   1.262   2.918   5.922 -0.3834  0.4900  0.9099
10636SOL    HW233197   1.314   3.031   6.007  1.0724  0.5236  0.0012
10637SOL     OW33198   1.467   1.107   4.950  0.1159 -0.0521 -0.5921
10637SOL    HW133199   1.536   1.173   4.944 -0.2993  0.4757  0.2357
10637SOL    HW233200   1.431   1.117   5.038  1.1375 -2.5037  0.2057
10638SOL     OW33201   1.913   0.337   6.252 -0.6281  0.5177  0.5297
10638SOL    HW133202   1.834   0.377   6.289 -0.8121  0.5910  0.0751
10638SOL    HW233203   1.951   0.406   6.197  0.0704  0.6700  1.1903
10639SOL     OW33204   1.176   7.308   3.171 -0.0811  0.4708 -0.0675
10639SOL    HW133205   1.097   7.304   3.225 -0.4111  0.9271 -0.5030
10639SOL    HW233206   1.191   7.218   3.143  1.4331 -0.2491  2.6470
10640SOL     OW33207   3.184   0.958   4.235  0.3043  0.6585  0.1339
10640SOL    HW133208   3.136   0.980   4.155  0.9701 -0.9744 -0.7533
10640SOL    HW233209   3.273   0.940   4.205  0.6508  0.3650  1.2992
10641SOL     OW33210   5.006   7.334   2.380  0.2621  0.1350 -0.7406
10641SOL    HW133211   4.983   7.347   2.289  1.7331  1.5685 -0.9581
10641SOL    HW233212   4.994   7.420   2.421  0.8060 -0.1765  0.1166
10642SOL     OW33213   4.721   5.214   7.486 -0.5945 -0.6181 -0.6879
10642SOL    HW133214   4.628   5.197   7.494 -0.9934  1.3960 -0.5013
10642SOL    HW233215   4.745   5.259   7.567 -0.3508  2.2395 -2.1910
10643SOL     OW33216   1.118   7.133   1.145  0.0960 -0.0658 -0.0173
10643SOL    HW133217   1.186   7.187   1.104 -0.1200  1.4621  1.5062
10643SOL    HW233218   1.154   7.111   1.231 -0.1874 -1.7082 -0.2750
10644SOL     OW33219   3.895   6.812   0.483 -0.0939 -0.0878 -0.6563
10644SOL    HW133220   3.922   6.731   0.527 -0.9940  0.1503  0.3672
10644SOL    HW233221   3.819   6.787   0.431  0.4623 -0.1828 -1.4509
10645SOL     OW33222   8.372   5.716   0.005 -0.3810 -0.7920 -0.1929
10645SOL    HW133223   8.468   5.720   0.009 -0.2306 -3.4649  0.9221
10645SOL    HW233224   8.354   5.638  -0.048 -1.9536 -0.3848 -0.3019
10646SOL     OW33225   3.732   4.003   2.413 -0.1584 -0.0580 -0.0023
10646SOL    HW133226   3.824   3.999   2.390  0.5928 -1.2894  2.7472
10646SOL    HW233227   3.697   4.075   2.361  2.0136 -0.3838 -2.0771
10647SOL     OW33228   2.559   3.210   1.299 -0.5458  0.3337  0.4083
10647SOL    HW133229   2.493   3.152   1.335 -0.2641 -0.5251 -0.4115
10647SOL    HW233230   2.513   3.261   1.232 -0.2207 -0.8527 -0.7489
10648SOL     OW33231   7.266   8.093   5.841 -0.0484 -0.5686  0.3890
10648SOL    HW133232   7.216   8.168   5.875 -1.4947 -0.5107 -1.7121
10648SOL    HW233233   7.332   8.077   5.909  0.6390  2.8960  0.7615
10649SOL     OW33234   2.817   1.793   4.842  0.2951 -0.7514 -0.5650
10649SOL    HW133235   2.816   1.880   4.882 -0.2299 -0.5484 -1.0040
10649SOL    HW233236   2.820   1.732   4.916  0.8365 -0.3599 -0.2609
10650SOL     OW33237   5.868   3.277   7.614  0.1509 -0.1290 -0.2153
10650SOL    HW133238   5.784   3.322   7.615  0.1285 -0.1618 -0.5170
10650SOL    HW233239   5.913   3.311   7.536  0.3775 -0.1816 -0.1100
10651SOL     OW33240   6.583   6.948   5.013  0.2411  0.0528  0.6494
10651SOL    HW133241   6.624   6.873   4.970  0.2705  0.3778  0.0946
10651SOL    HW233242   6.520   6.910   5.074  0.7121 -0.4340  0.8437
10652SOL     OW33243   8.041   8.135   3.255  0.2837  0.4041 -0.7014
10652SOL    HW133244   8.134   8.122   3.237 -0.0941 -1.4166 -1.5807
10652SOL    HW233245   8.003   8.047   3.252 -1.5023  1.1233 -0.5738
10653SOL     OW33246   7.487   5.455   4.760 -0.2127 -0.1963 -0.1184
10653SOL    HW133247   7.391   5.459   4.760 -0.1982  2.3204  1.1504
10653SOL    HW233248   7.513   5.521   4.824  2.3995 -0.8655 -0.3934
10654SOL     OW33249   7.985   7.719   4.336 -0.3638 -0.0067  0.2471
10654SOL    HW133250   7.939   7.795   4.371  0.4644  0.9286 -0.6459
10654SOL    HW233251   7.920   7.675   4.281 -1.2783 -0.7771  1.8701
10655SOL     OW33252   4.063   8.009   1.828  0.3946 -0.0450  0.5587
10655SOL    HW133253   4.151   8.011   1.866  0.8972  1.3623 -0.5779
10655SOL    HW233254   4.055   7.922   1.790  1.8686  0.2719 -0.5488
10656SOL     OW33255   0.321   0.119   1.639 -0.2719 -0.1478  0.6813
10656SOL    HW133256   0.386   0.053   1.615 -0.6402 -0.5909  0.8793
10656SOL    HW233257   0.361   0.202   1.615 -0.4266 -0.5356 -1.0563
10657SOL     OW33258   1.084   7.470   0.731 -0.6345  0.2359  0.4811
10657SOL    HW133259   1.014   7.475   0.796 -0.0275  1.4999  1.0819
10657SOL    HW233260   1.151   7.416   0.772 -0.5483  0.4465  0.6204
10658SOL     OW33261   8.551   5.746   5.378 -0.3168  0.9477  0.3851
10658SOL    HW133262   8.491   5.687   5.423  0.5450 -0.4801 -0.2848
10658SOL    HW233263   8.617   5.770   5.443 -0.1297  0.3951  0.3990
10659SOL     OW33264   0.987   4.086   3.861 -0.3266  0.1026 -0.1373
10659SOL    HW133265   1.041   4.116   3.933 -1.3364 -0.7264  1.0004
10659SOL    HW233266   0.931   4.019   3.899  0.5810 -1.9353 -2.1534
10660SOL     OW33267   3.653   5.175   4.674 -0.2152 -0.4081  0.6583
10660SOL    HW133268   3.671   5.144   4.585  1.3749  1.8375  0.1060
10660SOL    HW233269   3.714   5.127   4.729  1.4585  0.8118 -0.0338
10661SOL     OW33270   2.415   5.572   4.983  0.0602 -0.0268  0.2056
10661SOL    HW133271   2.502   5.540   4.958  0.1978  0.1411  0.4738
10661SOL    HW233272   2.355   5.510   4.941  0.2730  0.4963 -0.9198
10662SOL     OW33273   0.873   6.728   5.108  0.0604 -0.2803  0.1334
10662SOL    HW133274   0.967   6.743   5.098  0.0753  2.4140  2.8034
10662SOL    HW233275   0.832   6.800   5.060 -0.4885  0.1413  1.2029
10663SOL     OW33276   2.599   5.841   0.997 -0.3407 -0.7241  0.0299
10663SOL    HW133277   2.538   5.873   1.064 -1.4890  1.2745 -1.8294
10663SOL    HW233278   2.675   5.899   1.004 -0.7572 -0.0434 -0.7664
10664SOL     OW33279   6.575   0.215   2.917 -0.0647  0.2164 -0.1515
10664SOL    HW133280   6.492   0.186   2.879 -0.6700 -0.5326  1.6277
10664SOL    HW233281   6.563   0.310   2.929 -0.9053  0.0257  0.6190
10665SOL     OW33282   6.415   5.974   6.468  0.3175 -0.1665 -0.1406
10665SOL    HW133283   6.383   5.977   6.558 -1.5364  0.6531 -0.7679
10665SOL    HW233284   6.489   6.035   6.466 -0.0152  0.2744  0.6818
10666SOL     OW33285   6.924   7.557   5.549  0.6896  0.4306  0.0422
10666SOL    HW133286   6.851   7.494   5.549  0.7431  0.3560 -1.4605
10666SOL    HW233287   6.990   7.516   5.605 -0.1903  0.2412  0.9732
10667SOL     OW33288   0.901   8.568   1.167 -0.2936  0.0857  0.4426
10667SOL    HW133289   0.837   8.603   1.104 -0.6465 -0.2645  0.6014
10667SOL    HW233290   0.968   8.527   1.113 -1.0123 -0.9456  0.2948
10668SOL     OW33291   0.732   5.962   2.542 -0.1703  0.7888 -0.1253
10668SOL    HW133292   0.648   5.926   2.572 -0.4711  0.9469 -0.7490
10668SOL    HW233293   0.720   6.057   2.546  0.0441  0.8107 -0.0338
10669SOL     OW33294   1.710   0.989   2.419 -0.1323 -0.1396 -0.1158
10669SOL    HW133295   1.679   1.032   2.339  1.2201 -1.9318 -1.7017
10669SOL    HW233296   1.639   0.929   2.442 -0.4401  0.2286 -0.1010
10670SOL     OW33297   7.827   1.589   3.300 -0.1684  0.3111 -0.1000
10670SOL    HW133298   7.847   1.646   3.375  0.9674 -1.2736  0.8701
10670SOL    HW233299   7.905   1.594   3.244 -0.6959  0.8821 -0.8007
10671SOL     OW33300   0.824   7.442   6.453  0.3580 -0.3073  0.3700
10671SOL    HW133301   0.907   7.470   6.492 -0.2083 -1.9024  2.9681
10671SOL    HW233302   0.839   7.351   6.428 -0.3803 -0.3639  0.1177
10672SOL     OW33303   7.587   1.638   3.432  0.4681  0.1520  0.2457
10672SOL    HW133304   7.585   1.728   3.399 -0.9622 -0.4150 -1.3343
10672SOL    HW233305   7.635   1.589   3.366 -0.8275 -0.6660 -0.1220
10673SOL     OW33306   1.132   5.885   5.275 -0.5677 -0.4422  0.1286
10673SOL    HW133307   1.143   5.964   5.221 -0.6201 -0.0661  0.6536
10673SOL    HW233308   1.160   5.913   5.363 -0.0226 -1.1807  0.1953
10674SOL     OW33309   7.392   1.192   0.752 -0.3417 -0.3110 -0.4695
10674SOL    HW133310   7.333   1.227   0.685 -0.2252  0.8301  0.0113
10674SOL    HW233311   7.479   1.195   0.712 -0.2234  0.6937 -0.1584
10675SOL     OW33312   7.910   4.355   7.360 -0.1656  0.1805  0.7150
10675SOL    HW133313   7.972   4.350   7.287 -1.1310 -0.7185 -0.0739
10675SOL    HW233314   7.898   4.264   7.387 -2.3752  0.1204 -0.2386
10676SOL     OW33315   6.345   4.614   8.030 -0.1756 -0.3306  0.0368
10676SOL    HW133316   6.294   4.572   7.961  2.0967  0.1898 -2.1235
10676SOL    HW233317   6.280   4.644   8.093 -2.5346  0.1094 -2.4037
10677SOL     OW33318   7.723   7.750   7.634  0.1862 -0.3566 -0.4315
10677SOL    HW133319   7.791   7.738   7.700  0.3230  0.4517 -0.4165
10677SOL    HW233320   7.641   7.733   7.682  0.3210 -0.3926 -0.2120
10678SOL     OW33321   2.113   8.518   2.037  0.8172  0.1029 -0.0072
10678SOL    HW133322   2.104   8.613   2.027 -0.0412  0.0054 -0.2215
10678SOL    HW233323   2.043   8.493   2.097  0.5094 -0.5060 -0.6051
10679SOL     OW33324   8.498   0.881   1.234  0.7833  0.0909 -0.4450
10679SOL    HW133325   8.538   0.940   1.299 -0.7401  2.0958 -1.2114
10679SOL    HW233326   8.504   0.794   1.273 -0.2390  1.2271  2.5317
10680SOL     OW33327   7.584   0.618   2.824  0.0849 -0.1146  0.3981
10680SOL    HW133328   7.572   0.682   2.895  0.4509  0.5934 -0.1736
10680SOL    HW233329   7.543   0.659   2.748 -0.6083 -1.0215  0.2718
10681SOL     OW33330   8.634   2.793   4.513 -0.1998  0.0786 -0.6696
10681SOL    HW133331   8.575   2.729   4.552  1.1694 -0.7078  0.1872
10681SOL    HW233332   8.688   2.743   4.453  0.4109  0.5487 -0.5288
10682SOL     OW33333   6.427   7.447   0.999 -0.6711 -0.0320 -0.2130
10682SOL    HW133334   6.518   7.474   0.988 -0.0354 -1.8916  0.0997
10682SOL    HW233335   6.396   7.498   1.074 -0.2269  1.3706 -0.9600
10683SOL     OW33336   5.952   0.336   2.434  0.6374  0.0093  0.1395
10683SOL    HW133337   5.995   0.333   2.348 -0.0223 -1.0277 -0.1727
10683SOL    HW233338   6.007   0.394   2.486  0.3996  1.6729 -1.3481
10684SOL     OW33339   7.395   6.776   5.743  0.0896  0.3649 -0.2475
10684SOL    HW133340   7.339   6.852   5.757  0.1929  0.2770  0.7337
10684SOL    HW233341   7.467   6.788   5.805 -0.1836 -0.8043  0.3263
10685SOL     OW33342   7.811   1.960   7.343 -0.0895  0.5815  0.9981
10685SOL    HW133343   7.764   1.877   7.335  0.6831  0.1241  1.0352
10685SOL    HW233344   7.902   1.934   7.360  0.6920  1.3864 -1.5288
10686SOL     OW33345   6.832   8.544   3.496  0.2826 -0.5571 -0.0610
10686SOL    HW133346   6.894   8.553   3.424  1.2925 -3.2131  0.3883
10686SOL    HW233347   6.819   8.634   3.527  2.5555  0.2756 -1.2574
10687SOL     OW33348   1.266   6.770   6.239 -0.0221  0.6353 -0.6765
10687SOL    HW133349   1.195   6.725   6.286  0.0641 -0.5457 -1.6327
10687SOL    HW233350   1.240   6.766   6.147 -0.3810  3.2680 -0.7587
10688SOL     OW33351   4.798   8.200   0.471 -0.2897  0.4760  0.6924
10688SOL    HW133352   4.829   8.110   0.483 -3.7653 -0.9771 -0.0463
10688SOL    HW233353   4.727   8.210   0.535 -0.2587  2.5769  0.4649
10689SOL     OW33354   3.971   7.631   1.440  0.4967  0.0845 -0.5415
10689SOL    HW133355   4.026   7.688   1.386  1.1661 -0.3666 -0.3517
10689SOL    HW233356   4.031   7.594   1.505 -0.1129 -0.1140 -0.0811
10690SOL     OW33357   6.498   5.324   6.394 -0.1170  0.0139 -0.3650
10690SOL    HW133358   6.586   5.320   6.356 -0.9225  0.2970 -2.4165
10690SOL    HW233359   6.454   5.394   6.345 -1.1606  0.6636  1.4010
10691SOL     OW33360   4.050   3.071   5.563 -0.4895  0.6123  0.0988
10691SOL    HW133361   4.080   3.106   5.647 -0.6336 -0.3834  0.5881
10691SOL    HW233362   4.058   2.976   5.573  1.3212  0.4943 -1.7031
10692SOL     OW33363   4.971   5.882   6.877 -0.5602  0.6616  0.4931
10692SOL    HW133364   4.913   5.824   6.928  0.4801 -0.7930  0.0799
10692SOL    HW233365   4.937   5.876   6.788 -1.0103  1.4327  0.6078
10693SOL     OW33366   0.790   3.119   4.693 -0.0558  0.0056 -0.6532
10693SOL    HW133367   0.711   3.143   4.742 -0.4353 -0.7434 -0.8916
10693SOL    HW233368   0.763   3.048   4.635  0.9838 -0.8640 -0.1250
10694SOL     OW33369   4.840   4.636   3.955  0.1753 -0.7279 -0.0383
10694SOL    HW133370   4.761   4.689   3.955 -0.1825 -1.2224 -1.3920
10694SOL    HW233371   4.903   4.685   3.902  0.1308 -1.2180 -0.5576
10695SOL     OW33372   2.963   7.555   6.701  0.0473 -0.1201  0.3441
10695SOL    HW133373   2.909   7.552   6.780 -0.8559 -0.5317 -0.2721
10695SOL    HW233374   2.904   7.587   6.633  0.2479 -1.6311 -0.5876
10696SOL     OW33375   6.020   1.211   4.930  0.2404 -0.1216  0.3386
10696SOL    HW133376   6.015   1.238   5.021  0.4870 -0.4095  0.4406
10696SOL    HW233377   6.097   1.154   4.926  0.7679  0.6082 -0.2351
10697SOL     OW33378   3.787   8.318   7.379 -0.0578  0.7415 -0.1564
10697SOL    HW133379   3.750   8.235   7.349 -0.4810  0.7342  0.3692
10697SOL    HW233380   3.828   8.356   7.301  0.2241 -0.0046 -0.3768
10698SOL     OW33381   4.051   4.095   0.760 -0.4656  0.1898  0.5826
10698SOL    HW133382   4.032   4.157   0.830 -0.4955 -0.1137  0.8487
10698SOL    HW233383   4.002   4.016   0.784  0.0355 -0.1378  0.5615
10699SOL     OW33384   5.897   2.717   6.749  0.0472 -0.2143  0.3935
10699SOL    HW133385   5.869   2.756   6.832  1.1200  3.8377 -0.9226
10699SOL    HW233386   5.817   2.704   6.700 -0.4374 -0.8205  1.3116
10700SOL     OW33387   0.733   7.112   5.829 -0.1057 -0.3276  0.3261
10700SOL    HW133388   0.650   7.064   5.838  0.1957 -0.5272  2.5554
10700SOL    HW233389   0.787   7.055   5.774 -0.4713 -1.6155  1.2414
10701SOL     OW33390   6.117   0.808   0.095  0.0607  0.2166 -0.4087
10701SOL    HW133391   6.073   0.764   0.168  0.0756 -1.8423 -1.5589
10701SOL    HW233392   6.089   0.760   0.017  1.4165  1.2184 -1.5777
10702SOL     OW33393   6.014   8.154   8.631 -0.1038 -0.0907 -0.1901
10702SOL    HW133394   6.015   8.084   8.697 -0.2618  0.6014  0.5669
10702SOL    HW233395   6.022   8.108   8.547  1.0208 -0.9251  0.3547
10703SOL     OW33396   7.037   6.764   7.240  0.1458 -0.2152  0.6401
10703SOL    HW133397   7.001   6.772   7.328 -4.7723 -0.9651 -0.9768
10703SOL    HW233398   7.028   6.852   7.202 -1.4052 -0.7030 -0.1984
10704SOL     OW33399   1.180   8.190   4.084  0.6058  0.4243  0.3768
10704SOL    HW133400   1.129   8.204   4.004  1.7172 -0.4484 -0.5128
10704SOL    HW233401   1.115   8.191   4.154 -0.6785 -0.8761 -0.7377
10705SOL     OW33402   8.448   8.541   6.792 -0.4453  0.9556  0.6829
10705SOL    HW133403   8.392   8.577   6.861 -2.9665 -0.2559 -0.5643
10705SOL    HW233404   8.434   8.598   6.717 -2.0392 -0.7099 -0.3712
10706SOL     OW33405   2.451   8.710   7.590  0.3112  0.2631 -0.2073
10706SOL    HW133406   2.377   8.760   7.555 -0.1425  0.2044  0.6504
10706SOL    HW233407   2.411   8.633   7.631  0.9412 -0.3637 -0.7395
10707SOL     OW33408   1.847   6.630   6.835  0.0178 -0.0121  0.3975
10707SOL    HW133409   1.757   6.662   6.834 -0.3122 -0.9147  0.7044
10707SOL    HW233410   1.860   6.596   6.923  0.8289  0.5612  0.5150
10708SOL     OW33411   1.852   2.255   8.038 -0.3720  0.3627 -0.4386
10708SOL    HW133412   1.923   2.284   8.095 -0.8925 -1.2433  1.1400
10708SOL    HW233413   1.890   2.255   7.951  0.6110  2.4410 -0.0807
10709SOL     OW33414   5.039   0.117   1.647 -0.4094 -0.4257 -0.8637
10709SOL    HW133415   4.989   0.142   1.725 -0.8327 -1.5528 -0.7482
10709SOL    HW233416   5.087   0.039   1.674  0.2194 -0.2476 -1.4452
10710SOL     OW33417   2.635   6.468   1.834  0.1394  0.0626 -0.3142
10710SOL    HW133418   2.616   6.510   1.750  1.1785  0.1504 -0.5209
10710SOL    HW233419   2.641   6.541   1.896 -0.9241 -0.0224 -0.0800
10711SOL     OW33420   7.847   3.674   3.945 -0.1768  0.6142  0.6798
10711SOL    HW133421   7.755   3.652   3.963 -0.2490  0.5838  0.2944
10711SOL    HW233422   7.862   3.756   3.993 -0.7721  1.2759 -0.2236
10712SOL     OW33423   8.024   4.548   7.839  0.4808 -0.1281 -0.3927
10712SOL    HW133424   7.949   4.495   7.867 -0.0084  0.8243  0.1404
10712SOL    HW233425   8.100   4.491   7.854  0.2183  0.1776  2.5721
10713SOL     OW33426   6.621   3.193   7.071 -0.1215  0.1506  0.4342
10713SOL    HW133427   6.645   3.261   7.133 -1.9346  0.7515  0.5086
10713SOL    HW233428   6.595   3.119   7.125 -0.8458  0.3715  0.3987
10714SOL     OW33429   1.339   1.403   5.101  0.2123  0.0963  0.2066
10714SOL    HW133430   1.378   1.460   5.167 -0.8701 -0.0607  1.0272
10714SOL    HW233431   1.325   1.320   5.147 -0.1705 -0.1469 -0.3408
10715SOL     OW33432   6.395   4.199   5.832 -0.2399  0.3367  0.0613
10715SOL    HW133433   6.383   4.215   5.926 -1.4443  1.6622 -0.2747
10715SOL    HW233434   6.315   4.234   5.792 -0.7599 -2.2142 -1.2814
10716SOL     OW33435   7.526   4.313   5.820  0.3322  0.1430 -0.3913
10716SOL    HW133436   7.468   4.238   5.833  0.7250  0.1002  1.2138
10716SOL    HW233437   7.469   4.389   5.830  0.2641  0.0807 -0.3034
10717SOL     OW33438   5.545   2.902   4.667  0.8869 -0.2124  0.1341
10717SOL    HW133439   5.604   2.845   4.716  0.2137 -1.8853 -0.8881
10717SOL    HW233440   5.598   2.938   4.596  0.9347 -0.9985 -0.2468
10718SOL     OW33441   4.119   5.932   1.638  0.6100 -0.5484 -0.4566
10718SOL    HW133442   4.141   5.840   1.624 -0.8079 -1.2112  1.2188
10718SOL    HW233443   4.023   5.934   1.641  0.5642  1.2167 -1.6959
10719SOL     OW33444   6.376   5.571   3.591  0.3186 -0.4909  0.2275
10719SOL    HW133445   6.317   5.561   3.516 -1.1589  1.8334  0.9896
10719SOL    HW233446   6.358   5.494   3.646 -0.2064 -1.0668 -0.7241
10720SOL     OW33447   7.361   0.384   2.643 -0.3057  0.1670 -0.2682
10720SOL    HW133448   7.455   0.392   2.661 -0.1987  0.2519 -0.8462
10720SOL    HW233449   7.321   0.371   2.729  0.3519 -0.9616 -0.1188
10721SOL     OW33450   3.030   1.684   0.357 -0.0813 -0.2745  0.6716
10721SOL    HW133451   3.094   1.706   0.425 -0.9659  3.4909  0.5017
10721SOL    HW233452   3.074   1.705   0.275 -0.3535 -1.1097  0.2948
10722SOL     OW33453   7.413   0.667   0.217 -0.4269  0.8020 -0.1348
10722SOL    HW133454   7.418   0.759   0.192 -1.3630  0.6510 -0.9732
10722SOL    HW233455   7.465   0.621   0.152  1.9488  0.8944  1.5671
10723SOL     OW33456   3.282   5.941   6.213 -0.6625 -0.1776 -0.2092
10723SOL    HW133457   3.237   5.970   6.134 -1.3330 -0.0851  0.1931
10723SOL    HW233458   3.278   6.017   6.272 -0.4528 -0.3511  0.0300
10724SOL     OW33459   6.294   1.342   4.648 -0.2883  0.0112 -0.1624
10724SOL    HW133460   6.345   1.397   4.707 -0.7005  2.0121 -1.5635
10724SOL    HW233461   6.272   1.399   4.574  1.6264 -2.7405 -3.1446
10725SOL     OW33462   2.296   1.539   6.934  1.1850 -0.2495  0.2800
10725SOL    HW133463   2.362   1.600   6.965  0.9859 -0.4763  1.1717
10725SOL    HW233464   2.228   1.539   7.002  0.9136 -1.0275  0.0292
10726SOL     OW33465   2.441   7.598   0.263  0.1158  0.0060  0.3594
10726SOL    HW133466   2.416   7.564   0.348 -0.9026 -2.2310 -0.7587
10726SOL    HW233467   2.500   7.532   0.227  0.2586  0.7369 -0.8200
10727SOL     OW33468   6.358   5.420   6.063 -0.2310  0.0520  0.1800
10727SOL    HW133469   6.318   5.430   6.149  0.8649 -0.4421  0.7700
10727SOL    HW233470   6.388   5.508   6.040 -2.1910  0.5809 -0.5874
10728SOL     OW33471   3.645   1.409   1.773 -0.0116 -0.1440 -0.0835
10728SOL    HW133472   3.643   1.336   1.711  0.2314  0.4136 -0.7648
10728SOL    HW233473   3.585   1.474   1.737 -0.3153 -0.0482  0.5733
10729SOL     OW33474   6.077   7.119   4.571  0.5716 -0.7263 -0.4070
10729SOL    HW133475   5.995   7.137   4.526 -0.0233  0.4093  1.0452
10729SOL    HW233476   6.051   7.102   4.662  2.0349  1.6704  0.5648
10730SOL     OW33477   5.469   0.359   0.579 -0.3703 -0.2523  0.4100
10730SOL    HW133478   5.443   0.434   0.634  1.1887 -0.1020  1.0085
10730SOL    HW233479   5.443   0.384   0.491 -1.2366  0.3270  0.8063
10731SOL     OW33480   5.739   5.869   3.654 -0.3749 -0.0840 -1.0488
10731SOL    HW133481   5.716   5.861   3.562 -1.8298  0.9423 -0.8108
10731SOL    HW233482   5.674   5.929   3.690  1.2904  1.0331  0.2411
10732SOL     OW33483   1.555   4.917   5.751 -0.0465  0.0074 -0.4393
10732SOL    HW133484   1.579   5.009   5.762 -0.2648 -0.0440  0.5095
10732SOL    HW233485   1.637   4.872   5.733  0.2768  0.1690  0.5860
10733SOL     OW33486   1.608   6.068   7.357 -0.4029 -0.7509 -0.1481
10733SOL    HW133487   1.538   6.079   7.421 -0.8993 -0.8417 -0.6626
10733SOL    HW233488   1.663   6.146   7.368 -1.4149  0.0731 -0.7274
10734SOL     OW33489   6.480   1.556   6.180  0.4148  0.1385 -0.3219
10734SOL    HW133490   6.457   1.607   6.102  0.0123  0.5158  0.0363
10734SOL    HW233491   6.457   1.466   6.158 -0.7883  0.4034 -0.2252
10735SOL     OW33492   1.125   4.040   5.577  0.0010 -0.0838  0.5511
10735SOL    HW133493   1.057   4.071   5.516  0.1123 -0.4913  0.2151
10735SOL    HW233494   1.205   4.082   5.547  0.1817 -0.8111 -0.0026
10736SOL     OW33495   7.154   2.611   6.321 -0.3360  0.1865 -0.5371
10736SOL    HW133496   7.130   2.519   6.321  0.0189  0.0846  0.2766
10736SOL    HW233497   7.231   2.616   6.377 -0.6822  1.0597 -0.1097
10737SOL     OW33498   3.107   7.014   3.829  0.5346 -0.0898 -0.3787
10737SOL    HW133499   3.093   7.095   3.781 -1.4494 -0.0371  0.2184
10737SOL    HW233500   3.116   6.947   3.761 -0.1371  0.2893 -0.8457
10738SOL     OW33501   2.493   4.701   6.381  0.0904 -0.1895  0.4664
10738SOL    HW133502   2.565   4.699   6.319 -0.8875  0.7594 -0.7629
10738SOL    HW233503   2.477   4.794   6.397 -0.7456 -0.3799  0.8325
10739SOL     OW33504   0.530   1.614   3.818  0.0999 -0.0237  0.0057
10739SOL    HW133505   0.457   1.644   3.872  1.4106  0.9037  1.3305
10739SOL    HW233506   0.578   1.694   3.796  0.5963 -0.5887 -1.0576
10740SOL     OW33507   1.686   7.036   4.244 -0.4741  0.8220  0.0268
10740SOL    HW133508   1.612   7.080   4.202 -0.6835  1.2160  0.8055
10740SOL    HW233509   1.658   6.945   4.253 -0.8661  0.9720  0.3282
10741SOL     OW33510   0.846   7.518   3.140 -0.1350  0.1598 -0.1732
10741SOL    HW133511   0.867   7.598   3.093  0.3386 -0.5636 -1.2325
10741SOL    HW233512   0.778   7.475   3.087 -0.1242 -0.3151  0.1843
10742SOL     OW33513   4.623   1.335   3.258  0.0453 -0.9063 -0.9574
10742SOL    HW133514   4.645   1.300   3.171 -0.6253 -2.7527 -0.4196
10742SOL    HW233515   4.539   1.381   3.244 -0.2458 -1.5083 -1.2166
10743SOL     OW33516   6.991   0.941   6.010 -0.0324  0.3173  0.7361
10743SOL    HW133517   7.036   0.885   6.073 -1.5726  0.4162  1.9847
10743SOL    HW233518   6.960   0.881   5.942  0.2946 -0.0273  0.8914
10744SOL     OW33519   4.135   6.599   4.290  0.6948 -0.0665  0.0985
10744SOL    HW133520   4.174   6.678   4.327 -1.7289  0.0815  2.6491
10744SOL    HW233521   4.065   6.632   4.233  0.5813 -0.3702  0.0624
10745SOL     OW33522   3.721   6.861   3.955 -0.6834  0.0221  0.6223
10745SOL    HW133523   3.658   6.879   4.025 -1.0053  0.3920  0.2387
10745SOL    HW233524   3.685   6.905   3.878  1.0238  1.9805  0.8400
10746SOL     OW33525   5.860   4.077   4.760 -0.2916  0.5164 -0.2745
10746SOL    HW133526   5.839   4.162   4.797  0.3013  0.9671 -0.9619
10746SOL    HW233527   5.918   4.095   4.686  1.2095 -0.5734  0.5613
10747SOL     OW33528   6.231   4.402   3.984  0.1661  0.5327  0.3743
10747SOL    HW133529   6.163   4.413   3.918 -0.7885  0.1036  1.2604
10747SOL    HW233530   6.194   4.339   4.046  1.7994 -0.5420  0.3092
10748SOL     OW33531   1.405   4.766   4.615 -0.0324 -0.5629  0.1632
10748SOL    HW133532   1.393   4.799   4.704  0.4314  0.1263 -0.0163
10748SOL    HW233533   1.375   4.675   4.618 -1.2293 -0.1727  0.7093
10749SOL     OW33534   3.375   8.332   4.373 -0.5387  0.2717  0.4102
10749SOL    HW133535   3.310   8.368   4.314 -0.7999 -2.9057 -1.5127
10749SOL    HW233536   3.459   8.347   4.328 -0.6045 -0.9096 -0.1568
10750SOL     OW33537   4.279   7.886   3.269 -0.1355  0.3140 -0.2106
10750SOL    HW133538   4.353   7.926   3.315  1.8111  0.0509 -2.8398
10750SOL    HW233539   4.288   7.792   3.287 -1.2371  0.4586  1.2710
10751SOL     OW33540   7.202   2.198   3.600  0.2999 -0.0171 -0.4487
10751SOL    HW133541   7.160   2.173   3.683  0.4114 -1.4134 -0.7940
10751SOL    HW233542   7.235   2.116   3.564  0.9215  0.6816 -1.5231
10752SOL     OW33543   5.403   3.328   8.648  0.2803 -0.3070 -0.0572
10752SOL    HW133544   5.322   3.355   8.690 -0.2540 -0.5010 -0.9416
10752SOL    HW233545   5.376   3.294   8.562  1.3275  0.0099 -0.5295
10753SOL     OW33546   0.855   4.068   1.840  0.0117  0.0483  0.3202
10753SOL    HW133547   0.866   3.974   1.827 -0.0579 -0.2129  1.9156
10753SOL    HW233548   0.857   4.079   1.935 -1.6422  1.4547  0.2465
10754SOL     OW33549   7.928   0.991   8.274 -0.4312  0.0946 -0.2439
10754SOL    HW133550   7.958   1.080   8.290 -0.2865  0.4599 -2.2200
10754SOL    HW233551   7.844   1.002   8.228 -0.1088 -0.7412 -1.0741
10755SOL     OW33552   3.434   5.170   4.368  0.1207  0.1974  0.2063
10755SOL    HW133553   3.435   5.105   4.298 -2.2755  0.0256  0.2324
10755SOL    HW233554   3.472   5.248   4.329  0.8210 -0.5129 -0.5850
10756SOL     OW33555   6.055   7.093   4.870 -0.3173 -1.0219 -0.7864
10756SOL    HW133556   6.060   7.057   4.959 -1.3470 -1.5722 -0.9398
10756SOL    HW233557   5.978   7.052   4.832 -1.0066  0.6921 -1.2915
10757SOL     OW33558   5.901   2.967   5.731 -0.0620 -0.1438  0.5191
10757SOL    HW133559   5.879   2.894   5.788  2.4315 -1.4833 -0.0624
10757SOL    HW233560   5.913   3.041   5.791 -3.1034  0.0365  1.0688
10758SOL     OW33561   4.574   4.810   4.347  0.5246 -0.3669  0.3285
10758SOL    HW133562   4.524   4.891   4.356 -1.5461 -1.3665 -1.3494
10758SOL    HW233563   4.534   4.750   4.410 -0.3800 -1.1317 -0.9265
10759SOL     OW33564   4.597   5.911   6.213  0.2856 -0.0960  0.0560
10759SOL    HW133565   4.615   5.821   6.186  0.0502  0.1909 -1.1258
10759SOL    HW233566   4.520   5.904   6.269 -1.0016 -0.4580 -1.6579
10760SOL     OW33567   3.230   4.115   4.528 -0.3288 -0.6464 -0.3118
10760SOL    HW133568   3.142   4.101   4.563 -0.0650 -2.1058 -0.1500
10760SOL    HW233569   3.276   4.165   4.595 -0.9856 -0.0305 -0.3207
10761SOL     OW33570   5.911   5.620   1.185 -0.2993 -0.6604 -0.5110
10761SOL    HW133571   5.961   5.684   1.236  0.1088 -1.8336  0.6201
10761SOL    HW233572   5.956   5.537   1.201 -2.0524 -1.6027 -0.2209
10762SOL     OW33573   2.449   6.925   4.790  0.1982 -0.4260 -0.4235
10762SOL    HW133574   2.373   6.896   4.741 -0.5033  1.5197 -0.5820
10762SOL    HW233575   2.469   7.011   4.754  1.2560 -0.0560  0.9689
10763SOL     OW33576   6.976   8.579   0.228  0.4240 -0.3316 -0.0987
10763SOL    HW133577   7.052   8.528   0.197  0.7931 -0.0285  0.2900
10763SOL    HW233578   7.002   8.670   0.216  0.1183 -0.2263  0.0436
10764SOL     OW33579   7.597   5.507   3.835  0.0415 -0.0046 -0.0800
10764SOL    HW133580   7.689   5.483   3.829  0.1789  0.0938  1.2905
10764SOL    HW233581   7.567   5.466   3.917 -1.6015 -1.5632 -1.3778
10765SOL     OW33582   5.971   4.800   1.023 -0.6874  0.4027  0.1531
10765SOL    HW133583   5.906   4.744   0.980  0.4336 -0.5190 -0.4012
10765SOL    HW233584   5.992   4.867   0.958 -2.8643  2.2579  1.2120
10766SOL     OW33585   7.356   4.056   8.384 -0.1826  0.1030  0.3258
10766SOL    HW133586   7.284   4.035   8.443 -0.0972 -1.1107  0.0165
10766SOL    HW233587   7.435   4.034   8.433 -0.1365 -3.1907 -0.9724
10767SOL     OW33588   3.460   0.381   3.130 -0.0437  0.3228  0.2540
10767SOL    HW133589   3.379   0.361   3.177 -0.6023 -0.9239 -1.1264
10767SOL    HW233590   3.434   0.383   3.037  1.3550  0.7422 -0.1603
10768SOL     OW33591   3.371   7.149   0.268 -0.2257  0.0791 -0.1411
10768SOL    HW133592   3.466   7.151   0.278 -0.1900 -0.6212 -0.2996
10768SOL    HW233593   3.355   7.082   0.202 -0.9423 -1.2110  1.2855
10769SOL     OW33594   5.173   7.682   4.180  0.2518 -0.2955 -0.1551
10769SOL    HW133595   5.255   7.636   4.197  0.4745 -0.3281 -1.2516
10769SOL    HW233596   5.133   7.635   4.107 -0.5468 -0.0299  0.0962
10770SOL     OW33597   6.433   5.252   8.411 -0.0565 -0.2985 -0.2056
10770SOL    HW133598   6.450   5.168   8.453 -0.1553  0.0481  0.5502
10770SOL    HW233599   6.367   5.294   8.467 -1.5162 -0.5350 -1.6516
10771SOL     OW33600   7.256   7.873   3.231 -0.0279  0.4281  0.0980
10771SOL    HW133601   7.177   7.824   3.252 -1.1654  0.8925 -2.7476
10771SOL    HW233602   7.226   7.948   3.181  2.2475  0.1892 -1.7960
10772SOL     OW33603   6.939   6.890   5.583  0.2998 -0.3953  0.4795
10772SOL    HW133604   6.852   6.872   5.619 -0.0791 -1.1094 -0.7128
10772SOL    HW233605   6.966   6.972   5.625 -1.6074  0.6548 -0.1921
10773SOL     OW33606   0.795   6.868   4.452  0.1590  0.1009 -0.3972
10773SOL    HW133607   0.764   6.944   4.403 -1.7216 -1.0525 -1.1497
10773SOL    HW233608   0.874   6.898   4.497  0.4326  1.9887 -1.9927
10774SOL     OW33609   6.706   4.006   8.001 -0.5650 -0.1597  0.0557
10774SOL    HW133610   6.800   4.000   8.020 -0.1182  1.6546 -1.2028
10774SOL    HW233611   6.663   3.998   8.086  0.7319 -0.9889  0.6603
10775SOL     OW33612   1.246   3.880   1.258 -0.2181 -0.4498 -0.5073
10775SOL    HW133613   1.262   3.858   1.166 -1.6858  0.7821 -1.0957
10775SOL    HW233614   1.151   3.881   1.266 -0.1267  0.5825  0.7481
10776SOL     OW33615   1.588   2.473   7.569  0.3397 -0.2424  0.2440
10776SOL    HW133616   1.613   2.545   7.510 -0.8459 -0.1408 -0.1561
10776SOL    HW233617   1.626   2.497   7.653  0.4510  0.5685 -0.0244
10777SOL     OW33618   7.683   4.882   6.748 -0.1623  0.5242  0.4129
10777SOL    HW133619   7.698   4.897   6.842 -0.0912 -0.6463  0.6073
10777SOL    HW233620   7.685   4.969   6.709  0.4861  0.9732  1.4045
10778SOL     OW33621   1.775   3.636   5.587 -0.2717  0.0481 -0.3939
10778SOL    HW133622   1.867   3.643   5.560  0.0988 -1.9589  0.1965
10778SOL    HW233623   1.725   3.645   5.506  0.5753 -1.1615 -1.0785
10779SOL     OW33624   7.688   6.037   4.104 -0.4235  0.4271 -0.2172
10779SOL    HW133625   7.701   6.054   4.011  0.3054  1.0770 -0.0082
10779SOL    HW233626   7.607   6.083   4.126 -1.0879 -0.4620 -0.7024
10780SOL     OW33627   7.341   2.290   5.796  0.9546 -0.1010 -0.2869
10780SOL    HW133628   7.293   2.222   5.749 -0.4551 -0.7094  1.9224
10780SOL    HW233629   7.424   2.250   5.819  0.3278 -0.9320  0.5730
10781SOL     OW33630   2.537   4.738   6.666  0.1031 -0.4093 -0.4269
10781SOL    HW133631   2.503   4.740   6.576 -0.2131 -0.2344 -0.3013
10781SOL    HW233632   2.473   4.688   6.716  0.0593 -0.1290 -0.2028
10782SOL     OW33633   8.539   2.750   8.010  0.1902  0.5395 -0.1727
10782SOL    HW133634   8.598   2.798   7.952  1.2808 -1.0870 -0.4684
10782SOL    HW233635   8.478   2.706   7.951  1.3081 -1.1247 -0.1364
10783SOL     OW33636   2.144   6.575   3.497  0.3160 -0.5025  0.1261
10783SOL    HW133637   2.212   6.616   3.444  1.2139 -2.8181 -0.5972
10783SOL    HW233638   2.066   6.575   3.441  0.9791 -1.9702 -0.8530
10784SOL     OW33639   4.404   8.295   2.506  0.0615 -0.0559  0.0964
10784SOL    HW133640   4.375   8.206   2.525  0.9744 -0.6797 -1.2357
10784SOL    HW233641   4.346   8.325   2.436 -0.3418  0.4659  0.6468
10785SOL     OW33642   2.931   6.828   4.981  0.7219  0.3884 -0.8546
10785SOL    HW133643   2.975   6.773   5.046 -0.5260 -0.4045 -0.6327
10785SOL    HW233644   2.845   6.845   5.019  0.1898  0.4177 -2.0274
10786SOL     OW33645   6.000   4.258   7.801  0.1100  0.6545  0.3497
10786SOL    HW133646   6.001   4.212   7.717 -0.0523 -1.4442  1.4443
10786SOL    HW233647   5.908   4.283   7.813  0.1139  0.8646 -0.0238
10787SOL     OW33648   6.927   8.077   6.846  0.0552 -0.5381  0.5663
10787SOL    HW133649   6.950   8.162   6.883  1.2716 -0.9032  0.6824
10787SOL    HW233650   6.908   8.022   6.921  1.6134 -1.0150  0.6581
10788SOL     OW33651   4.798   0.866   4.786 -0.7388  0.0689  0.1556
10788SOL    HW133652   4.858   0.792   4.780  0.8473  1.2679  0.5944
10788SOL    HW233653   4.747   0.850   4.866  0.9842  0.3985  1.3704
10789SOL     OW33654   6.668   5.353   7.061 -0.2594 -0.1018  0.7401
10789SOL    HW133655   6.710   5.312   6.985  1.1875  1.5215  0.5987
10789SOL    HW233656   6.694   5.445   7.056 -2.2011  0.5657  1.8314
10790SOL     OW33657   1.885   4.123   4.915 -0.0322  0.7133 -0.4690
10790SOL    HW133658   1.875   4.206   4.962  0.5633 -0.1158  1.1765
10790SOL    HW233659   1.963   4.135   4.862  0.4906  0.9615  0.3390
10791SOL     OW33660   0.475   3.401   1.020  0.0668 -0.3155 -0.6067
10791SOL    HW133661   0.428   3.481   0.998  2.3310  1.1080 -0.6389
10791SOL    HW233662   0.565   3.417   0.990  1.3093 -1.6455  2.0077
10792SOL     OW33663   1.253   4.877   5.200  0.0443  0.0787 -0.0427
10792SOL    HW133664   1.236   4.874   5.294 -1.1621  0.3707 -0.2365
10792SOL    HW233665   1.266   4.970   5.180  1.0476 -0.0490 -0.0594
10793SOL     OW33666   1.379   8.209   0.046  0.3360 -0.1647 -0.2797
10793SOL    HW133667   1.295   8.240   0.078  0.4929  1.8426 -1.6204
10793SOL    HW233668   1.436   8.209   0.123 -0.1801  1.1926  0.1154
10794SOL     OW33669   3.434   6.123   3.873 -0.1049 -0.5798 -0.1721
10794SOL    HW133670   3.493   6.129   3.948 -0.0072 -0.6273 -0.2449
10794SOL    HW233671   3.349   6.153   3.906  0.2247  0.6272 -0.3673
10795SOL     OW33672   1.937   8.176   1.282  0.4753 -0.1626  0.1055
10795SOL    HW133673   1.977   8.258   1.250 -0.4811 -0.0480 -0.8432
10795SOL    HW233674   1.984   8.107   1.235 -0.3625 -0.0313 -0.9490
10796SOL     OW33675   0.763   8.622   0.939 -0.4504 -0.0227 -0.0536
10796SOL    HW133676   0.763   8.715   0.961 -0.3336 -0.0843  0.2069
10796SOL    HW233677   0.801   8.619   0.850  0.3897  0.0976  0.2892
10797SOL     OW33678   7.900   6.198   1.992  0.0722  0.3228 -0.1795
10797SOL    HW133679   7.852   6.152   2.061  1.9608 -2.5911 -0.6073
10797SOL    HW233680   7.841   6.267   1.963 -1.6828  0.2324  2.7681
10798SOL     OW33681   4.262   2.033   5.177  0.4412 -0.6478  0.0203
10798SOL    HW133682   4.189   2.030   5.115 -0.3835 -2.3451  0.9677
10798SOL    HW233683   4.220   2.043   5.263  1.0369 -3.8719  0.8321
10799SOL     OW33684   4.245   5.139   1.804  0.2065 -0.2694 -0.4521
10799SOL    HW133685   4.255   5.083   1.880 -3.1436 -2.0539 -1.1193
10799SOL    HW233686   4.154   5.169   1.808  0.7298  1.8236 -2.3246
10800SOL     OW33687   0.341   4.303   3.380  0.6105  0.4139  0.7518
10800SOL    HW133688   0.286   4.270   3.308  0.8782 -1.4028  1.3350
10800SOL    HW233689   0.398   4.368   3.339 -0.2760  0.5176 -0.3632
10801SOL     OW33690   8.365   7.879   6.389 -0.3272  0.0277 -0.1233
10801SOL    HW133691   8.441   7.935   6.405 -0.0680 -0.1187 -0.8140
10801SOL    HW233692   8.401   7.792   6.373 -0.7450 -0.3958  1.1593
10802SOL     OW33693   2.871   1.471   0.394  0.2804 -0.2350 -0.4067
10802SOL    HW133694   2.929   1.546   0.382  0.2478  0.0829  1.2170
10802SOL    HW233695   2.912   1.401   0.344  2.9440 -0.4608  1.8854
10803SOL     OW33696   7.705   6.547   5.464 -0.6422  0.3025 -0.8361
10803SOL    HW133697   7.679   6.639   5.473 -1.6319 -0.0446 -0.0308
10803SOL    HW233698   7.736   6.522   5.551  0.7816  0.1928 -1.3387
10804SOL     OW33699   1.734   7.544   3.337  0.6251  0.3607  0.2957
10804SOL    HW133700   1.732   7.449   3.325 -0.0177  0.4636 -0.5142
10804SOL    HW233701   1.652   7.575   3.298 -0.3702  1.0266  2.7329
10805SOL     OW33702   7.930   5.321   5.538 -0.3108 -0.0537  0.0218
10805SOL    HW133703   7.865   5.350   5.474 -0.2711  0.8974  0.3976
10805SOL    HW233704   7.880   5.308   5.619 -0.1229  0.1448  0.1702
10806SOL     OW33705   7.483   3.866   5.654  0.0228 -0.7001 -0.0289
10806SOL    HW133706   7.414   3.827   5.602 -0.2601  1.2482 -1.2313
10806SOL    HW233707   7.534   3.918   5.592  2.1508 -1.4955  0.9533
10807SOL     OW33708   1.462   0.943   7.670  0.4352 -0.1846  0.5692
10807SOL    HW133709   1.489   1.027   7.633 -0.9327  0.8217  1.7371
10807SOL    HW233710   1.544   0.902   7.698  1.0113  1.8481  2.1335
10808SOL     OW33711   4.360   3.940   8.470 -0.3546 -0.1481  0.3486
10808SOL    HW133712   4.451   3.970   8.464 -0.0739 -0.5120  2.2639
10808SOL    HW233713   4.342   3.901   8.385  1.7407 -1.2909  0.3647
10809SOL     OW33714   4.766   2.730   7.959 -0.6462 -1.0707 -0.0015
10809SOL    HW133715   4.740   2.754   8.048 -1.6969  1.4235 -0.8857
10809SOL    HW233716   4.751   2.636   7.953  1.7165 -1.8229  3.1463
10810SOL     OW33717   0.377   2.237   5.870  0.0452 -0.4407  0.3370
10810SOL    HW133718   0.289   2.273   5.861 -1.0624 -2.4640  2.1020
10810SOL    HW233719   0.408   2.270   5.954  0.7350 -0.2712  0.0274
10811SOL     OW33720   8.103   6.756   8.424  0.0422 -0.1828  0.1242
10811SOL    HW133721   8.113   6.743   8.518  1.1589  0.0256  0.0518
10811SOL    HW233722   8.022   6.710   8.402  0.6025 -1.6240  0.9230
10812SOL     OW33723   5.287   3.915   0.138 -0.2302 -0.6437  0.2578
10812SOL    HW133724   5.292   4.010   0.132 -1.5134 -0.4778  1.2523
10812SOL    HW233725   5.364   3.884   0.091 -0.4407  0.8358 -1.1620
10813SOL     OW33726   8.554   8.432   1.473 -0.3584  0.5637  0.2045
10813SOL    HW133727   8.626   8.417   1.411 -2.1951 -1.1515 -1.7015
10813SOL    HW233728   8.563   8.362   1.538 -0.4009  0.2241 -0.1496
10814SOL     OW33729   6.580   2.956   1.317  0.6907 -0.5343 -0.3681
10814SOL    HW133730   6.512   2.973   1.253  0.3955  0.4573  0.1843
10814SOL    HW233731   6.540   2.978   1.401  1.4808 -0.5651  0.0295
10815SOL     OW33732   4.929   6.007   1.085 -0.4192  0.4842  0.0767
10815SOL    HW133733   4.836   5.994   1.106 -0.2822 -0.8386 -0.0443
10815SOL    HW233734   4.971   6.023   1.170 -0.6491  0.4170  0.2039
10816SOL     OW33735   7.244   1.389   0.173 -0.2529  0.2264 -0.3057
10816SOL    HW133736   7.194   1.426   0.246 -0.7634  1.4975 -1.2530
10816SOL    HW233737   7.250   1.460   0.110 -1.4913 -1.3420 -2.3441
10817SOL     OW33738   4.000   3.868   7.179 -0.0519 -0.3447  0.2187
10817SOL    HW133739   4.013   3.796   7.117 -1.9335 -1.3755  0.9302
10817SOL    HW233740   4.028   3.832   7.263  1.0906  0.5482  0.2487
10818SOL     OW33741   2.118   8.095   6.678  0.5368  0.4008  0.2751
10818SOL    HW133742   2.035   8.128   6.713 -1.1469 -2.3687 -0.7693
10818SOL    HW233743   2.157   8.172   6.635 -2.2122  1.5333 -0.4792
10819SOL     OW33744   3.322   3.345   0.246  0.5950 -0.0895 -0.5978
10819SOL    HW133745   3.393   3.280   0.239 -0.9166 -1.9403  0.4304
10819SOL    HW233746   3.286   3.349   0.157 -1.7080 -3.6691 -0.0510
10820SOL     OW33747   6.837   3.112   7.439  0.4095 -0.2778 -0.2010
10820SOL    HW133748   6.798   3.179   7.496  0.4569 -1.0609  0.7730
10820SOL    HW233749   6.913   3.156   7.400 -1.9362  1.6745 -3.0487
10821SOL     OW33750   1.285   3.942   3.216 -0.3709 -0.2306 -0.2169
10821SOL    HW133751   1.201   3.957   3.260 -1.0445 -0.5822 -1.3478
10821SOL    HW233752   1.346   4.000   3.262 -1.5809  1.2699 -0.4241
10822SOL     OW33753   3.424   4.831   4.557 -0.1229  0.0293  0.8010
10822SOL    HW133754   3.493   4.843   4.492 -1.7465  0.8601 -0.8709
10822SOL    HW233755   3.470   4.807   4.637  1.9932 -0.9386 -0.6029
10823SOL     OW33756   4.631   4.212   5.061 -0.0297 -0.1612  0.0946
10823SOL    HW133757   4.720   4.189   5.087  0.2827  0.3429 -0.5144
10823SOL    HW233758   4.635   4.306   5.042 -0.8324 -0.0012  0.6407
10824SOL     OW33759   3.103   3.110   7.195  0.6526 -0.2941  0.0916
10824SOL    HW133760   3.022   3.064   7.175  0.0826  0.9105 -0.4631
10824SOL    HW233761   3.098   3.191   7.145  1.2730  0.7233  1.5917
10825SOL     OW33762   6.283   6.183   1.912  0.6841  0.1526  0.2639
10825SOL    HW133763   6.299   6.198   2.006 -1.0614  1.3607  0.4131
10825SOL    HW233764   6.187   6.184   1.904  0.7828 -0.6976 -1.4373
10826SOL     OW33765   2.196   2.847   0.309 -0.1945 -0.2234  0.3047
10826SOL    HW133766   2.206   2.911   0.239 -0.3850 -0.0905  0.3980
10826SOL    HW233767   2.286   2.823   0.333 -0.1144  0.2260  0.4670
10827SOL     OW33768   7.768   1.594   2.968  0.0552  0.2835 -0.4543
10827SOL    HW133769   7.748   1.680   2.930  1.1455  0.6260 -0.2882
10827SOL    HW233770   7.846   1.609   3.021  0.2418 -0.8076 -0.3948
10828SOL     OW33771   5.879   7.215   0.643  0.3719  0.8087 -0.1776
10828SOL    HW133772   5.952   7.154   0.655 -0.2915  0.4024  2.4856
10828SOL    HW233773   5.801   7.160   0.643 -0.0740  1.4154 -0.9198
10829SOL     OW33774   5.112   2.870   1.797  0.2980 -0.3243 -0.4618
10829SOL    HW133775   5.198   2.912   1.787  0.4213  0.0978  1.8914
10829SOL    HW233776   5.076   2.908   1.877 -1.8605 -0.9323 -1.0826
10830SOL     OW33777   0.859   6.885   0.168  0.1710 -0.1093  0.2485
10830SOL    HW133778   0.856   6.789   0.162  3.1762 -0.2314 -1.1224
10830SOL    HW233779   0.796   6.915   0.104  0.9803 -1.2466 -1.1316
10831SOL     OW33780   6.185   8.218   2.545 -0.0169  0.3784 -0.2273
10831SOL    HW133781   6.226   8.291   2.591 -0.0844  0.9957 -1.1300
10831SOL    HW233782   6.108   8.256   2.504  0.2420 -0.0801 -1.1564
10832SOL     OW33783   0.998   0.632   7.508  0.0374 -0.2762 -0.5317
10832SOL    HW133784   0.935   0.560   7.498  0.3289 -1.0006  2.0766
10832SOL    HW233785   0.943   0.709   7.522 -0.2927 -0.6189  0.1150
10833SOL     OW33786   6.981   7.636   4.135 -0.7133 -0.5420 -0.3683
10833SOL    HW133787   7.048   7.691   4.174 -1.3979  0.5393 -0.6866
10833SOL    HW233788   7.030   7.574   4.080  0.0457 -0.0948 -0.2076
10834SOL     OW33789   7.881   5.742   3.951 -0.5377 -0.3150 -0.3439
10834SOL    HW133790   7.905   5.676   3.887 -1.2469 -0.4763 -0.4577
10834SOL    HW233791   7.932   5.819   3.927 -1.5252 -0.0537 -1.7394
10835SOL     OW33792   7.744   6.071   8.641 -0.4696  0.8276  0.6243
10835SOL    HW133793   7.798   6.100   8.567  1.0692 -0.5947  1.1269
10835SOL    HW233794   7.712   5.985   8.615 -1.3635  1.0669  0.9144
10836SOL     OW33795   3.591   7.454   3.227 -0.3471  0.0517 -0.1014
10836SOL    HW133796   3.573   7.454   3.133 -0.1130  2.0514 -0.1856
10836SOL    HW233797   3.563   7.367   3.257 -3.7708  0.5693 -1.3817
10837SOL     OW33798   3.088   4.693   2.651  0.6536  0.7601 -0.4430
10837SOL    HW133799   3.124   4.726   2.734  0.6732 -1.3596  0.4526
10837SOL    HW233800   3.030   4.622   2.677 -0.3220  0.8587 -2.2102
10838SOL     OW33801   6.140   3.583   5.487 -0.2271 -0.0579 -0.5644
10838SOL    HW133802   6.104   3.579   5.576  0.1871  0.7371 -0.3454
10838SOL    HW233803   6.083   3.527   5.435 -1.4250  0.7099 -0.1117
10839SOL     OW33804   1.512   1.383   6.937  0.5364  0.1037 -0.4815
10839SOL    HW133805   1.555   1.386   6.851  0.9399  0.1948 -0.2797
10839SOL    HW233806   1.565   1.322   6.988 -0.3700 -0.8490 -0.6468
10840SOL     OW33807   4.784   6.579   3.308 -0.1246  0.0184 -0.4427
10840SOL    HW133808   4.823   6.554   3.224  0.0384  1.0288 -0.6773
10840SOL    HW233809   4.695   6.608   3.286  0.5644  2.1849 -0.5717
10841SOL     OW33810   0.942   6.379   6.773  0.3449 -0.8113 -0.0885
10841SOL    HW133811   1.035   6.358   6.784  0.4794 -0.9234 -1.3202
10841SOL    HW233812   0.925   6.447   6.838  1.7375  0.4731 -1.0130
10842SOL     OW33813   0.674   5.641   5.367 -0.0532 -0.1073  0.1553
10842SOL    HW133814   0.672   5.545   5.366 -1.1511 -0.1050  0.7973
10842SOL    HW233815   0.687   5.665   5.275 -0.2083 -0.8713 -0.0747
10843SOL     OW33816   7.154   7.922   4.489  0.1224  0.4353  0.0579
10843SOL    HW133817   7.236   7.969   4.476  0.7520 -0.4192  0.8335
10843SOL    HW233818   7.143   7.871   4.408  0.9753 -0.3376  0.4041
10844SOL     OW33819   3.082   6.997   1.303 -0.5681 -0.3712 -0.0317
10844SOL    HW133820   3.103   7.002   1.396 -0.5507  1.1370 -0.1019
10844SOL    HW233821   2.995   7.036   1.295 -1.7958 -2.9093 -0.3172
10845SOL     OW33822   5.016   6.432   0.073 -0.6998  0.0653  0.2411
10845SOL    HW133823   4.996   6.456   0.163  0.1311  0.1588  0.4081
10845SOL    HW233824   5.105   6.465   0.058 -0.0093 -1.7464  0.0596
10846SOL     OW33825   8.237   3.080   6.317  0.3084 -0.2168  0.2342
10846SOL    HW133826   8.184   3.026   6.258  0.1017  0.1774  0.0594
10846SOL    HW233827   8.326   3.047   6.306  0.2165 -0.3696 -0.0414
10847SOL     OW33828   1.290   4.775   0.614  0.2807  0.2961  0.4423
10847SOL    HW133829   1.258   4.831   0.684  1.3117  2.2574 -0.5629
10847SOL    HW233830   1.299   4.833   0.538  1.8154 -1.1170 -0.5562
10848SOL     OW33831   4.547   1.971   7.040 -0.1935  0.6116 -0.1555
10848SOL    HW133832   4.595   1.889   7.057 -2.5888 -0.7979  0.3648
10848SOL    HW233833   4.560   1.988   6.947  0.6918 -0.1130 -0.1801
10849SOL     OW33834   3.545   5.817   5.709  0.2710 -0.2474  0.5726
10849SOL    HW133835   3.488   5.838   5.634  0.0799 -0.2616  0.7132
10849SOL    HW233836   3.488   5.824   5.785 -0.0209 -2.1005  0.5633
10850SOL     OW33837   1.518   5.820   5.112 -0.2884  0.0920 -0.3297
10850SOL    HW133838   1.605   5.791   5.083  0.7747  0.8947  1.8389
10850SOL    HW233839   1.480   5.743   5.154  0.9358  0.6351  1.9459
10851SOL     OW33840   0.152   5.246   3.027 -0.0170  0.7720 -0.0330
10851SOL    HW133841   0.203   5.189   3.085  0.1762  1.2840  0.3131
10851SOL    HW233842   0.088   5.188   2.986  1.3681 -0.0577 -1.1078
10852SOL     OW33843   1.214   7.155   8.188  0.1767  0.3696 -0.3981
10852SOL    HW133844   1.272   7.225   8.159 -1.1321  1.2908 -0.9135
10852SOL    HW233845   1.256   7.075   8.159  1.2655  0.9910 -0.6043
10853SOL     OW33846   0.529   0.679   8.602 -0.8347 -0.4277 -0.0998
10853SOL    HW133847   0.619   0.706   8.584 -0.9059 -1.2172 -1.7646
10853SOL    HW233848   0.476   0.735   8.545 -1.5379  0.9669  1.8295
10854SOL     OW33849   4.906   5.978   1.600 -0.2593  0.3503  0.6750
10854SOL    HW133850   4.859   5.905   1.642  1.0574 -0.0371  1.5337
10854SOL    HW233851   4.837   6.038   1.573 -1.5059 -1.7481 -1.1817
10855SOL     OW33852   4.222   5.003   3.466  0.5726  0.0226  1.4619
10855SOL    HW133853   4.146   5.025   3.411  0.8114 -1.1322  0.6505
10855SOL    HW233854   4.192   4.930   3.520  1.7359 -1.9681 -0.4333
10856SOL     OW33855   1.765   1.533   5.523  0.0774  0.2574  1.3719
10856SOL    HW133856   1.795   1.451   5.484 -1.2119  1.8653 -3.7956
10856SOL    HW233857   1.833   1.556   5.586  2.1811 -3.0898  0.5784
10857SOL     OW33858   7.607   6.134   8.028 -0.0550 -0.2845  0.1593
10857SOL    HW133859   7.557   6.068   8.076  0.6243 -1.2160 -0.3959
10857SOL    HW233860   7.649   6.187   8.096 -0.3474 -0.6099  0.5986
10858SOL     OW33861   4.023   4.122   8.486 -0.1011 -0.0459  0.0685
10858SOL    HW133862   4.117   4.119   8.470 -0.3008 -0.3512 -1.1959
10858SOL    HW233863   4.002   4.215   8.490  0.2328  0.0241  0.1838
10859SOL     OW33864   2.621   5.342   1.109  0.7088 -0.4780  0.3023
10859SOL    HW133865   2.528   5.322   1.109  0.2754  1.3408 -0.5630
10859SOL    HW233866   2.634   5.398   1.186  0.9064 -0.0271 -0.0521
10860SOL     OW33867   8.401   6.065   6.044  0.0465 -0.0710 -0.1317
10860SOL    HW133868   8.364   5.980   6.067 -0.1961  0.0826  0.0430
10860SOL    HW233869   8.375   6.124   6.115  2.7753 -0.5130  1.3903
10861SOL     OW33870   0.489   1.985   6.596 -0.6252 -0.4569  0.0771
10861SOL    HW133871   0.489   1.897   6.559  1.7508 -1.1781  1.6167
10861SOL    HW233872   0.424   1.981   6.666  0.2751 -1.3311  0.8716
10862SOL     OW33873   5.421   6.979   4.118  0.5099  0.0737 -0.7003
10862SOL    HW133874   5.375   6.903   4.083 -0.0171  0.0071  0.1213
10862SOL    HW233875   5.512   6.968   4.088  0.2193 -0.3364 -1.4459
10863SOL     OW33876   1.747   1.497   7.702 -0.0213  0.3569  0.2303
10863SOL    HW133877   1.659   1.461   7.720  0.9109 -1.5785  1.2298
10863SOL    HW233878   1.731   1.590   7.686 -2.3613 -0.0915 -0.5228
10864SOL     OW33879   6.518   0.606   6.527 -0.6525  0.1902 -0.1340
10864SOL    HW133880   6.429   0.572   6.542  0.4982 -2.8307  0.5131
10864SOL    HW233881   6.522   0.686   6.580 -1.9054 -1.5104  2.7196
10865SOL     OW33882   0.855   5.629   8.525 -0.4449  0.3197  0.2420
10865SOL    HW133883   0.900   5.675   8.454  0.8371 -2.9678 -1.3284
10865SOL    HW233884   0.781   5.586   8.482 -0.9099 -0.0177  1.3564
10866SOL     OW33885   3.315   7.401   3.843 -0.0791  0.3750 -0.7179
10866SOL    HW133886   3.278   7.313   3.833 -1.9025  0.8226  1.2144
10866SOL    HW233887   3.370   7.413   3.766  0.6419 -2.6344 -0.7981
10867SOL     OW33888   1.171   5.243   1.500 -0.0536 -0.2084  0.2237
10867SOL    HW133889   1.169   5.328   1.544 -2.4313  0.3975 -0.9008
10867SOL    HW233890   1.125   5.184   1.560  0.4563 -0.3979  0.4299
10868SOL     OW33891   2.424   4.819   4.067  0.2238  0.5853 -0.1416
10868SOL    HW133892   2.509   4.777   4.077 -0.3115 -0.5405 -0.1279
10868SOL    HW233893   2.390   4.786   3.984  0.3148  1.9851 -0.7529
10869SOL     OW33894   5.111   4.739   2.695 -0.2810  0.6958 -0.0089
10869SOL    HW133895   5.147   4.682   2.626 -0.2642 -2.3906  2.3381
10869SOL    HW233896   5.186   4.759   2.751 -0.6200  1.7000  0.0987
10870SOL     OW33897   8.661   0.819   4.675  0.1044  0.3653  0.4689
10870SOL    HW133898   8.748   0.805   4.711  0.5963 -0.1037 -0.8304
10870SOL    HW233899   8.665   0.780   4.587 -0.7477  2.2035 -0.4495
10871SOL     OW33900   8.709   7.393   3.632  0.2477  0.4900 -0.5996
10871SOL    HW133901   8.800   7.415   3.652  0.1193  1.3699 -0.9459
10871SOL    HW233902   8.687   7.323   3.693  1.3386 -0.1483 -0.9076
10872SOL     OW33903   3.646   0.374   1.741 -0.0487  0.1544  0.4925
10872SOL    HW133904   3.558   0.339   1.726 -0.4023  1.3800 -0.4963
10872SOL    HW233905   3.672   0.339   1.826 -1.0648 -1.0693  0.3270
10873SOL     OW33906   0.505   0.718   1.363  0.4522  0.2341 -0.2390
10873SOL    HW133907   0.511   0.790   1.425  3.2525 -1.4427  1.6689
10873SOL    HW233908   0.428   0.668   1.390  0.2689  0.8243  0.3532
10874SOL     OW33909   2.698   8.183   2.092  0.2256  0.2434 -0.2157
10874SOL    HW133910   2.727   8.234   2.168  1.7835 -0.0600 -0.5647
10874SOL    HW233911   2.613   8.147   2.118  1.1178 -0.6104  1.7878
10875SOL     OW33912   0.995   1.810   7.370 -0.6396 -0.1455  0.3346
10875SOL    HW133913   0.916   1.863   7.373 -0.3036  0.3360  0.9197
10875SOL    HW233914   1.033   1.819   7.457  0.7459  0.7053 -0.3221
10876SOL     OW33915   4.442   5.650   7.064  0.1371  0.0368  0.0905
10876SOL    HW133916   4.425   5.644   7.158 -0.2265  0.6009  0.0689
10876SOL    HW233917   4.503   5.579   7.046  0.6160  0.2431  0.8441
10877SOL     OW33918   2.918   8.075   3.472  0.1538 -0.0986 -0.1540
10877SOL    HW133919   2.916   8.167   3.444 -1.2000  0.5078  1.7158
10877SOL    HW233920   2.924   8.080   3.567 -0.2826 -1.9582  0.0001
10878SOL     OW33921   4.282   0.969   6.133  0.3435 -0.3925 -0.7695
10878SOL    HW133922   4.243   1.055   6.145 -1.6699 -1.2591 -0.6309
10878SOL    HW233923   4.377   0.984   6.134  0.0293  1.7841 -0.7398
10879SOL     OW33924   8.181   2.485   0.565  0.2720  0.0431 -0.1679
10879SOL    HW133925   8.090   2.492   0.594 -0.2871  0.3777 -1.8924
10879SOL    HW233926   8.192   2.393   0.542  0.6527 -0.1784  0.8442
10880SOL     OW33927   1.065   0.080   8.031  0.2204 -0.2076  0.5193
10880SOL    HW133928   1.048   0.135   7.955  1.2477  0.3073  0.6377
10880SOL    HW233929   1.011   0.117   8.100  1.1325  0.8877  0.6835
10881SOL     OW33930   6.426   1.562   8.545  0.5070  0.8064  0.0301
10881SOL    HW133931   6.437   1.487   8.487 -0.1732  0.5205  0.2542
10881SOL    HW233932   6.497   1.554   8.609  0.5243  0.4333 -0.0325
10882SOL     OW33933   4.714   1.754   7.725 -0.2785 -0.2304  0.2221
10882SOL    HW133934   4.648   1.790   7.784  0.6549  0.9717  0.5886
10882SOL    HW233935   4.684   1.665   7.706  0.5490 -1.6826  4.5180
10883SOL     OW33936   0.225   6.708   7.992  0.0649 -0.0043  0.2411
10883SOL    HW133937   0.206   6.793   7.952 -0.0992  0.1586  0.6688
10883SOL    HW233938   0.232   6.726   8.085 -1.1035 -0.6464  0.4683
10884SOL     OW33939   7.436   0.760   7.705 -0.3689 -0.0287 -0.2716
10884SOL    HW133940   7.443   0.671   7.670  1.2585 -0.5449  1.2350
10884SOL    HW233941   7.465   0.752   7.795 -0.3747  2.0302 -0.0580
10885SOL     OW33942   2.326   7.503   3.074 -0.5295 -0.3052 -0.5901
10885SOL    HW133943   2.293   7.571   3.016 -0.3492 -0.1553 -0.5183
10885SOL    HW233944   2.413   7.533   3.100 -0.7697 -0.1649  0.0929
10886SOL     OW33945   0.549   1.955   0.251  0.2458 -0.2348  0.3481
10886SOL    HW133946   0.533   1.868   0.287  0.1924  0.1503  1.3020
10886SOL    HW233947   0.498   1.959   0.171  0.0561 -0.9937  0.4279
10887SOL     OW33948   7.380   0.338   1.719 -0.4722 -0.6138  0.2768
10887SOL    HW133949   7.408   0.318   1.808  0.4437  0.9857  0.3730
10887SOL    HW233950   7.362   0.432   1.719 -1.3210 -0.7449 -1.0125
10888SOL     OW33951   8.159   8.299   3.609  0.0266  0.2520 -0.2020
10888SOL    HW133952   8.218   8.371   3.585 -0.5968  0.7810 -0.2026
10888SOL    HW233953   8.081   8.314   3.555 -1.0220  0.9043  1.4352
10889SOL     OW33954   5.203   0.443   4.168 -0.0600 -0.3573  0.0645
10889SOL    HW133955   5.217   0.498   4.246  0.4196 -2.2120  1.3544
10889SOL    HW233956   5.166   0.362   4.203  1.7802 -1.9213 -1.4108
10890SOL     OW33957   7.918   8.683   1.223 -0.0442 -0.2077 -0.3637
10890SOL    HW133958   7.941   8.735   1.300 -2.0816  0.6472 -0.2501
10890SOL    HW233959   7.914   8.747   1.152 -1.5030 -0.3464 -0.4465
10891SOL     OW33960   2.534   3.369   1.796  0.5764 -0.4130  0.3709
10891SOL    HW133961   2.593   3.319   1.739  0.5408 -0.6648  0.5582
10891SOL    HW233962   2.458   3.387   1.741  0.6579 -0.4232  0.2527
10892SOL     OW33963   1.812   4.632   7.631  0.1204  0.3800  0.4328
10892SOL    HW133964   1.875   4.666   7.567 -0.7447  0.0839 -0.6069
10892SOL    HW233965   1.751   4.580   7.579 -0.1950 -0.4681  1.6155
10893SOL     OW33966   8.561   8.670   2.043  0.8816  0.5579  0.4666
10893SOL    HW133967   8.578   8.580   2.070  0.7312  0.3506 -0.1084
10893SOL    HW233968   8.546   8.718   2.124  1.5086  0.1775  0.8127
10894SOL     OW33969   6.476   8.659   4.883 -0.5724  0.5684  0.0076
10894SOL    HW133970   6.483   8.740   4.833 -1.5505  0.1534 -0.8276
10894SOL    HW233971   6.532   8.673   4.959 -1.6133  2.4672  0.4803
10895SOL     OW33972   6.075   3.144   4.981  0.1658  0.3528 -0.1316
10895SOL    HW133973   6.088   3.095   5.062  3.2727 -1.9397 -1.8393
10895SOL    HW233974   6.001   3.101   4.939 -0.1174  0.2156  0.4877
10896SOL     OW33975   6.760   0.477   5.290  1.0714  0.0406 -0.3478
10896SOL    HW133976   6.788   0.472   5.381 -0.2188 -1.1998  0.0190
10896SOL    HW233977   6.836   0.449   5.240  1.7631  0.6444  0.3483
10897SOL     OW33978   5.019   3.573   7.719  0.6337  0.6769  0.2828
10897SOL    HW133979   4.931   3.547   7.746  0.3463  1.6358  0.2995
10897SOL    HW233980   5.009   3.663   7.690  1.4871  0.5666 -0.3614
10898SOL     OW33981   7.288   0.823   2.634  0.8586  0.7218  0.1890
10898SOL    HW133982   7.276   0.795   2.724 -0.4677 -1.8691 -0.6984
10898SOL    HW233983   7.200   0.839   2.601  1.3337  1.7600 -0.6407
10899SOL     OW33984   3.911   1.668   7.572 -0.3778 -0.1671 -0.4836
10899SOL    HW133985   3.992   1.657   7.523 -0.9968 -0.2342 -1.5385
10899SOL    HW233986   3.900   1.762   7.580  0.3282 -0.1688  0.5819
10900SOL     OW33987   7.623   8.542   0.726  0.3911  0.2145  0.6517
10900SOL    HW133988   7.696   8.527   0.665  0.1751 -2.1173  0.8729
10900SOL    HW233989   7.545   8.545   0.670  0.3439 -0.4223  0.6829
10901SOL     OW33990   0.037   0.653   1.846 -0.5021  0.4026  0.3867
10901SOL    HW133991  -0.001   0.577   1.801 -1.3346  0.7060  0.5475
10901SOL    HW233992  -0.033   0.682   1.906  1.0753 -0.9138  3.0471
10902SOL     OW33993   3.427   0.212   1.608  0.6312 -0.1793  0.5834
10902SOL    HW133994   3.408   0.120   1.589  0.9009 -0.1145 -0.0130
10902SOL    HW233995   3.341   0.252   1.621  0.4287 -0.2118 -0.5955
10903SOL     OW33996   0.792   1.804   2.863 -0.0416  0.3499 -0.3915
10903SOL    HW133997   0.780   1.858   2.785  1.4974  0.0370 -0.8815
10903SOL    HW233998   0.787   1.866   2.936 -2.5412  0.5000 -0.6047
10904SOL     OW33999   8.363   1.092   2.185  0.9204 -0.4099  0.5481
10904SOL    HW134000   8.383   1.044   2.104  0.2088 -0.6183  0.4963
10904SOL    HW234001   8.353   1.183   2.156 -1.7515 -0.8000 -0.0389
10905SOL     OW34002   0.886   0.651   1.145 -0.0413 -0.0686 -0.2712
10905SOL    HW134003   0.928   0.644   1.231  0.5303  0.6568 -0.4742
10905SOL    HW234004   0.952   0.617   1.084 -0.4660 -0.6332 -0.4251
10906SOL     OW34005   6.357   2.070   6.840  0.2718 -0.2003  0.2037
10906SOL    HW134006   6.282   2.038   6.791  0.2610  0.2336 -0.0701
10906SOL    HW234007   6.432   2.055   6.782  0.4084 -0.7016  0.5061
10907SOL     OW34008   3.244   8.166   5.266 -0.0500 -0.3688  0.1296
10907SOL    HW134009   3.207   8.080   5.250 -0.7397  0.0297 -0.5037
10907SOL    HW234010   3.283   8.160   5.353 -2.6581 -0.4743  1.3626
10908SOL     OW34011   5.738   7.967   8.657 -0.0282 -0.4003 -0.1673
10908SOL    HW134012   5.714   8.039   8.599  0.4002  1.1060  1.4362
10908SOL    HW234013   5.815   7.927   8.617  0.7067  1.0804 -0.2865
10909SOL     OW34014   7.700   8.139   0.056  0.0184 -0.4269  0.0563
10909SOL    HW134015   7.643   8.183   0.118  0.9905  0.6002  0.2490
10909SOL    HW234016   7.771   8.103   0.109  0.7563  0.2953 -0.4193
10910SOL     OW34017   6.217   6.850   4.080  0.4306 -0.6155  0.1118
10910SOL    HW134018   6.291   6.835   4.139 -0.5757 -0.4317  1.4622
10910SOL    HW234019   6.155   6.902   4.132 -0.2818 -0.0348 -1.2776
10911SOL     OW34020   0.179   4.228   6.953 -0.4867  0.2648 -0.6574
10911SOL    HW134021   0.103   4.239   6.896 -1.0968 -0.9166 -0.1039
10911SOL    HW234022   0.160   4.283   7.029 -0.6477  0.2035 -0.6530
10912SOL     OW34023   6.323   6.124   4.437  0.4339  0.8704  0.5648
10912SOL    HW134024   6.364   6.173   4.508  0.6988 -0.5444  1.4178
10912SOL    HW234025   6.337   6.032   4.459  0.7596  0.3863 -1.4623
10913SOL     OW34026   2.442   3.456   2.816  0.0757 -0.3859  0.2501
10913SOL    HW134027   2.442   3.518   2.890 -0.2748 -0.5139  0.3596
10913SOL    HW234028   2.466   3.372   2.855  0.3385 -0.3670  0.1369
10914SOL     OW34029   7.318   7.262   7.750 -0.0378  0.9089  0.0721
10914SOL    HW134030   7.396   7.316   7.760  1.0864 -0.1756 -2.0302
10914SOL    HW234031   7.290   7.278   7.660 -1.0592 -0.2269  0.1654
10915SOL     OW34032   4.006   6.030   1.288  0.0873  0.1634  0.2933
10915SOL    HW134033   4.091   6.066   1.262  0.8780 -0.3630  2.0296
10915SOL    HW234034   3.983   6.077   1.367  0.5814 -2.1919  1.9543
10916SOL     OW34035   0.462   8.098   5.331  0.2510 -0.4924  0.3776
10916SOL    HW134036   0.539   8.068   5.282 -0.1461 -1.0594  0.0820
10916SOL    HW234037   0.493   8.108   5.421  0.5161 -1.3495  0.3899
10917SOL     OW34038   5.081   6.007   0.858 -0.0060 -0.2910 -0.1991
10917SOL    HW134039   5.169   6.019   0.893  0.9343  0.0372 -2.5038
10917SOL    HW234040   5.028   5.981   0.934  2.6072 -3.2079  0.8299
10918SOL     OW34041   6.939   4.770   7.337  0.5046 -0.2652  0.1650
10918SOL    HW134042   6.844   4.782   7.329  0.3886 -0.5644  0.9793
10918SOL    HW234043   6.970   4.849   7.381  0.6617 -0.0990 -0.2375
10919SOL     OW34044   6.894   4.749   4.023 -0.9343 -0.3079 -0.1090
10919SOL    HW134045   6.838   4.759   4.100 -1.1890 -2.0811 -0.0246
10919SOL    HW234046   6.855   4.676   3.974  0.8633 -1.1229 -0.4121
10920SOL     OW34047   6.863   3.655   5.887 -0.2425  0.1957 -0.5966
10920SOL    HW134048   6.891   3.708   5.813  0.8978 -0.6770 -0.8065
10920SOL    HW234049   6.783   3.612   5.857 -1.5243  2.1486 -0.2366
10921SOL     OW34050   8.398   6.275   6.678  0.0806 -0.0737 -0.8791
10921SOL    HW134051   8.350   6.197   6.707  0.0058 -0.1226 -1.1300
10921SOL    HW234052   8.330   6.333   6.644  0.0877  0.2731 -0.3166
10922SOL     OW34053   3.773   8.175   4.490 -0.0295 -0.1723 -0.8068
10922SOL    HW134054   3.772   8.224   4.408  0.8653 -1.5836 -1.7111
10922SOL    HW234055   3.710   8.104   4.476 -0.4672  0.0384  0.0469
10923SOL     OW34056   8.345   3.748   1.039  0.1131 -0.0953  0.2833
10923SOL    HW134057   8.377   3.815   0.978  0.0089  1.0460  1.4356
10923SOL    HW234058   8.253   3.735   1.015 -0.4697  1.7277  1.3301
10924SOL     OW34059   7.011   2.021   6.491  0.2656  0.1442  0.4043
10924SOL    HW134060   6.959   1.948   6.457 -1.4572  1.4202  0.1647
10924SOL    HW234061   6.996   2.019   6.585  0.9063 -0.2909  0.5071
10925SOL     OW34062   0.246   0.378   2.723  0.4365  0.2330 -0.3330
10925SOL    HW134063   0.293   0.460   2.708  0.7823 -0.3215 -2.7279
10925SOL    HW234064   0.167   0.386   2.670  0.0734 -0.6466  0.0550
10926SOL     OW34065   4.904   7.621   1.044 -0.0476 -0.0136  0.2235
10926SOL    HW134066   4.938   7.667   1.121  0.3379 -2.8966  1.9016
10926SOL    HW234067   4.979   7.571   1.011 -0.4942  0.3458 -1.4111
10927SOL     OW34068   7.281   6.316   6.950 -0.5047 -0.4658 -0.3891
10927SOL    HW134069   7.340   6.354   7.015 -1.1946 -0.3859  0.2019
10927SOL    HW234070   7.312   6.226   6.940  0.2528 -0.1722 -0.7377
10928SOL     OW34071   8.414   5.904   6.377 -0.0010 -0.4641 -0.0124
10928SOL    HW134072   8.327   5.923   6.413  0.3152 -0.6275  0.8876
10928SOL    HW234073   8.399   5.889   6.284 -0.8980 -0.2258  0.0808
10929SOL     OW34074   8.343   2.166   4.117 -0.0421 -0.4193  0.0732
10929SOL    HW134075   8.433   2.176   4.149 -0.1586  0.0329  0.2691
10929SOL    HW234076   8.332   2.072   4.106  0.4199 -0.4881  0.1496
10930SOL     OW34077   4.619   4.003   1.541 -0.5929  0.2842  0.3949
10930SOL    HW134078   4.646   4.094   1.542  1.7679 -0.3033 -0.7983
10930SOL    HW234079   4.537   4.002   1.492 -0.0004  1.6424 -0.6704
10931SOL     OW34080   5.360   2.258   6.633 -0.2902 -0.0810 -0.4317
10931SOL    HW134081   5.340   2.278   6.542 -2.0961  0.7143  0.0864
10931SOL    HW234082   5.285   2.207   6.664 -0.6930  1.3547  1.1182
10932SOL     OW34083   3.578   1.580   4.871 -0.3438  0.3100 -0.0397
10932SOL    HW134084   3.539   1.600   4.785  0.7829  0.2636 -0.5836
10932SOL    HW234085   3.670   1.605   4.862  0.3754 -1.9325  0.3577
10933SOL     OW34086   4.584   3.134   0.728 -0.1573 -0.2308 -0.2503
10933SOL    HW134087   4.496   3.097   0.729  0.4654 -1.8834 -1.6758
10933SOL    HW234088   4.579   3.205   0.663 -0.0725 -1.4229 -1.6047
10934SOL     OW34089   1.496   2.884   7.063  0.5484  0.1645  0.4855
10934SOL    HW134090   1.444   2.839   7.129  0.9734 -0.5208  0.3704
10934SOL    HW234091   1.452   2.967   7.049  0.3587  0.2422  1.5069
10935SOL     OW34092   4.348   0.969   6.910 -0.0060 -0.6067 -0.5697
10935SOL    HW134093   4.419   0.906   6.901  1.1476  0.6612 -0.5502
10935SOL    HW234094   4.287   0.946   6.839 -0.2814 -2.5203  0.2052
10936SOL     OW34095   6.651   5.418   3.606  0.0273 -0.0410 -0.1388
10936SOL    HW134096   6.656   5.500   3.556  1.8342 -0.2746 -0.3980
10936SOL    HW234097   6.739   5.405   3.640  0.3478 -2.8975 -1.7453
10937SOL     OW34098   6.510   4.308   8.052  0.6229  0.6387 -0.3754
10937SOL    HW134099   6.421   4.340   8.037  0.4231 -0.1155 -0.8465
10937SOL    HW234100   6.499   4.230   8.106  1.1172  1.3786  0.8561
10938SOL     OW34101   6.339   3.398   7.283 -0.0242 -0.2541 -0.3142
10938SOL    HW134102   6.316   3.318   7.331 -0.4931  0.1599  0.1672
10938SOL    HW234103   6.346   3.369   7.192  2.4817 -1.3753  0.1631
10939SOL     OW34104   1.277   2.538   3.794 -0.0741 -0.1748 -0.5532
10939SOL    HW134105   1.260   2.531   3.700 -1.6060  1.2487 -0.4205
10939SOL    HW234106   1.332   2.616   3.802  2.0046 -1.5695 -0.4292
10940SOL     OW34107   2.849   1.816   3.925  0.0242  0.3184  0.2402
10940SOL    HW134108   2.789   1.805   3.999 -0.8448 -0.6750 -0.5779
10940SOL    HW234109   2.932   1.839   3.965 -0.5789  0.4123  1.4918
10941SOL     OW34110   3.290   4.067   2.325  0.1666  0.2662  0.1546
10941SOL    HW134111   3.325   4.099   2.408 -1.3194  0.8969  0.5846
10941SOL    HW234112   3.316   4.133   2.260  0.9503  0.0033  0.2030
10942SOL     OW34113   1.607   4.349   5.549  0.0664 -0.5656  0.4953
10942SOL    HW134114   1.602   4.299   5.630 -2.4486 -1.2006  0.0355
10942SOL    HW234115   1.600   4.441   5.577 -0.1560 -0.7503  1.0517
10943SOL     OW34116   0.502   8.287   5.792  0.4895 -0.0923  0.2185
10943SOL    HW134117   0.447   8.209   5.794 -2.5168  1.8731  0.8199
10943SOL    HW234118   0.567   8.273   5.861  0.0125 -2.0191  0.3161
10944SOL     OW34119   6.913   4.838   6.973 -0.2335  0.2823 -0.3431
10944SOL    HW134120   6.945   4.780   7.042  0.1526  0.4139 -0.4069
10944SOL    HW234121   6.921   4.926   7.009 -0.9317  0.2905 -0.2029
10945SOL     OW34122   2.947   5.552   8.148  0.1074  0.0303  0.3082
10945SOL    HW134123   2.961   5.458   8.160  0.1749 -0.0223 -0.1460
10945SOL    HW234124   2.899   5.580   8.226 -0.9067 -0.5950 -0.0796
10946SOL     OW34125   7.276   3.947   2.967  0.4598  0.5383 -0.9443
10946SOL    HW134126   7.305   3.873   3.020 -0.1203  0.1404 -1.1634
10946SOL    HW234127   7.321   4.022   3.004 -1.1940  0.5630  1.2656
10947SOL     OW34128   3.112   7.191   1.919 -0.1333  0.0082  0.4554
10947SOL    HW134129   3.148   7.259   1.862  1.7406 -1.6420 -0.4589
10947SOL    HW234130   3.175   7.183   1.990 -0.6009 -0.4261  0.8338
10948SOL     OW34131   4.682   4.289   1.597  0.1370  0.4529  0.1631
10948SOL    HW134132   4.711   4.326   1.514  0.0652 -0.9588 -0.5217
10948SOL    HW234133   4.689   4.361   1.659  3.7791  0.5961 -0.2265
10949SOL     OW34134   5.913   4.222   3.238 -0.6304  0.0791  0.5212
10949SOL    HW134135   5.823   4.218   3.271 -0.3269 -0.8671  1.3091
10949SOL    HW234136   5.905   4.207   3.144 -1.3061  0.1065  0.5686
10950SOL     OW34137   7.745   2.847   4.297  0.1449  0.2062 -0.4024
10950SOL    HW134138   7.833   2.853   4.334 -0.0387 -0.7680  0.2148
10950SOL    HW234139   7.736   2.926   4.243  1.2230  0.5386 -0.1085
10951SOL     OW34140   2.513   1.674   4.742 -0.3021 -0.2770 -0.2452
10951SOL    HW134141   2.468   1.737   4.685  0.9917  1.5973  0.7129
10951SOL    HW234142   2.487   1.700   4.830  1.9913  0.3637  0.2881
10952SOL     OW34143   1.714   3.395   2.186  0.0557 -0.6625  0.5010
10952SOL    HW134144   1.643   3.347   2.229  1.6443 -1.5255  2.2726
10952SOL    HW234145   1.689   3.487   2.194 -1.5114 -0.9951 -0.1656
10953SOL     OW34146   5.718   7.387   7.822 -0.0540  0.0661  0.1853
10953SOL    HW134147   5.670   7.461   7.785  2.5987  1.3558 -0.9324
10953SOL    HW234148   5.737   7.413   7.912  2.6935  1.8804 -0.7790
10954SOL     OW34149   4.071   4.946   6.509 -0.2475 -0.8605  0.0753
10954SOL    HW134150   4.025   4.867   6.479 -0.8402  0.0751 -1.6338
10954SOL    HW234151   4.161   4.918   6.525 -0.7411 -2.1299  0.7167
10955SOL     OW34152   2.437   3.362   7.488 -0.1724  0.0545  0.2742
10955SOL    HW134153   2.509   3.422   7.470 -0.5734 -0.0934 -2.1525
10955SOL    HW234154   2.428   3.364   7.583  1.3602  2.0192  0.4555
10956SOL     OW34155   5.080   1.553   4.896 -0.2093  0.2493  0.6316
10956SOL    HW134156   5.083   1.466   4.856  0.4761  0.9945 -1.0217
10956SOL    HW234157   5.148   1.551   4.964 -1.1863 -0.9377  1.6339
10957SOL     OW34158   8.634   4.163   8.519  0.4090  0.2455  0.9435
10957SOL    HW134159   8.685   4.230   8.564 -0.7082  1.2964  0.6877
10957SOL    HW234160   8.553   4.156   8.569  0.7759 -1.4350  1.3712
10958SOL     OW34161   5.785   7.753   1.241 -0.1661 -0.2678 -0.3703
10958SOL    HW134162   5.753   7.736   1.152  0.1140 -0.0796 -0.5106
10958SOL    HW234163   5.773   7.847   1.253 -0.7564 -0.3845  0.0187
10959SOL     OW34164   7.722   8.651   7.059  0.0656 -0.1114 -0.3000
10959SOL    HW134165   7.682   8.664   7.145 -0.8622 -2.0571 -0.3590
10959SOL    HW234166   7.650   8.617   7.005  1.1311 -0.9760 -1.2231
10960SOL     OW34167   0.649   1.455   0.035  0.0425 -0.3845  0.5048
10960SOL    HW134168   0.673   1.389  -0.030 -1.8880 -1.1746  0.5058
10960SOL    HW234169   0.569   1.420   0.075 -0.2995  1.3571  1.4239
10961SOL     OW34170   6.890   5.780   1.793  0.0688 -0.3054  0.0137
10961SOL    HW134171   6.798   5.808   1.784 -0.5038 -1.5931  1.4357
10961SOL    HW234172   6.926   5.838   1.860  1.2887  2.2842 -2.6425
10962SOL     OW34173   5.453   5.558   2.049 -0.1925  0.4039 -0.1471
10962SOL    HW134174   5.388   5.489   2.030 -0.3066  0.6343 -0.6046
10962SOL    HW234175   5.408   5.617   2.110 -0.1402  0.1447  0.1436
10963SOL     OW34176   2.649   3.539   7.450 -0.2035 -0.0374  0.1749
10963SOL    HW134177   2.586   3.587   7.502 -0.7758 -1.2270  0.5972
10963SOL    HW234178   2.661   3.593   7.372 -2.4020 -0.1917 -0.3292
10964SOL     OW34179   7.286   3.138   6.935  0.0812 -0.1754 -0.4592
10964SOL    HW134180   7.264   3.087   6.857 -1.5149  2.4348 -1.8657
10964SOL    HW234181   7.319   3.221   6.901  0.4069  0.6364  1.6814
10965SOL     OW34182   4.459   4.885   5.601 -0.1259 -0.0475  0.0082
10965SOL    HW134183   4.502   4.931   5.674 -2.2588 -0.7250  1.8001
10965SOL    HW234184   4.500   4.922   5.523 -0.6274  3.8493  1.3465
10966SOL     OW34185   1.060   5.045   4.490 -0.0348  0.3860 -0.6076
10966SOL    HW134186   0.968   5.073   4.487 -0.4676 -0.7932  0.5343
10966SOL    HW234187   1.061   4.962   4.441  0.4404  0.4197 -0.6565
10967SOL     OW34188   0.080   6.810   2.406 -0.1277 -0.2815 -0.3851
10967SOL    HW134189   0.044   6.866   2.337  0.9084  0.0191 -0.6885
10967SOL    HW234190   0.159   6.771   2.368 -0.6772 -1.7648 -0.0959
10968SOL     OW34191   6.989   7.429   5.262  0.6931 -0.1062  0.1157
10968SOL    HW134192   7.022   7.441   5.351  2.6538 -3.8059  0.0868
10968SOL    HW234193   7.029   7.499   5.212  0.2876  1.4986  1.9240
10969SOL     OW34194   3.148   3.070   3.765 -0.0732 -0.1186  0.1054
10969SOL    HW134195   3.131   3.082   3.672  2.4339 -0.2781 -0.4282
10969SOL    HW234196   3.187   3.152   3.794  2.9099 -1.3773 -0.0084
10970SOL     OW34197   0.210   4.559   0.848 -0.6890 -0.2211 -0.2136
10970SOL    HW134198   0.234   4.491   0.784  0.9225  0.0269  0.1060
10970SOL    HW234199   0.117   4.542   0.866 -0.7765 -1.2421 -1.4617
10971SOL     OW34200   1.122   2.802   4.873  0.1904 -0.1200 -0.1659
10971SOL    HW134201   1.212   2.777   4.854 -0.5024 -2.0252 -1.2779
10971SOL    HW234202   1.098   2.748   4.949 -0.4783 -0.8952 -0.8945
10972SOL     OW34203   6.811   6.028   3.473  0.4436  0.3477 -0.8029
10972SOL    HW134204   6.806   5.933   3.462 -0.5058  0.3475 -0.4330
10972SOL    HW234205   6.895   6.043   3.515  0.1268 -0.4253  0.1239
10973SOL     OW34206   1.656   5.534   5.980  0.2371 -0.4211 -0.2570
10973SOL    HW134207   1.684   5.525   5.889 -0.9420  1.1558 -0.8074
10973SOL    HW234208   1.738   5.543   6.029  0.8417  1.1227 -1.4688
10974SOL     OW34209   1.809   3.185   8.212  0.0416  0.2494  0.4137
10974SOL    HW134210   1.754   3.261   8.196 -1.1850 -0.3942  1.3957
10974SOL    HW234211   1.827   3.186   8.306  2.9447  1.2101 -0.0538
10975SOL     OW34212   1.401   2.956   1.727 -0.3547  0.0281 -0.4149
10975SOL    HW134213   1.474   2.999   1.684 -0.6137  1.6862  0.7361
10975SOL    HW234214   1.350   2.917   1.655  1.4761 -0.9614 -1.2463
10976SOL     OW34215   0.069   3.367   6.884 -0.1058  0.1396  0.0195
10976SOL    HW134216   0.084   3.281   6.925  1.2780  0.2398 -0.2156
10976SOL    HW234217   0.137   3.423   6.921  0.5657  0.4846 -1.6485
10977SOL     OW34218   7.415   2.178   6.621 -0.1489 -0.3735  0.1858
10977SOL    HW134219   7.341   2.235   6.600  0.5854  0.2622 -0.8086
10977SOL    HW234220   7.381   2.117   6.687 -0.8215  1.5191  1.6829
10978SOL     OW34221   6.261   0.565   5.032 -0.4982 -0.1418  0.3846
10978SOL    HW134222   6.188   0.626   5.022  0.0599  0.2385 -2.0501
10978SOL    HW234223   6.339   0.620   5.031 -0.0062 -0.8022 -1.4681
10979SOL     OW34224   3.515   6.495   1.370 -0.1083  0.0234  0.0528
10979SOL    HW134225   3.438   6.476   1.424  0.0747 -0.2987  0.2015
10979SOL    HW234226   3.498   6.582   1.333 -0.0810  0.3904  0.8950
10980SOL     OW34227   4.495   0.547   1.898  0.4384  0.3880  0.1201
10980SOL    HW134228   4.552   0.623   1.911  0.3894  0.5646 -0.6427
10980SOL    HW234229   4.510   0.493   1.975  2.0599  0.1748 -0.2875
10981SOL     OW34230   2.043   1.016   3.055  0.3613 -0.0431  0.1400
10981SOL    HW134231   2.085   0.930   3.066 -0.4948 -0.8979 -2.3722
10981SOL    HW234232   2.029   1.048   3.144 -0.9795 -3.3934  1.3041
10982SOL     OW34233   4.550   1.270   1.252  0.4658 -0.4442  0.1724
10982SOL    HW134234   4.472   1.215   1.242  0.8702 -1.0582  0.3285
10982SOL    HW234235   4.596   1.232   1.327 -0.4642  1.6051  1.8739
10983SOL     OW34236   6.884   1.798   7.056 -0.3747 -0.0310  0.1064
10983SOL    HW134237   6.836   1.765   6.980 -3.2671 -0.1501  1.8582
10983SOL    HW234238   6.825   1.785   7.130  2.0242  0.7261  2.3253
10984SOL     OW34239   2.268   6.996   1.847 -0.2962 -0.2803  0.4040
10984SOL    HW134240   2.264   7.081   1.804 -1.0987  0.4524  1.8348
10984SOL    HW234241   2.235   7.012   1.936  2.2314 -1.4719  1.6834
10985SOL     OW34242   6.679   1.128   0.239 -0.0092 -0.2983  0.6513
10985SOL    HW134243   6.626   1.050   0.251 -0.5674 -0.0376 -0.0196
10985SOL    HW234244   6.622   1.201   0.264 -0.1920  0.0262 -0.6380
10986SOL     OW34245   4.389   6.715   7.423 -0.7253  0.4023  0.1193
10986SOL    HW134246   4.315   6.666   7.457 -1.5722  1.3076 -0.3766
10986SOL    HW234247   4.461   6.693   7.482 -1.8847  1.0815  1.8890
10987SOL     OW34248   5.036   3.447   0.905  0.5111  0.7131  0.2366
10987SOL    HW134249   5.037   3.512   0.835  1.5572 -0.3692 -0.7905
10987SOL    HW234250   4.946   3.415   0.906  0.5672  0.4808 -0.8786
10988SOL     OW34251   5.999   5.978   3.720  0.2683  0.0696  0.3069
10988SOL    HW134252   6.012   5.974   3.815  1.1309 -0.7953  0.1645
10988SOL    HW234253   5.905   5.963   3.708  0.1338  0.3106  1.0318
10989SOL     OW34254   4.422   4.752   6.413 -0.1348 -0.2894 -0.5572
10989SOL    HW134255   4.394   4.842   6.396 -0.3967 -0.4853 -1.1796
10989SOL    HW234256   4.416   4.743   6.508  0.2573  0.4675 -0.4463
10990SOL     OW34257   2.366   6.134   1.434  0.4306 -0.2001  0.2319
10990SOL    HW134258   2.286   6.089   1.463  0.9061 -0.8916  0.4685
10990SOL    HW234259   2.395   6.182   1.512 -0.4019  1.0328 -0.1768
10991SOL     OW34260   0.167   2.301   3.355  0.3724  0.6068 -0.3329
10991SOL    HW134261   0.076   2.270   3.351  0.1022  1.4018 -0.5339
10991SOL    HW234262   0.215   2.228   3.393 -0.6410  0.8232  1.4803
10992SOL     OW34263   6.534   7.399   4.341  0.0744 -0.4072  0.6186
10992SOL    HW134264   6.539   7.485   4.384  0.2273 -0.4018  0.5873
10992SOL    HW234265   6.621   7.384   4.306 -0.2475 -0.0663 -0.3600
10993SOL     OW34266   5.713   8.298   2.696  0.5903 -0.1748  0.0995
10993SOL    HW134267   5.746   8.313   2.784  1.1094 -1.9026  0.2289
10993SOL    HW234268   5.618   8.308   2.703  0.7288  0.9597  0.5585
10994SOL     OW34269   6.648   3.070   3.164 -0.3644 -0.2111  0.0435
10994SOL    HW134270   6.682   3.143   3.112 -0.6411  0.4914  0.8227
10994SOL    HW234271   6.609   3.011   3.100  1.1389 -0.3911 -0.7440
10995SOL     OW34272   1.006   2.750   5.178 -0.4349 -0.0205 -0.4011
10995SOL    HW134273   0.930   2.739   5.120 -1.9098  1.0126  1.2265
10995SOL    HW234274   1.019   2.845   5.183  0.4674 -0.1538 -0.0323
10996SOL     OW34275   4.293   4.320   1.959 -0.4346  0.7424  0.0268
10996SOL    HW134276   4.360   4.324   1.891 -0.3331  0.8176  0.1314
10996SOL    HW234277   4.228   4.258   1.925  0.7883 -1.1011  0.9045
10997SOL     OW34278   8.573   4.693   2.273  0.0329  0.6322 -0.4073
10997SOL    HW134279   8.648   4.735   2.316  0.6128 -0.2514 -0.5186
10997SOL    HW234280   8.584   4.715   2.180 -0.1561  0.9581 -0.3541
10998SOL     OW34281   4.049   0.071   4.271 -0.1251  0.6304  0.0403
10998SOL    HW134282   3.964   0.063   4.228 -0.2185 -0.6344  0.4267
10998SOL    HW234283   4.034   0.133   4.343 -0.0547  2.4699 -1.4436
10999SOL     OW34284   8.461   2.427   3.850  0.0622  0.6678  0.7944
10999SOL    HW134285   8.524   2.386   3.909  0.1686  0.7967  0.7717
10999SOL    HW234286   8.497   2.412   3.763 -0.2895  0.1407  0.7342
11000SOL     OW34287   1.653   7.354   1.303 -0.4907 -0.2730  0.4171
11000SOL    HW134288   1.749   7.358   1.293 -0.3297 -0.2324  1.7563
11000SOL    HW234289   1.628   7.274   1.257  0.3246 -0.8298  0.9172
11001SOL     OW34290   5.511   4.078   2.762 -0.0140 -0.5422 -0.2399
11001SOL    HW134291   5.589   4.127   2.736 -0.1053  0.4975  1.3759
11001SOL    HW234292   5.544   3.990   2.782  0.7401 -0.1327  0.3595
11002SOL     OW34293   6.275   2.835   1.308 -0.3929 -0.4465 -0.3851
11002SOL    HW134294   6.348   2.778   1.286 -0.0654 -0.9342  1.7429
11002SOL    HW234295   6.199   2.776   1.313 -0.7738 -0.0937 -1.6414
11003SOL     OW34296   4.731   2.602   3.976 -0.0575 -0.5518  1.0461
11003SOL    HW134297   4.672   2.670   3.944 -0.4780 -1.5243 -0.3240
11003SOL    HW234298   4.690   2.572   4.058 -2.8699 -2.8006 -0.9738
11004SOL     OW34299   6.387   7.605   2.747  0.1454  0.6859  0.0264
11004SOL    HW134300   6.328   7.675   2.718  2.5758  1.8469 -2.5724
11004SOL    HW234301   6.370   7.533   2.686 -0.1558  0.1572  0.7222
11005SOL     OW34302   1.989   5.816   2.840  0.6726  0.1205  0.1070
11005SOL    HW134303   1.996   5.831   2.745 -0.4793 -3.1632 -0.6318
11005SOL    HW234304   1.913   5.867   2.867 -1.5375 -1.9643 -1.6872
11006SOL     OW34305   5.742   5.929   0.667 -0.8971  0.2775 -0.1042
11006SOL    HW134306   5.747   5.850   0.614 -0.6917  1.5313 -2.0221
11006SOL    HW234307   5.709   5.899   0.752 -0.3352 -1.9163 -0.6203
11007SOL     OW34308   0.644   0.996   2.743  0.1657 -0.8036 -0.6183
11007SOL    HW134309   0.714   1.043   2.699 -1.3023  0.3997 -1.7518
11007SOL    HW234310   0.637   0.913   2.695  1.9370 -1.7439  0.6204
11008SOL     OW34311   2.068   6.436   0.029  0.2701  0.4774 -0.1520
11008SOL    HW134312   2.062   6.461  -0.064  1.3652  0.1954 -0.3044
11008SOL    HW234313   2.159   6.452   0.053  0.1434 -0.0258  0.7138
11009SOL     OW34314   2.184   3.683   1.334  0.5186 -0.0142  0.5214
11009SOL    HW134315   2.128   3.668   1.258 -1.7408  0.1662  2.0661
11009SOL    HW234316   2.244   3.753   1.306  0.4882 -0.7164 -1.4226
11010SOL     OW34317   1.263   6.260   0.455 -0.4052  0.4183  0.1104
11010SOL    HW134318   1.287   6.353   0.458 -0.6827  0.4577  2.0048
11010SOL    HW234319   1.317   6.219   0.522 -1.7233 -0.4337  0.6858
11011SOL     OW34320   2.853   0.788   4.972 -0.3127  0.4026  0.6085
11011SOL    HW134321   2.787   0.726   5.003 -0.1839 -0.5133 -0.8464
11011SOL    HW234322   2.937   0.750   4.999 -0.2336 -0.1144 -0.2879
11012SOL     OW34323   6.444   1.096   4.715  0.0438  0.7251  0.0277
11012SOL    HW134324   6.490   1.049   4.645 -1.1868  0.1572 -0.4371
11012SOL    HW234325   6.389   1.160   4.669 -1.3243 -0.1390  0.3890
11013SOL     OW34326   7.257   6.102   0.417 -0.5036  0.4670 -0.0596
11013SOL    HW134327   7.231   6.016   0.383 -0.5060  0.7508 -0.7807
11013SOL    HW234328   7.298   6.146   0.343  3.5902 -0.5270  1.3619
11014SOL     OW34329   3.660   0.734   5.665 -0.5270 -0.6842  0.4716
11014SOL    HW134330   3.750   0.763   5.682 -1.4975  1.9078  1.6139
11014SOL    HW234331   3.650   0.741   5.570 -0.5095  2.4682  0.5984
11015SOL     OW34332   8.364   1.348   2.099  0.2091  0.1124  0.0312
11015SOL    HW134333   8.303   1.396   2.044  1.6907  0.6903 -1.1818
11015SOL    HW234334   8.378   1.404   2.176 -1.4778 -0.4696  0.8126
11016SOL     OW34335   3.368   4.778   7.917  0.5710 -0.0802  0.5335
11016SOL    HW134336   3.276   4.799   7.934  0.0729 -0.4256 -1.5207
11016SOL    HW234337   3.417   4.840   7.972 -0.8839  0.8741  0.8119
11017SOL     OW34338   2.173   6.581   4.570 -0.2316 -0.0068  0.7865
11017SOL    HW134339   2.161   6.593   4.476 -1.3164 -0.7683  0.8150
11017SOL    HW234340   2.088   6.604   4.608 -0.7735 -2.5672  1.2964
11018SOL     OW34341   5.175   8.329   6.804 -0.1429  0.0413  0.1344
11018SOL    HW134342   5.133   8.405   6.764  1.3198 -0.1272 -1.8507
11018SOL    HW234343   5.266   8.334   6.776  0.4337 -1.3942  1.5946
11019SOL     OW34344   4.210   6.152   4.458  0.2573  0.0042  0.0414
11019SOL    HW134345   4.288   6.145   4.403 -0.4874  1.2447 -1.2308
11019SOL    HW234346   4.178   6.241   4.445 -2.4034 -0.9903 -0.9445
11020SOL     OW34347   7.129   8.063   5.037  0.0947  0.0509 -0.3232
11020SOL    HW134348   7.180   8.015   5.102 -0.8557  0.4946  0.7943
11020SOL    HW234349   7.059   8.104   5.088 -1.8396 -1.1626 -1.8587
11021SOL     OW34350   1.154   1.555   5.799 -0.1127 -0.0371  0.4576
11021SOL    HW134351   1.190   1.635   5.760  0.6457 -1.2799 -1.5355
11021SOL    HW234352   1.149   1.575   5.892  3.1655  1.2478  0.5212
11022SOL     OW34353   5.704   5.282   6.685 -0.0592 -0.0519 -0.0542
11022SOL    HW134354   5.644   5.236   6.625 -0.8043 -0.5509  1.0360
11022SOL    HW234355   5.722   5.218   6.754  3.8226 -0.8792 -1.5720
11023SOL     OW34356   7.118   2.474   5.028  0.2437  0.9418 -0.2341
11023SOL    HW134357   7.185   2.415   4.995 -0.7825 -0.7515  0.5381
11023SOL    HW234358   7.161   2.523   5.097  0.2456 -1.7482  1.8651
11024SOL     OW34359   2.413   2.956   8.234  0.0336 -0.2390  1.0017
11024SOL    HW134360   2.406   2.975   8.140 -0.8762  1.2699  1.3469
11024SOL    HW234361   2.464   3.030   8.269 -1.6740  0.4986  2.0422
11025SOL     OW34362   7.367   0.790   8.124 -0.5092 -0.5634  0.0738
11025SOL    HW134363   7.280   0.760   8.098  0.1879 -1.2162 -1.6685
11025SOL    HW234364   7.418   0.709   8.136  0.2518 -0.1769 -0.4360
11026SOL     OW34365   7.241   5.659   6.704 -0.4038  0.2774 -0.3120
11026SOL    HW134366   7.191   5.578   6.712  1.2725 -0.7920 -0.2178
11026SOL    HW234367   7.179   5.722   6.667 -1.9624 -0.8158  0.3234
11027SOL     OW34368   0.460   4.945   5.790 -0.1004 -0.1343 -0.2671
11027SOL    HW134369   0.412   4.974   5.868 -0.9506  1.1501 -1.2277
11027SOL    HW234370   0.395   4.947   5.720  0.6122 -1.4317 -1.0024
11028SOL     OW34371   0.866   6.722   3.729 -0.1757 -0.0894  0.6797
11028SOL    HW134372   0.888   6.633   3.701  1.5733  0.4885  0.0511
11028SOL    HW234373   0.853   6.770   3.648 -2.0217  0.0643  1.0276
11029SOL     OW34374   7.445   0.131   1.925  0.1645 -0.5241 -0.0175
11029SOL    HW134375   7.491   0.159   2.004  0.2293 -3.3264  1.0737
11029SOL    HW234376   7.466   0.038   1.917 -1.1046 -0.6920 -2.4922
11030SOL     OW34377   8.531   1.490   2.807 -0.1105  0.3545  0.1074
11030SOL    HW134378   8.598   1.553   2.783  0.9310  0.2744  2.4787
11030SOL    HW234379   8.463   1.541   2.852 -0.2114  0.0510  0.3088
11031SOL     OW34380   3.364   4.273   6.856  0.4861 -0.0137  0.6531
11031SOL    HW134381   3.336   4.182   6.853  0.1608  0.0464  1.4558
11031SOL    HW234382   3.420   4.284   6.779 -1.6957 -0.1198 -1.0382
11032SOL     OW34383   0.897   1.937   8.086 -0.2150 -0.3813 -0.0530
11032SOL    HW134384   0.966   1.871   8.089  0.8657  0.6820 -0.8007
11032SOL    HW234385   0.887   1.958   7.993 -0.0673  0.9631  0.2119
11033SOL     OW34386   4.552   0.211   7.317 -0.3491  0.5577 -0.0973
11033SOL    HW134387   4.600   0.293   7.312 -0.1961  0.5285  0.7692
11033SOL    HW234388   4.576   0.164   7.237  1.4528  0.3491  0.5196
11034SOL     OW34389   6.594   2.346   3.082  0.2775  0.6312 -0.3907
11034SOL    HW134390   6.669   2.311   3.131  0.6092 -0.6888 -1.7535
11034SOL    HW234391   6.537   2.384   3.149  1.5931  0.5915  0.8002
11035SOL     OW34392   7.014   1.869   4.960 -0.1437  0.2879  0.5165
11035SOL    HW134393   6.957   1.841   5.032  0.3076  1.1455  1.2117
11035SOL    HW234394   6.983   1.957   4.938  0.7953  0.7004  0.7933
11036SOL     OW34395   0.078   7.139   1.843  0.1137  0.5175 -0.0878
11036SOL    HW134396   0.067   7.047   1.868  1.6378  0.1386 -0.7439
11036SOL    HW234397   0.074   7.139   1.747 -2.0037  1.4659 -0.0660
11037SOL     OW34398   4.101   6.618   8.371 -0.2321 -0.5009 -0.2263
11037SOL    HW134399   4.160   6.693   8.379  1.4438 -1.6564 -1.1123
11037SOL    HW234400   4.080   6.595   8.461 -0.7608  0.9843  0.0673
11038SOL     OW34401   5.181   8.222   1.920 -0.2329 -0.1506 -0.1999
11038SOL    HW134402   5.195   8.260   2.007 -1.1868 -1.8307  0.7264
11038SOL    HW234403   5.244   8.267   1.864 -1.1442  2.6326  0.8391
11039SOL     OW34404   3.565   0.704   7.178 -0.1029 -0.1415  0.1251
11039SOL    HW134405   3.559   0.799   7.174 -0.2045 -0.1846 -0.9591
11039SOL    HW234406   3.545   0.674   7.089 -2.1459 -1.2921  0.8999
11040SOL     OW34407   3.433   5.197   4.855  0.2383 -0.1506  0.8367
11040SOL    HW134408   3.487   5.162   4.784  0.4700  2.3722 -0.3790
11040SOL    HW234409   3.343   5.182   4.827  0.2794  2.2121 -0.9361
11041SOL     OW34410   2.302   3.387   2.553  0.0734 -0.0090 -0.7732
11041SOL    HW134411   2.275   3.461   2.498 -0.2517  0.3108 -0.1908
11041SOL    HW234412   2.374   3.421   2.606 -1.0250  0.3276  0.5267
11042SOL     OW34413   4.270   8.492   5.023  0.4003 -0.2858  0.5404
11042SOL    HW134414   4.280   8.415   4.967 -1.6514 -0.0233 -0.2740
11042SOL    HW234415   4.212   8.463   5.093 -0.7665  0.5791 -0.0207
11043SOL     OW34416   7.685   2.555   2.075 -0.1959  0.0442  0.6047
11043SOL    HW134417   7.743   2.480   2.062  1.5808  1.1945  1.3900
11043SOL    HW234418   7.657   2.580   1.987  1.3379  0.0446  0.0827
11044SOL     OW34419   6.964   8.126   8.085  0.0841 -0.3155  0.6557
11044SOL    HW134420   6.902   8.129   8.157  1.2906  0.1417  1.7065
11044SOL    HW234421   6.918   8.167   8.011 -1.0556 -0.5275  1.2319
11045SOL     OW34422   2.823   6.193   6.441  0.3502 -0.1314  0.1146
11045SOL    HW134423   2.788   6.104   6.438 -0.5699  0.2285 -0.0213
11045SOL    HW234424   2.753   6.248   6.407  1.1828  0.5722 -0.5178
11046SOL     OW34425   8.276   3.996   8.336 -0.0970  0.3255  0.4100
11046SOL    HW134426   8.206   3.949   8.290  0.9936 -0.0281 -0.9335
11046SOL    HW234427   8.323   4.043   8.268 -0.1098  2.0316  1.5300
11047SOL     OW34428   0.139   0.866   4.125  0.0102  0.8066 -0.2700
11047SOL    HW134429   0.186   0.847   4.044 -0.4587  2.5544 -1.0041
11047SOL    HW234430   0.162   0.794   4.184  1.8434  0.4673 -1.3222
11048SOL     OW34431   5.588   8.204   4.009 -0.0372 -0.0142  0.0121
11048SOL    HW134432   5.599   8.238   4.098  2.6449 -0.2079 -0.1554
11048SOL    HW234433   5.636   8.121   4.009  0.4334  0.2206 -1.7237
11049SOL     OW34434   7.788   7.203   2.880  0.7928  0.3055 -0.4886
11049SOL    HW134435   7.808   7.235   2.792 -0.1601  1.1067 -0.4256
11049SOL    HW234436   7.795   7.108   2.873  0.0275  0.3127 -1.6264
11050SOL     OW34437   3.119   1.083   5.432 -0.2566 -0.0060  0.5366
11050SOL    HW134438   3.102   1.030   5.355  0.4016  0.5649 -0.0126
11050SOL    HW234439   3.080   1.168   5.412 -0.4715  0.0132  1.0181
11051SOL     OW34440   0.029   6.297   5.939 -0.5147 -0.0650 -0.1966
11051SOL    HW134441   0.072   6.374   5.901 -0.3842  0.0534  0.1802
11051SOL    HW234442  -0.055   6.329   5.971 -0.8820 -0.2922 -0.9118
11052SOL     OW34443   7.042   7.009   2.150 -0.6735 -0.6225 -0.2403
11052SOL    HW134444   6.997   7.003   2.234 -2.3763 -0.4179 -1.0905
11052SOL    HW234445   7.015   7.094   2.114  1.4268  0.1014 -0.2584
11053SOL     OW34446   5.783   3.310   2.308  1.0162 -0.0832 -0.1518
11053SOL    HW134447   5.807   3.271   2.224  2.0483 -0.9208  0.5184
11053SOL    HW234448   5.689   3.325   2.301  0.4620 -3.0935 -0.2993
11054SOL     OW34449   3.181   0.333   1.012 -0.0481 -0.1732  0.1951
11054SOL    HW134450   3.167   0.425   1.036  1.4498  0.1480 -0.0725
11054SOL    HW234451   3.275   0.327   0.995 -0.0844 -1.8240  0.4639
11055SOL     OW34452   1.444   0.713   3.149 -0.4985  0.1691  0.0538
11055SOL    HW134453   1.508   0.643   3.144  0.5931  1.0071  1.3882
11055SOL    HW234454   1.434   0.744   3.059 -2.0314 -2.5138 -0.8076
11056SOL     OW34455   0.152   1.240   8.473  0.1414 -0.2502  0.1393
11056SOL    HW134456   0.138   1.158   8.426 -1.1904 -0.4774  0.8755
11056SOL    HW234457   0.136   1.308   8.407  3.9620 -0.4668 -1.2449
11057SOL     OW34458   8.297   5.648   6.485  0.1762 -0.2667  0.0143
11057SOL    HW134459   8.312   5.637   6.579 -0.8244 -0.7577  0.1346
11057SOL    HW234460   8.351   5.723   6.460  1.3278 -0.8241  0.7441
11058SOL     OW34461   0.945   5.824   8.366 -0.1074 -0.1511 -0.1764
11058SOL    HW134462   0.910   5.879   8.297  1.1912  1.3541  0.3060
11058SOL    HW234463   0.989   5.885   8.426  0.5486 -1.6065  0.8937
11059SOL     OW34464   6.768   3.977   6.929  0.0382 -0.2804  0.1788
11059SOL    HW134465   6.795   4.069   6.930 -1.6806  0.2848  1.7117
11059SOL    HW234466   6.774   3.950   7.021 -0.8604 -1.2359 -0.0325
11060SOL     OW34467   7.762   7.160   4.099  0.1705 -0.1346  0.0960
11060SOL    HW134468   7.725   7.189   4.181 -0.3480 -0.8328  0.1140
11060SOL    HW234469   7.855   7.147   4.118  0.4592  1.5847  0.0527
11061SOL     OW34470   4.616   7.606   6.687 -0.3740 -0.2855  0.2007
11061SOL    HW134471   4.528   7.571   6.699 -0.7919  0.9313  0.7697
11061SOL    HW234472   4.673   7.539   6.725 -1.1555 -0.4095  1.2034
11062SOL     OW34473   0.473   2.911   7.252 -0.4028 -0.2504 -0.1116
11062SOL    HW134474   0.525   2.832   7.262 -1.4378 -1.1760 -1.6057
11062SOL    HW234475   0.410   2.908   7.324  0.6982  0.1738  0.8938
11063SOL     OW34476   4.502   0.235   1.342  0.4774 -0.5761  0.7045
11063SOL    HW134477   4.591   0.208   1.363  0.2831 -1.4223  0.5263
11063SOL    HW234478   4.472   0.283   1.418  0.3035 -2.2644  1.7538
11064SOL     OW34479   6.020   4.056   0.101  0.4981 -0.1320  0.0065
11064SOL    HW134480   5.988   3.967   0.088  0.0470 -0.1531  1.1977
11064SOL    HW234481   6.112   4.046   0.127  0.5188 -0.2297 -0.1033
11065SOL     OW34482   1.894   2.858   4.913  0.2033  0.0440  0.2480
11065SOL    HW134483   1.932   2.782   4.869  1.8046  0.9269  0.0350
11065SOL    HW234484   1.903   2.930   4.851 -1.5028  0.4080  0.3571
11066SOL     OW34485   1.784   3.858   7.689 -0.6927  0.1666  0.5024
11066SOL    HW134486   1.824   3.915   7.624 -2.3263 -1.3969 -2.0246
11066SOL    HW234487   1.742   3.918   7.751  1.2616  1.7039  0.4212
11067SOL     OW34488   5.282   8.452   7.638 -0.3012 -0.2357 -0.0619
11067SOL    HW134489   5.262   8.544   7.622 -0.4193 -0.2157  0.2048
11067SOL    HW234490   5.245   8.406   7.563  0.4957  0.0226 -0.6266
11068SOL     OW34491   6.074   5.168   8.554 -0.1261 -0.1974  0.1138
11068SOL    HW134492   5.983   5.197   8.558 -0.1900 -0.0482 -1.6032
11068SOL    HW234493   6.068   5.073   8.548 -0.2332 -0.1432 -0.8498
11069SOL     OW34494   2.791   2.498   1.721  0.3213 -0.2323  0.5099
11069SOL    HW134495   2.805   2.589   1.694 -0.9406  0.6125  2.4486
11069SOL    HW234496   2.782   2.450   1.640 -0.1683  1.5954 -0.5853
11070SOL     OW34497   8.092   2.619   5.630  0.3602 -0.1008 -0.3790
11070SOL    HW134498   8.085   2.527   5.602 -1.4359 -0.0296 -0.2575
11070SOL    HW234499   8.003   2.653   5.623  0.5714  1.0228  1.7071
11071SOL     OW34500   1.494   2.456   4.523  0.2919  0.0107 -0.5174
11071SOL    HW134501   1.452   2.468   4.438 -0.2594 -1.8653 -0.5611
11071SOL    HW234502   1.482   2.363   4.542  4.2327 -0.6587 -0.4290
11072SOL     OW34503   5.530   1.603   3.282  0.5108  0.0494  0.2875
11072SOL    HW134504   5.574   1.549   3.347  0.7177 -0.9295 -0.6501
11072SOL    HW234505   5.587   1.679   3.272  0.6623  0.0359  0.9702
11073SOL     OW34506   6.654   0.394   5.837  0.1484  0.1299  0.2756
11073SOL    HW134507   6.720   0.407   5.905 -0.6141  1.3841  0.8090
11073SOL    HW234508   6.639   0.299   5.836 -0.8152  0.1731  2.8455
11074SOL     OW34509   1.662   2.695   4.442 -0.1054 -0.5143 -0.1365
11074SOL    HW134510   1.590   2.637   4.467  0.1515 -0.6262  0.3614
11074SOL    HW234511   1.620   2.777   4.417 -0.3042  0.3612  2.7105
11075SOL     OW34512   2.751   7.773   1.234 -0.6130 -0.5587 -0.4063
11075SOL    HW134513   2.819   7.767   1.301  0.3915 -0.9307 -1.4279
11075SOL    HW234514   2.714   7.861   1.245 -1.1331 -0.9439  1.2354
11076SOL     OW34515   4.434   1.213   7.245 -0.0559 -0.3530 -0.1961
11076SOL    HW134516   4.442   1.217   7.340 -0.3662  1.1161 -0.2151
11076SOL    HW234517   4.371   1.143   7.230 -0.8734  0.1518  0.7446
11077SOL     OW34518   5.679   1.275   8.631 -0.3677 -0.0431  0.7146
11077SOL    HW134519   5.758   1.225   8.653  0.3286  0.9307  0.4843
11077SOL    HW234520   5.641   1.297   8.716 -0.7469 -1.0510  0.8174
11078SOL     OW34521   2.334   0.405   6.184 -0.4527  0.5753 -0.0838
11078SOL    HW134522   2.265   0.355   6.140 -0.3698 -0.8816  1.3368
11078SOL    HW234523   2.327   0.379   6.276  2.4118 -0.1884  0.0094
11079SOL     OW34524   4.149   7.645   3.700 -0.0423  0.2260 -0.0781
11079SOL    HW134525   4.136   7.740   3.689  0.2515  0.1513 -1.1794
11079SOL    HW234526   4.073   7.605   3.657 -0.0835 -0.0496  0.2454
11080SOL     OW34527   1.344   8.043   0.416  0.6327 -0.0859  0.5339
11080SOL    HW134528   1.291   8.117   0.444 -1.8399 -2.3617  2.4396
11080SOL    HW234529   1.426   8.052   0.466  0.5716  1.5003  0.4050
11081SOL     OW34530   1.053   1.174   4.381 -0.3120 -0.0002 -0.0058
11081SOL    HW134531   1.101   1.095   4.406  2.7397  1.7128  0.0027
11081SOL    HW234532   1.037   1.164   4.287 -0.8116 -1.0254  0.1801
11082SOL     OW34533   8.461   2.907   6.234  0.0967  0.3304 -0.1633
11082SOL    HW134534   8.462   2.867   6.147 -2.0511 -1.3362  0.4780
11082SOL    HW234535   8.462   2.833   6.295 -1.3319  1.3155  1.1484
11083SOL     OW34536   6.511   3.420   3.604 -0.4547 -0.1025  0.6330
11083SOL    HW134537   6.496   3.485   3.673 -0.5347 -1.8732  2.3816
11083SOL    HW234538   6.605   3.427   3.586 -0.3445  0.1059  1.2441
11084SOL     OW34539   1.745   7.700   8.436  0.2264 -0.6032  0.0536
11084SOL    HW134540   1.754   7.710   8.342 -2.1572 -0.0670 -0.1814
11084SOL    HW234541   1.670   7.641   8.447 -1.5182  1.7067  1.5494
11085SOL     OW34542   1.410   0.684   4.194  0.6167 -0.2848 -0.0177
11085SOL    HW134543   1.382   0.715   4.108  0.7166 -1.9045 -0.6843
11085SOL    HW234544   1.480   0.743   4.220 -0.7514  1.4527 -0.1045
11086SOL     OW34545   8.475   5.827   0.392  0.8498  0.1416  0.3163
11086SOL    HW134546   8.493   5.800   0.482  2.2927 -2.3991 -0.6413
11086SOL    HW234547   8.556   5.869   0.363 -0.0126  2.0459  0.5020
11087SOL     OW34548   7.111   5.435   4.981 -0.3509  0.2895  0.1328
11087SOL    HW134549   7.146   5.521   4.958  1.0823 -0.6732 -1.4364
11087SOL    HW234550   7.118   5.431   5.076 -1.6252  2.3795  0.3699
11088SOL     OW34551   5.336   7.081   7.197  0.1515 -0.5297 -0.2020
11088SOL    HW134552   5.335   7.013   7.130  0.9703  0.1630 -0.9406
11088SOL    HW234553   5.316   7.162   7.150 -0.2919 -0.1738  0.5742
11089SOL     OW34554   7.414   4.676   1.438 -0.2052  0.3900  0.0589
11089SOL    HW134555   7.495   4.640   1.401 -0.6351  0.2943 -0.8349
11089SOL    HW234556   7.436   4.767   1.459 -0.2373  0.7988 -1.5296
11090SOL     OW34557   1.069   2.365   3.055 -0.2889 -0.5117 -0.2077
11090SOL    HW134558   1.085   2.459   3.039  1.1234 -0.4393  1.3148
11090SOL    HW234559   1.127   2.321   2.993 -0.2263 -0.3716 -0.2512
11091SOL     OW34560   8.682   7.605   5.408 -0.2761  0.0259  0.0130
11091SOL    HW134561   8.704   7.607   5.501 -0.1605 -0.0465 -0.0127
11091SOL    HW234562   8.668   7.512   5.388  0.4145 -0.0306 -0.2075
11092SOL     OW34563   0.602   8.117   4.311  0.4043  0.2121 -0.3253
11092SOL    HW134564   0.509   8.097   4.298 -0.2465  2.2116  0.8156
11092SOL    HW234565   0.639   8.117   4.222 -0.6988 -0.5004 -0.8102
11093SOL     OW34566   4.797   6.369   1.185  0.3445  0.4998  0.5819
11093SOL    HW134567   4.822   6.372   1.278 -0.1442 -1.2443  0.8201
11093SOL    HW234568   4.878   6.386   1.138  0.8866  0.1352  1.3503
11094SOL     OW34569   0.086   3.511   3.984  0.3883  0.1655  0.2134
11094SOL    HW134570   0.106   3.454   3.909  1.2950  0.8796 -0.1063
11094SOL    HW234571   0.029   3.458   4.040 -0.6017 -0.2630 -1.1480
11095SOL     OW34572   5.339   8.135   4.237  0.0652 -0.1055 -0.2355
11095SOL    HW134573   5.385   8.110   4.317  1.3907 -1.6632 -1.4077
11095SOL    HW234574   5.361   8.227   4.224 -0.2848  0.2088  1.2310
11096SOL     OW34575   8.248   3.344   8.107 -0.1731  0.0217 -0.4978
11096SOL    HW134576   8.207   3.298   8.034 -0.3448 -0.4283 -0.1257
11096SOL    HW234577   8.200   3.313   8.184 -0.1918  0.7172 -0.2258
11097SOL     OW34578   8.640   5.846   5.622 -0.0643 -0.6458  0.0075
11097SOL    HW134579   8.727   5.856   5.585  0.3112 -2.6566  0.1846
11097SOL    HW234580   8.654   5.842   5.717 -0.6067  1.0354  0.1784
11098SOL     OW34581   7.628   1.718   0.974  0.0292 -0.0599  0.4104
11098SOL    HW134582   7.664   1.631   0.994 -2.5463 -1.2518  0.3343
11098SOL    HW234583   7.610   1.715   0.880  1.2208  1.1167  0.1298
11099SOL     OW34584   1.730   8.086   5.809 -0.1166  0.2388 -0.0350
11099SOL    HW134585   1.769   8.086   5.721 -1.1223  1.0507 -0.4956
11099SOL    HW234586   1.698   7.996   5.821  2.4746 -0.6837  0.6611
11100SOL     OW34587   4.409   7.603   4.604 -0.1630 -0.0747  0.1747
11100SOL    HW134588   4.443   7.689   4.579 -0.0847 -0.6461 -1.8808
11100SOL    HW234589   4.368   7.617   4.689  0.4632  1.8321  0.2107
11101SOL     OW34590   3.192   4.217   2.704  0.2858  0.6708  0.7534
11101SOL    HW134591   3.184   4.131   2.661  0.6344  0.4683  1.0840
11101SOL    HW234592   3.189   4.280   2.632  0.1988  0.3730  0.4920
11102SOL     OW34593   8.385   3.700   1.695 -0.3123  0.5976 -0.0687
11102SOL    HW134594   8.296   3.702   1.660 -0.4812  0.1321  0.3207
11102SOL    HW234595   8.414   3.610   1.681  0.7333  1.1369 -1.7312
11103SOL     OW34596   4.607   5.332   2.962 -0.0097 -0.2367  0.5795
11103SOL    HW134597   4.562   5.364   3.040 -1.7677  0.0888 -0.5354
11103SOL    HW234598   4.632   5.243   2.984 -2.2453 -0.8440  0.8497
11104SOL     OW34599   4.225   2.779   3.315 -0.0239 -0.5241 -0.0095
11104SOL    HW134600   4.207   2.864   3.275 -0.1484 -0.2346  0.6573
11104SOL    HW234601   4.169   2.776   3.392  0.4432 -0.9477  0.3209
11105SOL     OW34602   6.924   5.707   4.316 -0.1142 -0.2504  0.3011
11105SOL    HW134603   6.924   5.621   4.273 -0.1467 -0.8811  1.5282
11105SOL    HW234604   6.871   5.695   4.394  0.0016  0.8582  0.5658
11106SOL     OW34605   7.992   0.969   3.251  0.1438  0.4657  0.4150
11106SOL    HW134606   7.965   0.943   3.339 -0.8358 -0.0512 -0.0207
11106SOL    HW234607   7.976   1.063   3.249  0.7413  0.5867  0.9802
11107SOL     OW34608   4.575   7.632   7.808 -0.0873 -0.1935  0.4682
11107SOL    HW134609   4.626   7.559   7.843 -0.9078 -0.8476  0.3387
11107SOL    HW234610   4.493   7.592   7.780 -1.0626  0.9898  1.5405
11108SOL     OW34611   7.563   3.298   4.629  0.0241 -0.1513 -0.4149
11108SOL    HW134612   7.614   3.272   4.553  0.7654 -0.0615  0.0443
11108SOL    HW234613   7.619   3.278   4.704  0.9153  3.1677 -0.0365
11109SOL     OW34614   3.030   3.924   1.105 -0.5217  0.3209  0.0251
11109SOL    HW134615   3.107   3.960   1.063  0.3440 -0.5685  0.8060
11109SOL    HW234616   2.979   3.885   1.033  1.0952 -1.4743 -0.2235
11110SOL     OW34617   1.598   2.553   3.378 -0.5301  0.0065  0.0928
11110SOL    HW134618   1.680   2.574   3.332 -1.6484  0.2740 -1.8736
11110SOL    HW234619   1.621   2.478   3.433  1.1804  0.4481  0.0617
11111SOL     OW34620   6.609   5.629   4.269 -0.4467  0.2714  0.3422
11111SOL    HW134621   6.577   5.684   4.341  0.9990  0.6934  0.6854
11111SOL    HW234622   6.665   5.564   4.312 -0.8806 -0.4982 -0.2390
11112SOL     OW34623   1.073   6.362   0.101 -0.8078  0.4473  0.1297
11112SOL    HW134624   1.093   6.456   0.101  0.3862  0.2180  0.3077
11112SOL    HW234625   1.104   6.331   0.016 -0.3705  0.0670  0.4212
11113SOL     OW34626   7.277   2.503   6.870 -0.1236 -0.2602 -0.4867
11113SOL    HW134627   7.252   2.420   6.829 -0.0219 -1.0290  0.9321
11113SOL    HW234628   7.194   2.539   6.901 -0.0283 -0.4855  0.0442
11114SOL     OW34629   8.192   7.595   2.099 -0.7822 -0.8090 -0.3803
11114SOL    HW134630   8.261   7.650   2.062 -1.6078 -0.5988 -1.6547
11114SOL    HW234631   8.238   7.521   2.137  0.2591  0.1332  0.2459
11115SOL     OW34632   5.027   3.899   3.815  0.2768 -0.4782 -0.0846
11115SOL    HW134633   5.006   3.958   3.742 -0.2056 -0.3229  0.1753
11115SOL    HW234634   5.017   3.953   3.893 -3.8205 -1.7301  0.4830
11116SOL     OW34635   1.994   1.672   1.671  0.1126 -0.4395  0.4576
11116SOL    HW134636   2.010   1.581   1.646  0.9441 -0.1002 -0.3169
11116SOL    HW234637   1.973   1.716   1.588  0.7809  0.2791  0.6581
11117SOL     OW34638   3.533   2.424   4.639 -0.1327 -0.2146  0.0963
11117SOL    HW134639   3.559   2.484   4.570 -1.3506  0.6665  0.3692
11117SOL    HW234640   3.554   2.469   4.720 -0.6789 -0.3190  0.3028
11118SOL     OW34641   4.826   2.177   4.307  0.1892  0.3157  0.0551
11118SOL    HW134642   4.785   2.091   4.312 -1.9875  1.3413  0.8935
11118SOL    HW234643   4.792   2.215   4.226  0.0910  0.8984  0.3681
11119SOL     OW34644   2.613   4.400   4.079  0.0041 -0.7963 -0.2106
11119SOL    HW134645   2.528   4.421   4.039  0.1062 -0.3835 -0.2205
11119SOL    HW234646   2.594   4.392   4.172  0.5360  3.0872  0.4077
11120SOL     OW34647   4.786   4.589   8.702 -0.8681 -0.3459 -0.3512
11120SOL    HW134648   4.780   4.493   8.699 -1.5450 -0.3045 -0.3396
11120SOL    HW234649   4.831   4.613   8.621 -2.1849 -0.5603 -1.1668
11121SOL     OW34650   3.562   7.135   3.984  0.6828  0.4891  0.2906
11121SOL    HW134651   3.582   7.110   4.074  1.1274 -0.2517 -0.0076
11121SOL    HW234652   3.488   7.080   3.959  0.0630  1.2271  0.4427
11122SOL     OW34653   3.412   7.901   0.473  0.0208 -0.1347  0.0904
11122SOL    HW134654   3.422   7.996   0.472 -2.2533  0.1526 -0.0496
11122SOL    HW234655   3.439   7.873   0.386  1.1789  0.2963  0.2917
11123SOL     OW34656   0.089   6.244   8.595  0.3641 -0.5984 -0.1634
11123SOL    HW134657   0.134   6.218   8.515 -0.6561  1.6505 -1.6091
11123SOL    HW234658  -0.004   6.250   8.569  0.1644  1.3881  0.7626
11124SOL     OW34659   6.661   1.097   2.810 -0.0441  0.0347  0.1338
11124SOL    HW134660   6.727   1.029   2.826 -1.3589 -0.7584  2.6482
11124SOL    HW234661   6.609   1.062   2.737 -0.0387 -1.1937  0.6880
11125SOL     OW34662   1.259   5.692   2.234  0.1506  0.2131  0.2049
11125SOL    HW134663   1.222   5.762   2.287  0.2189  1.0001 -0.7557
11125SOL    HW234664   1.322   5.648   2.291  0.4253  1.2067  0.6833
11126SOL     OW34665   6.198   0.010   0.181  0.4365 -0.3696  0.3941
11126SOL    HW134666   6.208  -0.008   0.275 -0.7888 -1.5568  0.3237
11126SOL    HW234667   6.279  -0.023   0.142  1.2869  0.8191  1.0974
11127SOL     OW34668   3.697   3.477   7.970  0.1266  0.1093  0.2122
11127SOL    HW134669   3.762   3.456   7.902 -0.2031  0.1888 -0.1271
11127SOL    HW234670   3.705   3.405   8.033  0.5702  0.1374  0.1929
11128SOL     OW34671   4.387   4.576   2.548  0.1050 -0.0529  0.2666
11128SOL    HW134672   4.347   4.647   2.498  0.8382 -0.6061 -1.1743
11128SOL    HW234673   4.465   4.615   2.588 -0.6425  0.4670  1.2670
11129SOL     OW34674   6.047   4.645   4.587 -0.5653  0.1804  0.0608
11129SOL    HW134675   6.054   4.682   4.499  0.3558  1.4643  0.6346
11129SOL    HW234676   5.977   4.580   4.581  0.9749 -1.3737 -2.1426
11130SOL     OW34677   3.836   4.281   7.097 -0.0899  0.8276  0.3799
11130SOL    HW134678   3.752   4.283   7.052  0.1495  1.7582 -0.0663
11130SOL    HW234679   3.828   4.212   7.163  0.0748 -1.7657 -2.1173
11131SOL     OW34680   8.361   8.248   1.695 -0.2882 -0.3112 -0.2435
11131SOL    HW134681   8.452   8.220   1.685  0.1632  1.3861 -1.1682
11131SOL    HW234682   8.313   8.166   1.708  1.1506 -1.4092 -1.4285
11132SOL     OW34683   1.722   3.578   7.194  0.1460 -0.4562 -0.3839
11132SOL    HW134684   1.733   3.670   7.173 -2.6271 -0.0214 -0.2700
11132SOL    HW234685   1.799   3.535   7.156  1.5137  1.8645 -0.4095
11133SOL     OW34686   0.063   6.818   4.875  0.7652 -0.1075  0.0908
11133SOL    HW134687   0.157   6.839   4.872  0.2854  2.5793  0.9872
11133SOL    HW234688   0.034   6.854   4.959 -1.3572  0.5981 -0.8901
11134SOL     OW34689   1.111   8.628   2.015  0.6141  0.4873  0.4730
11134SOL    HW134690   1.073   8.574   2.084  2.4258 -1.5465 -0.0065
11134SOL    HW234691   1.183   8.674   2.058  1.5158 -0.5048  0.0639
11135SOL     OW34692   1.681   4.328   4.585  0.1852 -0.3429 -0.7128
11135SOL    HW134693   1.646   4.322   4.674 -0.5882 -1.5121 -1.0582
11135SOL    HW234694   1.649   4.248   4.543  1.0152 -0.0762 -1.8710
11136SOL     OW34695   0.774   0.135   7.224 -0.8433 -0.0437 -0.3368
11136SOL    HW134696   0.858   0.089   7.230 -0.5849  0.4629 -0.0178
11136SOL    HW234697   0.786   0.214   7.276 -1.3451  0.2996 -0.7348
11137SOL     OW34698   7.056   7.409   5.736 -0.3035  0.3788  0.0116
11137SOL    HW134699   7.100   7.400   5.820 -0.1348  1.5866  0.0779
11137SOL    HW234700   6.964   7.423   5.759 -0.4149 -0.2210 -0.0510
11138SOL     OW34701   1.612   8.365   1.031  0.0507  0.1840  0.2569
11138SOL    HW134702   1.677   8.423   0.992 -0.6605  0.7631 -0.1053
11138SOL    HW234703   1.605   8.293   0.969  0.7218 -0.1490  0.5592
11139SOL     OW34704   8.165   2.796   7.940 -0.0382 -0.2065  0.0312
11139SOL    HW134705   8.222   2.755   7.876 -0.1973 -0.0427 -0.2162
11139SOL    HW234706   8.077   2.766   7.918 -0.1802  0.4222 -0.2771
11140SOL     OW34707   8.054   5.308   3.441  0.1965  0.0283  0.3010
11140SOL    HW134708   7.967   5.272   3.456 -0.3964  1.0888 -0.4681
11140SOL    HW234709   8.103   5.285   3.520 -0.3282 -1.8400  0.1342
11141SOL     OW34710   0.093   6.993   6.785 -0.2031 -0.8223 -0.6435
11141SOL    HW134711   0.074   6.916   6.840 -1.6195 -0.6796 -0.8847
11141SOL    HW234712   0.073   6.964   6.696 -0.7307 -0.1984 -0.7382
11142SOL     OW34713   4.614   8.295   2.191 -0.4144  0.2105 -0.6860
11142SOL    HW134714   4.560   8.374   2.189  1.1045  1.2727 -0.9957
11142SOL    HW234715   4.551   8.224   2.202 -2.1060  1.2196 -2.9117
11143SOL     OW34716   5.576   8.487   5.127  0.4154 -0.0375  0.4391
11143SOL    HW134717   5.615   8.491   5.040  0.2238  0.8670  0.3902
11143SOL    HW234718   5.482   8.473   5.111  0.0850  1.9726  0.4287
11144SOL     OW34719   6.227   7.172   7.909 -0.7753  0.6169  0.3533
11144SOL    HW134720   6.181   7.126   7.839 -0.7086 -1.4747  1.6165
11144SOL    HW234721   6.176   7.253   7.921 -0.8145  1.0180 -2.0147
11145SOL     OW34722   7.101   7.499   7.475 -0.2670  0.4412 -0.5102
11145SOL    HW134723   7.100   7.582   7.523  0.7999 -0.0991  0.4742
11145SOL    HW234724   7.192   7.471   7.477 -0.6690 -0.9232 -0.5432
11146SOL     OW34725   5.605   2.689   4.357 -0.2020 -0.2140 -0.4079
11146SOL    HW134726   5.644   2.776   4.347  2.4851 -1.4344 -1.4782
11146SOL    HW234727   5.517   2.698   4.323 -0.5280  2.4166  0.8617
11147SOL     OW34728   2.297   0.511   1.313  0.1504  0.3864 -0.2905
11147SOL    HW134729   2.236   0.543   1.245  0.4575 -0.0269 -0.7678
11147SOL    HW234730   2.383   0.531   1.277  0.3071  0.6021  0.2047
11148SOL     OW34731   5.804   4.300   1.024  0.4919 -0.0545  0.2633
11148SOL    HW134732   5.895   4.297   0.995  0.9455  0.3452  1.5489
11148SOL    HW234733   5.787   4.212   1.059  0.4017 -0.1146  0.0669
11149SOL     OW34734   6.889   5.453   4.789  0.3117  0.0265  0.4103
11149SOL    HW134735   6.966   5.435   4.843  1.3404  1.5764 -0.4814
11149SOL    HW234736   6.871   5.546   4.801  0.5324  0.4137 -1.8074
11150SOL     OW34737   3.792   8.406   3.979 -0.0282  0.3605  0.4195
11150SOL    HW134738   3.712   8.360   3.951 -0.0492 -0.2696  1.4453
11150SOL    HW234739   3.862   8.367   3.928  0.2406 -2.2291  2.5421
11151SOL     OW34740   3.779   1.057   5.390 -0.4023 -0.2822 -0.7116
11151SOL    HW134741   3.816   1.115   5.324  0.9541 -0.3950 -0.0956
11151SOL    HW234742   3.767   0.973   5.345  0.7899 -0.4450 -0.7727
11152SOL     OW34743   4.251   8.324   4.800  0.3129 -0.0863 -0.3927
11152SOL    HW134744   4.251   8.278   4.716 -0.7488 -0.2102 -0.3327
11152SOL    HW234745   4.163   8.310   4.836  0.6167  0.3187  0.5463
11153SOL     OW34746   7.994   3.652   4.274 -0.2333 -0.0906 -0.0828
11153SOL    HW134747   8.055   3.668   4.202  0.3337  1.0304  0.6083
11153SOL    HW234748   8.047   3.667   4.353 -0.9941 -0.6988  0.5540
11154SOL     OW34749   2.347   5.209   5.800 -0.0887 -0.4586 -0.0526
11154SOL    HW134750   2.365   5.194   5.893 -0.2065  1.7696  0.3819
11154SOL    HW234751   2.270   5.156   5.781  0.7510 -2.0221  0.7320
11155SOL     OW34752   2.533   0.557   4.008  0.6867 -0.6402 -0.2173
11155SOL    HW134753   2.530   0.641   4.053 -1.8304 -0.6750 -0.1594
11155SOL    HW234754   2.569   0.496   4.072 -0.7556 -0.2545  1.0327
11156SOL     OW34755   3.210   8.451   0.167  0.0658  0.0311 -0.1811
11156SOL    HW134756   3.297   8.456   0.128  0.5549  0.5648  0.9427
11156SOL    HW234757   3.209   8.520   0.234 -0.9258 -0.5086  0.3925
11157SOL     OW34758   4.086   4.950   2.218  0.0787  0.0428  0.0570
11157SOL    HW134759   4.048   4.968   2.304 -0.9713  1.7462 -0.7125
11157SOL    HW234760   4.013   4.959   2.157  1.1311  0.5009 -1.1841
11158SOL     OW34761   0.407   5.179   7.515  0.3250  0.3505  1.0828
11158SOL    HW134762   0.477   5.188   7.451  0.8984 -2.3558  1.2223
11158SOL    HW234763   0.398   5.267   7.553  1.7146  1.4034 -0.8621
11159SOL     OW34764   5.984   6.491   1.955  0.8483  0.3700 -0.4273
11159SOL    HW134765   6.060   6.520   1.905 -0.1802  0.4960 -1.9787
11159SOL    HW234766   5.913   6.486   1.891 -0.4193  0.0800  0.9338
11160SOL     OW34767   2.201   6.694   0.478  0.4355 -0.1969 -0.7876
11160SOL    HW134768   2.240   6.737   0.554  0.7970 -0.4052 -0.8535
11160SOL    HW234769   2.141   6.629   0.515 -0.3683  0.5876 -0.6895
11161SOL     OW34770   4.269   0.204   2.083  0.0471  0.1554  0.9235
11161SOL    HW134771   4.188   0.255   2.076  0.6995  1.0274 -0.7981
11161SOL    HW234772   4.338   0.263   2.052  1.0323 -1.2728  0.2569
11162SOL     OW34773   3.921   6.483   7.826  0.3305 -0.3449  0.4656
11162SOL    HW134774   3.935   6.484   7.921 -2.9518  0.5870  1.0969
11162SOL    HW234775   3.914   6.390   7.803 -1.3936 -0.5611  1.6852
11163SOL     OW34776   2.564   3.975   5.788 -0.2999  0.0142  0.1765
11163SOL    HW134777   2.477   3.958   5.751 -0.1677 -0.2685 -0.0038
11163SOL    HW234778   2.607   4.032   5.725  0.8991 -2.5361 -1.4734
11164SOL     OW34779   1.447   1.385   2.861  0.0341  0.1330  0.2132
11164SOL    HW134780   1.365   1.416   2.824  0.4906  3.2442  1.4800
11164SOL    HW234781   1.429   1.375   2.954  0.9963  0.5171  0.4480
11165SOL     OW34782   7.853   6.385   3.093  0.4745 -0.0798  0.5749
11165SOL    HW134783   7.778   6.445   3.092  0.9758  0.5882 -1.1551
11165SOL    HW234784   7.892   6.396   3.180 -0.8648  0.2781  1.1508
11166SOL     OW34785   3.233   7.532   6.785 -0.4322 -0.2346  0.1742
11166SOL    HW134786   3.141   7.551   6.767 -0.4904 -1.2293 -0.6747
11166SOL    HW234787   3.281   7.599   6.736 -0.6887  0.3398  0.6861
11167SOL     OW34788   6.352   0.529   8.003  0.2055  0.1274  0.3015
11167SOL    HW134789   6.268   0.561   8.034 -0.4332 -0.4514 -0.7347
11167SOL    HW234790   6.356   0.438   8.034  0.1480 -0.0458 -0.1867
11168SOL     OW34791   7.428   5.700   6.515  0.0227  0.3448  0.1001
11168SOL    HW134792   7.388   5.650   6.585  0.1073  0.4399  0.2169
11168SOL    HW234793   7.391   5.788   6.524  0.2348  0.4252  0.1917
11169SOL     OW34794   7.473   7.611   3.558  0.5218 -0.4967  0.3407
11169SOL    HW134795   7.533   7.635   3.487  0.4171  0.2296  0.4888
11169SOL    HW234796   7.483   7.516   3.567  1.0196 -0.5013 -0.2064
11170SOL     OW34797   0.386   1.926   7.385  0.6197  0.4277 -0.1100
11170SOL    HW134798   0.359   1.910   7.294 -0.1682  0.5642  0.0867
11170SOL    HW234799   0.335   1.863   7.436  1.0528  0.3560  0.2384
11171SOL     OW34800   5.527   1.685   8.285  0.0502  0.6352 -0.2157
11171SOL    HW134801   5.574   1.638   8.354 -1.0612 -1.0125 -0.5061
11171SOL    HW234802   5.438   1.695   8.320 -0.9375 -1.4817 -1.8487
11172SOL     OW34803   5.487   5.396   0.166 -0.1044  0.1719 -0.2786
11172SOL    HW134804   5.401   5.368   0.196 -0.7278  1.0547 -1.1653
11172SOL    HW234805   5.477   5.406   0.071  1.2620 -0.7010 -0.5496
11173SOL     OW34806   7.762   5.785   1.901 -0.1770  0.3227 -1.0716
11173SOL    HW134807   7.722   5.837   1.831  0.8342  0.4416 -1.5852
11173SOL    HW234808   7.847   5.827   1.915  0.7092 -1.2293 -1.5624
11174SOL     OW34809   2.332   0.703   4.833  0.1382  0.2798 -0.3710
11174SOL    HW134810   2.256   0.650   4.810  0.5544  0.5178 -2.5781
11174SOL    HW234811   2.365   0.665   4.914 -1.3835 -0.8526 -0.2532
11175SOL     OW34812   2.343   7.407   3.686  0.0431  0.3069 -0.1476
11175SOL    HW134813   2.333   7.351   3.609 -1.3956  0.6138 -0.2176
11175SOL    HW234814   2.293   7.362   3.755  1.1447  0.1388  0.5653
11176SOL     OW34815   8.281   5.490   0.655 -0.2806 -0.7092  0.3025
11176SOL    HW134816   8.203   5.524   0.698  0.0832 -0.6538  0.9290
11176SOL    HW234817   8.276   5.524   0.566 -0.2615  0.4658  0.7302
11177SOL     OW34818   0.575   2.738   3.416 -0.3526 -0.4334 -0.2470
11177SOL    HW134819   0.581   2.735   3.321  0.2889  1.3254 -0.2928
11177SOL    HW234820   0.666   2.734   3.446 -0.4981 -0.1737  0.2469
11178SOL     OW34821   3.518   3.621   5.343  0.2089  0.1145 -0.0488
11178SOL    HW134822   3.459   3.546   5.346 -0.1629  0.3078 -1.6586
11178SOL    HW234823   3.578   3.602   5.271  1.5690  0.3416  0.9818
11179SOL     OW34824   6.964   7.460   7.716 -0.3874  0.8201 -0.3095
11179SOL    HW134825   6.969   7.364   7.716  0.7815  0.8735 -0.0461
11179SOL    HW234826   6.996   7.486   7.630  2.2368  1.0800  0.6752
11180SOL     OW34827   4.803   6.964   5.826  0.5707 -0.0937 -0.4450
11180SOL    HW134828   4.806   7.043   5.772 -4.2072  0.5663 -0.2320
11180SOL    HW234829   4.763   6.898   5.769 -0.1892 -0.8024  0.8660
11181SOL     OW34830   5.225   3.610   4.376 -0.4193  0.2031  0.1507
11181SOL    HW134831   5.233   3.674   4.305  1.4752  1.3318  1.3268
11181SOL    HW234832   5.170   3.652   4.441  0.0986  0.2789  0.5426
11182SOL     OW34833   3.772   3.341   0.465 -0.2426 -0.2606  0.8305
11182SOL    HW134834   3.839   3.400   0.500  1.1931 -1.4505  0.2061
11182SOL    HW234835   3.689   3.376   0.499  0.3982  2.6737 -0.2967
11183SOL     OW34836   3.938   2.090   3.405 -0.3327 -0.3453 -0.1145
11183SOL    HW134837   3.969   2.075   3.316 -1.8778 -2.1479 -0.4096
11183SOL    HW234838   3.993   2.033   3.459 -0.3616 -0.3556 -0.0958
11184SOL     OW34839   7.139   1.149   7.606 -0.9490  0.1090  0.1493
11184SOL    HW134840   7.116   1.236   7.572 -2.3686 -0.3055 -0.0030
11184SOL    HW234841   7.073   1.090   7.570  0.7997 -1.3055 -0.8845
11185SOL     OW34842   8.313   3.018   3.356 -0.3874  0.3330 -0.4446
11185SOL    HW134843   8.386   3.078   3.371 -0.4764  0.5840 -0.9922
11185SOL    HW234844   8.345   2.932   3.385 -0.1349  0.5760  0.0024
11186SOL     OW34845   3.873   0.101   8.415 -0.0835 -0.5248 -0.4389
11186SOL    HW134846   3.835   0.051   8.343 -0.5006  1.2926 -1.5453
11186SOL    HW234847   3.807   0.097   8.485 -0.4836 -0.7936 -0.8314
11187SOL     OW34848   4.134   1.644   4.198 -0.5588  0.6309  0.3774
11187SOL    HW134849   4.142   1.650   4.293 -0.3231 -0.3366  0.4314
11187SOL    HW234850   4.111   1.732   4.170  0.7076  1.2568  1.2038
11188SOL     OW34851   2.885   8.301   0.094  0.3778  0.5467 -0.4332
11188SOL    HW134852   2.822   8.254   0.038  1.6565  1.8679 -3.1568
11188SOL    HW234853   2.893   8.387   0.053  3.8620  0.4709 -0.1604
11189SOL     OW34854   6.071   8.360   4.217  0.1088  0.6213  0.1045
11189SOL    HW134855   6.098   8.271   4.238 -0.1252  0.1655 -1.4423
11189SOL    HW234856   6.139   8.394   4.159 -0.5629  0.8983 -0.5448
11190SOL     OW34857   6.104   7.949   0.104  0.0665  0.2499 -0.5080
11190SOL    HW134858   6.097   7.854   0.103  0.0820  0.2525 -1.5048
11190SOL    HW234859   6.023   7.979   0.146 -0.5474 -0.1593 -1.3807
11191SOL     OW34860   8.100   4.432   2.822  0.5101  0.3228 -0.4786
11191SOL    HW134861   8.162   4.505   2.823  2.8201 -1.5311  0.8259
11191SOL    HW234862   8.154   4.354   2.808 -1.6409 -1.3195 -0.1501
11192SOL     OW34863   0.690   8.186   2.774 -0.2151  0.4384  0.3671
11192SOL    HW134864   0.620   8.184   2.708 -0.2212 -2.4005  0.3085
11192SOL    HW234865   0.659   8.247   2.841 -2.5021 -0.2817  0.0535
11193SOL     OW34866   3.665   7.898   6.133 -0.1702 -0.0164 -0.3551
11193SOL    HW134867   3.675   7.888   6.039  0.2298  2.0121 -0.5673
11193SOL    HW234868   3.707   7.820   6.171 -1.1646 -1.3402 -1.8288
11194SOL     OW34869   1.138   0.955   3.710  0.2059  0.3967 -0.3659
11194SOL    HW134870   1.104   0.893   3.773 -0.5526 -0.5974 -1.6961
11194SOL    HW234871   1.080   1.031   3.717 -0.7613 -0.2735 -0.8232
11195SOL     OW34872   2.324   1.148   0.254  0.0145  1.0291 -0.2845
11195SOL    HW134873   2.269   1.226   0.259  0.2181  1.5734 -3.9937
11195SOL    HW234874   2.409   1.180   0.224  0.3009 -0.5394 -1.2511
11196SOL     OW34875   0.710   6.364   5.721 -0.0734 -1.0538 -0.1710
11196SOL    HW134876   0.719   6.447   5.675 -1.8342 -0.4493  0.4762
11196SOL    HW234877   0.759   6.375   5.802  0.6450 -1.0767 -0.5960
11197SOL     OW34878   2.287   8.456   3.523  0.7934  0.6068  0.0273
11197SOL    HW134879   2.369   8.441   3.570  0.1407 -2.5305  0.3631
11197SOL    HW234880   2.288   8.393   3.452 -0.8949  1.2021 -0.5740
11198SOL     OW34881   8.378   7.990   1.479  0.0446 -0.1151  0.1355
11198SOL    HW134882   8.297   7.948   1.451  0.7155 -0.9356 -0.6543
11198SOL    HW234883   8.418   8.022   1.398  1.3710 -1.3462  0.2509
11199SOL     OW34884   5.010   0.677   4.569 -0.2480  0.4683  0.0893
11199SOL    HW134885   4.932   0.732   4.571 -0.8159 -0.2964 -0.5565
11199SOL    HW234886   5.004   0.623   4.647 -0.9459 -0.3654 -0.5320
11200SOL     OW34887   2.468   3.915   3.197 -0.1092 -0.1327  0.1679
11200SOL    HW134888   2.392   3.973   3.190 -0.1450 -0.2451 -0.4836
11200SOL    HW234889   2.540   3.966   3.159 -0.2918 -0.7696 -1.0690
11201SOL     OW34890   6.120   3.756   7.204  0.5822 -0.2936  0.3612
11201SOL    HW134891   6.187   3.790   7.263  1.2695 -1.5025  0.2990
11201SOL    HW234892   6.168   3.720   7.130 -0.2110 -0.0110 -0.3141
11202SOL     OW34893   8.380   1.613   4.960  0.2280  0.2719  0.0237
11202SOL    HW134894   8.475   1.617   4.947  0.3334 -1.9417 -0.2755
11202SOL    HW234895   8.344   1.614   4.871 -0.0157  0.4938  0.1213
11203SOL     OW34896   1.059   8.087   3.244 -0.3627  0.1294 -0.3580
11203SOL    HW134897   1.108   8.165   3.216  0.4482 -0.4378 -0.5485
11203SOL    HW234898   1.003   8.065   3.170 -1.2455  1.0221  0.0087
11204SOL     OW34899   4.881   5.002   6.798 -0.2668  0.2194 -0.3335
11204SOL    HW134900   4.879   4.928   6.736  0.1777  0.2168 -0.3551
11204SOL    HW234901   4.875   4.960   6.884  0.1763  0.1358 -0.3375
11205SOL     OW34902   0.521   3.474   7.034  0.2045 -0.1346  0.6284
11205SOL    HW134903   0.511   3.489   7.128  3.1247  0.6468  0.9112
11205SOL    HW234904   0.615   3.466   7.021 -0.1925 -1.6454 -2.0706
11206SOL     OW34905   0.807   1.066   0.691 -0.2818  0.1147  0.1884
11206SOL    HW134906   0.887   1.084   0.741  0.2574  0.8638 -0.9043
11206SOL    HW234907   0.822   1.109   0.607 -0.2846 -2.8199 -1.4284
11207SOL     OW34908   5.937   7.674   6.636  0.0775  0.2984  0.3848
11207SOL    HW134909   5.889   7.702   6.558 -1.8290  0.0355  1.3938
11207SOL    HW234910   5.885   7.603   6.672  1.4735 -0.2791  1.3449
11208SOL     OW34911   0.312   2.682   1.829  0.3671 -0.4438 -0.1887
11208SOL    HW134912   0.360   2.720   1.903  0.1505 -4.9224  2.5751
11208SOL    HW234913   0.360   2.712   1.751  1.2598  3.6259  1.6545
11209SOL     OW34914   6.092   6.848   0.702 -0.1769  0.6590 -0.3485
11209SOL    HW134915   6.159   6.818   0.640 -0.2266  1.0767 -0.6057
11209SOL    HW234916   6.093   6.943   0.694 -1.5064  0.6397 -1.0995
11210SOL     OW34917   7.292   4.889   8.399 -0.1588  0.2045  0.0036
11210SOL    HW134918   7.288   4.841   8.316 -0.7747  2.9040 -1.6519
11210SOL    HW234919   7.354   4.961   8.382 -0.1407  0.7087  1.9662
11211SOL     OW34920   2.733   3.728   2.402  0.0943 -0.5998  0.1429
11211SOL    HW134921   2.701   3.715   2.492 -0.6770 -1.2370 -0.2086
11211SOL    HW234922   2.712   3.646   2.357  0.9799 -0.4953 -0.4823
11212SOL     OW34923   6.901   7.981   4.412  0.3616 -0.0338 -0.5768
11212SOL    HW134924   6.911   8.065   4.369  1.5552  0.4226  0.4966
11212SOL    HW234925   6.991   7.955   4.435  0.1304 -2.0533 -1.6771
11213SOL     OW34926   4.765   0.298   6.637  0.4444  0.4509  0.4071
11213SOL    HW134927   4.782   0.306   6.543  1.9681  0.5974  0.6579
11213SOL    HW234928   4.715   0.376   6.659  0.7177  0.7941 -0.1532
11214SOL     OW34929   4.780   1.585   1.352  0.3611 -0.1623  0.8295
11214SOL    HW134930   4.804   1.494   1.339 -0.8341 -0.3133 -0.6125
11214SOL    HW234931   4.720   1.605   1.280  0.0762  1.5711  1.4841
11215SOL     OW34932   0.808   1.780   0.126  0.2211  0.4121 -0.6965
11215SOL    HW134933   0.759   1.772   0.208  0.3056 -2.7496 -0.8144
11215SOL    HW234934   0.900   1.775   0.153  0.2898  0.8078 -0.8628
11216SOL     OW34935   1.120   1.341   3.885 -0.0636  0.0236  0.1033
11216SOL    HW134936   1.065   1.377   3.816  0.8214 -1.1647 -1.2664
11216SOL    HW234937   1.136   1.415   3.944 -2.6404  0.5590  0.2878
11217SOL     OW34938   7.174   1.653   2.446 -0.0445 -0.4866 -0.5406
11217SOL    HW134939   7.161   1.594   2.520  1.1105 -1.6010 -1.1896
11217SOL    HW234940   7.181   1.740   2.485  0.5063 -1.0527  0.6576
11218SOL     OW34941   2.931   4.476   3.721 -0.3624 -0.0674  0.0116
11218SOL    HW134942   2.953   4.553   3.670  0.1434 -1.1160 -1.4221
11218SOL    HW234943   2.839   4.489   3.745  0.4494  2.2894  2.3087
11219SOL     OW34944   2.874   1.359   6.774  0.1933  0.5886  0.4674
11219SOL    HW134945   2.798   1.375   6.717 -1.2618 -1.7951  1.5990
11219SOL    HW234946   2.950   1.375   6.718 -1.1452  0.9580 -1.3306
11220SOL     OW34947   3.620   5.444   5.533  0.3168  0.1870  0.2514
11220SOL    HW134948   3.644   5.531   5.567  0.2482  0.4114 -0.2641
11220SOL    HW234949   3.700   5.392   5.543 -0.0281 -0.0957  1.8221
11221SOL     OW34950   2.597   0.113   5.205 -0.1834 -0.4088 -0.0150
11221SOL    HW134951   2.508   0.133   5.234  0.0444 -1.8074  1.8436
11221SOL    HW234952   2.653   0.144   5.277  0.6552 -1.4548 -0.2006
11222SOL     OW34953   1.592   2.649   6.479  0.4954  0.0842  0.2719
11222SOL    HW134954   1.504   2.684   6.466  0.8966  0.8553 -0.4742
11222SOL    HW234955   1.629   2.645   6.390  1.5620  0.6893  0.6763
11223SOL     OW34956   5.528   4.625   7.193  0.5739  0.3117  0.8397
11223SOL    HW134957   5.497   4.587   7.112  0.4618  2.8410 -0.4072
11223SOL    HW234958   5.624   4.625   7.184  0.6523 -0.9308  1.4907
11224SOL     OW34959   3.395   5.773   8.111 -0.4392 -0.0389  0.1375
11224SOL    HW134960   3.392   5.830   8.035  1.4377 -1.0531 -0.7596
11224SOL    HW234961   3.422   5.830   8.183 -0.2706  0.5267 -0.3661
11225SOL     OW34962   3.169   4.996   3.623  0.5832  0.0034  0.3505
11225SOL    HW134963   3.252   5.041   3.639  2.1237 -2.5083  0.0140
11225SOL    HW234964   3.109   5.032   3.688  1.6565  2.4686  0.0882
11226SOL     OW34965   6.787   5.330   6.354  0.6288  0.4155 -0.1061
11226SOL    HW134966   6.769   5.237   6.337 -4.6852  1.0609  0.3627
11226SOL    HW234967   6.862   5.329   6.413 -0.4196 -3.7449  1.5492
11227SOL     OW34968   3.807   5.771   6.435  0.1008 -0.1780 -0.0463
11227SOL    HW134969   3.764   5.697   6.392 -0.4407  0.2128 -0.1822
11227SOL    HW234970   3.901   5.751   6.428 -0.0144 -0.5417 -0.6379
11228SOL     OW34971   1.384   4.949   6.673  0.1524  0.3126 -0.0095
11228SOL    HW134972   1.311   4.909   6.625  1.5309 -1.5906 -0.6405
11228SOL    HW234973   1.422   4.878   6.723  0.4307  1.6944  1.8750
11229SOL     OW34974   6.701   7.019   3.212 -0.1336 -0.4090  0.1865
11229SOL    HW134975   6.628   6.994   3.155 -0.3708  0.1713  0.2224
11229SOL    HW234976   6.762   6.947   3.206 -0.4124 -0.6063 -0.3703
11230SOL     OW34977   7.342   7.584   2.247 -0.0304 -0.1516  0.0865
11230SOL    HW134978   7.319   7.493   2.268  1.2539 -0.8053 -1.1874
11230SOL    HW234979   7.303   7.635   2.318  0.4696 -1.8335  1.6493
11231SOL     OW34980   6.720   2.670   3.584 -0.2975 -0.1205  0.7727
11231SOL    HW134981   6.653   2.715   3.635  0.6294  2.4269 -0.0819
11231SOL    HW234982   6.803   2.706   3.616  0.3522  1.0303 -1.9081
11232SOL     OW34983   4.463   5.297   1.668 -0.1289 -0.1576  0.5931
11232SOL    HW134984   4.422   5.305   1.582  1.4867 -1.6527 -0.3841
11232SOL    HW234985   4.399   5.248   1.721 -1.1358  0.7791  0.2843
11233SOL     OW34986   5.713   3.616   8.683 -0.5759  0.3297  0.2331
11233SOL    HW134987   5.772   3.550   8.719  1.1314  1.0582 -1.0807
11233SOL    HW234988   5.631   3.604   8.731 -0.3735 -2.7652 -0.0082
11234SOL     OW34989   1.785   2.355   4.233  0.1100 -0.2416 -0.4633
11234SOL    HW134990   1.841   2.281   4.254  1.1172  0.7964  0.6506
11234SOL    HW234991   1.705   2.315   4.196  0.6151 -1.8542  0.1117
11235SOL     OW34992   3.369   0.997   4.645 -0.4735 -0.1992 -0.0782
11235SOL    HW134993   3.443   0.937   4.633 -1.1340 -0.9853 -0.3151
11235SOL    HW234994   3.349   0.991   4.738  1.2670  1.8554  0.5029
11236SOL     OW34995   0.586   1.130   7.406 -0.6991 -0.3032  0.4178
11236SOL    HW134996   0.620   1.189   7.474  0.7526  0.7875 -1.1902
11236SOL    HW234997   0.553   1.054   7.455  0.3289  0.4253  2.3405
11237SOL     OW34998   7.946   1.966   6.119 -0.1014 -0.3921  0.0288
11237SOL    HW134999   7.874   2.016   6.158 -0.5907 -2.1087  1.4769
11237SOL    HW235000   7.903   1.906   6.057  0.2779 -0.2979 -0.3349
11238SOL     OW35001   6.212   8.565   0.625  0.0988  0.7373 -0.7088
11238SOL    HW135002   6.227   8.574   0.720 -1.2579 -0.3432 -0.3571
11238SOL    HW235003   6.179   8.651   0.598 -0.4394  0.7678  0.0081
11239SOL     OW35004   5.049   0.296   3.987  0.4251  0.2471  0.0744
11239SOL    HW135005   5.001   0.279   4.068  0.1700 -1.8942 -0.4657
11239SOL    HW235006   5.126   0.345   4.014  0.2342 -0.2351  1.5788
11240SOL     OW35007   2.324   7.987   6.866 -0.2728 -0.0903 -0.0590
11240SOL    HW135008   2.307   8.048   6.937  0.7217  0.9661 -0.7113
11240SOL    HW235009   2.251   8.000   6.805  0.1730  0.7742 -0.4116
11241SOL     OW35010   0.192   6.012   2.829  0.8091  0.3168 -0.2204
11241SOL    HW135011   0.241   6.043   2.905 -0.8708 -1.2948  1.6280
11241SOL    HW235012   0.227   5.924   2.813 -0.1036 -0.0638 -0.1503
11242SOL     OW35013   7.946   1.493   3.638  0.5068 -0.1459  0.6771
11242SOL    HW135014   7.936   1.420   3.577 -0.7803  0.8242 -0.3295
11242SOL    HW235015   8.022   1.469   3.691  1.7017 -1.0426 -1.3147
11243SOL     OW35016   1.029   1.754   3.701 -0.0606  0.3115  0.2574
11243SOL    HW135017   1.006   1.741   3.793  0.9927 -1.0263  0.3562
11243SOL    HW235018   1.119   1.722   3.693 -0.6032 -0.9788 -1.5113
11244SOL     OW35019   0.319   0.243   3.939 -0.3289 -0.0264 -0.3910
11244SOL    HW135020   0.315   0.336   3.962 -1.3325 -0.2752  0.5013
11244SOL    HW235021   0.364   0.202   4.013  0.3854 -0.2323 -0.9184
11245SOL     OW35022   8.549   3.845   1.859 -0.0801  0.3315 -0.0425
11245SOL    HW135023   8.539   3.940   1.849 -0.0746  0.2652 -0.7470
11245SOL    HW235024   8.480   3.809   1.803 -0.7420 -0.0744  1.0179
11246SOL     OW35025   5.790   6.373   3.304 -0.1142 -0.3105  0.0183
11246SOL    HW135026   5.706   6.414   3.283  0.4612  0.3515 -1.1040
11246SOL    HW235027   5.771   6.279   3.305 -0.9760 -0.1457  0.3155
11247SOL     OW35028   7.919   7.227   0.198  0.2118 -0.5065  0.0724
11247SOL    HW135029   7.893   7.302   0.144 -2.4243 -1.4836 -0.1772
11247SOL    HW235030   7.993   7.189   0.150  0.0771  0.5580 -1.0619
11248SOL     OW35031   5.845   1.022   0.535  0.6566 -0.8225 -0.5234
11248SOL    HW135032   5.926   0.997   0.490  0.8538 -0.2086 -0.5254
11248SOL    HW235033   5.776   1.010   0.470  1.0372  0.8060 -1.2632
11249SOL     OW35034   1.291   2.292   2.885  0.5291  0.0776 -0.2513
11249SOL    HW135035   1.363   2.309   2.946  0.0369  0.5020  0.2206
11249SOL    HW235036   1.292   2.198   2.871  1.9568  0.1907 -1.2185
11250SOL     OW35037   4.028   0.275   4.503  0.3581  0.2535  0.2571
11250SOL    HW135038   3.942   0.316   4.499  0.6785  0.8296 -2.8024
11250SOL    HW235039   4.011   0.189   4.541 -1.6390  0.2530 -0.5013
11251SOL     OW35040   7.204   3.265   5.960 -0.4385  0.7766 -0.0170
11251SOL    HW135041   7.151   3.192   5.927 -1.4745  1.7525 -0.5857
11251SOL    HW235042   7.188   3.336   5.898  1.4518  1.1572 -0.1172
11252SOL     OW35043   6.946   6.278   1.661 -0.2791  0.6834 -0.3378
11252SOL    HW135044   6.999   6.202   1.686 -0.0928  0.9585  0.1309
11252SOL    HW235045   6.857   6.244   1.653 -0.3662  0.5966  0.8452
11253SOL     OW35046   3.582   2.720   6.417  0.3565 -0.1187  0.0426
11253SOL    HW135047   3.667   2.758   6.440  0.5368 -0.2304 -0.4276
11253SOL    HW235048   3.522   2.754   6.483  1.1638 -1.7805  1.7656
11254SOL     OW35049   7.665   7.474   5.898 -0.0783  0.1364  0.2083
11254SOL    HW135050   7.712   7.396   5.928  1.0807  0.6746 -0.1366
11254SOL    HW235051   7.733   7.530   5.860 -0.7740  1.6095  1.0354
11255SOL     OW35052   2.827   7.583   3.865 -0.5031 -0.4896 -0.0090
11255SOL    HW135053   2.792   7.649   3.805  0.4130 -0.8380 -0.9753
11255SOL    HW235054   2.790   7.605   3.950 -2.4044 -0.3779 -0.8204
11256SOL     OW35055   3.627   3.674   4.610  0.4317 -0.0811  0.3104
11256SOL    HW135056   3.656   3.758   4.645 -2.1281  0.2891  1.8378
11256SOL    HW235057   3.549   3.696   4.558  0.0709 -1.4266  0.2430
11257SOL     OW35058   3.438   6.130   1.096 -0.3713  0.2038  0.2176
11257SOL    HW135059   3.488   6.051   1.113 -1.4276 -1.0178 -2.0135
11257SOL    HW235060   3.401   6.153   1.182 -0.1641 -1.7839  0.8998
11258SOL     OW35061   6.525   0.451   8.224 -0.1420  0.2704  0.3963
11258SOL    HW135062   6.575   0.486   8.150 -1.1113  0.2148 -0.2979
11258SOL    HW235063   6.546   0.358   8.224 -2.9068 -0.5065 -2.1505
11259SOL     OW35064   7.236   3.180   0.391 -0.4016 -0.2356 -0.1701
11259SOL    HW135065   7.145   3.200   0.411 -0.0598  0.3713  0.8603
11259SOL    HW235066   7.248   3.210   0.301 -0.5021  2.3480  0.5791
11260SOL     OW35067   5.375   7.461   4.132  0.7979  0.3111 -0.1140
11260SOL    HW135068   5.391   7.389   4.193 -2.1860  0.4866  1.0907
11260SOL    HW235069   5.349   7.419   4.051 -0.3377 -0.0456  0.4036
11261SOL     OW35070   1.545   1.245   1.852 -0.0223  0.3909  0.0700
11261SOL    HW135071   1.636   1.223   1.871  0.4959  2.2895 -0.0463
11261SOL    HW235072   1.546   1.278   1.762 -1.1752 -1.3374 -0.6206
11262SOL     OW35073   3.340   0.732   2.775 -0.3892  0.8246 -0.1194
11262SOL    HW135074   3.320   0.751   2.683  0.4639  0.8877 -0.3039
11262SOL    HW235075   3.433   0.709   2.775 -0.3899  0.7873  0.7243
11263SOL     OW35076   6.132   6.792   2.106 -0.2330 -0.2057 -0.6047
11263SOL    HW135077   6.116   6.881   2.137 -0.4013 -0.6496  0.6400
11263SOL    HW235078   6.223   6.793   2.078 -0.4499  0.5514 -1.3332
11264SOL     OW35079   2.737   0.593   7.943 -0.0743  0.1825 -0.5651
11264SOL    HW135080   2.695   0.544   8.015 -0.0441  0.2992 -0.4681
11264SOL    HW235081   2.823   0.616   7.977  0.4075 -0.7954 -1.0736
11265SOL     OW35082   0.847   2.596   7.754  1.0038  0.2652  0.3377
11265SOL    HW135083   0.920   2.658   7.743  0.0321  2.0269  2.8877
11265SOL    HW235084   0.876   2.538   7.824  1.4049 -1.4970 -1.2184
11266SOL     OW35085   4.020   1.737   1.794  0.0369 -0.3305 -0.4785
11266SOL    HW135086   3.988   1.749   1.883  0.8805  1.0537 -0.3443
11266SOL    HW235087   4.113   1.715   1.804  0.0192 -0.6744 -1.0081
11267SOL     OW35088   6.999   4.142   3.088 -0.0471  0.1731 -0.3489
11267SOL    HW135089   7.054   4.064   3.073  1.5181  1.3087 -0.8155
11267SOL    HW235090   6.984   4.143   3.182 -0.7384 -1.0925 -0.4203
11268SOL     OW35091   5.947   0.485   4.749 -0.0168 -0.1287 -0.0705
11268SOL    HW135092   5.951   0.406   4.803 -0.6448 -1.6890 -2.1786
11268SOL    HW235093   6.035   0.493   4.713 -0.3024 -0.6575 -0.9001
11269SOL     OW35094   3.490   5.588   6.006 -0.1131  0.2128  0.3345
11269SOL    HW135095   3.434   5.511   6.017  1.0811 -0.9311 -1.2238
11269SOL    HW235096   3.579   5.554   6.015  0.4571  1.3008 -0.9531
11270SOL     OW35097   2.060   4.185   6.578 -0.3204  0.4366 -0.5001
11270SOL    HW135098   2.019   4.108   6.540  0.1002 -0.4738  0.8244
11270SOL    HW235099   2.060   4.250   6.507 -1.8668 -0.3214 -1.2357
11271SOL     OW35100   0.282   1.808   7.131  0.0124  0.3542 -0.5267
11271SOL    HW135101   0.298   1.840   7.042  1.8297  0.3857 -0.2265
11271SOL    HW235102   0.207   1.859   7.162 -0.0172  1.0455 -1.6870
11272SOL     OW35103   0.023   3.353   3.272 -0.0090 -0.3543  0.2548
11272SOL    HW135104   0.084   3.420   3.239 -0.3933 -1.6300 -3.5160
11272SOL    HW235105   0.078   3.277   3.291 -0.1243 -0.7457 -0.9050
11273SOL     OW35106   2.121   8.503   3.216 -0.4880 -0.1138 -0.6769
11273SOL    HW135107   2.076   8.460   3.142 -3.0243  0.0688  0.6480
11273SOL    HW235108   2.182   8.437   3.248 -0.8125 -0.9420 -1.6905
11274SOL     OW35109   5.744   4.335   7.801  0.1360  0.0388  0.1587
11274SOL    HW135110   5.715   4.354   7.711 -0.0766 -0.1409  0.1859
11274SOL    HW235111   5.739   4.419   7.846  1.5001  0.4067 -0.3279
11275SOL     OW35112   0.319   0.079   2.294  0.6080  0.2691 -0.1004
11275SOL    HW135113   0.322   0.159   2.242 -0.6690  0.9022  0.7536
11275SOL    HW235114   0.335   0.107   2.384  1.4478 -0.6279  0.0500
11276SOL     OW35115   1.109   2.993   3.025 -0.1076  0.2363  0.0357
11276SOL    HW135116   1.046   3.065   3.031 -1.9101 -1.3584  1.3257
11276SOL    HW235117   1.170   3.009   3.097 -1.8145 -0.6533  1.7484
11277SOL     OW35118   6.924   4.178   1.151 -0.5936  0.3385  0.5919
11277SOL    HW135119   6.853   4.212   1.097  1.1718  0.5726 -1.7471
11277SOL    HW235120   6.905   4.085   1.160 -1.2165  0.4042  0.0516
11278SOL     OW35121   0.309   3.808   6.922  0.6944 -0.3200 -0.1147
11278SOL    HW135122   0.220   3.830   6.949  1.6106  0.2093  2.8854
11278SOL    HW235123   0.335   3.880   6.865 -0.8339 -0.5954 -1.2077
11279SOL     OW35124   6.406   7.304   3.685  0.6048 -0.1397 -0.0489
11279SOL    HW135125   6.501   7.303   3.695  0.5094 -0.5528  0.9032
11279SOL    HW235126   6.374   7.246   3.753 -0.4885  2.4243  1.7826
11280SOL     OW35127   3.144   4.047   3.367 -0.2650 -0.1100  0.0261
11280SOL    HW135128   3.219   4.049   3.427  0.0692  0.0260 -0.3894
11280SOL    HW235129   3.177   4.087   3.286 -0.7502 -0.1662 -0.2030
11281SOL     OW35130   8.623   3.583   6.734  0.2606 -0.8506 -0.0838
11281SOL    HW135131   8.671   3.537   6.803  1.2909 -0.9377 -0.8342
11281SOL    HW235132   8.569   3.515   6.694  0.8785 -1.1599 -0.4082
11282SOL     OW35133   1.367   5.326   2.393 -0.4582  0.4343  0.5569
11282SOL    HW135134   1.340   5.339   2.484  1.1254  0.9183  0.9864
11282SOL    HW235135   1.286   5.303   2.348 -1.0381 -1.4229  2.3714
11283SOL     OW35136   1.863   1.433   1.225  0.8729  0.2648 -0.0342
11283SOL    HW135137   1.951   1.457   1.253  1.8555 -2.3544 -0.5617
11283SOL    HW235138   1.868   1.431   1.129  0.8684 -1.7006 -0.0453
11284SOL     OW35139   6.493   5.082   2.419 -0.4851 -0.3153  0.5253
11284SOL    HW135140   6.510   5.154   2.479 -0.8093 -1.0691  1.5478
11284SOL    HW235141   6.465   5.124   2.338  0.7057  0.7492  0.6439
11285SOL     OW35142   6.322   5.091   7.086  0.7827 -0.3900 -0.1404
11285SOL    HW135143   6.415   5.068   7.084  0.6868 -1.2684  2.1381
11285SOL    HW235144   6.319   5.183   7.061  2.4028 -0.0370  0.8498
11286SOL     OW35145   2.092   7.517   1.133 -0.5358  0.8517 -0.2037
11286SOL    HW135146   2.177   7.499   1.174 -0.8414  2.4188  1.2526
11286SOL    HW235147   2.106   7.597   1.083 -0.7660  0.1985 -1.3527
11287SOL     OW35148   6.784   5.730   3.147 -0.8432  0.2157 -0.1971
11287SOL    HW135149   6.791   5.638   3.121 -2.8115 -0.7907  2.3911
11287SOL    HW235150   6.853   5.742   3.212 -0.9502  0.4036 -0.1179
11288SOL     OW35151   4.931   4.888   1.875 -0.1590 -0.4239 -0.0409
11288SOL    HW135152   4.879   4.815   1.910  0.3762 -1.2338 -0.8917
11288SOL    HW235153   5.020   4.870   1.905 -0.1994  0.4733  0.6458
11289SOL     OW35154   0.713   7.387   8.601 -0.4445  1.0108  0.8833
11289SOL    HW135155   0.761   7.305   8.591 -2.4961 -0.2660  0.7715
11289SOL    HW235156   0.744   7.443   8.530 -1.3664 -0.9447 -1.1892
11290SOL     OW35157   2.718   1.804   2.132  0.0405  0.0724  0.3477
11290SOL    HW135158   2.702   1.761   2.048  1.0453 -0.5229  0.4461
11290SOL    HW235159   2.784   1.870   2.114  1.7106 -1.3413  0.9923
11291SOL     OW35160   0.924   2.327   6.206  0.4095 -0.6744 -0.8990
11291SOL    HW135161   0.949   2.413   6.240  0.2350 -1.1051  0.3858
11291SOL    HW235162   0.839   2.309   6.247  0.1935 -1.2276 -1.5755
11292SOL     OW35163   7.626   2.187   5.140 -0.0869  0.0480 -0.4229
11292SOL    HW135164   7.552   2.245   5.121 -0.3578 -0.3851 -0.7366
11292SOL    HW235165   7.691   2.243   5.181 -0.5254  0.4744 -0.2949
11293SOL     OW35166   2.525   5.957   3.830 -0.1553 -0.3290 -0.5757
11293SOL    HW135167   2.518   5.881   3.773 -1.2946 -0.4141 -0.3501
11293SOL    HW235168   2.460   6.018   3.796 -0.0980  0.0462 -0.0211
11294SOL     OW35169   7.930   5.928   6.264  0.3791  0.0691  0.2287
11294SOL    HW135170   7.978   5.875   6.327  0.0974 -0.5416 -0.0622
11294SOL    HW235171   7.968   5.905   6.180  1.0187  1.1724  0.2033
11295SOL     OW35172   0.170   2.541   4.599 -0.7189 -0.3443 -0.1548
11295SOL    HW135173   0.237   2.526   4.666  0.0231 -0.8823 -0.9948
11295SOL    HW235174   0.129   2.623   4.624 -0.3986 -0.4916  0.9119
11296SOL     OW35175   1.714   8.008   0.369  0.1208 -0.7031 -0.2593
11296SOL    HW135176   1.660   8.053   0.434  1.0811  1.4545 -0.8681
11296SOL    HW235177   1.804   8.017   0.403  0.7187  1.0517 -2.1356
11297SOL     OW35178   1.368   2.022   6.163 -0.3589  0.5807  0.0409
11297SOL    HW135179   1.342   2.099   6.112  0.1774  0.8335  0.1462
11297SOL    HW235180   1.464   2.023   6.160 -0.3561 -0.1787 -0.0999
11298SOL     OW35181   4.588   3.998   6.175 -0.3505  0.1849 -0.2185
11298SOL    HW135182   4.546   3.926   6.221 -0.1426  0.5168  0.4997
11298SOL    HW235183   4.581   3.974   6.082 -0.2869 -0.7563  0.0037
11299SOL     OW35184   8.253   1.762   3.096 -0.0481 -0.1497  0.2477
11299SOL    HW135185   8.194   1.837   3.106  0.1204  0.1639 -0.9872
11299SOL    HW235186   8.282   1.766   3.005  0.5576 -1.2858  0.3739
11300SOL     OW35187   3.267   7.478   0.287 -0.2878  0.0038  0.0230
11300SOL    HW135188   3.197   7.524   0.241  0.2874 -0.9486 -1.8708
11300SOL    HW235189   3.263   7.389   0.254  2.5892  0.2057 -1.1239
11301SOL     OW35190   5.278   8.695   1.944 -0.5736  0.0023  0.3722
11301SOL    HW135191   5.239   8.643   1.874  0.0100  2.1250 -1.6765
11301SOL    HW235192   5.206   8.750   1.976 -0.3054  0.7999 -0.3500
11302SOL     OW35193   7.192   2.029   7.209 -0.4027 -0.4535 -0.3628
11302SOL    HW135194   7.233   1.989   7.286 -1.6613  0.5985  0.8854
11302SOL    HW235195   7.246   2.105   7.190 -0.1379 -0.6679 -0.4762
11303SOL     OW35196   2.854   0.552   0.526  0.6657 -0.7119 -0.6792
11303SOL    HW135197   2.815   0.526   0.443 -0.6223 -3.6092  0.6861
11303SOL    HW235198   2.852   0.648   0.525 -0.6421 -0.6901 -3.3467
11304SOL     OW35199   1.363   7.584   6.572 -0.3902 -0.1357  0.3135
11304SOL    HW135200   1.436   7.576   6.632 -0.6215 -0.9699  0.4996
11304SOL    HW235201   1.401   7.616   6.490 -0.0476  0.8158  0.8370
11305SOL     OW35202   7.004   4.746   2.842 -0.5237  0.0833 -0.0607
11305SOL    HW135203   7.009   4.679   2.773 -2.0838  0.7291 -0.8306
11305SOL    HW235204   7.054   4.820   2.807  0.9949 -0.5423  0.6892
11306SOL     OW35205   8.061   3.770   4.691 -0.1294  0.0523 -0.4026
11306SOL    HW135206   7.985   3.829   4.693  0.3484  0.6633  0.0083
11306SOL    HW235207   8.023   3.683   4.704 -1.0123  0.0515 -2.5230
11307SOL     OW35208   0.038   3.131   7.890 -0.3904 -0.2978  0.8916
11307SOL    HW135209  -0.002   3.179   7.818 -0.2959 -1.5600 -0.0338
11307SOL    HW235210  -0.027   3.134   7.960 -1.8194 -1.6562 -0.3134
11308SOL     OW35211   2.819   6.478   0.073  0.4350 -0.1850  0.0804
11308SOL    HW135212   2.811   6.569   0.099  0.4948  0.0789 -0.7772
11308SOL    HW235213   2.913   6.461   0.073  0.4707 -0.0174 -0.4770
11309SOL     OW35214   5.996   1.226   6.162 -0.2347  0.0616 -0.2980
11309SOL    HW135215   5.905   1.256   6.161 -0.6177 -1.0343 -1.5191
11309SOL    HW235216   6.044   1.297   6.204 -1.5005  1.1289 -0.5643
11310SOL     OW35217   2.489   4.452   0.264  0.4708 -0.1135  0.1860
11310SOL    HW135218   2.584   4.439   0.265  0.2558 -2.0868 -0.5773
11310SOL    HW235219   2.459   4.413   0.347  0.3855  1.3372  0.8648
11311SOL     OW35220   4.840   2.526   7.201  0.3474  0.7129 -0.0355
11311SOL    HW135221   4.872   2.441   7.231  1.2062  0.3123 -1.9195
11311SOL    HW235222   4.912   2.561   7.148 -0.5292  1.9850 -0.4268
11312SOL     OW35223   5.375   5.749   6.597 -0.5707  0.5060 -0.6319
11312SOL    HW135224   5.438   5.761   6.526 -0.4888  0.1955 -0.6126
11312SOL    HW235225   5.428   5.721   6.671 -0.7233  0.3211 -0.5940
11313SOL     OW35226   0.885   6.904   2.938  0.1630  0.6072 -0.0190
11313SOL    HW135227   0.805   6.920   2.890  1.3166  1.0186 -1.8884
11313SOL    HW235228   0.953   6.895   2.871  1.1222 -3.5516  1.2020
11314SOL     OW35229   2.726   5.295   5.927 -0.4420 -0.0758 -0.0284
11314SOL    HW135230   2.788   5.365   5.910  0.2902 -1.2513 -2.6759
11314SOL    HW235231   2.724   5.243   5.846  1.3846 -4.9111  2.5730
11315SOL     OW35232   2.676   0.177   7.359  0.6071  0.0531 -0.2383
11315SOL    HW135233   2.735   0.164   7.434  1.4875  2.1773 -0.4728
11315SOL    HW235234   2.732   0.163   7.282 -0.0214 -1.0610 -0.5030
11316SOL     OW35235   5.078   5.708   2.397  0.3718  0.1967  0.1315
11316SOL    HW135236   5.051   5.660   2.476  0.6864 -0.7002 -0.2814
11316SOL    HW235237   5.091   5.639   2.331  0.2251  0.9231 -0.6718
11317SOL     OW35238   6.811   6.140   2.544  0.1415 -0.3333 -0.2470
11317SOL    HW135239   6.827   6.225   2.586  0.8098 -0.2302 -0.6907
11317SOL    HW235240   6.785   6.082   2.615  1.0238 -0.0981  0.2805
11318SOL     OW35241   2.911   2.486   7.587  0.3969 -0.3454  0.4459
11318SOL    HW135242   2.898   2.562   7.530  0.2170  0.9055  2.0651
11318SOL    HW235243   2.996   2.501   7.628  0.8307 -1.5680  0.0329
11319SOL     OW35244   7.954   1.905   4.412  0.4109  0.9026 -0.1958
11319SOL    HW135245   7.974   1.818   4.447 -0.0262  0.2092 -1.6225
11319SOL    HW235246   8.039   1.940   4.387  0.8987  1.8871  2.4830
11320SOL     OW35247   5.472   6.564   3.446  0.0446  0.5161  0.2465
11320SOL    HW135248   5.484   6.647   3.492 -1.8020  1.2327 -0.4585
11320SOL    HW235249   5.535   6.567   3.374  0.8025  0.7499  0.8985
11321SOL     OW35250   5.369   5.205   1.416  0.2303 -0.0335 -0.4531
11321SOL    HW135251   5.353   5.294   1.449  1.6402 -0.1413  0.6563
11321SOL    HW235252   5.380   5.216   1.322 -1.0580  0.7319 -0.5431
11322SOL     OW35253   1.409   0.258   2.100 -0.2102 -0.3430  0.2426
11322SOL    HW135254   1.321   0.287   2.126 -0.2635 -0.5178  0.2621
11322SOL    HW235255   1.428   0.307   2.020  0.2022  0.6375  0.9364
11323SOL     OW35256   8.320   5.120   8.347  0.3441 -0.1702 -0.7546
11323SOL    HW135257   8.370   5.117   8.266  0.0100  1.0860 -1.0330
11323SOL    HW235258   8.275   5.204   8.345 -0.3702 -0.4890  0.3270
11324SOL     OW35259   2.482   2.729   3.602 -0.0271  0.2751  0.3189
11324SOL    HW135260   2.472   2.808   3.549  0.4742 -0.5664 -1.0753
11324SOL    HW235261   2.540   2.673   3.551  0.3233 -0.6620  1.6849
11325SOL     OW35262   8.269   4.332   6.249  0.7483 -0.2216 -0.1379
11325SOL    HW135263   8.258   4.350   6.342 -0.0566  1.3177 -0.5023
11325SOL    HW235264   8.300   4.414   6.212  1.3277 -0.8918 -1.2046
11326SOL     OW35265   1.088   3.756   2.241 -0.2346 -0.4126 -0.8170
11326SOL    HW135266   1.012   3.803   2.276 -0.5557 -1.8661  0.5918
11326SOL    HW235267   1.090   3.778   2.148 -2.6163 -0.6028 -0.9751
11327SOL     OW35268   7.341   3.862   4.878  0.1043  0.3690 -0.3571
11327SOL    HW135269   7.253   3.883   4.846 -0.6242 -1.8935 -0.0518
11327SOL    HW235270   7.343   3.894   4.968  0.0407  1.4757 -0.7341
11328SOL     OW35271   2.341   5.219   5.074 -0.1950 -0.0974 -0.1727
11328SOL    HW135272   2.396   5.184   5.003 -0.2702  1.2096 -0.9200
11328SOL    HW235273   2.282   5.280   5.030 -1.6229 -0.7666  0.7593
11329SOL     OW35274   2.044   7.656   0.312  0.5595 -0.2676 -0.1563
11329SOL    HW135275   1.954   7.679   0.335  0.6866 -0.0168  0.0948
11329SOL    HW235276   2.069   7.589   0.377  1.2630  1.1576  1.1201
11330SOL     OW35277   7.584   7.891   0.296 -0.2499 -0.3942 -0.1325
11330SOL    HW135278   7.545   7.971   0.331 -2.6240 -2.2004  1.7001
11330SOL    HW235279   7.656   7.871   0.355 -0.8971 -0.6000  0.6080
11331SOL     OW35280   7.210   7.955   6.233 -0.2892  0.0781 -0.4794
11331SOL    HW135281   7.119   7.966   6.262 -0.4675 -2.7122  0.3294
11331SOL    HW235282   7.233   8.039   6.194 -2.2752  1.8503  1.8176
11332SOL     OW35283   5.631   5.874   7.578 -0.3783  0.0166 -0.2166
11332SOL    HW135284   5.576   5.946   7.610 -0.4573  0.3395 -1.0278
11332SOL    HW235285   5.568   5.807   7.549 -0.5158  1.2526 -3.1669
11333SOL     OW35286   3.332   0.535   1.358  0.2674 -0.1083 -0.3177
11333SOL    HW135287   3.399   0.490   1.410 -0.2206 -0.1462  0.2918
11333SOL    HW235288   3.380   0.574   1.285  1.0310  0.2954  0.3842
11334SOL     OW35289   5.977   0.542   7.116 -0.1967  0.3668 -0.2139
11334SOL    HW135290   5.923   0.543   7.195 -1.9895 -0.6229 -1.3587
11334SOL    HW235291   6.047   0.479   7.136 -1.2588 -0.7136  0.2306
11335SOL     OW35292   0.747   5.016   2.941  0.4488  0.1634 -0.2552
11335SOL    HW135293   0.836   5.046   2.959  0.3041  0.5914 -0.2470
11335SOL    HW235294   0.707   5.088   2.893 -0.7259  1.1242  1.9850
11336SOL     OW35295   1.550   8.178   8.514 -0.4079  0.0146  0.0860
11336SOL    HW135296   1.590   8.093   8.531 -3.5746 -1.7073 -0.3756
11336SOL    HW235297   1.541   8.218   8.601 -2.1777 -1.7965  0.8085
11337SOL     OW35298   1.580   1.821   8.245  0.1306  0.3338  0.6112
11337SOL    HW135299   1.580   1.892   8.181  0.4470  0.8247  1.1581
11337SOL    HW235300   1.509   1.763   8.215  2.0541 -0.9594 -1.8530
11338SOL     OW35301   5.007   3.636   0.722  0.1276  0.0956  0.2806
11338SOL    HW135302   5.048   3.722   0.719 -0.3499  0.3024 -0.9534
11338SOL    HW235303   4.921   3.651   0.761 -0.3174  0.3519 -0.7680
11339SOL     OW35304   1.590   7.811   6.086  0.2503  0.0491 -0.2741
11339SOL    HW135305   1.633   7.862   6.155  0.7445  0.6925 -1.0390
11339SOL    HW235306   1.648   7.819   6.011 -0.8938  0.4201 -1.1573
11340SOL     OW35307   3.825   4.460   5.268  0.0651  0.5710  0.6781
11340SOL    HW135308   3.828   4.382   5.211  0.0093  0.6300  0.5943
11340SOL    HW235309   3.909   4.460   5.313  0.0776  0.4781  0.6550
11341SOL     OW35310   6.328   3.931   4.467 -0.4342  0.5691 -0.1331
11341SOL    HW135311   6.366   4.011   4.430  1.0273  0.4694  1.0441
11341SOL    HW235312   6.288   3.887   4.393  0.4074  1.4731 -1.1670
11342SOL     OW35313   7.246   2.365   5.343 -0.1202  0.3028 -1.2145
11342SOL    HW135314   7.329   2.340   5.383 -0.0968 -1.7776 -2.4195
11342SOL    HW235315   7.270   2.400   5.257 -0.4588 -0.5777 -1.6887
11343SOL     OW35316   5.592   1.903   7.055  0.1639  0.2969  0.7063
11343SOL    HW135317   5.680   1.940   7.050  1.1842 -2.0809 -0.3936
11343SOL    HW235318   5.538   1.962   7.002  1.5694  0.5983 -0.4536
11344SOL     OW35319   6.464   4.001   2.836  0.3791  0.5000  0.2158
11344SOL    HW135320   6.458   4.041   2.749 -0.8161 -0.2032 -0.0576
11344SOL    HW235321   6.416   4.061   2.893 -2.7027 -1.1081 -0.4573
11345SOL     OW35322   5.923   4.627   4.123 -0.6298 -0.1670 -0.3497
11345SOL    HW135323   5.850   4.677   4.160 -0.1668  0.0293  0.3301
11345SOL    HW235324   5.883   4.570   4.057 -1.2094  0.9031 -0.9480
11346SOL     OW35325   1.432   8.449   5.116  0.1396  0.5263 -0.3319
11346SOL    HW135326   1.500   8.430   5.180  0.1792 -1.0876 -0.8174
11346SOL    HW235327   1.350   8.444   5.165  0.2472  0.7071 -0.1291
11347SOL     OW35328   3.454   0.680   8.601 -0.0845 -0.1818  0.0672
11347SOL    HW135329   3.457   0.775   8.587  0.1472 -0.3266 -0.9191
11347SOL    HW235330   3.477   0.643   8.516  1.9839 -1.1333  0.9980
11348SOL     OW35331   5.107   6.622   7.772 -0.5229 -0.1633 -0.1030
11348SOL    HW135332   5.171   6.628   7.701  0.1177 -0.2155  0.4631
11348SOL    HW235333   5.054   6.545   7.750 -0.0845 -0.4019 -0.3196
11349SOL     OW35334   2.781   5.730   5.944 -0.0594  0.0752 -0.4373
11349SOL    HW135335   2.830   5.804   5.908 -0.8066  0.1226 -1.3967
11349SOL    HW235336   2.782   5.664   5.874 -1.2397  0.0268 -0.4270
11350SOL     OW35337   0.720   6.375   7.029  0.1642  0.4969  0.3766
11350SOL    HW135338   0.752   6.433   7.098  0.2346  1.3045 -0.3221
11350SOL    HW235339   0.633   6.408   7.008  0.2897  0.4837 -0.1747
11351SOL     OW35340   7.014   2.686   3.550 -0.4324 -0.3525  0.0799
11351SOL    HW135341   7.099   2.711   3.516  0.2154 -0.0213  1.8313
11351SOL    HW235342   6.976   2.767   3.583  0.0359 -0.9484  2.2936
11352SOL     OW35343   0.537   7.145   7.820  0.0508 -0.2020 -0.3682
11352SOL    HW135344   0.492   7.142   7.736 -2.5205  3.3499  0.6200
11352SOL    HW235345   0.473   7.110   7.883  0.8167 -0.1498  0.4634
11353SOL     OW35346   2.475   7.070   8.594 -0.0929  0.1538  0.3593
11353SOL    HW135347   2.410   7.072   8.664  1.3574 -2.4989  1.9596
11353SOL    HW235348   2.453   6.993   8.542 -1.8880  2.6983 -3.1108
11354SOL     OW35349   3.928   0.025   3.241 -0.0866 -0.2764  0.7752
11354SOL    HW135350   3.969  -0.019   3.166 -0.4876  0.3654  0.1605
11354SOL    HW235351   3.848   0.063   3.205 -0.2690  0.0675  1.5292
11355SOL     OW35352   5.586   7.702   3.505 -0.4430  0.3463 -0.3679
11355SOL    HW135353   5.590   7.614   3.466  1.6324  0.5730 -0.7305
11355SOL    HW235354   5.675   7.720   3.534 -1.1546  1.7446  1.0735
11356SOL     OW35355   2.068   4.424   1.669  0.7340  0.5354  0.2958
11356SOL    HW135356   2.067   4.341   1.623  0.2920 -0.1780  1.5532
11356SOL    HW235357   1.975   4.446   1.681  0.8103  0.0428  1.9785
11357SOL     OW35358   4.934   2.534   6.562 -0.3110 -0.3091  0.2376
11357SOL    HW135359   4.978   2.605   6.608  1.6080 -0.7943 -0.6996
11357SOL    HW235360   4.915   2.569   6.475 -0.1658 -0.6534  0.0616
11358SOL     OW35361   6.996   1.064   7.124 -0.7552 -0.0519  0.5277
11358SOL    HW135362   7.069   1.119   7.095 -0.2990 -1.2183 -0.6573
11358SOL    HW235363   7.038   0.982   7.151 -1.6844 -1.2097 -1.3604
11359SOL     OW35364   7.098   6.919   0.541 -0.2891  0.3937 -0.0217
11359SOL    HW135365   7.065   6.830   0.527 -0.1405  0.4712 -0.8744
11359SOL    HW235366   7.112   6.924   0.636  0.1323 -0.6408 -0.0122
11360SOL     OW35367   7.857   6.291   3.522 -0.1583  0.2360  0.6026
11360SOL    HW135368   7.868   6.318   3.431 -0.2402 -0.7068  0.3058
11360SOL    HW235369   7.945   6.300   3.560  0.0927 -0.3453  0.1609
11361SOL     OW35370   1.622   8.111   0.606 -0.5172  0.4807 -0.3813
11361SOL    HW135371   1.536   8.109   0.649 -0.0890 -1.0851  0.4989
11361SOL    HW235372   1.673   8.172   0.659 -0.9896  1.1945 -0.7349
11362SOL     OW35373   6.532   8.243   6.164 -0.7064  0.3424 -0.1501
11362SOL    HW135374   6.500   8.155   6.187 -1.1082 -0.0260 -1.9889
11362SOL    HW235375   6.627   8.237   6.176 -0.7424 -0.3018 -0.1400
11363SOL     OW35376   3.249   4.085   6.233 -0.1812 -0.1340 -0.2978
11363SOL    HW135377   3.225   3.992   6.236  1.2812 -0.5575  3.1985
11363SOL    HW235378   3.165   4.131   6.235 -0.9075 -1.4298  0.5693
11364SOL     OW35379   5.620   1.318   7.312  0.3589 -0.2065  0.0050
11364SOL    HW135380   5.636   1.281   7.225 -0.6606  0.8981 -0.6783
11364SOL    HW235381   5.530   1.350   7.309  0.9954  1.8402  0.7023
11365SOL     OW35382   7.663   0.340   0.374 -0.1066 -0.1383  0.0635
11365SOL    HW135383   7.697   0.413   0.426  0.6931 -0.9412  0.6964
11365SOL    HW235384   7.569   0.357   0.367 -0.1730  0.1919  1.4701
11366SOL     OW35385   7.247   8.437   2.511 -0.5912 -0.0765  0.3779
11366SOL    HW135386   7.333   8.470   2.539 -0.2366 -0.6733  0.0082
11366SOL    HW235387   7.266   8.386   2.433 -1.1249 -1.2274  0.9835
11367SOL     OW35388   4.451   6.417   4.416 -0.9466 -0.5974 -0.0307
11367SOL    HW135389   4.470   6.325   4.436 -0.3374 -1.2300 -3.0425
11367SOL    HW235390   4.397   6.414   4.337  0.1738  1.6471 -0.9682
11368SOL     OW35391   4.393   8.703   3.136 -0.2443  0.0828  0.1914
11368SOL    HW135392   4.336   8.720   3.061 -0.4215  0.3120  0.3778
11368SOL    HW235393   4.466   8.763   3.124  0.3199 -0.6840 -0.4196
11369SOL     OW35394   5.827   6.358   3.870 -0.0815  0.2155 -0.9146
11369SOL    HW135395   5.911   6.399   3.852  0.2681 -0.4966 -0.8970
11369SOL    HW235396   5.843   6.301   3.945 -0.2782 -0.8382 -1.6444
11370SOL     OW35397   6.131   3.138   2.521  0.1756 -0.0955  0.3184
11370SOL    HW135398   6.204   3.201   2.517  0.5325 -0.5688 -1.3979
11370SOL    HW235399   6.172   3.056   2.549  0.0352 -0.0196  0.7535
11371SOL     OW35400   5.802   6.747   6.570 -0.6332 -0.1939  0.4115
11371SOL    HW135401   5.861   6.780   6.638 -1.1430  0.1667  0.6830
11371SOL    HW235402   5.801   6.815   6.503  0.8723 -1.1047 -0.5857
11372SOL     OW35403   7.661   1.850   2.871  0.1147  0.0987 -1.0197
11372SOL    HW135404   7.595   1.898   2.920  0.4144 -2.1980  1.9067
11372SOL    HW235405   7.612   1.797   2.809 -1.0179 -1.8427  1.3493
11373SOL     OW35406   2.261   6.987   5.274  0.5685  0.0597  0.0042
11373SOL    HW135407   2.215   6.910   5.308 -3.9373  1.6745 -1.6327
11373SOL    HW235408   2.255   6.978   5.179  3.6302  0.6031 -0.3460
11374SOL     OW35409   5.758   8.048   1.241 -0.2297 -0.3029 -0.2358
11374SOL    HW135410   5.853   8.035   1.233 -0.0370  1.2665 -0.8632
11374SOL    HW235411   5.749   8.126   1.295 -1.1720 -0.4482 -0.1710
11375SOL     OW35412   1.420   8.505   7.483 -0.0095  0.1474  0.4391
11375SOL    HW135413   1.404   8.474   7.394  0.9276  2.2386 -0.5339
11375SOL    HW235414   1.346   8.472   7.534 -0.9062 -0.5633 -1.2497
11376SOL     OW35415   2.118   5.553   3.788 -0.0500  0.0635  0.7006
11376SOL    HW135416   2.191   5.606   3.755 -1.0485  0.6678 -0.6096
11376SOL    HW235417   2.148   5.523   3.874  1.1450  1.5044  0.8350
11377SOL     OW35418   6.400   0.762   0.408  0.4249  0.3485  0.0222
11377SOL    HW135419   6.430   0.738   0.320  0.7172  0.2379  0.1526
11377SOL    HW235420   6.465   0.824   0.440 -0.2362  1.2061 -0.2445
11378SOL     OW35421   3.004   4.351   8.391 -0.1207 -0.0078  0.0063
11378SOL    HW135422   3.089   4.329   8.352 -0.6746 -0.4910 -0.9531
11378SOL    HW235423   2.941   4.336   8.322 -1.0994 -0.4816  0.9694
11379SOL     OW35424   7.314   2.729   0.007 -0.3905 -0.1925  0.3158
11379SOL    HW135425   7.341   2.697  -0.079  0.2349 -0.3974  0.5823
11379SOL    HW235426   7.228   2.769  -0.008 -0.0967  0.1642 -0.4826
11380SOL     OW35427   7.442   2.770   1.551  0.1985 -0.5222 -0.3618
11380SOL    HW135428   7.492   2.750   1.472  0.7486 -0.3452 -0.0634
11380SOL    HW235429   7.455   2.864   1.565 -0.4344 -0.4209 -0.4266
11381SOL     OW35430   8.004   2.417   8.156  0.4874 -0.0825 -0.1607
11381SOL    HW135431   7.949   2.431   8.233 -0.6998 -1.7493 -0.6483
11381SOL    HW235432   8.087   2.459   8.178 -0.0984  0.2026  1.6824
11382SOL     OW35433   7.949   6.561   7.359 -0.0777 -0.2159 -0.6696
11382SOL    HW135434   8.038   6.594   7.347  0.4863 -0.9335  1.1513
11382SOL    HW235435   7.893   6.637   7.344  0.8724  0.4009 -1.2022
11383SOL     OW35436   7.381   2.222   0.470 -0.4770  0.0528 -0.6782
11383SOL    HW135437   7.318   2.236   0.541  0.3874 -0.9605  0.3395
11383SOL    HW235438   7.327   2.217   0.391 -1.7007 -0.7890  0.1551
11384SOL     OW35439   6.830   3.984   3.479 -0.4464 -0.4400  0.4708
11384SOL    HW135440   6.884   3.917   3.437  0.7039 -0.3271  1.6768
11384SOL    HW235441   6.884   4.063   3.474 -1.8453  0.4656 -1.0549
11385SOL     OW35442   8.003   3.228   4.129 -0.3068 -0.4436 -0.0195
11385SOL    HW135443   7.979   3.316   4.102 -1.4783 -0.9071 -0.6029
11385SOL    HW235444   7.953   3.171   4.071 -1.7338 -1.4908  2.0731
11386SOL     OW35445   7.875   6.864   1.407  0.0314  0.0240  0.3384
11386SOL    HW135446   7.792   6.887   1.448 -0.2091  0.1753 -0.2217
11386SOL    HW235447   7.909   6.791   1.459 -1.1544 -1.0019 -0.2664
11387SOL     OW35448   8.494   6.380   0.578  0.0118  0.2914  0.5136
11387SOL    HW135449   8.491   6.289   0.609  2.2282  0.5666  1.6982
11387SOL    HW235450   8.444   6.429   0.643 -1.5203 -0.0697 -0.3302
11388SOL     OW35451   5.036   8.386   5.073 -0.1939  0.0801 -0.3970
11388SOL    HW135452   4.999   8.392   5.161 -3.5773 -2.5604 -1.4236
11388SOL    HW235453   5.017   8.471   5.034 -1.9983  0.0864  0.3544
11389SOL     OW35454   0.678   5.560   6.455 -0.0025 -0.0566 -0.2159
11389SOL    HW135455   0.749   5.621   6.478  0.2598  0.0662 -1.2888
11389SOL    HW235456   0.605   5.587   6.510  0.4064  0.6285  0.0094
11390SOL     OW35457   2.152   7.601   3.665  0.3778  0.1296  0.0137
11390SOL    HW135458   2.196   7.680   3.698  0.6024 -0.1907  0.4962
11390SOL    HW235459   2.210   7.529   3.691 -0.1402 -0.2455  0.1433
11391SOL     OW35460   8.381   1.483   0.639 -0.0294  0.5977 -0.1948
11391SOL    HW135461   8.358   1.399   0.599 -2.2883  0.8973  0.2950
11391SOL    HW235462   8.432   1.459   0.717  0.2074 -0.2577 -0.6050
11392SOL     OW35463   8.483   3.545   6.361 -0.0635 -0.4751  0.2013
11392SOL    HW135464   8.516   3.475   6.417 -0.3605  0.4147  1.5450
11392SOL    HW235465   8.539   3.620   6.381 -2.5252  0.9609  2.2701
11393SOL     OW35466   1.738   1.950   6.920  0.0853  0.3267  0.0836
11393SOL    HW135467   1.746   1.882   6.853  0.5553 -2.2412  2.5589
11393SOL    HW235468   1.754   2.032   6.873  0.7091 -1.3267 -2.8430
11394SOL     OW35469   4.756   7.874   5.682 -0.1207 -0.1397  0.3309
11394SOL    HW135470   4.809   7.954   5.681  0.1861 -0.3478 -0.0174
11394SOL    HW235471   4.791   7.824   5.756  1.5789 -1.2095 -1.1108
11395SOL     OW35472   8.153   3.065   5.928 -0.2396  0.0070 -0.2541
11395SOL    HW135473   8.131   3.018   6.009 -1.4140 -0.2048 -0.6645
11395SOL    HW235474   8.203   3.141   5.956 -0.5856 -0.0982  0.6738
11396SOL     OW35475   3.505   5.151   6.585 -0.1902 -0.2690 -0.5219
11396SOL    HW135476   3.551   5.083   6.635  0.6604 -0.6880 -1.8338
11396SOL    HW235477   3.441   5.103   6.533 -0.4273  0.0590 -0.5313
11397SOL     OW35478   8.571   8.386   2.873 -0.1383  0.8266  0.0566
11397SOL    HW135479   8.572   8.309   2.816 -4.3783 -0.9955  1.9751
11397SOL    HW235480   8.525   8.453   2.823 -0.0036  0.7306 -0.1993
11398SOL     OW35481   5.248   8.696   7.518 -0.0102 -0.3428  0.0420
11398SOL    HW135482   5.266   8.775   7.467  2.2170 -1.0119 -0.3327
11398SOL    HW235483   5.184   8.647   7.467  0.6671 -0.0422 -1.1310
11399SOL     OW35484   1.213   1.090   1.084 -0.3562  0.2639 -0.0903
11399SOL    HW135485   1.268   1.013   1.079  1.1071  1.2555  0.2783
11399SOL    HW235486   1.128   1.061   1.051 -0.1441 -1.7477  1.0003
11400SOL     OW35487   2.853   3.189   0.664 -0.3616  0.2868  0.0715
11400SOL    HW135488   2.830   3.141   0.744 -0.1574 -0.9610 -0.5827
11400SOL    HW235489   2.949   3.185   0.662 -0.4074 -0.8612 -0.8911
11401SOL     OW35490   3.158   3.638   0.065 -0.3378  0.1587 -0.1245
11401SOL    HW135491   3.066   3.625   0.044 -0.4353  0.7478 -0.0861
11401SOL    HW235492   3.173   3.732   0.052 -0.0480  0.2934  1.0400
11402SOL     OW35493   6.627   1.412   5.838 -0.2950 -0.0727 -0.4038
11402SOL    HW135494   6.570   1.418   5.762 -2.0681  3.5369  0.9609
11402SOL    HW235495   6.568   1.393   5.911  1.1343 -1.8548  0.3748
11403SOL     OW35496   0.268   1.872   1.521  0.0984  0.5736 -0.2231
11403SOL    HW135497   0.276   1.776   1.527  0.7684  0.6725  0.7834
11403SOL    HW235498   0.355   1.902   1.496  0.5792  1.0588  1.8300
11404SOL     OW35499   5.588   2.894   5.003 -0.4190  0.1391 -0.8124
11404SOL    HW135500   5.546   2.901   4.917 -0.0459 -1.6842 -1.1894
11404SOL    HW235501   5.537   2.828   5.049 -0.8373  1.3612  0.5469
11405SOL     OW35502   4.502   3.160   7.053  0.1492 -0.2177  0.2158
11405SOL    HW135503   4.518   3.114   7.136 -0.8961  2.0246  1.7516
11405SOL    HW235504   4.503   3.090   6.987 -1.7326 -2.5570  2.4235
11406SOL     OW35505   3.578   1.843   8.700 -0.3404 -0.0628  0.3307
11406SOL    HW135506   3.637   1.851   8.775 -1.0067 -0.3904  0.8894
11406SOL    HW235507   3.533   1.760   8.713  0.0739 -0.4916 -0.8196
11407SOL     OW35508   7.651   5.364   7.121  0.0048 -0.6546 -0.3732
11407SOL    HW135509   7.581   5.381   7.057  0.2921  0.0627 -0.5146
11407SOL    HW235510   7.705   5.443   7.117 -1.1786  0.4348  2.3486
11408SOL     OW35511   5.087   6.246   0.725 -0.2627 -0.3226  0.0087
11408SOL    HW135512   5.072   6.155   0.752 -4.3776 -0.1830 -1.1514
11408SOL    HW235513   5.099   6.242   0.631  0.8510  0.3028  0.1002
11409SOL     OW35514   3.711   1.070   4.499 -0.0815  0.7286  0.1207
11409SOL    HW135515   3.623   1.105   4.483 -0.0486  0.2228 -1.3485
11409SOL    HW235516   3.708   0.981   4.464  0.9709  0.6410  0.2186
11410SOL     OW35517   0.897   3.153   4.027  0.7627  0.2850 -0.0333
11410SOL    HW135518   0.830   3.128   4.090  0.2157 -1.5822 -1.2793
11410SOL    HW235519   0.929   3.238   4.058  0.0448 -0.2510  2.3281
11411SOL     OW35520   3.155   2.254   0.204 -0.1144  0.2609 -0.4084
11411SOL    HW135521   3.119   2.225   0.288 -0.5437  1.1221 -0.2723
11411SOL    HW235522   3.104   2.207   0.138  1.1817 -1.5109 -0.2087
11412SOL     OW35523   0.027   3.758   8.517  0.9828  0.1022 -0.6244
11412SOL    HW135524  -0.029   3.681   8.505  0.9049  0.2068 -0.9206
11412SOL    HW235525   0.073   3.767   8.434  1.4584  0.0035 -0.3787
11413SOL     OW35526   6.881   7.559   6.812  0.0226 -0.0784 -0.3489
11413SOL    HW135527   6.805   7.559   6.870  0.0528 -0.1800 -0.3082
11413SOL    HW235528   6.843   7.557   6.724 -0.0351 -2.3389 -0.3207
11414SOL     OW35529   3.733   7.642   0.085  0.3645  0.3280 -1.2467
11414SOL    HW135530   3.707   7.569   0.029  0.8252 -0.2522 -0.7173
11414SOL    HW235531   3.655   7.697   0.089 -1.2887 -1.9391  1.2113
11415SOL     OW35532   4.379   8.173   1.287  0.0328 -0.3779  0.3254
11415SOL    HW135533   4.296   8.131   1.309 -0.3961  0.5921  0.6099
11415SOL    HW235534   4.418   8.196   1.372 -0.0371  0.3504  0.1690
11416SOL     OW35535   8.579   5.470   3.816  0.5537 -0.3885  0.0486
11416SOL    HW135536   8.614   5.558   3.815  3.0413 -1.2975 -1.3915
11416SOL    HW235537   8.498   5.476   3.765 -0.4053  1.3792  1.6712
11417SOL     OW35538   8.106   5.624   4.627 -0.3409  0.3911  0.6084
11417SOL    HW135539   8.048   5.557   4.591  1.0486  0.5368 -2.1815
11417SOL    HW235540   8.051   5.703   4.630 -0.8967  0.0296  0.1844
11418SOL     OW35541   3.211   6.667   0.849 -0.6493 -0.3518 -0.0509
11418SOL    HW135542   3.188   6.630   0.763 -0.2180  0.0929 -0.3614
11418SOL    HW235543   3.304   6.686   0.843 -0.9443  1.1960 -0.0546
11419SOL     OW35544   7.087   4.817   5.713 -0.1883  0.1564 -0.1019
11419SOL    HW135545   7.147   4.812   5.787 -1.4544  0.8421  1.0099
11419SOL    HW235546   7.026   4.888   5.735 -2.6365 -1.7511 -0.2295
11420SOL     OW35547   0.850   2.194   3.958  0.5858  0.3299 -0.2124
11420SOL    HW135548   0.943   2.198   3.934  0.3378  0.2137 -1.2760
11420SOL    HW235549   0.825   2.103   3.943  0.4043  0.2564  0.5118
11421SOL     OW35550   5.413   7.591   6.824 -0.5984 -0.5997  0.0265
11421SOL    HW135551   5.466   7.590   6.743 -0.6406 -2.2429 -0.0051
11421SOL    HW235552   5.363   7.510   6.821 -1.7294  0.0349  1.0009
11422SOL     OW35553   2.848   0.281   8.430  0.4575 -0.4861  0.3353
11422SOL    HW135554   2.767   0.234   8.451 -2.0369  3.5656  0.9138
11422SOL    HW235555   2.888   0.299   8.515  0.5814 -0.2376  0.2245
11423SOL     OW35556   5.985   5.990   5.319 -0.2256  0.6084 -0.4253
11423SOL    HW135557   5.916   6.044   5.355  0.2594  0.6240  0.5056
11423SOL    HW235558   5.941   5.934   5.254 -0.9401  1.2223 -0.4819
11424SOL     OW35559   8.052   2.343   1.405 -0.5752 -0.0970  0.1405
11424SOL    HW135560   8.044   2.295   1.323 -2.2998  0.9184 -0.3343
11424SOL    HW235561   7.979   2.312   1.458 -2.2804  2.4830 -0.5029
11425SOL     OW35562   1.869   4.598   0.071  0.2427  0.3332 -0.3815
11425SOL    HW135563   1.797   4.656   0.046  1.1960  1.7307 -0.0139
11425SOL    HW235564   1.940   4.621   0.011  0.6029 -0.5818 -0.3297
11426SOL     OW35565   2.098   3.138   4.751  0.2369  0.3400  0.3240
11426SOL    HW135566   2.150   3.084   4.810  1.2023  2.0739  1.1478
11426SOL    HW235567   2.114   3.101   4.664 -1.4416 -2.4366  1.1029
11427SOL     OW35568   6.104   7.763   0.373 -0.7686  0.9158 -0.4438
11427SOL    HW135569   6.131   7.727   0.288 -0.3710 -0.8651  0.3959
11427SOL    HW235570   6.090   7.686   0.428  0.1154  2.0445  1.4436
11428SOL     OW35571   7.552   5.353   3.461 -0.2125  0.1566 -0.3996
11428SOL    HW135572   7.507   5.361   3.377 -0.4129 -1.2465 -0.4570
11428SOL    HW235573   7.483   5.365   3.526 -0.4337 -0.6871 -0.4706
11429SOL     OW35574   7.858   2.195   2.452  0.0983 -0.4788  0.1007
11429SOL    HW135575   7.899   2.110   2.438  1.5280  0.3399 -0.8764
11429SOL    HW235576   7.931   2.256   2.461 -0.8656  0.4504  2.3254
11430SOL     OW35577   2.060   4.076   1.989 -0.0615  0.5059 -0.7650
11430SOL    HW135578   2.099   4.004   1.939 -1.0252 -0.1716 -0.5693
11430SOL    HW235579   2.123   4.147   1.982 -0.4956  0.7043 -3.5479
11431SOL     OW35580   2.942   3.804   0.859  0.5199 -0.8728  0.6277
11431SOL    HW135581   3.008   3.774   0.796  1.0140  0.9091  0.2353
11431SOL    HW235582   2.892   3.870   0.811  0.6329  0.2279  1.9855
11432SOL     OW35583   2.128   7.583   1.726  0.7310 -0.4584  0.2168
11432SOL    HW135584   2.180   7.546   1.655 -0.3468  0.1648 -0.9406
11432SOL    HW235585   2.037   7.573   1.696  0.2264 -0.5867  1.7110
11433SOL     OW35586   0.178   7.039   5.273 -0.0930 -0.1295 -0.5761
11433SOL    HW135587   0.266   7.003   5.273  0.2259  0.6245 -0.1256
11433SOL    HW235588   0.128   6.982   5.215  0.5940 -0.7899 -0.5253
11434SOL     OW35589   2.060   6.667   3.934 -0.1661 -0.2888  0.1627
11434SOL    HW135590   2.038   6.710   3.852  0.5951 -0.9144 -0.3889
11434SOL    HW235591   2.010   6.714   4.001 -0.6582  0.3356 -0.6342
11435SOL     OW35592   3.620   4.459   4.486  0.0786 -0.1802  0.4585
11435SOL    HW135593   3.537   4.474   4.440 -0.0161 -0.6287  0.4877
11435SOL    HW235594   3.687   4.469   4.418 -0.0563 -0.7564  0.2369
11436SOL     OW35595   3.928   3.321   0.757 -0.4927 -0.9243  0.3187
11436SOL    HW135596   4.021   3.300   0.753  1.0537  3.9366  2.5035
11436SOL    HW235597   3.922   3.408   0.716 -4.1198 -1.0881  0.1862
11437SOL     OW35598   1.523   8.539   3.369 -0.1053 -0.0997  0.2181
11437SOL    HW135599   1.430   8.559   3.377 -0.4338 -1.2078 -0.4834
11437SOL    HW235600   1.542   8.549   3.275 -0.1526 -2.2720 -0.0831
11438SOL     OW35601   7.927   5.327   7.796 -0.4236 -0.0652  0.1600
11438SOL    HW135602   7.996   5.374   7.843  0.3226  0.1315 -1.0929
11438SOL    HW235603   7.966   5.242   7.775 -0.3357  0.2799 -1.1013
11439SOL     OW35604   0.658   4.125   4.834 -0.1063 -0.4537  0.0125
11439SOL    HW135605   0.610   4.052   4.872 -1.5173  0.0246 -0.7410
11439SOL    HW235606   0.703   4.087   4.758  0.3608 -0.8186  0.4647
11440SOL     OW35607   2.051   4.407   2.978 -0.6348  0.3850 -0.0085
11440SOL    HW135608   2.072   4.416   3.071 -0.3162  0.0212 -0.0453
11440SOL    HW235609   2.102   4.331   2.948 -0.4266  0.7329 -0.5676
11441SOL     OW35610   1.778   7.065   6.897 -0.0952  0.1603 -0.5890
11441SOL    HW135611   1.699   7.020   6.867 -0.6250  0.4024  0.3972
11441SOL    HW235612   1.746   7.143   6.943  0.8166  1.8956 -2.7371
11442SOL     OW35613   7.087   3.316   3.478  0.3309  0.0734  0.9795
11442SOL    HW135614   7.159   3.378   3.486 -0.1514  0.6999  0.4969
11442SOL    HW235615   7.088   3.290   3.386 -0.5447  0.6905  0.7817
11443SOL     OW35616   0.681   0.801   1.185 -0.2601 -0.0971  0.3169
11443SOL    HW135617   0.756   0.744   1.169  0.4683  1.0260 -0.4801
11443SOL    HW235618   0.649   0.775   1.271  0.7967 -0.8906  0.4928
11444SOL     OW35619   6.717   5.693   3.528 -0.2015  0.4137  0.4413
11444SOL    HW135620   6.680   5.710   3.614 -0.7608 -1.0753  0.5306
11444SOL    HW235621   6.807   5.664   3.545 -1.0048 -2.1576  0.7835
11445SOL     OW35622   2.158   4.834   6.755  0.1059 -0.4615 -0.2226
11445SOL    HW135623   2.086   4.776   6.731 -0.7377  0.7298 -0.7081
11445SOL    HW235624   2.227   4.776   6.786 -1.2389 -1.6054  0.7412
11446SOL     OW35625   6.990   4.688   3.478 -0.3437  0.1567 -0.3477
11446SOL    HW135626   6.917   4.732   3.521 -1.2237 -0.5914 -1.0372
11446SOL    HW235627   6.968   4.689   3.385  0.1035 -0.8431 -0.4817
11447SOL     OW35628   8.291   8.045   3.193  0.2712  0.3466  0.6023
11447SOL    HW135629   8.346   7.967   3.182 -0.8173 -0.2205 -1.3095
11447SOL    HW235630   8.332   8.111   3.138 -0.9600 -0.1130 -0.9250
11448SOL     OW35631   5.125   5.607   3.208  0.2405  0.0551 -0.0231
11448SOL    HW135632   5.071   5.537   3.171 -0.5992 -0.3603  1.8630
11448SOL    HW235633   5.212   5.568   3.217 -0.5637 -1.4081  2.4924
11449SOL     OW35634   6.766   0.196   1.216 -0.8943  0.0627 -0.1501
11449SOL    HW135635   6.757   0.252   1.139  0.1082  0.2085 -0.1713
11449SOL    HW235636   6.676   0.176   1.242 -1.2502  1.0247 -0.6161
11450SOL     OW35637   7.446   0.930   6.767  0.7474  0.5423 -0.2054
11450SOL    HW135638   7.392   0.990   6.715 -0.4333 -0.5786 -0.3409
11450SOL    HW235639   7.393   0.851   6.774  1.1588  0.4117  2.1577
11451SOL     OW35640   7.274   7.344   8.414  0.1724 -0.0578 -1.1299
11451SOL    HW135641   7.223   7.278   8.366 -1.4380  0.8993 -0.8144
11451SOL    HW235642   7.365   7.325   8.391 -0.0510 -3.3700  0.2032
11452SOL     OW35643   1.061   3.747   6.050 -0.0906 -0.2497  0.1304
11452SOL    HW135644   1.089   3.833   6.083  0.1484  1.4464 -3.9472
11452SOL    HW235645   1.138   3.714   6.003 -0.4153 -2.4732  1.0433
11453SOL     OW35646   3.862   3.731   7.763 -0.4407  0.0856  0.2154
11453SOL    HW135647   3.846   3.790   7.689 -1.6231  1.1458  1.2731
11453SOL    HW235648   3.810   3.767   7.834  0.3118 -1.1790  1.4521
11454SOL     OW35649   2.562   0.194   8.165 -0.6973 -0.1450 -0.0350
11454SOL    HW135650   2.580   0.104   8.190 -0.6428 -0.0057  0.4297
11454SOL    HW235651   2.538   0.189   8.072  1.3417 -0.3739 -0.5841
11455SOL     OW35652   0.350   1.242   0.557 -0.1981 -0.2325  0.6407
11455SOL    HW135653   0.303   1.211   0.634 -0.5231  1.7923  1.3286
11455SOL    HW235654   0.394   1.322   0.586 -0.8053  0.9263 -1.4119
11456SOL     OW35655   7.529   6.865   2.361 -0.7134  0.1036 -0.1454
11456SOL    HW135656   7.591   6.891   2.294  0.4715 -2.6888 -0.2850
11456SOL    HW235657   7.584   6.826   2.430 -2.1486 -0.3069  0.8075
11457SOL     OW35658   5.036   7.559   5.466  0.5956  0.5070 -0.1015
11457SOL    HW135659   5.025   7.481   5.412 -1.8775 -0.0287  1.0354
11457SOL    HW235660   4.983   7.626   5.422  0.3741  0.7036  0.4508
11458SOL     OW35661   4.397   5.918   7.854  0.0563 -0.5022 -0.5522
11458SOL    HW135662   4.419   5.875   7.936  0.0863  1.0141  0.2630
11458SOL    HW235663   4.302   5.927   7.856  0.2848  3.6855  1.5996
11459SOL     OW35664   5.202   5.632   7.144  0.3158  0.3301 -0.5004
11459SOL    HW135665   5.217   5.724   7.168 -0.0781  0.6108 -1.2791
11459SOL    HW235666   5.172   5.636   7.053  3.0852 -0.7610 -1.5891
11460SOL     OW35667   5.518   2.268   1.337  0.5435  0.1167 -0.0714
11460SOL    HW135668   5.532   2.345   1.281 -2.8204  1.4356  0.6923
11460SOL    HW235669   5.508   2.196   1.275 -0.0528  0.9992 -1.0493
11461SOL     OW35670   1.264   7.886   3.473 -0.3152  0.2548 -0.1261
11461SOL    HW135671   1.170   7.873   3.462 -0.1851 -0.9450  0.0395
11461SOL    HW235672   1.301   7.797   3.475  0.5641  0.6011  2.0535
11462SOL     OW35673   4.816   8.332   7.356  0.3485 -0.2739 -0.2405
11462SOL    HW135674   4.773   8.365   7.278 -3.1112  0.4459  1.7780
11462SOL    HW235675   4.840   8.411   7.405 -0.1092 -0.6975  0.6901
11463SOL     OW35676   0.728   6.272   8.558 -0.4031 -0.1060 -0.0473
11463SOL    HW135677   0.681   6.354   8.544 -1.4552 -1.0230 -2.2178
11463SOL    HW235678   0.745   6.271   8.653  0.0443  2.7838 -0.0053
11464SOL     OW35679   7.989   2.585   3.625 -0.7794  0.0625 -0.1653
11464SOL    HW135680   8.009   2.524   3.696  1.5661 -1.2989 -1.8364
11464SOL    HW235681   7.935   2.534   3.564  0.0580  0.0694 -0.9293
11465SOL     OW35682   4.962   5.036   0.013  0.1309 -0.1045  0.4771
11465SOL    HW135683   5.044   5.079  -0.010  1.2447 -2.1024  0.4242
11465SOL    HW235684   4.987   4.944   0.027 -2.0041 -0.6510  1.0539
11466SOL     OW35685   2.846   5.165   1.127  0.8546  0.3590  0.1716
11466SOL    HW135686   2.824   5.098   1.192 -0.6779  1.0651  0.4333
11466SOL    HW235687   2.776   5.231   1.136  1.8188  1.5473 -0.6923
11467SOL     OW35688   3.066   6.298   0.226  0.0077  0.0716 -0.2517
11467SOL    HW135689   3.008   6.223   0.218  0.7920 -0.5138 -0.4666
11467SOL    HW235690   3.123   6.277   0.300 -0.9440  1.2554  0.8655
11468SOL     OW35691   5.433   1.937   6.662 -0.5965 -0.1549 -0.5703
11468SOL    HW135692   5.417   1.923   6.568 -0.0401 -1.7974 -0.4466
11468SOL    HW235693   5.354   1.905   6.705  0.5668 -2.9291 -0.3039
11469SOL     OW35694   0.628   1.780   3.253  0.6618  0.1439 -0.3354
11469SOL    HW135695   0.612   1.845   3.185 -0.5109  1.3331  0.9976
11469SOL    HW235696   0.673   1.708   3.208 -1.4810  0.1588 -2.6885
11470SOL     OW35697   0.374   4.413   3.699  0.2296  0.8821 -0.4785
11470SOL    HW135698   0.450   4.443   3.648  1.7572  1.0776  1.7724
11470SOL    HW235699   0.403   4.331   3.738 -0.2396  1.5778  1.4155
11471SOL     OW35700   1.654   3.033   3.492 -0.2976 -0.2844 -0.7130
11471SOL    HW135701   1.618   3.108   3.539  2.3733  1.8681 -1.8762
11471SOL    HW235702   1.583   3.006   3.433 -2.0920 -0.2055  1.2628
11472SOL     OW35703   8.429   5.595   5.183 -0.2178  0.1698 -0.4830
11472SOL    HW135704   8.340   5.623   5.201  0.4028  1.3326  1.0092
11472SOL    HW235705   8.482   5.639   5.249  1.4353 -0.7234 -1.1450
11473SOL     OW35706   4.801   4.748   5.092  0.4526  0.2479 -0.5532
11473SOL    HW135707   4.743   4.679   5.061  0.1514  0.7847 -1.1971
11473SOL    HW235708   4.866   4.758   5.023 -0.1769  1.3946 -0.9997
11474SOL     OW35709   2.640   7.740   4.504 -0.4556 -0.3193 -0.5408
11474SOL    HW135710   2.651   7.689   4.584  0.3406  1.3043  0.4336
11474SOL    HW235711   2.729   7.755   4.473  0.1328  5.3895  2.5107
11475SOL     OW35712   1.231   4.677   6.621 -0.0781  0.4846  0.5645
11475SOL    HW135713   1.149   4.677   6.671  0.0837 -1.7443  0.9272
11475SOL    HW235714   1.285   4.612   6.665  0.1203 -1.5148 -2.3837
11476SOL     OW35715   8.649   5.742   2.720  0.2889  0.2957 -1.1987
11476SOL    HW135716   8.709   5.690   2.775 -1.1907 -0.6830 -0.4338
11476SOL    HW235717   8.625   5.683   2.649 -1.2621 -0.0494 -0.4277
11477SOL     OW35718   5.130   8.252   7.801 -0.4963 -0.6022  0.2672
11477SOL    HW135719   5.211   8.298   7.778  0.3847 -1.1070  2.1569
11477SOL    HW235720   5.120   8.187   7.731  0.6298 -0.4119 -0.1051
11478SOL     OW35721   1.982   0.831   3.361  0.3766  0.3623 -0.0787
11478SOL    HW135722   1.911   0.894   3.368 -0.3951 -0.5802  0.9482
11478SOL    HW235723   2.056   0.874   3.404 -0.4679  0.1537  1.6846
11479SOL     OW35724   1.849   6.528   0.168 -0.1971  0.1446  0.0527
11479SOL    HW135725   1.924   6.491   0.121  0.3735  0.6232  0.5722
11479SOL    HW235726   1.773   6.488   0.126  0.3997 -1.8356  0.7636
11480SOL     OW35727   7.597   5.743   5.480  0.0451 -0.2020 -0.2431
11480SOL    HW135728   7.655   5.814   5.453 -1.1447  1.8095  2.1050
11480SOL    HW235729   7.509   5.777   5.465 -0.5653 -1.3256  0.6077
11481SOL     OW35730   2.400   5.726   1.616  0.0302 -0.0825 -0.2714
11481SOL    HW135731   2.495   5.728   1.626  0.2099  1.3690 -1.8129
11481SOL    HW235732   2.372   5.816   1.634 -1.0407 -0.4356 -0.0712
11482SOL     OW35733   3.941   6.731   2.340  0.4479  0.0573 -0.1650
11482SOL    HW135734   4.024   6.756   2.298 -0.5577 -0.1476 -2.4008
11482SOL    HW235735   3.926   6.641   2.311 -0.2799 -0.1271  0.7366
11483SOL     OW35736   7.869   6.647   8.347  0.3242 -0.1714 -0.3795
11483SOL    HW135737   7.779   6.679   8.343 -0.0020 -0.6506  1.7899
11483SOL    HW235738   7.877   6.587   8.273 -0.7862  0.7020 -1.2258
11484SOL     OW35739   4.264   4.311   7.202 -0.2136 -0.5932  0.2588
11484SOL    HW135740   4.193   4.375   7.189  0.8275  0.4235 -0.6780
11484SOL    HW235741   4.329   4.334   7.135  0.3758 -2.4037  0.1617
11485SOL     OW35742   4.205   4.357   8.129  0.5555 -0.2217 -0.8375
11485SOL    HW135743   4.230   4.390   8.042  1.5181 -0.6258 -0.7251
11485SOL    HW235744   4.253   4.275   8.138 -0.5054 -0.8057 -0.4146
11486SOL     OW35745   4.847   4.115   7.173  0.1160  0.1474  0.2204
11486SOL    HW135746   4.795   4.169   7.112  2.7190  2.3080 -0.2742
11486SOL    HW235747   4.907   4.066   7.117 -0.9655 -1.9649  0.8069
11487SOL     OW35748   5.569   7.311   7.395  0.6487  0.1941  0.7732
11487SOL    HW135749   5.633   7.382   7.389 -0.8282  1.4232 -2.6179
11487SOL    HW235750   5.515   7.334   7.471  0.4744  2.5320  0.0149
11488SOL     OW35751   3.611   3.827   1.896  0.0168 -0.2243 -0.5288
11488SOL    HW135752   3.687   3.804   1.844  2.0921  1.8279  1.3492
11488SOL    HW235753   3.594   3.750   1.951  1.9000 -0.1480  0.2319
11489SOL     OW35754   7.294   4.000   7.875  0.2081 -0.0228 -0.6288
11489SOL    HW135755   7.353   4.029   7.806  0.7860 -0.2975 -0.2594
11489SOL    HW235756   7.208   3.992   7.832  0.8956 -1.8947 -1.7434
11490SOL     OW35757   1.103   8.112   0.634 -0.0196 -0.1979 -0.0223
11490SOL    HW135758   1.033   8.072   0.582 -0.1246 -0.1648  0.0934
11490SOL    HW235759   1.092   8.206   0.621  0.9239 -0.2242 -1.2094
11491SOL     OW35760   0.551   2.117   2.739 -0.0953  0.4891 -0.0779
11491SOL    HW135761   0.535   2.041   2.683  2.4031 -0.4692  0.3681
11491SOL    HW235762   0.640   2.144   2.717 -0.9722  3.4408 -0.3437
11492SOL     OW35763   3.012   6.299   3.942  0.5726 -0.2750  0.3540
11492SOL    HW135764   2.985   6.390   3.955  0.4375 -0.2120 -0.3430
11492SOL    HW235765   3.050   6.273   4.026  0.1343  0.2597  0.7250
11493SOL     OW35766   1.354   3.758   5.206 -0.7168 -0.1048 -0.2822
11493SOL    HW135767   1.361   3.662   5.208 -2.5329 -0.3145 -1.6612
11493SOL    HW235768   1.266   3.777   5.236 -1.2714  0.9335 -2.3687
11494SOL     OW35769   4.431   6.121   1.336  0.5655  0.1285  0.1358
11494SOL    HW135770   4.346   6.154   1.365  0.1798 -1.2239  0.5944
11494SOL    HW235771   4.466   6.075   1.413  1.3306 -0.0551 -0.3182
11495SOL     OW35772   8.674   1.866   8.079  0.4114 -0.3256 -0.1448
11495SOL    HW135773   8.687   1.898   8.168  2.4377  0.4506 -0.6742
11495SOL    HW235774   8.756   1.884   8.034 -0.6545 -0.4318 -2.2786
11496SOL     OW35775   0.855   2.452   8.242  0.3097  0.5657  0.2477
11496SOL    HW135776   0.769   2.438   8.282  0.0414 -1.8789 -1.0063
11496SOL    HW235777   0.917   2.440   8.314 -0.3197  0.4858  0.7866
11497SOL     OW35778   5.960   8.581   4.357  0.1241  0.1802 -0.3500
11497SOL    HW135779   6.008   8.512   4.312 -0.1972 -0.3790  0.1548
11497SOL    HW235780   5.979   8.567   4.450 -0.8040  0.0994 -0.1591
11498SOL     OW35781   0.137   4.496   1.292 -0.3695 -0.1434  0.0854
11498SOL    HW135782   0.118   4.439   1.367 -1.4229  0.1272  0.0371
11498SOL    HW235783   0.215   4.545   1.318 -0.6177 -0.1824  0.9294
11499SOL     OW35784   7.083   6.809   5.367  0.4656 -0.0936  0.5402
11499SOL    HW135785   7.058   6.885   5.315  0.8643  0.1590  0.7058
11499SOL    HW235786   7.051   6.828   5.455  0.3142 -0.2459  0.5174
11500SOL     OW35787   3.975   5.191   2.017  0.0003  0.2116 -0.4397
11500SOL    HW135788   3.903   5.198   2.081  0.2318 -0.0750 -0.1429
11500SOL    HW235789   3.947   5.122   1.957 -1.6815  2.5462 -2.5814
11501SOL     OW35790   5.579   2.832   5.704 -0.1045  0.3072  0.4354
11501SOL    HW135791   5.574   2.928   5.697  1.8763  0.4278 -0.0265
11501SOL    HW235792   5.661   2.817   5.750 -0.4892 -1.1868  0.6620
11502SOL     OW35793   6.717   7.420   4.874  0.0696  0.5984 -0.3567
11502SOL    HW135794   6.735   7.509   4.844 -0.4423  0.6310 -0.5892
11502SOL    HW235795   6.632   7.426   4.919  0.3393  0.3512  0.2034
11503SOL     OW35796   6.724   6.762   1.189 -0.4964 -0.0913 -0.4859
11503SOL    HW135797   6.772   6.827   1.241 -2.5691  1.4836 -0.4259
11503SOL    HW235798   6.787   6.734   1.123  1.8757 -1.3364  2.0846
11504SOL     OW35799   5.242   6.470   0.821 -0.2784 -0.3738 -0.1400
11504SOL    HW135800   5.196   6.402   0.771  0.4641  0.3580 -1.8990
11504SOL    HW235801   5.321   6.427   0.853 -1.8887 -1.5389  2.5913
11505SOL     OW35802   4.732   5.270   5.266 -0.9354 -0.4066 -0.1569
11505SOL    HW135803   4.741   5.200   5.331  0.2748 -0.0725  0.0569
11505SOL    HW235804   4.812   5.321   5.275 -1.4363  0.5256 -0.8874
11506SOL     OW35805   1.653   3.634   3.361  0.1141 -0.1713  0.0885
11506SOL    HW135806   1.690   3.722   3.374  0.0939 -0.0953 -0.3245
11506SOL    HW235807   1.567   3.650   3.322  0.1259 -0.3741 -0.0242
11507SOL     OW35808   2.895   4.967   1.637 -0.3377 -0.2811 -0.5486
11507SOL    HW135809   2.861   5.057   1.636  0.4530  0.1788  2.8299
11507SOL    HW235810   2.959   4.965   1.566 -0.1193  1.9246 -0.4823
11508SOL     OW35811   7.727   4.129   5.031  0.4220 -0.0597 -0.3411
11508SOL    HW135812   7.713   4.188   5.105  0.7241 -0.3679 -0.0341
11508SOL    HW235813   7.642   4.123   4.988  0.3893  0.6081 -0.3841
11509SOL     OW35814   2.053   2.192   2.120  0.1307  0.0514 -0.6431
11509SOL    HW135815   1.986   2.155   2.062 -1.6560  0.1244  1.2588
11509SOL    HW235816   2.033   2.286   2.124 -0.6303 -0.1544  1.0987
11510SOL     OW35817   3.345   0.670   6.006 -0.8000 -0.0331 -0.3034
11510SOL    HW135818   3.301   0.729   5.944 -0.1961 -1.2334 -1.9344
11510SOL    HW235819   3.288   0.592   6.008 -2.0251  0.8072  2.4416
11511SOL     OW35820   6.886   1.535   3.884 -0.2036 -0.7178 -0.7613
11511SOL    HW135821   6.823   1.594   3.926  0.2827  0.1038 -1.1675
11511SOL    HW235822   6.967   1.585   3.880  1.1344 -2.4870  1.6549
11512SOL     OW35823   0.190   0.846   2.589  0.8020 -0.2714  0.0006
11512SOL    HW135824   0.237   0.865   2.507  2.5315 -3.1106  0.2019
11512SOL    HW235825   0.098   0.846   2.563  0.9740  2.5395 -1.0564
11513SOL     OW35826   8.355   4.818   5.656  0.2933  0.0258 -0.1939
11513SOL    HW135827   8.288   4.834   5.722 -0.4433  2.7341 -1.4740
11513SOL    HW235828   8.313   4.760   5.593  0.3693 -1.0381  0.6987
11514SOL     OW35829   4.658   7.923   0.578 -0.1401 -0.0325  0.0096
11514SOL    HW135830   4.602   7.968   0.516 -0.3840 -1.6340 -0.9865
11514SOL    HW235831   4.606   7.848   0.608  0.9035 -0.7006  0.2156
11515SOL     OW35832   7.180   1.924   2.563 -0.6395 -0.2708  0.1398
11515SOL    HW135833   7.096   1.958   2.532 -1.8677 -3.6841 -0.7307
11515SOL    HW235834   7.245   1.983   2.526 -2.4612  0.1523 -2.6519
11516SOL     OW35835   8.306   8.255   7.560  0.1623  0.3222  0.3171
11516SOL    HW135836   8.223   8.264   7.607  0.5031  1.2649  0.7549
11516SOL    HW235837   8.286   8.194   7.489 -0.5025 -0.7311  1.3543
11517SOL     OW35838   1.950   0.626   8.631  0.4087 -0.4187 -0.1555
11517SOL    HW135839   1.923   0.717   8.641 -0.2735 -0.7646  1.4132
11517SOL    HW235840   1.912   0.599   8.546  0.0292  0.5462 -0.3062
11518SOL     OW35841   0.134   1.966   3.903 -0.1466  0.0809  0.5070
11518SOL    HW135842   0.204   1.953   3.838 -1.7999  0.9432 -1.5382
11518SOL    HW235843   0.134   1.884   3.954 -0.6116 -1.8769 -2.4175
11519SOL     OW35844   2.341   8.381   8.483  0.0607  0.2999 -0.5003
11519SOL    HW135845   2.297   8.360   8.400  0.2481 -0.2506 -0.4657
11519SOL    HW235846   2.420   8.429   8.457  0.4005 -0.3449 -0.6759
11520SOL     OW35847   4.911   3.492   3.456  0.2400  0.1813 -0.1373
11520SOL    HW135848   4.915   3.467   3.364  2.0280 -0.1226 -0.0130
11520SOL    HW235849   4.819   3.481   3.480 -0.4326  1.0809 -2.0886
11521SOL     OW35850   7.798   3.864   5.049  0.0235 -0.3999 -0.1115
11521SOL    HW135851   7.772   3.956   5.039  1.4414  0.2594  1.6112
11521SOL    HW235852   7.808   3.832   4.960 -4.0366 -0.0411 -0.8885
11522SOL     OW35853   3.815   4.776   4.564  0.0752 -1.0032 -0.1829
11522SOL    HW135854   3.871   4.847   4.532  0.4044 -0.6423  1.1424
11522SOL    HW235855   3.784   4.733   4.484  4.0294 -2.6456 -1.0804
11523SOL     OW35856   2.989   6.782   3.291 -0.9612  0.5116 -0.4405
11523SOL    HW135857   3.073   6.735   3.286 -0.4328  1.5536 -2.0869
11523SOL    HW235858   2.945   6.744   3.367  0.5087 -0.8710 -0.2260
11524SOL     OW35859   0.751   0.771   7.268 -0.2238 -0.0864  0.1122
11524SOL    HW135860   0.670   0.726   7.290  0.2983 -0.8506  0.5017
11524SOL    HW235861   0.782   0.808   7.351  0.2488 -0.4967  0.1234
11525SOL     OW35862   0.644   5.562   8.375  0.1634 -0.2484 -0.0387
11525SOL    HW135863   0.654   5.595   8.285  0.5121 -0.6521 -0.1501
11525SOL    HW235864   0.650   5.467   8.367 -1.0789 -0.3762  0.2535
11526SOL     OW35865   0.907   3.318   8.125 -0.4354  0.3469 -0.1842
11526SOL    HW135866   0.876   3.229   8.140  1.4917  0.0553  3.0639
11526SOL    HW235867   0.913   3.356   8.213  0.3204  3.1636 -1.3450
11527SOL     OW35868   7.205   5.547   4.241  0.4352 -0.1596  0.4026
11527SOL    HW135869   7.173   5.475   4.185  0.7073 -0.4829  0.6578
11527SOL    HW235870   7.281   5.581   4.194 -0.8476  1.2782 -0.7136
11528SOL     OW35871   2.582   4.212   0.713  0.2532 -0.6244  0.1464
11528SOL    HW135872   2.584   4.194   0.619 -1.5130 -1.3798  0.2221
11528SOL    HW235873   2.635   4.142   0.752 -1.4869 -2.1289 -0.0735
11529SOL     OW35874   6.542   1.088   6.990 -0.3630  0.8704  0.1911
11529SOL    HW135875   6.484   1.160   7.014 -0.1981  0.6296  1.3871
11529SOL    HW235876   6.606   1.084   7.061  0.1095  0.0515 -0.2610
11530SOL     OW35877   3.505   0.729   3.153 -0.4565 -0.0015 -0.5485
11530SOL    HW135878   3.429   0.672   3.140  0.2110 -0.6606 -1.6287
11530SOL    HW235879   3.552   0.727   3.070  2.3054 -1.9063  0.8836
11531SOL     OW35880   2.536   2.953   4.161  0.5984 -0.1547 -0.8296
11531SOL    HW135881   2.510   2.864   4.141  0.6554 -0.0944 -1.1681
11531SOL    HW235882   2.457   3.006   4.147  0.6371 -0.1136 -0.8932
11532SOL     OW35883   4.045   7.881   3.578 -0.3000  0.0451 -0.5340
11532SOL    HW135884   4.005   7.797   3.598  0.4996  0.3542  3.0910
11532SOL    HW235885   3.990   7.918   3.509 -3.4887 -1.5021  0.9725
11533SOL     OW35886   0.436   5.174   4.896 -0.1191 -0.3819  0.2889
11533SOL    HW135887   0.390   5.232   4.957 -1.5320 -3.0247  1.9464
11533SOL    HW235888   0.399   5.194   4.810 -1.7263  0.0820  1.0506
11534SOL     OW35889   3.223   5.258   2.925 -0.4380  0.0494  0.1335
11534SOL    HW135890   3.179   5.226   3.003  1.2573  0.9579  1.5492
11534SOL    HW235891   3.317   5.247   2.945  0.0427 -0.1984 -2.0075
11535SOL     OW35892   8.110   4.206   4.674  0.5409 -0.2469 -0.4481
11535SOL    HW135893   8.164   4.271   4.630 -0.4194  0.1100 -1.1544
11535SOL    HW235894   8.026   4.210   4.628 -0.1397 -0.6736  0.7015
11536SOL     OW35895   1.919   5.631   7.174 -0.6607 -0.5490 -0.5100
11536SOL    HW135896   1.925   5.536   7.174 -2.3790 -0.7208  0.9089
11536SOL    HW235897   1.949   5.657   7.262  2.1556  0.4826 -1.6693
11537SOL     OW35898   1.442   8.534   0.876  0.3174  0.2490  0.0371
11537SOL    HW135899   1.418   8.603   0.938  0.0953 -0.3272  0.5958
11537SOL    HW235900   1.495   8.473   0.927  0.4910 -0.0170 -0.4502
11538SOL     OW35901   2.366   8.203   8.030 -0.1039 -0.1552  0.1669
11538SOL    HW135902   2.357   8.140   7.959 -1.7554  0.4138 -0.1692
11538SOL    HW235903   2.451   8.244   8.014 -0.3020 -0.2502 -1.3313
11539SOL     OW35904   5.925   1.298   1.464  0.1466  0.5183  0.4786
11539SOL    HW135905   5.900   1.212   1.497 -0.4301  1.0273  1.4042
11539SOL    HW235906   6.012   1.314   1.500  0.1485  0.4339  0.5109
11540SOL     OW35907   3.150   6.638   8.036 -0.2177 -0.2936  0.0734
11540SOL    HW135908   3.165   6.544   8.024  1.4546 -0.2975  1.7747
11540SOL    HW235909   3.054   6.646   8.039 -0.4041 -2.1783  1.3902
11541SOL     OW35910   7.253   2.615   3.392 -0.7157 -0.1024 -0.5353
11541SOL    HW135911   7.209   2.530   3.389  0.5700 -0.7761 -1.0076
11541SOL    HW235912   7.322   2.603   3.457 -1.5806  1.1394  0.6725
11542SOL     OW35913   1.306   2.564   5.462 -0.4395 -0.6825  0.8942
11542SOL    HW135914   1.273   2.653   5.452  1.6878  0.0639 -0.3865
11542SOL    HW235915   1.235   2.508   5.429 -1.9013  0.4883  1.9327
11543SOL     OW35916   3.231   0.418   4.967 -0.1105 -0.1911  0.1837
11543SOL    HW135917   3.276   0.436   4.885 -0.4053  2.0943  0.4618
11543SOL    HW235918   3.290   0.360   5.015  1.0699  0.2117 -0.7366
11544SOL     OW35919   1.326   6.173   3.067  0.2056 -0.0855 -0.0900
11544SOL    HW135920   1.403   6.218   3.034  0.8414 -2.0481 -1.4714
11544SOL    HW235921   1.359   6.117   3.138 -0.0500 -0.4408 -0.2473
11545SOL     OW35922   2.273   0.200   2.512  0.4915  0.2372 -0.4368
11545SOL    HW135923   2.271   0.183   2.417 -0.3127 -2.6060 -0.0203
11545SOL    HW235924   2.182   0.218   2.535  0.3697 -0.8327  0.0028
11546SOL     OW35925   6.391   2.705   3.244 -0.2113  0.0658  0.4521
11546SOL    HW135926   6.344   2.770   3.192 -1.0633 -0.7314  0.1998
11546SOL    HW235927   6.479   2.742   3.255 -1.3788  2.4864  2.5236
11547SOL     OW35928   4.468   2.734   8.234 -0.6374  0.0240  0.2839
11547SOL    HW135929   4.426   2.650   8.214  0.1160  0.2812 -2.9193
11547SOL    HW235930   4.437   2.793   8.165  0.9833  1.6127  0.8409
11548SOL     OW35931   1.166   2.846   0.069 -0.3595  0.1159  0.4076
11548SOL    HW135932   1.201   2.772   0.119  0.0669  0.4672  0.6313
11548SOL    HW235933   1.234   2.913   0.074 -0.5025  0.3215 -0.2655
11549SOL     OW35934   8.253   6.895   6.638  0.4592 -0.9480 -0.4791
11549SOL    HW135935   8.294   6.956   6.699  0.4122 -0.5259 -0.8611
11549SOL    HW235936   8.323   6.837   6.610  0.7222 -0.4592 -0.8501
11550SOL     OW35937   7.885   8.446   4.220  0.1583 -0.1433  0.4515
11550SOL    HW135938   7.894   8.442   4.124 -0.0829 -0.1088  0.4267
11550SOL    HW235939   7.805   8.398   4.238 -1.3941  2.2870  0.3814
11551SOL     OW35940   7.895   3.539   7.444 -0.2977 -0.2372  0.3891
11551SOL    HW135941   7.887   3.484   7.522 -0.7881  0.2359  0.6817
11551SOL    HW235942   7.835   3.612   7.460  1.1158  0.9709  0.5049
11552SOL     OW35943   7.472   8.438   4.087  0.1795 -0.7157 -0.6499
11552SOL    HW135944   7.487   8.434   3.993  1.3627 -0.2946 -0.4966
11552SOL    HW235945   7.543   8.387   4.125  1.8570  2.0704  0.1658
11553SOL     OW35946   2.034   4.591   6.002 -0.1431  0.0050 -0.1054
11553SOL    HW135947   2.056   4.663   5.942 -1.0422  2.0738  1.8869
11553SOL    HW235948   2.105   4.528   5.990  0.8498  1.3269 -1.7478
11554SOL     OW35949   8.166   4.682   6.172 -0.2773  0.6739  0.3301
11554SOL    HW135950   8.201   4.766   6.141  0.8005  0.4517  0.9030
11554SOL    HW235951   8.226   4.616   6.138  0.6250  0.3824  2.3655
11555SOL     OW35952   6.967   6.527   8.446 -0.4174 -0.3161 -0.1065
11555SOL    HW135953   6.955   6.472   8.368 -1.3403 -0.5182  0.1683
11555SOL    HW235954   6.990   6.465   8.516 -0.0472 -0.1838 -0.1057
11556SOL     OW35955   4.372   5.019   7.038 -0.2299 -0.0576  0.1875
11556SOL    HW135956   4.320   4.960   6.984  3.4164 -2.7034 -0.8198
11556SOL    HW235957   4.334   5.106   7.022 -2.2802 -1.3463 -2.8937
11557SOL     OW35958   7.491   5.987   8.262  0.0471 -0.2107  0.4839
11557SOL    HW135959   7.492   6.064   8.318 -0.5299 -0.7174  1.2180
11557SOL    HW235960   7.400   5.956   8.266  0.6672 -2.0718  1.8219
11558SOL     OW35961   4.644   7.366   0.550  0.3325  0.2333  0.2207
11558SOL    HW135962   4.683   7.453   0.542  0.4022  0.1651 -0.2085
11558SOL    HW235963   4.668   7.322   0.469  2.2209 -0.9564  1.3441
11559SOL     OW35964   5.871   4.721   5.370  0.4842 -0.2475  0.1462
11559SOL    HW135965   5.863   4.815   5.386  1.7260 -0.1592  0.3312
11559SOL    HW235966   5.820   4.706   5.290 -1.5293  0.1795  1.2818
11560SOL     OW35967   6.964   5.307   1.628  0.4222  0.9166  0.3460
11560SOL    HW135968   6.967   5.361   1.707  0.8161  2.0680 -0.4285
11560SOL    HW235969   7.056   5.292   1.606  0.3590 -1.4918  1.4528
11561SOL     OW35970   7.651   1.254   6.152 -0.2772 -0.1818 -0.0339
11561SOL    HW135971   7.641   1.334   6.204 -0.8714 -1.1959  1.5145
11561SOL    HW235972   7.667   1.185   6.217 -0.6414 -1.4605 -1.2395
11562SOL     OW35973   5.763   4.110   8.417  0.4206  0.1075 -0.2285
11562SOL    HW135974   5.847   4.104   8.463  0.1840 -0.9866  0.0932
11562SOL    HW235975   5.787   4.111   8.325  0.8349  1.0395 -0.1302
11563SOL     OW35976   5.394   3.257   1.427 -0.2281  0.3893  0.5096
11563SOL    HW135977   5.450   3.331   1.402 -1.3247  1.9397  2.4385
11563SOL    HW235978   5.370   3.217   1.343  1.3125  1.4919 -0.5243
11564SOL     OW35979   5.568   3.843   5.145 -0.7130  0.7470  0.2756
11564SOL    HW135980   5.603   3.763   5.185  0.4006  1.4092  0.6577
11564SOL    HW235981   5.599   3.914   5.201 -1.7916  1.4571  0.0046
11565SOL     OW35982   6.823   5.155   5.659  0.1604  0.3585 -0.1570
11565SOL    HW135983   6.730   5.168   5.682  0.4736  1.2591  0.7191
11565SOL    HW235984   6.821   5.121   5.570 -1.0644 -1.0972  0.3725
11566SOL     OW35985   1.172   5.971   8.236 -0.5193 -0.1838  0.4577
11566SOL    HW135986   1.160   5.877   8.225  0.0442 -0.2282  0.1949
11566SOL    HW235987   1.239   5.994   8.172 -0.9095  0.4588  0.2706
11567SOL     OW35988   2.664   5.897   8.128  0.0154 -0.3943 -0.1045
11567SOL    HW135989   2.665   5.984   8.087  0.3673  1.6417  3.7247
11567SOL    HW235990   2.584   5.857   8.096 -0.0674  1.2235 -2.1772
11568SOL     OW35991   4.098   3.699   6.926  0.4127  0.2620  0.6133
11568SOL    HW135992   4.180   3.663   6.960  0.3948 -0.4024 -0.0114
11568SOL    HW235993   4.117   3.718   6.834  0.6857  2.7187  1.0987
11569SOL     OW35994   7.938   5.006   1.644  0.3223 -0.3357  0.2944
11569SOL    HW135995   7.875   4.937   1.624  0.5221 -0.5782  0.4970
11569SOL    HW235996   7.968   5.037   1.559 -2.8889  2.4206 -0.0245
11570SOL     OW35997   4.876   6.339   8.566 -0.0225  0.0984 -0.7820
11570SOL    HW135998   4.821   6.414   8.544  1.3222  1.0046 -1.2447
11570SOL    HW235999   4.928   6.369   8.641  0.1704 -0.5534 -0.6488
11571SOL     OW36000   3.009   1.576   5.569 -0.1738 -0.4573  0.3822
11571SOL    HW136001   2.992   1.484   5.548 -0.9949 -0.5280  1.2966
11571SOL    HW236002   3.098   1.577   5.603 -0.1790 -0.9172  0.4167
11572SOL     OW36003   1.765   8.591   1.903  0.0084 -0.2301  0.3376
11572SOL    HW136004   1.739   8.680   1.881  0.0044 -0.4612 -0.6317
11572SOL    HW236005   1.681   8.545   1.917  0.0158  0.5204  3.4998
11573SOL     OW36006   3.294   6.913   0.162  0.4669  0.2841  0.7863
11573SOL    HW136007   3.385   6.894   0.139  0.2696  2.1672 -1.9804
11573SOL    HW236008   3.242   6.874   0.092 -0.4156  3.5068 -0.5638
11574SOL     OW36009   6.081   8.676   5.381  0.0918 -0.2156  0.0842
11574SOL    HW136010   6.047   8.599   5.335  0.9904 -0.0738 -0.8490
11574SOL    HW236011   6.087   8.744   5.313 -0.7101  0.6912  0.9009
11575SOL     OW36012   7.727   0.098   3.188  0.0079 -0.2711 -1.0613
11575SOL    HW136013   7.786   0.075   3.116  0.8190 -1.3906 -0.0809
11575SOL    HW236014   7.673   0.020   3.201  1.5739 -1.0911  1.1387
11576SOL     OW36015   5.566   7.197   5.991 -0.5319 -0.7509 -0.2300
11576SOL    HW136016   5.632   7.131   5.968  1.8824  1.6965 -0.9451
11576SOL    HW236017   5.604   7.279   5.961 -2.8658  1.1442  1.6029
11577SOL     OW36018   1.528   8.506   8.153 -0.3516 -0.2725  0.4163
11577SOL    HW136019   1.474   8.431   8.178 -1.5655 -0.5706 -2.6250
11577SOL    HW236020   1.513   8.571   8.222 -3.8543 -0.7439  0.2898
11578SOL     OW36021   6.274   3.680   3.510  0.3730  0.3724 -0.1786
11578SOL    HW136022   6.359   3.684   3.465  1.0067 -1.1052  0.8183
11578SOL    HW236023   6.273   3.757   3.566  0.4450  1.1349 -1.1873
11579SOL     OW36024   2.840   3.174   2.062  0.0706  0.2429  0.1733
11579SOL    HW136025   2.920   3.226   2.054  0.0437  0.0765 -1.3511
11579SOL    HW236026   2.870   3.084   2.072  0.0857  0.1050 -1.0084
11580SOL     OW36027   3.421   2.398   1.792 -0.0435 -0.0014 -0.0010
11580SOL    HW136028   3.364   2.425   1.720  1.1517  1.2003 -0.5400
11580SOL    HW236029   3.481   2.335   1.753 -0.8328 -1.1212  0.5227
11581SOL     OW36030   7.511   4.569   6.999  0.5402  0.0893 -0.6253
11581SOL    HW136031   7.442   4.634   6.985  1.0384  0.5332 -1.0724
11581SOL    HW236032   7.498   4.504   6.930  0.4196  0.0374 -0.5549
11582SOL     OW36033   1.867   5.234   0.715 -0.3777  0.3044 -0.5347
11582SOL    HW136034   1.903   5.149   0.690  1.7508  1.2914 -1.0294
11582SOL    HW236035   1.867   5.233   0.811 -1.7308 -0.7414 -0.5053
11583SOL     OW36036   6.818   0.342   1.494  0.0332  0.1689  0.1752
11583SOL    HW136037   6.861   0.287   1.560 -2.2708  0.1557  1.7932
11583SOL    HW236038   6.808   0.285   1.418 -0.0987 -0.8731  0.9494
11584SOL     OW36039   5.812   1.058   7.266  0.3241  0.1762 -0.1341
11584SOL    HW136040   5.757   1.025   7.337  0.6205  0.9949  0.4895
11584SOL    HW236041   5.751   1.094   7.202  0.1347  1.5357  0.7853
11585SOL     OW36042   8.143   8.447   8.045  0.3123  0.1500 -0.0578
11585SOL    HW136043   8.098   8.519   8.001 -0.4075 -1.3327 -1.8900
11585SOL    HW236044   8.211   8.420   7.983  3.0033  1.4848  2.1004
11586SOL     OW36045   0.381   3.894   5.887  0.2292  0.8060  0.4229
11586SOL    HW136046   0.288   3.903   5.909  0.5704  2.2495  1.4575
11586SOL    HW236047   0.426   3.949   5.952  1.7219  0.9851 -0.7079
11587SOL     OW36048   6.114   0.950   8.405  0.0776  0.0728 -0.3241
11587SOL    HW136049   6.182   1.003   8.446 -0.3178 -0.0699  0.5387
11587SOL    HW236050   6.155   0.917   8.324  0.6074  0.9819 -0.4384
11588SOL     OW36051   0.278   4.950   2.951 -0.0453 -0.0491  0.1263
11588SOL    HW136052   0.324   5.009   3.010  1.7368  0.3093 -1.5259
11588SOL    HW236053   0.233   4.888   3.009  1.1942  0.5774  1.8339
11589SOL     OW36054   2.667   1.425   6.226  0.3498  0.3828 -0.3259
11589SOL    HW136055   2.581   1.435   6.266 -0.3559  0.7020 -1.8254
11589SOL    HW236056   2.719   1.497   6.262 -0.5842  1.3115 -0.7732
11590SOL     OW36057   6.683   0.059   5.069 -0.2097  0.0242 -0.6904
11590SOL    HW136058   6.661   0.149   5.093 -0.0280  0.7374 -2.9320
11590SOL    HW236059   6.775   0.049   5.096 -0.4761  0.2007  0.3202
11591SOL     OW36060   6.945   4.133   4.698  0.6593  0.7824  0.4344
11591SOL    HW136061   6.883   4.144   4.770  1.8001  0.3926  1.4982
11591SOL    HW236062   6.947   4.219   4.656 -0.7909  0.7302  0.1953
11592SOL     OW36063   5.370   1.741   0.308  0.2522  0.2193 -0.1194
11592SOL    HW136064   5.338   1.832   0.313  0.6191  0.4195 -1.1539
11592SOL    HW236065   5.446   1.739   0.366 -0.9047  0.0364  1.4711
11593SOL     OW36066   3.334   2.169   5.030  0.3138  0.3325  0.2385
11593SOL    HW136067   3.311   2.241   5.089 -0.7589 -0.6479  1.0809
11593SOL    HW236068   3.261   2.164   4.969 -1.5284 -2.2654  2.4022
11594SOL     OW36069   7.355   2.666   3.680 -0.1087  0.3029  0.4936
11594SOL    HW136070   7.341   2.578   3.714  2.0269  0.2924  1.5100
11594SOL    HW236071   7.449   2.670   3.661 -0.6142  1.4733 -2.2150
11595SOL     OW36072   1.479   1.921   5.779 -0.1811 -0.2496 -0.6041
11595SOL    HW136073   1.485   2.013   5.755  1.6622 -0.8220 -2.6994
11595SOL    HW236074   1.535   1.912   5.856 -1.2679  0.5481  0.3013
11596SOL     OW36075   3.805   8.037   7.220 -0.1425  0.5082 -0.3533
11596SOL    HW136076   3.818   7.944   7.200 -0.1398  0.2619  0.7184
11596SOL    HW236077   3.849   8.083   7.150 -0.1484 -0.3038 -0.9088
11597SOL     OW36078   1.991   0.234   3.306 -0.2569  0.8061 -0.3711
11597SOL    HW136079   1.902   0.200   3.298 -0.8390  2.2412 -0.3255
11597SOL    HW236080   2.042   0.183   3.243 -0.9799 -0.3949 -0.0194
11598SOL     OW36081   2.077   7.806   6.743  0.1217 -0.3949 -0.2251
11598SOL    HW136082   2.104   7.756   6.666 -2.8995 -0.6218 -1.2566
11598SOL    HW236083   2.100   7.897   6.721  0.2893 -0.5985 -0.9207
11599SOL     OW36084   6.479   6.960   3.029  0.1058 -0.2204  0.2510
11599SOL    HW136085   6.446   7.049   3.019  0.5261 -0.1422 -0.5396
11599SOL    HW236086   6.417   6.918   3.087 -0.4359  0.4175  0.1465
11600SOL     OW36087   2.412   1.839   8.353 -0.5750 -0.0041  0.0219
11600SOL    HW136088   2.325   1.826   8.314  0.4178 -0.7693 -2.1302
11600SOL    HW236089   2.436   1.928   8.330 -0.6211  0.0685  0.2549
11601SOL     OW36090   6.260   6.576   1.817 -0.0174 -0.6772 -0.3774
11601SOL    HW136091   6.259   6.656   1.870 -0.3727 -0.0082 -1.3747
11601SOL    HW236092   6.324   6.519   1.861  0.6284  0.3528  0.0478
11602SOL     OW36093   5.483   3.271   4.144 -0.0597  0.3428  0.7315
11602SOL    HW136094   5.431   3.287   4.066 -0.4678 -3.2225  0.1207
11602SOL    HW236095   5.574   3.274   4.113 -0.2099 -0.7817  0.1322
11603SOL     OW36096   0.996   0.665   2.441 -0.0263  0.0080  0.1306
11603SOL    HW136097   1.029   0.751   2.414  0.3787  0.1061  0.9050
11603SOL    HW236098   0.934   0.640   2.372 -0.5539  1.1561  0.1617
11604SOL     OW36099   6.853   7.852   5.047  0.2706  0.2853 -0.4659
11604SOL    HW136100   6.758   7.861   5.052  0.0877 -1.3296 -0.2341
11604SOL    HW236101   6.879   7.900   4.969 -0.9070 -0.2739 -1.2193
11605SOL     OW36102   2.180   7.030   6.310  0.0573  0.0611 -0.2389
11605SOL    HW136103   2.184   6.983   6.393  0.6798 -1.5170 -1.1029
11605SOL    HW236104   2.257   7.000   6.262 -0.8579  0.0817 -1.7951
11606SOL     OW36105   0.078   4.572   8.009 -0.1883  0.1714  0.7989
11606SOL    HW136106   0.120   4.641   7.958 -0.3823  0.6467  1.2847
11606SOL    HW236107  -0.015   4.594   8.007 -0.7618 -1.9709 -2.0091
11607SOL     OW36108   7.992   1.974   2.474 -0.0474  0.0274  0.1658
11607SOL    HW136109   8.045   1.902   2.440 -1.8897 -2.9980  3.1262
11607SOL    HW236110   8.025   1.988   2.563 -1.2907  1.1982  0.4754
11608SOL     OW36111   7.641   3.120   0.447 -0.1119 -0.3744 -0.0664
11608SOL    HW136112   7.662   3.109   0.540  1.8147 -2.4986 -0.6711
11608SOL    HW236113   7.722   3.097   0.401 -1.5551 -1.2330 -2.3408
11609SOL     OW36114   1.108   6.465   3.912  0.2659  0.3373 -0.0778
11609SOL    HW136115   1.135   6.482   4.002  2.1041 -0.2939 -0.4470
11609SOL    HW236116   1.022   6.423   3.919 -0.6679  2.3602  1.2156
11610SOL     OW36117   2.757   3.731   6.615  0.5397 -0.3022  0.2859
11610SOL    HW136118   2.837   3.721   6.563  0.7350 -0.5285  0.6306
11610SOL    HW236119   2.738   3.643   6.647  0.2829 -0.2070  0.3943
11611SOL     OW36120   0.857   7.277   4.948 -0.1560 -0.2434  0.6031
11611SOL    HW136121   0.862   7.221   4.871  1.5249  2.3210 -1.3159
11611SOL    HW236122   0.788   7.340   4.928  1.1722  1.2469  0.5668
11612SOL     OW36123   6.694   0.211   3.247  0.4845 -0.1380  0.4842
11612SOL    HW136124   6.687   0.199   3.341 -0.3719 -0.8871  0.3322
11612SOL    HW236125   6.604   0.205   3.214  0.4841  2.1769 -0.1567
11613SOL     OW36126   3.682   6.637   1.673 -0.1275 -0.0912  0.8409
11613SOL    HW136127   3.609   6.669   1.620 -0.0231  1.0668  1.3744
11613SOL    HW236128   3.756   6.693   1.649  1.2708 -2.6228 -1.3538
11614SOL     OW36129   1.759   0.396   5.801 -0.1364 -0.1535  0.2678
11614SOL    HW136130   1.823   0.421   5.867 -2.1563 -2.5775  3.4133
11614SOL    HW236131   1.674   0.415   5.841 -1.4810 -0.7318 -2.1197
11615SOL     OW36132   4.987   5.796   6.089 -0.4977  0.5062  0.0930
11615SOL    HW136133   4.946   5.880   6.069  0.9186  1.2837  0.3422
11615SOL    HW236134   5.020   5.806   6.179  2.1176  0.7373 -0.8094
11616SOL     OW36135   5.518   8.492   1.469 -0.2939  0.0603  0.3966
11616SOL    HW136136   5.468   8.427   1.519 -1.6054 -0.1963 -1.1544
11616SOL    HW236137   5.609   8.468   1.484 -0.6871 -0.7783  1.6243
11617SOL     OW36138   0.858   5.830   0.389  0.0180  0.2644 -0.6155
11617SOL    HW136139   0.872   5.736   0.376 -2.3184 -0.4876  1.4446
11617SOL    HW236140   0.830   5.861   0.303 -0.1704 -1.1686 -1.1113
11618SOL     OW36141   8.212   2.068   6.738 -0.2091 -0.5075  0.1345
11618SOL    HW136142   8.154   1.992   6.736 -0.7458 -0.1027  0.3163
11618SOL    HW236143   8.280   2.044   6.801 -0.3887 -0.8265  0.2115
11619SOL     OW36144   4.259   8.095   6.713  0.5826  0.0547  0.9547
11619SOL    HW136145   4.238   8.054   6.797  0.9715  0.3218  1.1826
11619SOL    HW236146   4.180   8.083   6.660 -0.3287  1.4310  1.9467
11620SOL     OW36147   8.422   3.174   2.369 -1.0022 -0.8225  0.6045
11620SOL    HW136148   8.494   3.237   2.367 -0.8665 -0.9129  1.8305
11620SOL    HW236149   8.464   3.090   2.350 -1.1196 -0.6208 -0.6341
11621SOL     OW36150   4.548   1.455   0.119 -0.3480 -0.0615 -0.5086
11621SOL    HW136151   4.643   1.464   0.131  0.0349  0.1786 -3.1981
11621SOL    HW236152   4.511   1.532   0.161  0.8565  1.0326 -1.3915
11622SOL     OW36153   5.202   6.537   3.520  0.4011 -0.6472  0.0823
11622SOL    HW136154   5.296   6.536   3.501  0.7274  0.7723  1.3400
11622SOL    HW236155   5.186   6.625   3.556 -0.8818 -1.6924  2.2852
11623SOL     OW36156   0.374   0.410   0.380  0.1519  0.0778 -0.0785
11623SOL    HW136157   0.383   0.341   0.444  0.4931  0.5338  0.3713
11623SOL    HW236158   0.301   0.382   0.325  0.5212 -0.8090 -0.1345
11624SOL     OW36159   3.629   2.581   1.711 -0.3166  0.2237  0.5066
11624SOL    HW136160   3.713   2.535   1.707  0.5592  1.8608 -1.3527
11624SOL    HW236161   3.563   2.511   1.706  0.8790 -1.0908  2.0951
11625SOL     OW36162   5.181   3.141   5.916 -0.4529  0.6727  0.3950
11625SOL    HW136163   5.132   3.060   5.900 -1.2110  0.5956  2.7767
11625SOL    HW236164   5.268   3.111   5.941  0.1785  0.7477 -1.5055
11626SOL     OW36165   4.527   6.685   3.221 -0.3900  0.3520 -0.2559
11626SOL    HW136166   4.441   6.715   3.191  0.1990  0.3953 -1.9897
11626SOL    HW236167   4.536   6.597   3.186  0.3999  0.4618 -0.3484
11627SOL     OW36168   4.104   4.258   6.424 -0.1121  0.5452 -0.5013
11627SOL    HW136169   4.181   4.208   6.397  0.0276  0.4168  0.1105
11627SOL    HW236170   4.139   4.333   6.471 -0.3618  0.0263  0.5580
11628SOL     OW36171   8.155   5.281   0.079  0.3649 -0.3714 -0.2691
11628SOL    HW136172   8.106   5.360   0.059 -1.4911 -1.2946  0.3298
11628SOL    HW236173   8.170   5.285   0.174 -0.1763 -0.9185 -0.1454
11629SOL     OW36174   8.330   6.333   5.577 -0.4985  0.0986 -0.1238
11629SOL    HW136175   8.393   6.265   5.602  0.9123  0.5661 -2.1868
11629SOL    HW236176   8.309   6.377   5.660  1.1913 -0.6659  0.7769
11630SOL     OW36177   1.760   3.679   4.695 -0.1933  0.0502 -0.2196
11630SOL    HW136178   1.829   3.668   4.629  0.2404  1.5125 -0.0546
11630SOL    HW236179   1.683   3.638   4.656  0.8358 -2.0166 -0.2256
11631SOL     OW36180   8.186   1.125   3.682 -0.0757  0.3646  0.3528
11631SOL    HW136181   8.260   1.091   3.733 -0.5531  0.2216  0.9755
11631SOL    HW236182   8.204   1.098   3.592  1.1513  1.2593  0.3214
11632SOL     OW36183   0.982   3.451   6.244 -0.1722  1.0453 -0.1124
11632SOL    HW136184   1.067   3.491   6.232  1.0343 -1.5360 -0.9366
11632SOL    HW236185   0.960   3.468   6.336  1.6685  0.9944  0.3709
11633SOL     OW36186   5.248   5.439   7.359 -0.1042 -0.0700 -0.0024
11633SOL    HW136187   5.193   5.478   7.427  0.0349  0.6269 -0.2784
11633SOL    HW236188   5.207   5.467   7.277 -0.4586 -1.1710 -0.2153
11634SOL     OW36189   7.781   0.141   3.453 -0.4722 -0.1263  0.2768
11634SOL    HW136190   7.698   0.183   3.476 -0.3165 -0.1566  0.9167
11634SOL    HW236191   7.773   0.120   3.360 -1.7357 -1.4007  0.6446
11635SOL     OW36192   4.496   7.090   8.225 -0.2652 -0.0293  0.4188
11635SOL    HW136193   4.491   7.185   8.235 -0.0720 -0.1676  2.1928
11635SOL    HW236194   4.579   7.066   8.267  0.0214 -0.9116 -0.6209
11636SOL     OW36195   0.723   1.264   1.209 -0.2547 -0.7606 -0.2981
11636SOL    HW136196   0.683   1.233   1.290  0.2241 -1.9041 -0.4807
11636SOL    HW236197   0.810   1.223   1.209  0.5907  0.9553 -0.3383
11637SOL     OW36198   1.446   6.574   6.374 -0.3343  0.4113  0.1678
11637SOL    HW136199   1.398   6.498   6.407 -0.0824 -0.2677 -0.9808
11637SOL    HW236200   1.378   6.637   6.351 -0.8129 -0.9478 -2.4521
11638SOL     OW36201   2.733   6.666   0.830  0.1346  0.1489  0.1540
11638SOL    HW136202   2.646   6.667   0.870  0.5030 -1.0329  1.0349
11638SOL    HW236203   2.766   6.755   0.840 -1.1312  0.7379 -0.5927
11639SOL     OW36204   5.009   5.607   5.375  0.3607 -0.0118 -0.5203
11639SOL    HW136205   5.094   5.573   5.404 -0.3410 -0.8867  0.6164
11639SOL    HW236206   5.014   5.606   5.280  1.2450 -1.1350 -0.4878
11640SOL     OW36207   2.476   0.212   3.944 -0.2876 -0.2319  0.3042
11640SOL    HW136208   2.408   0.280   3.937 -0.2370 -0.2869 -0.7765
11640SOL    HW236209   2.473   0.186   4.036 -0.3453  1.1978  0.7336
11641SOL     OW36210   8.522   5.329   0.688  0.2683 -0.4035 -0.0190
11641SOL    HW136211   8.487   5.251   0.730 -0.4559 -0.1954 -0.2117
11641SOL    HW236212   8.449   5.391   0.688 -0.0555 -0.6869 -2.3100
11642SOL     OW36213   1.155   7.652   2.813  0.2237  0.3505 -0.0779
11642SOL    HW136214   1.168   7.720   2.878 -0.6908 -0.1455  0.6607
11642SOL    HW236215   1.176   7.570   2.859 -0.1474  0.0214 -0.4749
11643SOL     OW36216   3.368   6.165   4.846  0.4608 -0.2135  0.0473
11643SOL    HW136217   3.346   6.116   4.766  0.6715  0.5014 -0.4569
11643SOL    HW236218   3.285   6.202   4.874  0.2031 -1.2710  0.7228
11644SOL     OW36219   7.672   5.683   3.218  0.0035  0.4402 -0.0721
11644SOL    HW136220   7.609   5.653   3.283 -0.1266 -0.6588 -0.6793
11644SOL    HW236221   7.741   5.617   3.220  0.3486  0.7788 -0.5498
11645SOL     OW36222   3.734   1.746   1.557  0.2168  0.2120  0.0276
11645SOL    HW136223   3.704   1.827   1.516 -1.8633 -0.4470  0.0957
11645SOL    HW236224   3.718   1.759   1.650 -0.3819 -0.3353  0.0130
11646SOL     OW36225   0.951   4.820   6.363 -0.0682  1.3229  0.4724
11646SOL    HW136226   0.974   4.900   6.410  0.0372  0.0902  2.6755
11646SOL    HW236227   1.034   4.788   6.327  0.3603  0.9172  1.7651
11647SOL     OW36228   3.514   0.426   0.211 -0.0987 -0.0651  0.2125
11647SOL    HW136229   3.464   0.470   0.279  1.7780  1.1605  0.8859
11647SOL    HW236230   3.572   0.494   0.176  3.1116 -1.9121  1.4516
11648SOL     OW36231   0.521   0.483   8.317  0.1876  1.1585 -1.2636
11648SOL    HW136232   0.594   0.544   8.326  0.2927  1.1588 -2.0532
11648SOL    HW236233   0.561   0.402   8.286  0.1103  0.5213  0.1788
11649SOL     OW36234   2.096   5.738   8.113  0.3151  0.0605 -0.1083
11649SOL    HW136235   2.155   5.799   8.157 -0.4490  0.5452  0.2656
11649SOL    HW236236   2.110   5.754   8.019 -0.8549  1.8300 -0.0426
11650SOL     OW36237   3.348   6.144   2.617 -0.1274  0.1291 -0.2266
11650SOL    HW136238   3.349   6.144   2.713 -2.1284 -0.7619 -0.1438
11650SOL    HW236239   3.358   6.236   2.593  0.1018  0.3935  0.8438
11651SOL     OW36240   2.484   6.740   7.072 -0.1210  0.1891  0.0498
11651SOL    HW136241   2.550   6.729   7.141 -0.5112 -0.1883  0.3726
11651SOL    HW236242   2.421   6.669   7.088 -0.1379  0.0073 -0.7861
11652SOL     OW36243   3.718   8.130   2.947  0.0163  0.2593  0.7702
11652SOL    HW136244   3.788   8.194   2.938 -0.0086  0.3848  1.3748
11652SOL    HW236245   3.683   8.147   3.035 -0.5675 -0.0016  0.5877
11653SOL     OW36246   1.476   4.729   6.792 -0.2574 -0.1615  0.1799
11653SOL    HW136247   1.431   4.747   6.874 -3.3192 -0.8879 -1.1721
11653SOL    HW236248   1.486   4.634   6.790  2.4040  0.0457  0.8798
11654SOL     OW36249   8.062   6.423   0.910 -0.0803  0.2582  0.0490
11654SOL    HW136250   8.008   6.368   0.966 -1.3959  1.9383  0.5034
11654SOL    HW236251   8.086   6.498   0.965  2.2006 -0.0955 -0.3482
11655SOL     OW36252   3.727   3.349   5.765 -0.2292 -0.4163  0.0421
11655SOL    HW136253   3.632   3.331   5.763 -0.3605  0.3023 -0.7069
11655SOL    HW236254   3.739   3.420   5.703  1.0828 -1.8275 -1.4284
11656SOL     OW36255   0.123   5.632   5.141  0.4679  0.1696 -0.1061
11656SOL    HW136256   0.093   5.723   5.146  0.7742  0.2976 -0.6296
11656SOL    HW236257   0.218   5.638   5.138  0.4575 -0.0990 -1.5577
11657SOL     OW36258   5.498   7.867   1.679  0.7444 -0.1415  0.0578
11657SOL    HW136259   5.498   7.950   1.632 -0.1473  0.3429  0.8521
11657SOL    HW236260   5.408   7.859   1.713  1.3566 -0.3974  1.7312
11658SOL     OW36261   7.673   3.212   6.698 -0.3576  0.3723  0.2815
11658SOL    HW136262   7.638   3.183   6.783 -1.5084  3.2702  0.9095
11658SOL    HW236263   7.764   3.236   6.716 -1.3613  3.8337  1.6106
11659SOL     OW36264   3.877   0.464   2.965  0.7227  0.0650  1.1948
11659SOL    HW136265   3.885   0.457   2.870 -1.2367 -0.5715  1.0239
11659SOL    HW236266   3.945   0.406   2.999 -0.0643 -1.5713  0.1201
11660SOL     OW36267   8.163   8.360   8.685 -0.4164  0.1354 -0.4400
11660SOL    HW136268   8.118   8.290   8.639  0.0597 -0.9783  0.7425
11660SOL    HW236269   8.121   8.363   8.772  1.1224 -0.2858  0.3503
11661SOL     OW36270   1.533   2.469   2.983  0.0749  0.0909  0.3251
11661SOL    HW136271   1.585   2.435   3.056  0.0622 -0.2397  0.1787
11661SOL    HW236272   1.555   2.412   2.909 -1.5424 -0.9381  0.5972
11662SOL     OW36273   8.246   8.652   7.813  0.0226  0.0374  0.0020
11662SOL    HW136274   8.276   8.736   7.846 -0.3877  0.2213 -0.0791
11662SOL    HW236275   8.176   8.675   7.751 -0.1946 -0.3664  0.0965
11663SOL     OW36276   7.865   2.995   4.630  0.1317 -0.1307  0.2820
11663SOL    HW136277   7.884   2.911   4.589 -1.4661  0.0198 -0.8818
11663SOL    HW236278   7.804   3.038   4.570 -1.0894  0.7907  2.0709
11664SOL     OW36279   1.472   5.969   3.221  0.4114 -0.1575  0.2771
11664SOL    HW136280   1.545   6.023   3.190  2.0638 -2.0885  0.5783
11664SOL    HW236281   1.489   5.956   3.314 -0.3721 -0.5600  0.3790
11665SOL     OW36282   0.762   2.801   6.071  0.2934  0.6744  0.2537
11665SOL    HW136283   0.679   2.759   6.096 -0.1645  0.4102 -1.5448
11665SOL    HW236284   0.736   2.873   6.013  1.2534  1.5795  0.9127
11666SOL     OW36285   5.845   8.399   7.261  0.0856  0.3654 -1.1522
11666SOL    HW136286   5.929   8.446   7.257 -0.1806  0.7810 -2.1898
11666SOL    HW236287   5.866   8.310   7.234  0.7608 -0.4436  1.6648
11667SOL     OW36288   3.551   4.448   2.366  0.3197  0.5088  0.1587
11667SOL    HW136289   3.505   4.512   2.420 -1.6026 -0.6765  0.0225
11667SOL    HW236290   3.520   4.465   2.277  0.4849 -0.0348 -0.0041
11668SOL     OW36291   0.845   4.448   7.144  0.1796  0.1554 -0.0898
11668SOL    HW136292   0.801   4.532   7.133 -1.0815 -0.3113  1.0599
11668SOL    HW236293   0.800   4.389   7.084 -1.7878 -0.6377  1.9874
11669SOL     OW36294   0.614   0.781   0.173  0.4599 -0.4163 -0.3949
11669SOL    HW136295   0.607   0.799   0.079  0.7852 -1.3995 -0.6232
11669SOL    HW236296   0.653   0.860   0.210 -0.8784  0.4974 -0.8768
11670SOL     OW36297   0.531   7.814   0.668 -0.4089 -0.4821 -0.4009
11670SOL    HW136298   0.446   7.773   0.654 -1.6089  1.9855 -0.9989
11670SOL    HW236299   0.580   7.798   0.588 -0.3500 -1.7503 -0.1302
11671SOL     OW36300   6.501   3.901   2.307  0.1870  0.6458  0.2322
11671SOL    HW136301   6.539   3.829   2.256 -1.6590 -0.1051 -0.1505
11671SOL    HW236302   6.488   3.971   2.242  1.4573  1.1650  0.4960
11672SOL     OW36303   2.610   0.457   4.234 -0.3371 -0.0774 -0.0749
11672SOL    HW136304   2.660   0.378   4.256  2.0994  1.1299 -0.9572
11672SOL    HW236305   2.622   0.514   4.310  0.5629  0.6179 -0.7158
11673SOL     OW36306   5.149   2.662   1.273 -0.3721  0.0190 -0.1977
11673SOL    HW136307   5.096   2.628   1.345  0.2299 -2.1232 -0.6791
11673SOL    HW236308   5.177   2.749   1.302 -0.5429 -0.5849  1.9383
11674SOL     OW36309   6.337   2.650   6.790  0.1647 -0.3909  0.2840
11674SOL    HW136310   6.358   2.719   6.853  1.9510  0.5302 -1.2371
11674SOL    HW236311   6.242   2.645   6.792 -0.2018  3.2491 -0.6509
11675SOL     OW36312   5.883   7.385   0.938  0.0556 -0.0181  0.1092
11675SOL    HW136313   5.877   7.468   0.891  1.8914  0.4719  0.6861
11675SOL    HW236314   5.924   7.325   0.875  1.5279  0.3504  0.6934
11676SOL     OW36315   6.921   6.412   4.076  0.3334 -0.1221 -0.1959
11676SOL    HW136316   6.944   6.488   4.024 -0.7866 -0.2627 -0.9199
11676SOL    HW236317   6.863   6.361   4.020  1.1260 -1.5611  0.2434
11677SOL     OW36318   0.139   4.491   5.074  0.1097 -0.0828  0.6274
11677SOL    HW136319   0.215   4.513   5.019 -0.8701 -0.5199 -0.9500
11677SOL    HW236320   0.101   4.576   5.096  1.6855  0.2175  2.4288
11678SOL     OW36321   7.842   8.006   7.276 -0.4524 -0.0479  0.8473
11678SOL    HW136322   7.845   7.913   7.299 -1.6987 -0.6511 -1.1504
11678SOL    HW236323   7.784   8.045   7.342 -1.9327 -1.2099  0.3015
11679SOL     OW36324   0.549   2.118   1.203  0.0670  0.1901 -0.1136
11679SOL    HW136325   0.640   2.089   1.193  0.1636  0.6748 -0.7247
11679SOL    HW236326   0.557   2.203   1.247 -0.1468 -0.1437  0.5909
11680SOL     OW36327   5.464   6.452   7.376 -0.0128  0.5099  0.8272
11680SOL    HW136328   5.466   6.488   7.287 -3.3794 -1.0939 -0.0725
11680SOL    HW236329   5.543   6.398   7.382  0.4935  0.9756 -1.0405
11681SOL     OW36330   8.261   4.187   3.669 -0.5324 -0.4216  0.1350
11681SOL    HW136331   8.188   4.129   3.646 -0.7126 -0.9959  2.0050
11681SOL    HW236332   8.220   4.264   3.708 -0.1661 -0.7223  1.1440
11682SOL     OW36333   4.746   6.175   1.815  0.3649  0.8872 -0.4446
11682SOL    HW136334   4.750   6.269   1.797  2.3420  0.5539 -2.0399
11682SOL    HW236335   4.837   6.148   1.824 -0.1228 -1.0106 -0.7147
11683SOL     OW36336   0.018   6.347   6.443  0.0189 -0.0610  0.0292
11683SOL    HW136337   0.021   6.279   6.510 -1.4837 -1.0229 -0.8131
11683SOL    HW236338  -0.001   6.299   6.362 -0.1312  1.2618 -0.7449
11684SOL     OW36339   5.616   1.933   2.698  0.3856 -0.0111 -0.1027
11684SOL    HW136340   5.604   1.999   2.767 -0.1777  0.9161 -1.0438
11684SOL    HW236341   5.684   1.875   2.732  2.5487  2.3215 -0.1318
11685SOL     OW36342   2.851   1.177   2.597 -0.3878  0.2035 -0.2977
11685SOL    HW136343   2.852   1.189   2.502  0.1896 -1.4601 -0.5307
11685SOL    HW236344   2.820   1.087   2.609 -1.4906  0.7518  1.1507
11686SOL     OW36345   1.617   2.180   6.071  0.4832  0.5336 -0.2049
11686SOL    HW136346   1.702   2.218   6.052  0.9407 -1.2080 -1.9108
11686SOL    HW236347   1.616   2.096   6.024 -1.6694 -0.1023  0.8128
11687SOL     OW36348   3.878   2.671   4.027  0.0640  0.6496  0.3619
11687SOL    HW136349   3.834   2.755   4.040  0.8155  1.3938 -1.4989
11687SOL    HW236350   3.967   2.694   4.000  0.6522 -0.7741  0.9879
11688SOL     OW36351   7.758   0.385   4.927  0.0772  0.5424 -0.3385
11688SOL    HW136352   7.853   0.380   4.913  0.1130 -0.3608  0.1506
11688SOL    HW236353   7.723   0.311   4.878 -0.1625 -0.3741  1.1590
11689SOL     OW36354   4.666   3.968   5.633 -0.1161  0.0949  0.1612
11689SOL    HW136355   4.761   3.979   5.631 -0.3667  2.9489 -0.3562
11689SOL    HW236356   4.641   3.956   5.541 -0.3341  0.5428  0.1581
11690SOL     OW36357   0.965   8.505   5.440  0.0240  0.0656 -0.5305
11690SOL    HW136358   0.985   8.546   5.524 -0.1464  0.4086 -0.6583
11690SOL    HW236359   0.874   8.477   5.448  0.2250 -0.5512 -0.3374
11691SOL     OW36360   3.175   1.435   7.638  0.1582  0.7970 -0.2341
11691SOL    HW136361   3.104   1.419   7.577  0.0652  0.4641 -0.0405
11691SOL    HW236362   3.150   1.388   7.718  1.1561 -0.3535 -0.5517
11692SOL     OW36363   4.557   5.956   7.266  0.1012  0.2335  0.3034
11692SOL    HW136364   4.508   5.884   7.306  1.6606 -0.6625  0.7149
11692SOL    HW236365   4.620   5.912   7.207  0.0249  1.3564 -0.6568
11693SOL     OW36366   5.842   3.180   5.257  0.2477 -0.2844  0.4135
11693SOL    HW136367   5.832   3.196   5.163  0.8112  1.1107  0.5720
11693SOL    HW236368   5.902   3.105   5.262  1.3027  0.4748 -0.3400
11694SOL     OW36369   5.130   4.976   5.622  0.8968  0.2016 -0.7777
11694SOL    HW136370   5.204   4.975   5.561  0.1062 -1.4457 -1.7822
11694SOL    HW236371   5.054   4.953   5.569 -0.2058  0.8915  0.4196
11695SOL     OW36372   1.756   0.518   0.994 -0.2261  0.4043  0.0654
11695SOL    HW136373   1.705   0.485   0.920  1.2693  0.2993 -0.9411
11695SOL    HW236374   1.737   0.612   0.996 -1.9666  0.0923  0.9474
11696SOL     OW36375   4.141   6.812   2.167  0.6091  0.3070 -0.2235
11696SOL    HW136376   4.192   6.892   2.183 -1.7102  1.4749  2.3627
11696SOL    HW236377   4.084   6.834   2.093  0.4827  0.8133  0.0200
11697SOL     OW36378   5.395   2.685   4.572  0.3675 -0.6796  0.2247
11697SOL    HW136379   5.432   2.746   4.636 -1.6013 -1.1169  1.9175
11697SOL    HW236380   5.447   2.606   4.581  1.3725 -0.0718 -0.1771
11698SOL     OW36381   0.418   1.039   3.816  0.0510  0.2361 -0.0282
11698SOL    HW136382   0.499   1.033   3.767  1.1267  2.1148  1.3721
11698SOL    HW236383   0.354   1.073   3.753  0.7531  0.2446 -0.7508
11699SOL     OW36384   1.100   5.964   6.888 -0.3543 -0.3576  0.4580
11699SOL    HW136385   1.030   6.027   6.901 -0.4659 -0.6684  1.4280
11699SOL    HW236386   1.180   6.016   6.888 -0.5421 -0.0426 -0.3207
11700SOL     OW36387   4.872   7.940   6.963  0.5453 -0.1671 -0.2400
11700SOL    HW136388   4.928   8.018   6.965 -0.9135  0.9284 -0.3201
11700SOL    HW236389   4.820   7.950   6.883 -2.3511  0.7991  1.6261
11701SOL     OW36390   2.236   5.425   3.378  0.2501 -0.1200 -0.1113
11701SOL    HW136391   2.194   5.388   3.300  0.0835 -2.4402  0.9967
11701SOL    HW236392   2.164   5.437   3.440  0.4919  0.9715 -0.0329
11702SOL     OW36393   1.739   3.906   8.600  0.1492 -0.4525  0.5283
11702SOL    HW136394   1.819   3.944   8.634  0.3505  1.7521 -1.9955
11702SOL    HW236395   1.679   3.981   8.591 -0.0671 -0.8539 -3.0523
11703SOL     OW36396   0.973   0.209   0.625 -0.0984  0.1375  0.1535
11703SOL    HW136397   0.908   0.209   0.695  0.6975  0.9296  0.9349
11703SOL    HW236398   0.922   0.215   0.544 -0.9885  1.4778  0.7720
11704SOL     OW36399   1.287   6.162   2.177 -0.6231 -0.5279  0.5134
11704SOL    HW136400   1.243   6.187   2.258 -1.4149 -1.6780  0.4658
11704SOL    HW236401   1.344   6.089   2.203  1.9450  1.4106  0.7411
11705SOL     OW36402   3.247   0.580   8.092 -0.5247 -0.1781 -0.2439
11705SOL    HW136403   3.225   0.487   8.086 -1.2126  0.0300 -1.4938
11705SOL    HW236404   3.222   0.606   8.180 -1.0906 -1.0048 -0.1511
11706SOL     OW36405   4.457   5.242   5.390 -0.3664  0.4959 -0.1371
11706SOL    HW136406   4.410   5.244   5.307  0.0058  0.3975 -0.3556
11706SOL    HW236407   4.504   5.159   5.389 -1.3449 -0.0908  0.7359
11707SOL     OW36408   5.139   7.501   1.307  0.2177 -0.4256  0.1988
11707SOL    HW136409   5.185   7.581   1.330  1.2449 -1.1735  0.8000
11707SOL    HW236410   5.151   7.492   1.213  0.4377 -0.0921  0.1963
11708SOL     OW36411   3.616   4.941   1.610 -0.0897 -0.2789 -0.4441
11708SOL    HW136412   3.676   4.894   1.668  0.2229  0.2563 -0.3240
11708SOL    HW236413   3.588   4.875   1.546 -0.9955 -1.0516  0.7205
11709SOL     OW36414   3.598   6.473   6.418 -0.1489  0.0943 -0.2742
11709SOL    HW136415   3.522   6.525   6.392  0.6550  1.6906  0.4115
11709SOL    HW236416   3.670   6.510   6.368  0.6205  0.2887  0.9379
11710SOL     OW36417   8.451   2.196   5.843 -0.6849 -0.4596  0.9662
11710SOL    HW136418   8.481   2.201   5.934 -0.9146 -0.1912  1.0278
11710SOL    HW236419   8.361   2.229   5.845 -0.1564  1.1266  0.3756
11711SOL     OW36420   6.269   0.478   5.275 -0.0543  0.1338  0.1329
11711SOL    HW136421   6.188   0.427   5.286 -0.0422 -0.4897 -2.0618
11711SOL    HW236422   6.259   0.519   5.189  0.9033  2.1314  0.9131
11712SOL     OW36423   7.239   8.161   8.094 -0.0089  0.3136 -0.0475
11712SOL    HW136424   7.144   8.159   8.086 -0.3047  0.7276  2.4786
11712SOL    HW236425   7.266   8.071   8.078 -1.1577 -0.4137  1.7245
11713SOL     OW36426   5.872   5.853   0.255  0.0550  0.4126 -0.4968
11713SOL    HW136427   5.832   5.863   0.169 -1.2008 -0.0162  0.0122
11713SOL    HW236428   5.818   5.788   0.299 -1.1358  2.6744  1.6471
11714SOL     OW36429   0.218   4.941   8.543 -0.4275 -0.1162 -0.0891
11714SOL    HW136430   0.216   4.976   8.633  2.0225 -0.0583 -0.0167
11714SOL    HW236431   0.167   4.860   8.549 -4.7411  2.3155  0.1274
11715SOL     OW36432   3.685   7.791   5.097 -0.1575  0.4521  0.3373
11715SOL    HW136433   3.733   7.726   5.046  1.1522 -0.3007  2.3926
11715SOL    HW236434   3.603   7.748   5.120 -0.2774  0.3896 -0.1978
11716SOL     OW36435   1.185   4.150   4.102  0.3176  0.0590 -0.0588
11716SOL    HW136436   1.214   4.062   4.079  0.6605  0.0733  0.3049
11716SOL    HW236437   1.198   4.155   4.197 -2.8596 -0.6801  0.5120
11717SOL     OW36438   8.711   5.752   8.189  0.4962  0.2700 -0.0272
11717SOL    HW136439   8.618   5.770   8.179  0.7007  0.5116 -1.7530
11717SOL    HW236440   8.717   5.658   8.202  0.1621 -0.3395 -3.3894
11718SOL     OW36441   1.408   2.491   4.269 -0.1664 -0.3394  0.2166
11718SOL    HW136442   1.342   2.559   4.260 -1.5729 -1.6180  0.4316
11718SOL    HW236443   1.476   2.515   4.206 -1.2872  0.5026 -0.7223
11719SOL     OW36444   8.354   1.529   2.288 -0.2235  0.2749 -0.2397
11719SOL    HW136445   8.334   1.550   2.379 -0.1621  3.0772 -0.7858
11719SOL    HW236446   8.269   1.508   2.249 -0.4156  0.2720  0.1791
11720SOL     OW36447   1.119   0.192   3.858  0.0945 -0.4321 -0.1955
11720SOL    HW136448   1.173   0.210   3.935 -0.0001 -1.1161  0.0378
11720SOL    HW236449   1.144   0.259   3.795  1.4728 -0.9323 -0.2222
11721SOL     OW36450   8.253   2.450   4.070  0.1332 -0.3585 -0.2690
11721SOL    HW136451   8.329   2.476   4.018  0.4670 -1.5880 -0.4132
11721SOL    HW236452   8.264   2.356   4.083 -1.6420 -0.6656 -0.7596
11722SOL     OW36453   5.498   0.686   0.232  0.1334  0.0409 -0.6964
11722SOL    HW136454   5.569   0.651   0.285  0.2017 -1.5496 -1.7940
11722SOL    HW236455   5.428   0.620   0.238 -0.3461  0.4514 -1.5376
11723SOL     OW36456   3.292   2.256   7.563  0.2594  0.1569  0.0732
11723SOL    HW136457   3.350   2.299   7.626  1.1921 -0.2760 -0.4587
11723SOL    HW236458   3.265   2.175   7.606  2.0186 -0.8367 -0.5524
11724SOL     OW36459   2.953   7.187   5.547 -0.0912  0.3347 -0.1469
11724SOL    HW136460   2.922   7.125   5.480  2.1227 -0.6510 -0.3302
11724SOL    HW236461   2.937   7.142   5.630  0.5362 -0.0335 -0.2227
11725SOL     OW36462   0.192   2.109   5.541 -0.2271  0.0339  0.4979
11725SOL    HW136463   0.126   2.060   5.492  0.1203 -0.0389  0.0931
11725SOL    HW236464   0.253   2.042   5.572  0.3034  0.2110 -0.1410
11726SOL     OW36465   6.126   2.969   5.587  0.5148  0.0746 -0.9736
11726SOL    HW136466   6.094   2.919   5.511  0.7168  0.5577 -1.3808
11726SOL    HW236467   6.055   2.964   5.650  0.6910 -1.0752 -0.8434
11727SOL     OW36468   4.959   8.323   8.262  0.1467  0.2109 -0.0373
11727SOL    HW136469   4.978   8.414   8.287  0.1510  0.8275 -2.0687
11727SOL    HW236470   5.026   8.301   8.198 -0.6429 -0.7490 -0.5618
11728SOL     OW36471   1.082   2.824   8.497 -0.1857 -0.1454 -0.1921
11728SOL    HW136472   1.173   2.820   8.468 -0.4648  1.0150 -1.2906
11728SOL    HW236473   1.088   2.844   8.590  0.6827  0.1402 -0.2977
11729SOL     OW36474   7.664   5.384   0.020  0.7914  0.5827  0.4828
11729SOL    HW136475   7.680   5.375  -0.074 -0.1550  1.1110  0.2600
11729SOL    HW236476   7.747   5.359   0.061  1.0630 -0.1255 -0.4671
11730SOL     OW36477   8.634   3.803   1.592  0.2869  0.2642  0.4215
11730SOL    HW136478   8.633   3.839   1.681 -2.3757  1.2013  0.0902
11730SOL    HW236479   8.557   3.747   1.588 -2.0756  3.3641 -2.4343
11731SOL     OW36480   1.633   6.919   3.328  0.0582  0.4275 -0.0301
11731SOL    HW136481   1.653   6.915   3.234  1.8693  3.3207  0.1149
11731SOL    HW236482   1.687   6.850   3.367  0.5461  0.2805 -0.9311
11732SOL     OW36483   8.050   5.092   5.363 -0.0411 -0.3290 -0.5034
11732SOL    HW136484   7.958   5.111   5.379  0.5447  1.3773  1.1729
11732SOL    HW236485   8.065   5.120   5.273 -0.9359  0.3096 -0.4641
11733SOL     OW36486   3.775   6.519   6.199 -0.1653  0.0611 -0.4344
11733SOL    HW136487   3.734   6.587   6.144 -2.3794 -0.9512 -0.1348
11733SOL    HW236488   3.831   6.471   6.139 -1.3499 -0.0529 -1.4931
11734SOL     OW36489   4.335   0.606   7.281 -0.4176 -0.6757  0.1919
11734SOL    HW136490   4.332   0.649   7.367  0.1769 -0.2498  0.0017
11734SOL    HW236491   4.249   0.563   7.274 -0.2669 -1.1943  1.2346
11735SOL     OW36492   6.420   0.083   6.298  0.5523  0.0672 -0.4688
11735SOL    HW136493   6.455   0.130   6.223  0.7286 -2.7439 -2.2748
11735SOL    HW236494   6.494   0.035   6.334 -0.0025 -0.3683  0.1286
11736SOL     OW36495   3.234   5.635   0.586  0.1281 -0.7165 -0.2062
11736SOL    HW136496   3.181   5.715   0.594 -1.4748 -1.8864  1.9066
11736SOL    HW236497   3.312   5.663   0.538 -1.7099  1.4272 -2.1696
11737SOL     OW36498   1.569   4.116   3.102  0.2282 -0.0741  0.1378
11737SOL    HW136499   1.645   4.147   3.054  0.0059 -0.1855 -0.2886
11737SOL    HW236500   1.527   4.053   3.044 -0.5923  0.5174  0.0647
11738SOL     OW36501   7.508   0.944   7.931  0.2256  0.5983  0.1524
11738SOL    HW136502   7.428   0.981   7.894 -0.5996 -1.5086 -0.3481
11738SOL    HW236503   7.483   0.918   8.020  0.2207 -0.4002 -0.1299
11739SOL     OW36504   1.555   5.380   0.921  0.8046  0.0329  0.0080
11739SOL    HW136505   1.519   5.387   0.833  0.4343 -0.1491  0.1412
11739SOL    HW236506   1.488   5.419   0.978  0.0551 -1.7706  0.4401
11740SOL     OW36507   8.040   0.707   5.334 -0.0823 -0.1068  0.1880
11740SOL    HW136508   8.106   0.706   5.404 -0.7580 -0.8999  0.8280
11740SOL    HW236509   8.077   0.651   5.266  0.0375 -0.3071  0.4164
11741SOL     OW36510   0.872   0.382   5.730 -0.1969 -0.5249  0.2682
11741SOL    HW136511   0.946   0.367   5.671 -0.4763  0.3649 -0.3336
11741SOL    HW236512   0.825   0.456   5.691 -2.1122 -1.8383 -0.0469
11742SOL     OW36513   5.986   3.267   8.124 -0.2017 -0.8504 -0.8280
11742SOL    HW136514   5.974   3.286   8.031 -1.3728  0.3928 -0.4479
11742SOL    HW236515   5.912   3.310   8.167  1.8376  1.1066  0.9849
11743SOL     OW36516   4.986   7.618   2.780 -0.1715  0.1950  0.1192
11743SOL    HW136517   4.909   7.581   2.737  0.7025 -1.9000  0.2340
11743SOL    HW236518   4.989   7.574   2.864  0.4793  1.1791  0.6231
11744SOL     OW36519   2.853   0.017   3.634  0.0181 -0.8103  0.5542
11744SOL    HW136520   2.884   0.096   3.678  1.5295 -0.7975 -0.4723
11744SOL    HW236521   2.781  -0.014   3.689  0.3631  0.4531  1.7723
11745SOL     OW36522   7.218   5.194   4.948 -0.2165 -0.4509 -0.1649
11745SOL    HW136523   7.134   5.173   4.907 -0.7295  0.9271  0.1254
11745SOL    HW236524   7.213   5.288   4.967  0.0403 -0.9475  2.9137
11746SOL     OW36525   2.344   1.554   7.268  0.4406 -0.8548  0.0199
11746SOL    HW136526   2.324   1.555   7.362 -1.6453  2.1882 -0.3048
11746SOL    HW236527   2.279   1.495   7.230  0.4411 -1.0563  0.3321
11747SOL     OW36528   1.841   1.104   3.903  0.1219  0.2283 -1.1336
11747SOL    HW136529   1.858   1.011   3.886 -0.1419  0.1846 -1.1752
11747SOL    HW236530   1.877   1.120   3.990  0.5541  0.1938 -1.3057
11748SOL     OW36531   1.627   4.120   4.185  0.2228  0.4275 -0.3359
11748SOL    HW136532   1.715   4.155   4.170  0.7785  0.4353  2.3887
11748SOL    HW236533   1.578   4.193   4.223 -0.4357 -0.0670 -0.2173
11749SOL     OW36534   4.179   6.108   3.463 -0.5417 -0.1757 -0.1174
11749SOL    HW136535   4.094   6.136   3.430  0.1595 -0.8780 -2.7544
11749SOL    HW236536   4.225   6.074   3.386  2.2554  0.4573  1.1400
11750SOL     OW36537   6.009   4.363   8.110  0.6462 -0.3977  0.1700
11750SOL    HW136538   6.094   4.331   8.139  0.8197  0.5585  0.7970
11750SOL    HW236539   6.027   4.413   8.030  1.2771  2.5913  1.9989
11751SOL     OW36540   0.316   0.925   4.512 -0.3109 -0.2948  0.0352
11751SOL    HW136541   0.268   0.842   4.503 -0.0564 -0.2134 -2.9586
11751SOL    HW236542   0.404   0.899   4.539  0.3886 -1.3083 -2.8649
11752SOL     OW36543   1.829   1.258   1.817 -0.0357 -0.6510  0.1549
11752SOL    HW136544   1.904   1.246   1.876 -0.5045  0.3528  0.9806
11752SOL    HW236545   1.818   1.353   1.811 -1.4424 -0.7862  0.3097
11753SOL     OW36546   6.831   3.529   8.489 -0.2743  0.0407 -0.3405
11753SOL    HW136547   6.897   3.550   8.555 -0.2217 -0.2258 -0.3085
11753SOL    HW236548   6.752   3.572   8.520  0.1611  1.3682 -0.9753
11754SOL     OW36549   7.866   8.413   1.283 -0.4275 -0.0759 -0.0612
11754SOL    HW136550   7.883   8.503   1.311 -0.5908  0.0842 -0.4707
11754SOL    HW236551   7.940   8.391   1.226  1.1596 -1.2221  2.2868
11755SOL     OW36552   5.173   5.032   1.183 -0.0729  0.2245 -0.3839
11755SOL    HW136553   5.081   5.027   1.210 -0.6740  1.0775 -2.1186
11755SOL    HW236554   5.221   4.986   1.252 -1.6376  1.0126  1.3192
11756SOL     OW36555   4.592   0.916   1.103 -0.9144  0.1334 -0.5654
11756SOL    HW136556   4.558   0.827   1.089  0.4363 -0.7347  1.1827
11756SOL    HW236557   4.658   0.927   1.034 -0.7417 -0.4326 -0.5022
11757SOL     OW36558   7.094   5.649   6.187  0.0674 -0.3195  0.0745
11757SOL    HW136559   7.039   5.726   6.201 -0.0491 -0.3813 -0.0342
11757SOL    HW236560   7.037   5.588   6.140  0.3196 -0.2741 -0.2922
11758SOL     OW36561   6.423   2.540   4.784 -0.4865 -0.3761  0.1616
11758SOL    HW136562   6.481   2.545   4.860 -0.9073 -2.1309  0.6530
11758SOL    HW236563   6.479   2.558   4.709  0.8925 -2.6010  0.5692
11759SOL     OW36564   1.748   5.082   1.693  0.0929 -0.1079  0.5678
11759SOL    HW136565   1.666   5.058   1.651 -0.9430  2.0649  1.2356
11759SOL    HW236566   1.723   5.131   1.771  1.9867  1.0704  0.5157
11760SOL     OW36567   2.428   1.820   2.788 -0.4091 -0.1103 -0.2550
11760SOL    HW136568   2.503   1.815   2.730  0.3943  0.8970  0.6594
11760SOL    HW236569   2.360   1.864   2.737  0.4449  1.1997 -0.2998
11761SOL     OW36570   8.678   5.629   0.979 -0.3319 -0.3250  0.8317
11761SOL    HW136571   8.640   5.711   0.948 -2.8655 -1.1055  1.5911
11761SOL    HW236572   8.764   5.624   0.938 -1.1366  1.5004 -1.2144
11762SOL     OW36573   7.034   3.533   0.705  0.5176 -0.5026 -0.3039
11762SOL    HW136574   6.993   3.505   0.787  1.4126  0.7101  0.5884
11762SOL    HW236575   6.960   3.560   0.650 -0.0012  0.2106  0.7064
11763SOL     OW36576   8.235   3.527   0.495  0.9843 -0.5012 -0.1642
11763SOL    HW136577   8.273   3.460   0.438  0.3077  0.1533 -1.4360
11763SOL    HW236578   8.142   3.529   0.470  0.5186 -0.6627  1.4495
11764SOL     OW36579   6.241   1.916   6.315  0.3217  0.1856  0.0282
11764SOL    HW136580   6.295   1.978   6.365  1.6355  0.1411 -1.2613
11764SOL    HW236581   6.205   1.858   6.381  0.0491  1.5715  1.1527
11765SOL     OW36582   1.037   1.187   4.110  0.2731 -0.3236 -0.3241
11765SOL    HW136583   1.069   1.251   4.045  0.5838  0.2106  0.3433
11765SOL    HW236584   0.946   1.212   4.124  0.3566 -0.1056 -0.1620
11766SOL     OW36585   1.712   8.223   7.273  0.3215 -0.0664  0.7788
11766SOL    HW136586   1.692   8.143   7.224  1.4642  0.1866 -0.1669
11766SOL    HW236587   1.723   8.194   7.363 -0.4749 -0.7790  0.6498
11767SOL     OW36588   8.339   7.788   7.549  0.1236 -0.8255 -0.5360
11767SOL    HW136589   8.362   7.813   7.459 -2.3050 -1.3929 -1.3865
11767SOL    HW236590   8.287   7.862   7.581 -0.3438 -1.3072 -0.1773
11768SOL     OW36591   1.439   3.494   6.155  0.1485  0.1883  0.0343
11768SOL    HW136592   1.390   3.421   6.118 -1.2165  0.6066  0.9479
11768SOL    HW236593   1.374   3.562   6.169  0.5114  0.0527  3.1560
11769SOL     OW36594   8.260   2.760   8.277 -0.1146  0.0128 -0.3912
11769SOL    HW136595   8.275   2.822   8.206 -1.1666 -1.0820 -1.6317
11769SOL    HW236596   8.292   2.805   8.356  1.0239  1.2829 -1.5312
11770SOL     OW36597   2.976   2.448   8.529  0.3488  0.0196  0.3227
11770SOL    HW136598   3.036   2.379   8.501 -1.2230 -1.7092  0.9834
11770SOL    HW236599   2.966   2.504   8.452  1.9078 -0.3011 -0.1303
11771SOL     OW36600   5.684   3.112   0.463 -0.2777  0.1326  0.1976
11771SOL    HW136601   5.594   3.080   0.462  0.8133 -3.3381 -0.4221
11771SOL    HW236602   5.709   3.116   0.371 -0.1775  2.5916  0.2636
11772SOL     OW36603   7.915   1.611   1.270  0.3297 -0.4586  0.3687
11772SOL    HW136604   7.899   1.550   1.198  0.8355 -0.5256  0.3089
11772SOL    HW236605   8.007   1.598   1.292  0.4761  0.3918  0.2628
11773SOL     OW36606   7.231   5.788   4.949  0.4089  0.3963 -0.2980
11773SOL    HW136607   7.321   5.816   4.967  0.7944 -0.5561 -0.6635
11773SOL    HW236608   7.239   5.731   4.872 -0.8325  2.2951 -1.9451
11774SOL     OW36609   1.204   1.691   7.874 -0.2053 -0.7608  0.0278
11774SOL    HW136610   1.200   1.614   7.818 -0.3596 -0.4988 -0.3309
11774SOL    HW236611   1.150   1.669   7.950 -0.9227 -0.7052 -0.4580
11775SOL     OW36612   0.544   2.104   3.911  0.3048  0.3469  0.0605
11775SOL    HW136613   0.613   2.158   3.873  1.5144  0.4478  2.2418
11775SOL    HW236614   0.463   2.149   3.887  1.1913  2.2797  0.4532
11776SOL     OW36615   4.861   5.430   6.385 -0.0867  0.4737  0.6408
11776SOL    HW136616   4.881   5.337   6.386  0.2173  0.5334  0.2117
11776SOL    HW236617   4.945   5.473   6.400 -0.4650  0.6622  2.4966
11777SOL     OW36618   3.809   5.816   3.249  0.0444  0.4180  0.4169
11777SOL    HW136619   3.768   5.894   3.288  0.9605  0.8425  0.5522
11777SOL    HW236620   3.890   5.804   3.299 -0.3683 -0.9937  0.8009
11778SOL     OW36621   8.178   6.318   7.519  0.2116  0.1245  0.0987
11778SOL    HW136622   8.247   6.350   7.460 -1.0941 -1.0641 -2.2002
11778SOL    HW236623   8.107   6.292   7.461 -0.5063 -2.8406  2.0861
11779SOL     OW36624   8.094   2.238   6.396 -0.2687  0.3852  0.3003
11779SOL    HW136625   8.009   2.279   6.384 -0.2454  0.1619 -0.7543
11779SOL    HW236626   8.079   2.146   6.375  0.1790  0.3019  0.3371
11780SOL     OW36627   2.356   0.850   7.422  0.4862 -0.4258  0.3966
11780SOL    HW136628   2.388   0.768   7.387  0.0473 -0.3039 -0.2896
11780SOL    HW236629   2.333   0.830   7.513  0.6125 -0.9971  0.3054
11781SOL     OW36630   1.192   5.886   0.090 -0.1022  0.2905 -0.6220
11781SOL    HW136631   1.134   5.898   0.165  0.5470 -0.2114 -0.0295
11781SOL    HW236632   1.134   5.893   0.014 -0.6289  1.6659 -0.1157
11782SOL     OW36633   4.022   8.694   0.069  0.0370 -0.2203  0.4371
11782SOL    HW136634   4.060   8.759   0.009  0.1707  1.1226  1.9035
11782SOL    HW236635   4.082   8.693   0.143 -1.4928  0.1651  1.7357
11783SOL     OW36636   2.585   3.684   2.090  0.1183 -0.0367 -0.1248
11783SOL    HW136637   2.501   3.691   2.045 -0.2308 -0.3967  0.4591
11783SOL    HW236638   2.649   3.670   2.020 -0.3439 -0.0771 -0.5450
11784SOL     OW36639   7.876   5.741   3.580 -0.4005  0.6068  0.0537
11784SOL    HW136640   7.794   5.708   3.543  0.7274  0.5340 -2.5827
11784SOL    HW236641   7.869   5.836   3.573  0.0482  0.5748 -0.9525
11785SOL     OW36642   0.524   1.387   8.042 -0.1703 -0.1840  0.2688
11785SOL    HW136643   0.457   1.349   8.098 -2.1645 -0.3473 -2.0467
11785SOL    HW236644   0.494   1.476   8.024  0.0274 -0.3513 -1.0218
11786SOL     OW36645   1.737   2.862   4.685  0.1547  0.6286 -0.1030
11786SOL    HW136646   1.772   2.790   4.632  1.3955  0.4102  0.9689
11786SOL    HW236647   1.713   2.929   4.621  1.6831  0.4073 -0.9576
11787SOL     OW36648   6.322   8.180   7.334  0.8084  0.1813 -0.5286
11787SOL    HW136649   6.232   8.190   7.303  0.2828 -1.4436  0.3496
11787SOL    HW236650   6.352   8.269   7.351 -0.9638  0.7141  0.0163
11788SOL     OW36651   0.852   6.646   8.528 -0.0224 -0.0449 -0.6466
11788SOL    HW136652   0.862   6.660   8.623 -0.6530  2.4115 -0.8922
11788SOL    HW236653   0.764   6.609   8.519  0.8090 -2.3191 -0.1666
11789SOL     OW36654   4.996   1.179   7.472  0.6108 -0.2649 -0.3864
11789SOL    HW136655   5.085   1.214   7.484  0.2679  1.8964 -3.1096
11789SOL    HW236656   4.999   1.136   7.386 -1.1369  0.6233 -0.9472
11790SOL     OW36657   1.058   7.463   4.397  0.9344 -0.0747  0.5626
11790SOL    HW136658   1.051   7.551   4.360 -1.5520  0.1141  1.2916
11790SOL    HW236659   1.102   7.412   4.329 -1.1162  0.8597 -1.6354
11791SOL     OW36660   4.018   6.099   4.722 -0.0993 -0.5875 -0.0059
11791SOL    HW136661   4.106   6.084   4.688  0.2194 -0.0594  0.5767
11791SOL    HW236662   4.028   6.167   4.788 -1.3377  1.4032 -1.7327
11792SOL     OW36663   3.633   0.948   0.518  0.3432  0.3145  0.2489
11792SOL    HW136664   3.553   0.899   0.499  0.0244 -0.1524  2.4776
11792SOL    HW236665   3.617   1.035   0.482  0.2636 -0.6801 -2.3370
11793SOL     OW36666   0.041   4.283   2.951  0.0103  0.4010  0.4281
11793SOL    HW136667   0.049   4.325   2.865  1.0428  1.3224  0.9428
11793SOL    HW236668  -0.030   4.220   2.941 -1.6836  2.3526 -0.3422
11794SOL     OW36669   0.496   2.290   0.967  0.3702  0.1737  0.1180
11794SOL    HW136670   0.478   2.218   1.029  0.1000 -0.7209 -0.9606
11794SOL    HW236671   0.487   2.249   0.881  2.7033  0.8993 -0.5377
11795SOL     OW36672   5.365   7.248   8.412  0.8110 -0.1477 -0.3746
11795SOL    HW136673   5.299   7.185   8.384 -1.9020  1.4214  1.9481
11795SOL    HW236674   5.398   7.213   8.495 -0.0059  0.8973  0.4322
11796SOL     OW36675   7.103   0.017   7.863 -0.2957 -0.0069  0.3553
11796SOL    HW136676   7.058   0.064   7.933  0.8883  1.1112  0.3830
11796SOL    HW236677   7.104   0.078   7.790 -1.6627 -1.2134 -0.7456
11797SOL     OW36678   4.967   4.654   0.329  0.6373  1.0296 -0.2384
11797SOL    HW136679   4.934   4.565   0.334  2.1498  0.4451 -0.3214
11797SOL    HW236680   4.902   4.706   0.376 -2.0451  0.4541 -2.9518
11798SOL     OW36681   8.594   4.761   2.009 -0.2235  0.0144  0.2895
11798SOL    HW136682   8.515   4.787   1.963 -0.7654 -2.3713 -0.2535
11798SOL    HW236683   8.660   4.751   1.941  0.7950  2.5825  0.8016
11799SOL     OW36684   1.832   7.254   0.135 -0.0986 -0.7695  0.3853
11799SOL    HW136685   1.778   7.195   0.188  0.0455 -0.8766  0.4111
11799SOL    HW236686   1.770   7.294   0.074 -0.5282  0.3867  1.5169
11800SOL     OW36687   0.327   6.069   3.321 -0.2011 -0.1521  0.3329
11800SOL    HW136688   0.247   6.060   3.373 -1.9490 -0.2940 -2.1984
11800SOL    HW236689   0.396   6.087   3.386 -2.0300 -1.2027  2.7334
11801SOL     OW36690   4.784   1.178   2.600  0.2637 -0.1536 -0.7799
11801SOL    HW136691   4.866   1.135   2.575 -0.1231 -2.0400  0.9124
11801SOL    HW236692   4.715   1.121   2.565 -0.2747 -1.7934  2.4768
11802SOL     OW36693   7.823   3.303   8.071  0.1370 -0.7498  0.8659
11802SOL    HW136694   7.772   3.241   8.123  1.6696 -2.3990  0.5228
11802SOL    HW236695   7.856   3.367   8.134  0.6896 -1.8245  1.6940
11803SOL     OW36696   5.790   1.943   5.317  0.2872  0.2358  0.0537
11803SOL    HW136697   5.770   1.945   5.411  1.8215 -1.6163  0.4839
11803SOL    HW236698   5.833   2.027   5.301  0.6501  0.2877  1.1876
11804SOL     OW36699   4.847   0.536   3.019 -0.5881 -0.0605  0.1174
11804SOL    HW136700   4.866   0.563   2.929 -1.0036 -1.1424 -0.3047
11804SOL    HW236701   4.774   0.592   3.046  0.8665  1.7308  0.5503
11805SOL     OW36702   1.443   2.594   7.954  0.0347 -0.1216 -0.1315
11805SOL    HW136703   1.501   2.523   7.979  1.1500  1.2964  1.5468
11805SOL    HW236704   1.501   2.663   7.922 -1.1195 -0.4880 -3.3841
11806SOL     OW36705   2.962   0.035   5.702  0.5804 -0.1996  0.0890
11806SOL    HW136706   2.926  -0.053   5.710  1.6405 -1.0229 -2.8141
11806SOL    HW236707   3.025   0.029   5.631  0.4572  3.0022 -0.4620
11807SOL     OW36708   0.730   5.425   4.206  0.4759  0.3516 -0.0509
11807SOL    HW136709   0.810   5.385   4.243 -0.4780 -0.3685  1.3553
11807SOL    HW236710   0.668   5.352   4.201 -0.0706  0.8873 -1.2057
11808SOL     OW36711   8.048   5.716   7.025 -0.3197  0.2031  0.2910
11808SOL    HW136712   8.088   5.704   7.112  0.4001 -2.3792 -0.3229
11808SOL    HW236713   7.957   5.739   7.044 -0.5573 -1.6821  1.8092
11809SOL     OW36714   2.759   5.764   4.411 -0.2380 -0.2314 -0.1971
11809SOL    HW136715   2.703   5.750   4.335  0.6001  0.8379 -1.0412
11809SOL    HW236716   2.703   5.810   4.473 -0.1537  1.4019 -1.2817
11810SOL     OW36717   7.388   1.740   7.287  0.0520 -0.1547  0.5992
11810SOL    HW136718   7.360   1.819   7.333 -0.5411  0.0047 -0.0056
11810SOL    HW236719   7.440   1.692   7.350 -0.5359  0.1740  1.3462
11811SOL     OW36720   7.429   0.172   3.359 -0.2696 -0.4699 -0.3052
11811SOL    HW136721   7.417   0.235   3.288 -0.3579  0.6407  0.6676
11811SOL    HW236722   7.484   0.103   3.321  2.9768  1.9568 -0.4084
11812SOL     OW36723   3.152   0.666   5.062  0.2013  0.4148  0.3806
11812SOL    HW136724   3.068   0.658   5.107 -0.6732 -0.4624 -1.2880
11812SOL    HW236725   3.187   0.577   5.060  0.8926  0.6795  0.5630
11813SOL     OW36726   4.719   4.095   0.764 -0.5204 -0.5124 -0.6075
11813SOL    HW136727   4.699   4.186   0.743 -0.0676 -0.5251 -1.1271
11813SOL    HW236728   4.635   4.050   0.756 -1.5763  0.4112  3.1266
11814SOL     OW36729   6.938   2.793   3.267 -0.3803 -0.5569 -0.3406
11814SOL    HW136730   7.012   2.761   3.318  0.0300 -0.7966 -1.0618
11814SOL    HW236731   6.918   2.879   3.303  1.2406  0.1848 -1.1031
11815SOL     OW36732   8.000   5.429   0.348 -0.0602 -0.0740 -0.0976
11815SOL    HW136733   8.084   5.388   0.368  0.7831  0.8435 -1.5795
11815SOL    HW236734   8.008   5.457   0.257 -1.6835  0.7686 -0.0185
11816SOL     OW36735   0.912   0.467   4.896  0.0762 -0.4627  0.0581
11816SOL    HW136736   0.979   0.449   4.962 -0.3518 -0.2361  0.5576
11816SOL    HW236737   0.838   0.412   4.921  0.5407 -1.7498 -1.2731
11817SOL     OW36738   5.400   3.828   3.374  0.0663  0.3152 -0.3238
11817SOL    HW136739   5.439   3.848   3.459  1.8927  1.4165 -1.3646
11817SOL    HW236740   5.317   3.876   3.374  0.4099  0.9349  0.5443
11818SOL     OW36741   3.226   2.057   7.723  1.3491  0.5439  0.0220
11818SOL    HW136742   3.177   2.077   7.803 -0.1862 -1.7144 -0.2587
11818SOL    HW236743   3.220   1.962   7.714  2.2195  0.6331 -2.3330
11819SOL     OW36744   2.763   5.671   2.956 -0.0737  0.4121  0.2135
11819SOL    HW136745   2.824   5.612   2.999 -0.7666 -0.0642  0.5610
11819SOL    HW236746   2.787   5.667   2.863  1.9448  2.0587  0.5987
11820SOL     OW36747   1.168   0.392   1.746  0.0245 -0.3012 -0.4461
11820SOL    HW136748   1.163   0.485   1.722  1.2926  0.1460  0.8672
11820SOL    HW236749   1.219   0.391   1.827  0.5649 -2.2012 -0.7602
11821SOL     OW36750   6.700   7.345   8.607  0.0268 -0.7923  0.5192
11821SOL    HW136751   6.747   7.332   8.689 -1.4621  0.6825  1.6728
11821SOL    HW236752   6.729   7.431   8.576 -0.4547 -0.7350  0.2212
11822SOL     OW36753   0.659   6.750   0.865  0.1686  0.0292  0.1660
11822SOL    HW136754   0.620   6.664   0.880  0.7662 -0.3826 -0.5810
11822SOL    HW236755   0.649   6.765   0.771  0.1769  0.7298  0.2714
11823SOL     OW36756   5.691   7.866   4.680  0.2235 -0.0703  0.2055
11823SOL    HW136757   5.638   7.813   4.739  0.0241 -0.0862  0.0117
11823SOL    HW236758   5.669   7.834   4.592  1.7142 -1.1724  0.1833
11824SOL     OW36759   2.527   4.559   3.321  0.0965  0.5080  0.2319
11824SOL    HW136760   2.529   4.467   3.294 -1.5602  0.7654 -0.9363
11824SOL    HW236761   2.498   4.606   3.243 -0.8158  1.8057  1.3048
11825SOL     OW36762   6.507   4.794   3.805 -0.0244 -0.7210 -0.4317
11825SOL    HW136763   6.423   4.752   3.785 -1.0485  0.4496  1.1408
11825SOL    HW236764   6.570   4.723   3.807 -1.1882 -1.7849 -0.5795
11826SOL     OW36765   5.071   6.385   6.397 -0.3605  0.0818  0.1467
11826SOL    HW136766   5.029   6.335   6.327  2.8904 -2.4053 -0.2262
11826SOL    HW236767   5.014   6.370   6.473 -2.0239 -0.1462 -1.0657
11827SOL     OW36768   0.349   6.799   4.417 -0.5935 -0.3296  0.2950
11827SOL    HW136769   0.335   6.893   4.404 -0.9321 -0.4616 -0.3250
11827SOL    HW236770   0.272   6.770   4.465  0.6565  0.1569  2.7542
11828SOL     OW36771   0.255   5.039   5.990 -0.2596  0.4950  0.5245
11828SOL    HW136772   0.267   5.037   6.085 -0.7075  1.3605  0.6105
11828SOL    HW236773   0.216   5.125   5.972  0.6429  0.7260 -0.5365
11829SOL     OW36774   6.111   3.363   4.664  0.1487 -0.5989  0.2006
11829SOL    HW136775   6.151   3.350   4.578  0.2851 -1.1682  0.3450
11829SOL    HW236776   6.136   3.285   4.714 -0.0461 -0.3385  0.7109
11830SOL     OW36777   2.032   4.969   2.278 -0.1598 -0.1549 -0.2555
11830SOL    HW136778   1.972   5.024   2.329 -0.8242 -0.6904 -0.4623
11830SOL    HW236779   2.002   4.880   2.292  0.4207 -0.4110 -0.5882
11831SOL     OW36780   3.945   8.431   6.445  0.7456  0.7141 -0.0058
11831SOL    HW136781   3.902   8.515   6.429 -1.6686 -0.4394 -0.1844
11831SOL    HW236782   4.014   8.426   6.379 -1.7940  0.8270 -2.8814
11832SOL     OW36783   1.546   2.838   1.974  0.0770  0.4169 -0.6949
11832SOL    HW136784   1.582   2.916   1.932 -1.3898  0.9253 -1.0710
11832SOL    HW236785   1.451   2.854   1.977 -0.4264 -1.8892 -1.9571
11833SOL     OW36786   7.462   5.120   5.300  0.1312 -0.1240 -0.3520
11833SOL    HW136787   7.433   5.050   5.242  1.3110  0.2920 -1.4919
11833SOL    HW236788   7.403   5.115   5.375 -0.1718 -1.9563 -0.6690
11834SOL     OW36789   0.341   6.384   8.691  0.6389  0.5442 -0.7669
11834SOL    HW136790   0.252   6.402   8.662  0.9566  3.0827 -0.4292
11834SOL    HW236791   0.362   6.299   8.653 -2.9923 -1.7801  1.7635
11835SOL     OW36792   2.823   7.621   4.963 -0.8791 -0.3579 -0.2006
11835SOL    HW136793   2.797   7.694   4.906  0.0771  0.1757  0.0345
11835SOL    HW236794   2.867   7.662   5.037 -1.1497 -1.1259  0.4038
11836SOL     OW36795   1.294   5.176   1.795  0.0156 -0.5460  0.5599
11836SOL    HW136796   1.236   5.115   1.749 -0.2936 -0.7470  1.2165
11836SOL    HW236797   1.372   5.180   1.739 -0.3935 -0.7137 -0.0349
11837SOL     OW36798   4.328   1.941   6.158 -0.3236 -0.4468  0.1634
11837SOL    HW136799   4.320   1.915   6.066  1.8100 -1.1986  0.1281
11837SOL    HW236800   4.349   2.034   6.155 -0.6004 -0.3933 -0.1022
11838SOL     OW36801   6.185   7.743   7.176  0.1093 -0.0877 -0.4219
11838SOL    HW136802   6.207   7.805   7.106  0.6494  0.1063 -0.0866
11838SOL    HW236803   6.267   7.729   7.223 -0.2704 -0.1054  0.2617
11839SOL     OW36804   7.987   1.669   8.101  0.1736 -0.5184 -0.0203
11839SOL    HW136805   8.011   1.638   8.014 -2.5029 -0.2992 -0.9223
11839SOL    HW236806   8.000   1.763   8.097  2.4230 -0.7396  0.7048
11840SOL     OW36807   4.620   5.774   2.755 -0.9341 -0.4462 -0.3112
11840SOL    HW136808   4.599   5.811   2.669  0.5721  2.8937  0.5825
11840SOL    HW236809   4.540   5.786   2.807 -0.9238  0.3044 -0.4572
11841SOL     OW36810   2.003   2.004   7.203 -0.2997  0.3327 -0.4285
11841SOL    HW136811   1.943   2.046   7.141 -0.5935  3.0871  1.4935
11841SOL    HW236812   2.064   2.074   7.228  1.7807 -1.5442  0.0343
11842SOL     OW36813   4.184   0.945   3.771  0.0502  0.2113  0.8497
11842SOL    HW136814   4.119   0.899   3.824 -1.4130  1.2596  0.0239
11842SOL    HW236815   4.133   0.999   3.711  1.6932  1.4873  0.5166
11843SOL     OW36816   8.494   0.702   7.500 -0.3690 -0.2241  0.5888
11843SOL    HW136817   8.404   0.703   7.532 -0.5569 -2.4742  0.2820
11843SOL    HW236818   8.546   0.672   7.575 -0.0070  0.0687  0.4603
11844SOL     OW36819   0.629   3.964   3.037 -0.2334 -0.5715 -0.2004
11844SOL    HW136820   0.553   3.911   3.014  0.6171 -0.3722 -4.2298
11844SOL    HW236821   0.598   4.054   3.034 -0.0525 -0.5268 -1.1545
11845SOL     OW36822   7.504   2.050   3.027  0.2443 -0.2333 -0.4755
11845SOL    HW136823   7.536   2.117   3.087 -0.5547  0.2974 -0.6232
11845SOL    HW236824   7.473   2.099   2.951  1.9588 -0.9415 -1.6897
11846SOL     OW36825   7.466   0.470   6.686 -0.2239  0.0249  0.0257
11846SOL    HW136826   7.484   0.431   6.599  0.1589  1.5124 -0.5859
11846SOL    HW236827   7.533   0.537   6.696 -3.2915  3.5586 -0.8861
11847SOL     OW36828   6.703   4.751   6.027 -0.5106 -0.0960 -0.2326
11847SOL    HW136829   6.751   4.752   6.111 -1.1888 -0.3374  0.1676
11847SOL    HW236830   6.739   4.825   5.978 -2.4349  2.1977  1.6054
11848SOL     OW36831   1.882   5.015   5.172  0.3406 -0.1117 -0.3836
11848SOL    HW136832   1.792   5.010   5.140 -0.5832  1.4599  1.7478
11848SOL    HW236833   1.917   5.094   5.131  0.4076 -0.1693 -0.4363
11849SOL     OW36834   4.127   5.394   7.434 -0.1168  0.2665  0.1075
11849SOL    HW136835   4.113   5.439   7.351  0.3781 -0.8885 -0.6222
11849SOL    HW236836   4.219   5.410   7.455  0.0944 -0.4921 -0.2181
11850SOL     OW36837   2.566   5.379   6.975 -0.0016 -1.1072 -0.0594
11850SOL    HW136838   2.571   5.436   6.898  2.4920 -2.1112 -0.7679
11850SOL    HW236839   2.551   5.438   7.048  0.0651  0.1686 -1.0483
11851SOL     OW36840   2.954   4.087   4.604  0.0782  0.6093  0.5569
11851SOL    HW136841   2.876   4.063   4.654  0.5850  0.4991  1.3112
11851SOL    HW236842   2.923   4.155   4.543 -1.0731 -0.8888 -0.6500
11852SOL     OW36843   1.573   6.235   3.611 -0.3251 -0.2196 -0.2168
11852SOL    HW136844   1.527   6.262   3.690 -0.0549 -1.3967  0.3660
11852SOL    HW236845   1.627   6.162   3.639 -1.6907 -1.9591 -1.8826
11853SOL     OW36846   7.808   8.261   6.638 -0.1609 -0.0753 -0.6069
11853SOL    HW136847   7.867   8.259   6.562 -1.2742  1.8622 -1.5812
11853SOL    HW236848   7.832   8.340   6.685 -0.2853 -0.6454  0.4438
11854SOL     OW36849   0.404   7.499   1.816 -0.3166 -0.2979  0.0231
11854SOL    HW136850   0.380   7.429   1.877  0.8810 -2.1266 -1.4993
11854SOL    HW236851   0.379   7.466   1.730  0.9134  0.8475 -0.8203
11855SOL     OW36852   2.548   7.337   0.171  0.8514 -0.0154  0.3773
11855SOL    HW136853   2.507   7.374   0.093  3.2538  1.4808 -0.2753
11855SOL    HW236854   2.590   7.257   0.141  2.0639  0.7337 -0.0179
11856SOL     OW36855   2.369   6.307   2.557  0.1850 -0.0209  0.2752
11856SOL    HW136856   2.364   6.391   2.603  0.5169  0.2577 -0.1892
11856SOL    HW236857   2.425   6.253   2.612 -0.9356 -0.3344  1.1628
11857SOL     OW36858   3.226   3.508   2.226 -0.5688 -0.0315  0.0362
11857SOL    HW136859   3.155   3.558   2.266 -1.7364 -1.4247 -0.2476
11857SOL    HW236860   3.244   3.552   2.143 -0.5622  0.7662  0.4532
11858SOL     OW36861   8.365   4.389   4.860 -0.0567 -0.2235  0.3697
11858SOL    HW136862   8.287   4.361   4.908 -0.9653  1.9664  0.2894
11858SOL    HW236863   8.331   4.430   4.780  1.2541 -0.5051 -0.3646
11859SOL     OW36864   2.249   5.910   0.250  0.1857 -0.0375  0.0649
11859SOL    HW136865   2.213   5.856   0.320 -0.5920 -0.3210 -0.5333
11859SOL    HW236866   2.238   5.856   0.171 -0.2722  0.8401 -0.4860
11860SOL     OW36867   1.393   0.146   1.281  0.0035  0.1901 -0.5934
11860SOL    HW136868   1.302   0.120   1.298 -0.3261  0.8050 -1.3093
11860SOL    HW236869   1.392   0.242   1.289  0.4621  0.2457 -1.1457
11861SOL     OW36870   1.860   5.696   0.952 -0.4876 -0.3832 -0.4669
11861SOL    HW136871   1.879   5.679   0.860  0.5852  0.5208 -0.4268
11861SOL    HW236872   1.873   5.790   0.962  0.6553 -0.6531  0.8869
11862SOL     OW36873   3.979   3.152   4.037  0.4317 -0.0643 -0.0912
11862SOL    HW136874   4.068   3.117   4.038  0.1753 -0.8964 -1.7458
11862SOL    HW236875   3.974   3.201   3.955 -0.4307  0.5745  0.3264
11863SOL     OW36876   0.759   5.089   3.521 -0.5030 -0.2999 -0.5438
11863SOL    HW136877   0.741   5.000   3.552  0.3205 -0.5596 -0.7839
11863SOL    HW236878   0.682   5.140   3.547 -0.8411 -1.0134 -0.1263
11864SOL     OW36879   4.140   2.653   4.247  0.1424 -0.2222  0.5580
11864SOL    HW136880   4.096   2.692   4.171 -2.5999 -1.4438  1.4025
11864SOL    HW236881   4.233   2.661   4.227 -0.4440  0.2967 -2.5214
11865SOL     OW36882   4.267   3.829   6.121  0.7527 -0.0620 -0.2935
11865SOL    HW136883   4.262   3.806   6.028  2.6343  0.1839 -0.4942
11865SOL    HW236884   4.322   3.761   6.159 -0.5405 -0.5267  0.8018
11866SOL     OW36885   3.465   3.302   8.343 -0.7825 -0.3445 -0.1836
11866SOL    HW136886   3.465   3.220   8.392  3.0332 -0.3672  0.0954
11866SOL    HW236887   3.474   3.370   8.411 -2.3629  0.2328 -0.5119
11867SOL     OW36888   6.013   4.403   3.841  0.1804  0.1756  0.4588
11867SOL    HW136889   5.992   4.356   3.760  0.5043  0.7653  0.0211
11867SOL    HW236890   6.023   4.494   3.813  2.5896  0.0712  0.7200
11868SOL     OW36891   1.517   5.343   5.550  0.1870 -0.6753  0.4332
11868SOL    HW136892   1.432   5.321   5.511  0.9599 -1.1083 -1.1098
11868SOL    HW236893   1.501   5.424   5.599 -0.8855 -0.1106 -0.7720
11869SOL     OW36894   5.405   6.656   2.324 -0.0304 -0.0065  0.0455
11869SOL    HW136895   5.485   6.606   2.336  0.2651 -0.0519 -1.8420
11869SOL    HW236896   5.363   6.617   2.247 -0.8121  1.3333 -0.2431
11870SOL     OW36897   5.615   4.856   2.686  0.6909 -0.3468  0.2957
11870SOL    HW136898   5.673   4.928   2.711 -0.2778 -0.2906  2.6021
11870SOL    HW236899   5.542   4.899   2.640  1.5083 -0.2202 -0.9339
11871SOL     OW36900   7.828   0.763   3.110 -0.0389 -0.2616  0.2688
11871SOL    HW136901   7.750   0.779   3.162 -0.5338  0.5640 -0.7060
11871SOL    HW236902   7.871   0.848   3.104 -0.4392 -0.1422 -1.3649
11872SOL     OW36903   7.182   6.961   3.635  0.3588 -0.1015 -0.0334
11872SOL    HW136904   7.230   7.026   3.584 -0.4510 -0.1446 -0.8850
11872SOL    HW236905   7.095   6.959   3.595  0.5590 -2.1990 -0.4922
11873SOL     OW36906   4.011   3.274   3.338  0.3818 -0.8850 -0.0321
11873SOL    HW136907   3.996   3.351   3.392 -1.6575 -0.9823 -0.3518
11873SOL    HW236908   4.104   3.253   3.349  0.4328  0.1887  1.9352
11874SOL     OW36909   7.349   7.932   7.130 -0.3752 -0.5020 -0.1378
11874SOL    HW136910   7.351   8.007   7.070 -3.6192  0.3733  0.6268
11874SOL    HW236911   7.396   7.962   7.207  0.0714  0.0191 -0.6029
11875SOL     OW36912   7.093   2.618   7.053 -0.1127 -0.2314 -0.2583
11875SOL    HW136913   7.076   2.712   7.053  0.0526 -0.2014 -0.1956
11875SOL    HW236914   7.117   2.598   7.143  1.6813  0.0024 -0.6481
11876SOL     OW36915   4.244   7.777   8.677 -0.0593  0.6189 -0.2148
11876SOL    HW136916   4.195   7.837   8.620 -1.7722 -1.6069 -1.2737
11876SOL    HW236917   4.184   7.758   8.749 -0.6878 -1.7897 -1.2833
11877SOL     OW36918   3.534   2.545   8.005 -0.1044 -0.3950  0.2596
11877SOL    HW136919   3.522   2.556   8.099 -0.6080  2.0168 -0.0259
11877SOL    HW236920   3.605   2.482   7.997  0.4715 -0.0593  2.2620
11878SOL     OW36921   6.894   6.478   4.629 -0.1712  0.2309  0.4236
11878SOL    HW136922   6.888   6.519   4.716 -0.5135  0.8407  0.1202
11878SOL    HW236923   6.951   6.402   4.642 -1.5052 -0.6401  1.5373
11879SOL     OW36924   5.407   8.188   5.985  0.0794 -0.1502 -0.6068
11879SOL    HW136925   5.500   8.201   5.963  0.8904 -1.9955  1.3589
11879SOL    HW236926   5.375   8.129   5.916  1.2232 -1.8454  0.2221
11880SOL     OW36927   5.580   5.408   4.503  0.1908  0.0163 -0.2878
11880SOL    HW136928   5.517   5.453   4.447  0.4089  1.8102  0.8341
11880SOL    HW236929   5.538   5.324   4.523 -2.1629  1.4018  0.9449
11881SOL     OW36930   3.949   0.720   0.948  0.1492  0.5887 -0.3615
11881SOL    HW136931   3.975   0.756   1.033  0.9576  1.0294 -0.7885
11881SOL    HW236932   3.853   0.720   0.951  0.1463  1.6636  0.1253
11882SOL     OW36933   5.690   5.105   5.923  0.4425 -0.1524 -0.3345
11882SOL    HW136934   5.724   5.177   5.871  0.7703 -0.1248 -0.0840
11882SOL    HW236935   5.709   5.027   5.871 -1.6205  0.0601 -1.5266
11883SOL     OW36936   3.259   2.246   3.726 -0.4727  0.1192 -0.4275
11883SOL    HW136937   3.329   2.181   3.736  1.5351  2.2629  0.2456
11883SOL    HW236938   3.201   2.231   3.801 -0.1824 -1.0149 -0.4164
11884SOL     OW36939   8.026   8.437   1.750 -0.0159  0.2583 -0.1419
11884SOL    HW136940   8.018   8.416   1.657  0.2610  1.7871 -0.5373
11884SOL    HW236941   8.113   8.476   1.758 -0.6930  1.7149  0.4190
11885SOL     OW36942   3.347   6.704   8.272  0.0187 -0.2258  0.2693
11885SOL    HW136943   3.291   6.709   8.195  0.1817 -1.0210  0.0921
11885SOL    HW236944   3.360   6.795   8.298 -1.8650 -0.0301  0.6930
11886SOL     OW36945   7.076   7.264   5.973 -0.4320 -0.1278 -0.5062
11886SOL    HW136946   7.164   7.275   6.008 -0.4144  0.5739 -0.7539
11886SOL    HW236947   7.022   7.246   6.050  0.3610 -3.6651 -0.6239
11887SOL     OW36948   6.280   4.819   4.887 -0.1596 -0.1310  0.3166
11887SOL    HW136949   6.196   4.849   4.852  0.1343 -0.4376 -0.6642
11887SOL    HW236950   6.314   4.759   4.821  1.6844  1.3465 -0.1446
11888SOL     OW36951   1.770   1.999   3.878  0.1845  0.1214 -0.8952
11888SOL    HW136952   1.824   1.963   3.808  1.5750  1.3883 -0.5283
11888SOL    HW236953   1.706   2.054   3.834  1.2437  1.1575 -1.1982
11889SOL     OW36954   3.609   4.704   8.446  0.0518  0.7556 -0.0235
11889SOL    HW136955   3.623   4.792   8.411  0.2132  1.1055  0.8960
11889SOL    HW236956   3.625   4.713   8.540 -0.1693 -0.2064  0.1127
11890SOL     OW36957   1.731   0.906   5.046 -0.2969  0.5140 -0.4326
11890SOL    HW136958   1.666   0.966   5.008 -0.4416  1.1018  0.7133
11890SOL    HW236959   1.807   0.962   5.063 -0.8019  0.6439  1.6477
11891SOL     OW36960   4.499   0.093   6.616  0.3006  0.1011 -0.2039
11891SOL    HW136961   4.443   0.096   6.693 -0.6875 -1.3391 -0.8294
11891SOL    HW236962   4.572   0.151   6.637 -0.0663 -0.0829  1.7087
11892SOL     OW36963   4.014   5.119   5.773  0.0163 -0.0155  0.2072
11892SOL    HW136964   3.986   5.051   5.834  1.1709 -0.3583  0.3666
11892SOL    HW236965   3.932   5.163   5.748 -0.6331 -0.8106  0.8613
11893SOL     OW36966   4.449   3.321   8.012  0.2221  0.0309  0.1449
11893SOL    HW136967   4.452   3.226   8.011  2.5275 -0.0643  3.3392
11893SOL    HW236968   4.362   3.342   8.046 -0.3923 -0.8464 -0.8017
11894SOL     OW36969   8.168   0.650   6.090 -0.1391 -0.0063  0.2247
11894SOL    HW136970   8.195   0.725   6.039  1.1177  0.1528  1.0786
11894SOL    HW236971   8.072   0.646   6.080 -0.0219  0.6050 -1.2751
11895SOL     OW36972   0.636   6.663   3.898 -0.8578  0.0271 -0.3618
11895SOL    HW136973   0.562   6.673   3.838  0.4229  1.5136 -1.7798
11895SOL    HW236974   0.709   6.704   3.853  0.4129  0.2984  1.8134
11896SOL     OW36975   0.000   5.807   5.879  0.3880 -0.1910 -0.1766
11896SOL    HW136976  -0.032   5.892   5.906  1.2409 -0.2063  0.9546
11896SOL    HW236977   0.075   5.790   5.936  0.0598 -1.8241 -0.1881
11897SOL     OW36978   8.473   6.329   6.972 -0.0386 -0.2471  0.1643
11897SOL    HW136979   8.483   6.260   7.037 -1.5190  0.3012  1.0327
11897SOL    HW236980   8.383   6.319   6.940  0.0913  0.5829 -0.5075
11898SOL     OW36981   3.878   6.477   0.135  0.0691  0.2052  0.3885
11898SOL    HW136982   3.968   6.445   0.146  0.7041  1.7128 -0.1557
11898SOL    HW236983   3.825   6.420   0.190  1.5455  0.1930  1.8729
11899SOL     OW36984   6.549   8.497   6.680 -0.2970 -0.0102  0.1641
11899SOL    HW136985   6.555   8.435   6.608  3.1058 -0.6290  0.8253
11899SOL    HW236986   6.467   8.474   6.725  0.3634 -3.4593 -0.1669
11900SOL     OW36987   0.157   0.242   7.634  0.1282  0.2586 -0.3803
11900SOL    HW136988   0.125   0.176   7.695  0.3218  0.8670  0.3830
11900SOL    HW236989   0.102   0.232   7.556 -1.7957  1.1544  0.8074
11901SOL     OW36990   3.977   5.251   6.077  0.3467  0.0949 -0.2004
11901SOL    HW136991   3.948   5.210   6.158 -0.0274 -1.3538 -1.0391
11901SOL    HW236992   4.065   5.217   6.062  0.8771  1.2550  0.1793
11902SOL     OW36993   5.557   0.170   5.115  0.0272 -0.2583  0.8139
11902SOL    HW136994   5.532   0.256   5.149 -1.8520  0.1156 -1.2349
11902SOL    HW236995   5.608   0.130   5.185  0.5928  2.3349  2.0073
11903SOL     OW36996   6.396   6.032   0.230  0.2432 -0.5774  0.1680
11903SOL    HW136997   6.346   6.051   0.309 -1.0761 -1.7914 -0.3202
11903SOL    HW236998   6.331   5.997   0.168  1.6222 -1.8999 -0.6209
11904SOL     OW36999   4.450   0.143   0.130 -0.4652  0.0134  0.2196
11904SOL    HW137000   4.437   0.162   0.038 -1.0500  0.3571  0.3701
11904SOL    HW237001   4.509   0.067   0.131  0.4668  0.7154 -0.4046
11905SOL     OW37002   1.344   8.712   0.670  0.4626 -0.2860 -0.1182
11905SOL    HW137003   1.426   8.698   0.718 -0.0349 -0.5769  0.6595
11905SOL    HW237004   1.284   8.748   0.736 -0.2132 -0.6434 -0.5301
11906SOL     OW37005   5.613   2.780   7.437  0.5265 -0.3655 -0.4502
11906SOL    HW137006   5.518   2.765   7.434  0.5512 -0.6102 -0.1323
11906SOL    HW237007   5.625   2.866   7.399 -0.0646  0.7319  1.6795
11907SOL     OW37008   6.745   1.919   7.850  0.0335  0.4603 -0.0614
11907SOL    HW137009   6.697   1.947   7.772  0.7441 -0.9028 -1.0244
11907SOL    HW237010   6.819   1.979   7.856 -1.0920  1.8147  0.7372
11908SOL     OW37011   0.601   2.122   8.462  0.1976 -0.0700 -0.5908
11908SOL    HW137012   0.551   2.149   8.385  0.8414  0.1695 -0.9381
11908SOL    HW237013   0.655   2.049   8.431  1.3637  0.8155 -0.7126
11909SOL     OW37014   1.473   0.270   0.420  0.1050  0.1225 -0.3892
11909SOL    HW137015   1.533   0.311   0.358  0.6530  1.8331  1.1710
11909SOL    HW237016   1.388   0.308   0.400  0.6082  2.1754  1.0466
11910SOL     OW37017   3.000   0.157   0.059  0.2858 -0.4921 -0.0833
11910SOL    HW137018   3.013   0.158   0.154  0.4011 -0.3592 -0.0997
11910SOL    HW237019   3.075   0.205   0.024 -0.7370  1.1825 -0.1104
11911SOL     OW37020   4.818   1.289   7.114 -0.2064 -0.3076  0.1228
11911SOL    HW137021   4.882   1.225   7.144 -1.1602 -1.8660 -0.9769
11911SOL    HW237022   4.821   1.283   7.018 -2.5801 -1.1171  0.0346
11912SOL     OW37023   4.934   4.116   1.570 -0.3009  0.4832  0.3502
11912SOL    HW137024   4.936   4.060   1.648  0.3546 -0.3536 -0.2459
11912SOL    HW237025   4.843   4.144   1.563 -0.7531 -0.9154  0.4003
11913SOL     OW37026   5.409   8.060   6.745  0.3112 -0.1481 -0.3951
11913SOL    HW137027   5.358   8.033   6.821 -0.5275 -2.2129 -1.5905
11913SOL    HW237028   5.343   8.084   6.680  1.0183  1.6796 -0.4986
11914SOL     OW37029   7.907   6.855   7.441  0.0795  0.1554 -0.4452
11914SOL    HW137030   7.883   6.881   7.530  0.7927 -2.2049  0.5228
11914SOL    HW237031   7.991   6.811   7.451 -0.0490 -0.5817 -2.2238
11915SOL     OW37032   0.124   2.715   4.029 -0.1446  0.6143 -0.1431
11915SOL    HW137033   0.198   2.764   4.065  0.3695  0.5130 -1.0403
11915SOL    HW237034   0.114   2.640   4.089 -1.2096  1.9888  1.4812
11916SOL     OW37035   6.969   6.979   8.437  0.3018  0.1070  0.6208
11916SOL    HW137036   7.019   6.910   8.479 -0.4864 -0.0196  1.3960
11916SOL    HW237037   6.879   6.965   8.467 -0.2026  0.3456 -0.6941
11917SOL     OW37038   3.755   6.980   3.491  0.2756  0.5202  0.0186
11917SOL    HW137039   3.767   6.933   3.408  1.5348 -0.6305  0.8164
11917SOL    HW237040   3.763   7.072   3.467  1.6543  0.1671 -1.0043
11918SOL     OW37041   7.852   3.733   8.004 -1.1200 -0.7122 -0.2989
11918SOL    HW137042   7.919   3.664   8.014 -0.0322  0.3946  0.3964
11918SOL    HW237043   7.892   3.797   7.945 -0.4707  1.1436  1.9633
11919SOL     OW37044   3.274   3.848   3.669 -0.7914  0.1236 -0.4617
11919SOL    HW137045   3.288   3.940   3.643 -0.7984  0.1137 -0.5014
11919SOL    HW237046   3.181   3.833   3.653 -0.8857  0.2475 -0.0175
11920SOL     OW37047   4.773   1.901   4.320  0.1685  0.4854  0.4203
11920SOL    HW137048   4.802   1.814   4.291  1.2917  0.8697  0.3489
11920SOL    HW237049   4.805   1.909   4.409 -1.5255  0.1228  1.0996
11921SOL     OW37050   1.645   5.032   4.095  0.3580  0.2674 -0.4100
11921SOL    HW137051   1.722   4.986   4.065 -0.2079 -0.2169 -1.1368
11921SOL    HW237052   1.679   5.101   4.152  1.3170  0.0595 -0.7210
11922SOL     OW37053   0.963   0.366   4.666  0.6221  0.1518 -0.0627
11922SOL    HW137054   0.886   0.357   4.609  0.4086 -1.3657  0.4261
11922SOL    HW237055   0.934   0.421   4.738  0.1778  0.1264 -0.2205
11923SOL     OW37056   4.136   5.169   4.349 -0.7985  0.2808 -0.2090
11923SOL    HW137057   4.136   5.257   4.385  0.6590  0.4779 -0.6213
11923SOL    HW237058   4.120   5.182   4.255  0.5266  0.2200 -0.4573
11924SOL     OW37059   2.680   3.111   3.659  0.4076 -0.8039  0.0998
11924SOL    HW137060   2.717   3.025   3.675  3.1643  0.0343 -1.2391
11924SOL    HW237061   2.683   3.122   3.564 -0.1313  0.6722  0.2167
11925SOL     OW37062   5.001   8.034   5.232  0.4424 -0.0947  0.2233
11925SOL    HW137063   4.906   8.046   5.238  0.6474  1.2271  1.2627
11925SOL    HW237064   5.023   8.065   5.144  0.0073  0.4125  0.2858
11926SOL     OW37065   1.734   0.298   0.578 -0.0835  0.1714  0.1232
11926SOL    HW137066   1.661   0.311   0.517 -0.3372 -0.9402  0.1594
11926SOL    HW237067   1.718   0.362   0.648 -1.9223 -1.0408  0.9184
11927SOL     OW37068   1.396   2.115   2.616 -0.2016  0.1298  0.4154
11927SOL    HW137069   1.306   2.108   2.582  0.4009 -1.2537 -1.0341
11927SOL    HW237070   1.440   2.173   2.554  0.1608 -0.0220  0.5303
11928SOL     OW37071   8.651   6.049   0.330  0.7376  0.0027 -0.2958
11928SOL    HW137072   8.644   6.094   0.414  2.3865 -2.0999  1.0744
11928SOL    HW237073   8.745   6.050   0.309  0.2012  2.3602 -3.3049
11929SOL     OW37074   8.063   4.252   6.609 -0.0924  0.3942  0.1573
11929SOL    HW137075   8.061   4.277   6.702 -2.4150 -0.2012  0.3202
11929SOL    HW237076   8.104   4.326   6.565 -0.5804  1.4734  1.4654
11930SOL     OW37077   7.595   5.651   0.567 -0.1946  0.4432 -0.8113
11930SOL    HW137078   7.529   5.629   0.501  1.6881 -1.0023 -2.3154
11930SOL    HW237079   7.676   5.659   0.518  1.0580  0.6142  1.1864
11931SOL     OW37080   4.745   2.763   8.229 -0.0250 -0.2734  0.3266
11931SOL    HW137081   4.654   2.747   8.256 -0.2319 -0.3183 -0.3920
11931SOL    HW237082   4.785   2.805   8.306 -0.1891 -1.7894  1.2755
11932SOL     OW37083   3.919   2.720   7.416  0.5347 -0.0033  0.1174
11932SOL    HW137084   3.841   2.757   7.375 -0.7351 -2.3486  0.2571
11932SOL    HW237085   3.926   2.632   7.380  1.7539 -0.6743  1.8549
11933SOL     OW37086   5.622   7.888   6.684 -0.3013  0.7346  0.2040
11933SOL    HW137087   5.680   7.942   6.737  0.6937  0.6092 -0.7065
11933SOL    HW237088   5.535   7.924   6.698  0.0064  1.0133  1.5046
11934SOL     OW37089   3.529   5.814   4.600  0.5242 -0.2430 -0.0837
11934SOL    HW137090   3.506   5.895   4.555  0.6340 -0.1885 -0.0442
11934SOL    HW237091   3.616   5.831   4.636  0.3259 -0.1832  0.3811
11935SOL     OW37092   1.837   3.362   4.705 -0.1932 -0.1882 -0.2992
11935SOL    HW137093   1.771   3.345   4.772  1.7102 -1.6047  1.3652
11935SOL    HW237094   1.830   3.289   4.644 -0.5456  0.0008 -0.4907
11936SOL     OW37095   5.258   7.815   2.144 -0.4085  0.4832 -0.1419
11936SOL    HW137096   5.353   7.823   2.147 -0.3833  0.2891 -0.4399
11936SOL    HW237097   5.226   7.898   2.180 -0.1293  0.6247 -0.2192
11937SOL     OW37098   2.246   2.450   8.555 -0.4428  0.3741  0.4332
11937SOL    HW137099   2.319   2.406   8.512 -1.5172  0.2738 -1.3864
11937SOL    HW237100   2.170   2.396   8.536 -0.8861 -0.2467  3.4012
11938SOL     OW37101   1.856   5.110   6.934 -0.3662 -0.2386 -0.2472
11938SOL    HW137102   1.893   5.077   6.852 -0.0093 -1.0125  0.2161
11938SOL    HW237103   1.804   5.038   6.968 -2.2038  0.7681 -0.7902
11939SOL     OW37104   1.630   3.574   0.751 -0.0180 -0.2646  0.1300
11939SOL    HW137105   1.574   3.650   0.732  1.5786  0.4580 -2.2736
11939SOL    HW237106   1.717   3.612   0.762  0.4803 -1.5986  0.9031
11940SOL     OW37107   6.822   5.522   0.429 -0.4272  0.3638 -0.8058
11940SOL    HW137108   6.770   5.449   0.461  0.9073  0.1411  0.9923
11940SOL    HW237109   6.769   5.600   0.449 -1.0416  0.0312 -1.0931
11941SOL     OW37110   2.513   3.537   4.143 -0.2667 -0.6653  0.2078
11941SOL    HW137111   2.524   3.602   4.074 -0.8212 -1.9519 -1.1461
11941SOL    HW237112   2.543   3.581   4.222 -0.6515  1.2383 -0.6499
11942SOL     OW37113   7.329   5.684   1.672  0.0342 -0.0363  0.2605
11942SOL    HW137114   7.254   5.690   1.614  0.4658 -0.7919 -0.3928
11942SOL    HW237115   7.378   5.765   1.656  0.4373 -0.4820 -0.8503
11943SOL     OW37116   6.450   0.632   2.656 -0.3306  0.7979 -0.2082
11943SOL    HW137117   6.515   0.666   2.595  0.4030  0.8215  0.5601
11943SOL    HW237118   6.420   0.551   2.616  2.3063 -0.7657  0.7290
11944SOL     OW37119   3.582   8.555   5.430  0.3187  0.0643  0.2457
11944SOL    HW137120   3.671   8.523   5.443  0.0864 -0.7601 -0.0944
11944SOL    HW237121   3.585   8.600   5.345 -0.1998 -2.4597 -1.2132
11945SOL     OW37122   2.780   2.765   5.469 -0.0552 -0.2381  0.2702
11945SOL    HW137123   2.836   2.815   5.528  1.3538 -0.2087 -1.0491
11945SOL    HW237124   2.838   2.731   5.401 -1.1404 -2.7280  0.4458
11946SOL     OW37125   7.894   4.031   8.098 -0.2515 -0.5230 -1.0610
11946SOL    HW137126   7.808   4.066   8.121  0.8876  1.6792  0.1455
11946SOL    HW237127   7.938   4.017   8.182  1.0341 -0.3474 -1.6778
11947SOL     OW37128   1.630   1.763   0.217  0.6020  0.8068  0.3364
11947SOL    HW137129   1.583   1.711   0.153  2.4636 -1.7064  0.8571
11947SOL    HW237130   1.562   1.800   0.273 -0.8391 -1.4738  0.2110
11948SOL     OW37131   4.271   6.637   4.805 -0.7839 -0.0496  0.3376
11948SOL    HW137132   4.274   6.542   4.794  0.1837  0.2215 -2.6216
11948SOL    HW237133   4.191   6.653   4.855 -1.4724 -2.3534  0.0672
11949SOL     OW37134   0.613   3.740   1.877 -0.3348 -0.0887 -0.1209
11949SOL    HW137135   0.559   3.705   1.806  1.2010  0.3856 -1.6194
11949SOL    HW237136   0.701   3.706   1.859  0.2153  0.5427  1.2231
11950SOL     OW37137   2.328   5.559   6.464 -0.2233  0.1014 -0.0872
11950SOL    HW137138   2.343   5.639   6.414 -0.3446  0.1920  0.0238
11950SOL    HW237139   2.268   5.584   6.534  0.8053  0.2427  0.7869
11951SOL     OW37140   5.612   3.770   8.070 -0.6131  0.2597 -0.6689
11951SOL    HW137141   5.641   3.861   8.071 -0.7488  0.3043  0.0497
11951SOL    HW237142   5.530   3.770   8.022 -2.1205  1.0152  1.7381
11952SOL     OW37143   4.224   3.391   8.518  0.5913 -0.5757  0.6448
11952SOL    HW137144   4.228   3.296   8.515  0.1094 -0.5669 -1.5786
11952SOL    HW237145   4.152   3.410   8.580 -0.1704 -1.6852  0.1270
11953SOL     OW37146   7.438   7.674   2.717 -0.0034 -0.1778  0.4108
11953SOL    HW137147   7.474   7.648   2.802 -2.3171  0.8989  1.8183
11953SOL    HW237148   7.379   7.747   2.737 -2.3522 -1.3269 -1.7772
11954SOL     OW37149   7.890   8.331   2.402  0.2582 -0.0485 -0.1088
11954SOL    HW137150   7.976   8.291   2.416 -0.7971 -1.9378  1.4659
11954SOL    HW237151   7.874   8.321   2.308  1.4701 -0.2420 -0.3144
11955SOL     OW37152   8.400   1.856   1.569 -0.2229  0.8632  0.3065
11955SOL    HW137153   8.438   1.833   1.485 -0.2213  0.0362  0.5225
11955SOL    HW237154   8.360   1.775   1.601 -1.6791  1.5476  0.3476
11956SOL     OW37155   3.241   1.525   8.448 -0.0868 -0.0493 -0.2601
11956SOL    HW137156   3.275   1.464   8.383  1.0224  0.4671 -0.1931
11956SOL    HW237157   3.211   1.470   8.520 -0.6071 -0.5833 -0.8667
11957SOL     OW37158   0.007   4.686   0.987  0.1536 -0.5457 -0.1453
11957SOL    HW137159   0.042   4.710   0.901 -0.7365 -0.5276 -0.5116
11957SOL    HW237160  -0.088   4.690   0.976  0.0329  0.2487  1.0685
11958SOL     OW37161   6.506   7.802   0.069 -0.1494  0.7832 -0.1000
11958SOL    HW137162   6.505   7.892   0.102  0.3020  1.4836 -1.8424
11958SOL    HW237163   6.584   7.762   0.108  1.1842  2.0288 -1.3244
11959SOL     OW37164   0.600   7.003   3.590  0.4749 -0.1033  0.0608
11959SOL    HW137165   0.602   7.090   3.551  0.2935  0.3595  1.0438
11959SOL    HW237166   0.510   6.973   3.577  1.1240 -1.2220 -2.4805
11960SOL     OW37167   0.183   8.008   0.102  0.1662  0.5359  0.3625
11960SOL    HW137168   0.190   7.926   0.150 -1.0065 -0.0270 -0.3872
11960SOL    HW237169   0.194   8.076   0.168 -0.9371 -0.2203  1.3539
11961SOL     OW37170   2.813   7.372   1.550  0.3222  0.4522 -0.5643
11961SOL    HW137171   2.803   7.452   1.498  0.1675 -0.6158 -2.2333
11961SOL    HW237172   2.908   7.362   1.561  0.3189  1.4719  0.6997
11962SOL     OW37173   0.590   2.652   1.464 -0.0226  0.1629 -0.0194
11962SOL    HW137174   0.510   2.600   1.475 -0.1556  0.6705  1.6331
11962SOL    HW237175   0.563   2.741   1.486  0.8143  0.4901 -0.2846
11963SOL     OW37176   7.671   5.044   6.414 -0.4395  0.4087  0.2638
11963SOL    HW137177   7.576   5.032   6.411 -0.2428 -1.6534  0.8431
11963SOL    HW237178   7.688   5.083   6.499 -0.8616  2.1714 -0.4266
11964SOL     OW37179   3.694   6.214   2.320 -0.4115 -0.5090  0.6057
11964SOL    HW137180   3.651   6.169   2.393 -2.3741  0.3554  0.0453
11964SOL    HW237181   3.627   6.221   2.253  0.9813 -0.1452 -0.8127
11965SOL     OW37182   4.545   0.188   6.170  0.1825  0.3714  0.4442
11965SOL    HW137183   4.567   0.205   6.262  0.7431  2.5098 -0.0239
11965SOL    HW237184   4.504   0.269   6.140  0.1264 -0.2448 -1.2314
11966SOL     OW37185   6.484   5.391   2.687 -0.1077  0.0654 -0.1969
11966SOL    HW137186   6.566   5.366   2.644  0.0608 -3.4235  1.7152
11966SOL    HW237187   6.417   5.377   2.620  0.5660 -0.3015 -0.8190
11967SOL     OW37188   6.010   0.700   5.363  0.4129 -0.6051 -0.1079
11967SOL    HW137189   5.989   0.619   5.410 -1.6486 -0.6738 -1.0199
11967SOL    HW237190   6.009   0.768   5.430  1.8441 -1.2651  0.6149
11968SOL     OW37191   2.233   0.922   5.114 -0.0932  0.0481  0.4507
11968SOL    HW137192   2.246   1.014   5.136  0.7243  0.0930 -0.1545
11968SOL    HW237193   2.305   0.877   5.159  1.1524  0.0523 -1.4151
11969SOL     OW37194   2.319   4.231   3.407 -0.6139 -0.4722  0.0443
11969SOL    HW137195   2.275   4.315   3.414 -0.7901 -0.5708  0.1312
11969SOL    HW237196   2.253   4.172   3.369  0.3227  0.0613 -2.6695
11970SOL     OW37197   2.760   0.211   1.635 -0.3343  0.2375 -0.1199
11970SOL    HW137198   2.686   0.253   1.590 -0.6256 -0.4550 -0.2863
11970SOL    HW237199   2.721   0.146   1.692  0.1329  0.0981  0.0502
11971SOL     OW37200   5.720   0.966   2.565 -0.2575  0.0923 -0.1001
11971SOL    HW137201   5.677   0.950   2.649 -0.2082 -0.2466 -0.1370
11971SOL    HW237202   5.813   0.966   2.585 -0.2688  0.6713 -0.0461
11972SOL     OW37203   1.493   4.455   8.230  0.0482 -0.0492  0.1767
11972SOL    HW137204   1.588   4.444   8.240 -0.0033 -0.5925  0.0769
11972SOL    HW237205   1.461   4.368   8.210 -0.4571  0.1671  0.0429
11973SOL     OW37206   0.850   4.842   1.162  0.2545  0.1183  0.5271
11973SOL    HW137207   0.794   4.807   1.093 -0.4644 -0.1767  1.2353
11973SOL    HW237208   0.928   4.787   1.161  0.1904  0.0333  0.0451
11974SOL     OW37209   3.034   7.150   8.457  0.2067 -0.2380  0.2711
11974SOL    HW137210   3.031   7.245   8.465 -0.3882 -0.1741 -0.6034
11974SOL    HW237211   2.960   7.120   8.510  0.2449 -0.1992  0.3471
11975SOL     OW37212   8.236   2.623   7.338 -0.2833  0.3974  0.0499
11975SOL    HW137213   8.150   2.656   7.311 -0.3435  0.3112  0.1332
11975SOL    HW237214   8.266   2.571   7.264 -0.3578  0.3265  0.0688
11976SOL     OW37215   8.312   1.896   4.175  0.6091  0.0139 -0.5932
11976SOL    HW137216   8.310   1.874   4.082  0.4301  1.2565 -0.9133
11976SOL    HW237217   8.318   1.812   4.220  0.7345 -0.6064 -1.7264
11977SOL     OW37218   4.481   1.638   6.296 -0.2461  0.8734  0.0769
11977SOL    HW137219   4.455   1.548   6.314  2.0345  0.2942  0.8940
11977SOL    HW237220   4.510   1.637   6.205  0.4522  0.5848  0.2960
11978SOL     OW37221   7.762   3.229   4.799 -0.3353  0.3433 -0.2715
11978SOL    HW137222   7.820   3.158   4.771 -1.7913 -1.4267  0.9725
11978SOL    HW237223   7.775   3.234   4.894 -2.4329 -0.3556  0.0956
11979SOL     OW37224   2.440   3.365   1.129 -0.0441  0.4427 -0.1402
11979SOL    HW137225   2.347   3.371   1.108  0.5995  1.8270 -3.0225
11979SOL    HW237226   2.480   3.440   1.085  2.4291  0.0537  1.2489
11980SOL     OW37227   4.532   1.123   0.696  0.2678  0.1870 -0.1707
11980SOL    HW137228   4.437   1.113   0.693  0.1930  0.7878  0.1832
11980SOL    HW237229   4.550   1.159   0.783  0.8376 -0.0919 -0.1655
11981SOL     OW37230   8.627   1.253   5.513 -0.6100  0.4573 -0.7485
11981SOL    HW137231   8.580   1.220   5.436 -1.5355  0.1705 -0.0675
11981SOL    HW237232   8.642   1.176   5.567  0.3045  0.6089 -0.7582
11982SOL     OW37233   3.164   0.469   5.962  0.4938  0.1552  0.0618
11982SOL    HW137234   3.106   0.431   6.027 -0.0490  1.0427  0.1151
11982SOL    HW237235   3.163   0.407   5.889  2.0349 -1.4478  1.3263
11983SOL     OW37236   1.255   4.829   1.471  0.8677 -0.0064 -0.8567
11983SOL    HW137237   1.273   4.840   1.378  2.8330 -0.1326 -0.5318
11983SOL    HW237238   1.189   4.759   1.474  0.3084  0.4295 -2.1548
11984SOL     OW37239   5.476   0.405   5.253 -0.1783  0.1043 -0.3555
11984SOL    HW137240   5.393   0.359   5.257  1.0579 -2.1674  1.1783
11984SOL    HW237241   5.466   0.477   5.316  0.1477 -2.3693  2.7710
11985SOL     OW37242   3.546   3.120   0.461 -0.0753  0.2251 -0.1322
11985SOL    HW137243   3.522   3.102   0.370  3.7614 -3.5356 -0.6814
11985SOL    HW237244   3.614   3.187   0.455 -0.6129  0.8109  0.1437
11986SOL     OW37245   2.156   5.157   5.324  0.5622 -0.3967  0.2375
11986SOL    HW137246   2.138   5.243   5.360 -0.8014 -0.3590 -0.4883
11986SOL    HW237247   2.184   5.173   5.234 -1.3524 -0.7725 -0.4638
11987SOL     OW37248   7.833   0.716   8.296 -0.2424 -0.6868  0.6452
11987SOL    HW137249   7.873   0.696   8.212 -1.5190  0.8791 -0.3944
11987SOL    HW237250   7.837   0.812   8.302 -0.7893 -0.7330  2.0501
11988SOL     OW37251   5.298   6.816   3.381  0.1809 -0.3636 -0.4669
11988SOL    HW137252   5.379   6.864   3.365  0.1699 -0.0207  0.4275
11988SOL    HW237253   5.239   6.881   3.420  0.0822 -1.0253  0.5370
11989SOL     OW37254   8.212   4.761   7.123  0.2257  0.1673 -0.0049
11989SOL    HW137255   8.262   4.680   7.119 -0.0931  0.0180 -1.3231
11989SOL    HW237256   8.124   4.734   7.151 -0.6724 -0.3888 -3.0263
11990SOL     OW37257   4.770   5.667   6.795  0.1186 -0.0334 -0.0941
11990SOL    HW137258   4.754   5.596   6.857 -0.6832  0.1033 -0.1328
11990SOL    HW237259   4.703   5.732   6.816  0.3882  0.3933 -0.5402
11991SOL     OW37260   2.357   2.235   4.653 -0.4420 -0.7457 -0.7067
11991SOL    HW137261   2.399   2.299   4.596 -0.2149 -0.7615 -0.5580
11991SOL    HW237262   2.264   2.259   4.653 -0.4260 -0.6904 -1.0076
11992SOL     OW37263   2.474   8.127   0.216  0.4807  0.1416  0.3639
11992SOL    HW137264   2.451   8.153   0.126  0.4914  1.5489  0.7483
11992SOL    HW237265   2.544   8.187   0.241  0.2537 -0.0267  1.4297
11993SOL     OW37266   6.067   1.278   1.227  0.1042  0.4671 -0.0710
11993SOL    HW137267   6.151   1.233   1.221  0.7604  1.6734 -0.3321
11993SOL    HW237268   6.039   1.264   1.318  0.5533 -0.0081 -0.0037
11994SOL     OW37269   6.624   7.352   3.954  0.3113  0.1990  0.5537
11994SOL    HW137270   6.648   7.386   3.868 -2.7557 -0.4443 -0.6676
11994SOL    HW237271   6.685   7.279   3.968  1.1379  0.5708 -0.8538
11995SOL     OW37272   1.114   2.864   4.599  0.2690  0.0898  0.6333
11995SOL    HW137273   1.108   2.784   4.545  0.7550  1.1616 -1.0911
11995SOL    HW237274   1.095   2.834   4.688  1.2856 -2.1140  0.1853
11996SOL     OW37275   8.101   1.381   7.698  0.2149 -0.0727  0.2297
11996SOL    HW137276   8.146   1.450   7.746 -0.1284 -1.2160  2.3471
11996SOL    HW237277   8.024   1.361   7.752  0.0754 -1.7850 -0.5348
11997SOL     OW37278   6.632   4.162   0.204  0.4449 -0.0953 -0.4150
11997SOL    HW137279   6.649   4.138   0.113  0.1624  0.5362 -0.6369
11997SOL    HW237280   6.719   4.182   0.240  0.6862 -1.3370 -0.2400
11998SOL     OW37281   0.990   2.544   8.477 -0.0640  0.6084 -0.2724
11998SOL    HW137282   1.030   2.630   8.489  0.4475  0.3150  0.2273
11998SOL    HW237283   1.052   2.484   8.519 -0.7884  0.0852  0.0671
11999SOL     OW37284   2.173   6.358   8.060  0.2544 -0.1152 -0.2085
11999SOL    HW137285   2.098   6.371   8.002 -1.8043 -3.4455  1.3869
11999SOL    HW237286   2.152   6.409   8.138  0.3934  0.1134 -0.3186
12000SOL     OW37287   6.910   7.680   1.620  0.1791 -0.0870  0.2705
12000SOL    HW137288   6.971   7.725   1.679  0.2533 -0.4875  0.5048
12000SOL    HW237289   6.956   7.677   1.536  0.5762 -0.5609  0.4959
12001SOL     OW37290   5.703   7.898   8.052 -0.4847  0.2671 -0.0300
12001SOL    HW137291   5.786   7.863   8.018 -0.5722  1.1603 -1.2150
12001SOL    HW237292   5.635   7.854   8.001 -0.7407 -0.2750  0.7654
12002SOL     OW37293   0.219   0.837   4.813 -0.6758  0.1550 -0.2905
12002SOL    HW137294   0.230   0.743   4.822 -0.5323  0.1259 -0.7823
12002SOL    HW237295   0.301   0.875   4.844 -1.2900  0.2021  1.3942
12003SOL     OW37296   5.483   1.425   6.250  0.2888 -0.2323  0.0368
12003SOL    HW137297   5.476   1.382   6.164 -0.4600 -1.0267  0.4746
12003SOL    HW237298   5.416   1.382   6.303  0.7144  0.2880  1.0127
12004SOL     OW37299   3.610   3.170   7.000  0.1355 -0.4909  0.4267
12004SOL    HW137300   3.671   3.197   7.069 -0.7917 -1.2208  1.5616
12004SOL    HW237301   3.663   3.169   6.920  1.6331 -1.2110  1.3931
12005SOL     OW37302   6.660   4.850   5.678  0.6487  0.1206  0.5308
12005SOL    HW137303   6.731   4.809   5.628  0.9912  1.1544  0.1236
12005SOL    HW237304   6.594   4.782   5.688  1.5177 -0.7402  0.5433
12006SOL     OW37305   7.607   5.851   3.007  0.3588  0.2382  0.3491
12006SOL    HW137306   7.607   5.791   2.932  1.2107  0.3825  0.2317
12006SOL    HW237307   7.602   5.793   3.083 -0.2325  0.0818  0.2039
12007SOL     OW37308   5.552   0.660   5.962  0.7082  0.1300 -0.4221
12007SOL    HW137309   5.618   0.591   5.968 -0.2195 -0.7562 -0.2679
12007SOL    HW237310   5.529   0.679   6.053 -0.6276 -0.9191 -0.5236
12008SOL     OW37311   6.207   6.366   1.444  0.1348 -0.2316 -0.4791
12008SOL    HW137312   6.226   6.448   1.398  1.5179  0.6236  1.4665
12008SOL    HW237313   6.226   6.297   1.381 -0.5557  0.9213 -1.9954
12009SOL     OW37314   7.977   5.572   8.543 -0.5733  0.1713 -0.2572
12009SOL    HW137315   7.925   5.492   8.537 -0.2388 -0.1558  0.9436
12009SOL    HW237316   7.999   5.594   8.452 -0.6665 -1.1004 -0.5996
12010SOL     OW37317   1.856   1.786   1.150 -0.1826  0.0749 -0.1027
12010SOL    HW137318   1.938   1.749   1.118 -0.4855  0.1961 -1.0400
12010SOL    HW237319   1.791   1.764   1.083 -1.0062 -0.3565  0.8115
12011SOL     OW37320   1.328   0.612   2.523  0.0386 -0.4376  0.2351
12011SOL    HW137321   1.382   0.572   2.592 -0.1166 -1.2218 -0.0946
12011SOL    HW237322   1.273   0.541   2.491 -0.2835  0.0559 -0.3247
12012SOL     OW37323   4.951   4.960   4.919 -0.2200  0.1118  0.1615
12012SOL    HW137324   4.919   4.904   4.848  0.5032 -0.0842 -0.0137
12012SOL    HW237325   5.046   4.953   4.914 -0.0860  1.8830 -0.2944
12013SOL     OW37326   0.111   2.404   5.592  0.3887 -0.0661  0.4088
12013SOL    HW137327   0.148   2.332   5.541 -1.0877  0.0882 -0.9314
12013SOL    HW237328   0.040   2.438   5.538  0.7908  2.1612  1.1822
12014SOL     OW37329   0.330   4.238   4.528 -0.1753  0.4361  0.1808
12014SOL    HW137330   0.418   4.274   4.519  0.2171 -0.9440 -2.8664
12014SOL    HW237331   0.316   4.232   4.622  3.3148  0.0064  0.8227
12015SOL     OW37332   5.671   6.485   4.051 -0.1585  0.4143 -0.1500
12015SOL    HW137333   5.708   6.449   3.971 -1.0572  0.6797 -0.6966
12015SOL    HW237334   5.622   6.412   4.090  2.2354 -0.4653  1.4711
12016SOL     OW37335   6.024   2.233   4.304  0.5601 -0.3986 -0.6969
12016SOL    HW137336   6.066   2.206   4.386 -1.1343 -1.0198  0.0088
12016SOL    HW237337   6.063   2.318   4.284  1.3453 -0.4517  0.5022
12017SOL     OW37338   0.761   0.959   6.608  0.3620  0.2205  0.1687
12017SOL    HW137339   0.761   0.865   6.629  2.6929 -0.3591 -2.0252
12017SOL    HW237340   0.689   0.969   6.546 -2.7253  0.8585  3.4846
12018SOL     OW37341   4.076   7.095   7.257  0.0353 -0.9464 -0.2224
12018SOL    HW137342   4.057   7.082   7.350 -0.4685 -0.4139 -0.2490
12018SOL    HW237343   4.168   7.069   7.248  0.3668 -0.1178  0.6079
12019SOL     OW37344   1.683   2.772   8.250  0.3583 -0.2574  0.0139
12019SOL    HW137345   1.688   2.682   8.283 -0.1946 -0.2553  0.1149
12019SOL    HW237346   1.657   2.824   8.326 -0.9939 -0.2610 -0.4231
12020SOL     OW37347   8.639   2.656   1.575  0.3735  0.8564 -0.6840
12020SOL    HW137348   8.655   2.646   1.669  1.1936  1.5356 -0.7309
12020SOL    HW237349   8.557   2.611   1.559  1.2997 -1.1900 -0.0266
12021SOL     OW37350   2.240   1.340   4.137 -0.2333 -0.2760 -0.4445
12021SOL    HW137351   2.230   1.404   4.066 -0.1820 -3.2172 -3.3693
12021SOL    HW237352   2.152   1.304   4.149 -0.4883  0.9838  1.9438
12022SOL     OW37353   6.884   1.314   6.708  0.4248 -0.1808 -0.5585
12022SOL    HW137354   6.854   1.262   6.783  1.4552  0.2786  0.2042
12022SOL    HW237355   6.814   1.378   6.694  0.2047 -0.2835  0.0208
12023SOL     OW37356   5.071   0.948   3.449 -0.0277 -0.1905  0.2999
12023SOL    HW137357   5.123   1.029   3.452  0.4920 -0.3819 -1.9329
12023SOL    HW237358   5.005   0.960   3.517  0.4978  1.7898  0.5377
12024SOL     OW37359   7.188   1.334   7.122 -0.2142  0.3157  0.1526
12024SOL    HW137360   7.224   1.266   7.065 -0.5297 -0.8732  1.3155
12024SOL    HW237361   7.130   1.385   7.065 -1.1146 -1.2993 -0.4554
12025SOL     OW37362   0.714   0.953   0.368 -0.3974  0.2802  0.3643
12025SOL    HW137363   0.633   1.005   0.368 -0.7310 -0.2326  0.6919
12025SOL    HW237364   0.783   1.017   0.383 -0.8219  0.6159  0.9406
12026SOL     OW37365   6.853   2.908   1.671  0.4715 -0.7126  0.0368
12026SOL    HW137366   6.827   2.999   1.662  2.8896  0.1806  1.2024
12026SOL    HW237367   6.898   2.887   1.589 -1.0586 -1.2737 -0.6991
12027SOL     OW37368   7.772   4.869   4.081  0.0240 -0.6534  0.5964
12027SOL    HW137369   7.686   4.842   4.112 -0.1947 -0.4581  0.1642
12027SOL    HW237370   7.759   4.956   4.045  0.5273 -0.3700  1.0869
12028SOL     OW37371   7.125   4.974   6.631 -0.2593  0.1678 -0.4656
12028SOL    HW137372   7.119   4.880   6.613 -1.4180  0.2850 -0.7819
12028SOL    HW237373   7.213   4.986   6.665 -0.7770 -1.4368  1.7681
12029SOL     OW37374   5.949   4.805   7.121  0.6209  0.4219 -0.3525
12029SOL    HW137375   5.883   4.874   7.112 -0.3101 -0.5004 -0.7710
12029SOL    HW237376   6.026   4.850   7.155  0.1461  1.7361 -0.9562
12030SOL     OW37377   3.538   6.234   3.163  0.7702  0.5139 -0.1664
12030SOL    HW137378   3.536   6.157   3.106 -0.7133  1.0774 -0.9055
12030SOL    HW237379   3.568   6.200   3.248 -1.5176 -1.2254  0.0217
12031SOL     OW37380   4.838   4.635   2.456 -0.3257 -0.5881  0.1079
12031SOL    HW137381   4.890   4.575   2.403  1.0159 -0.0472  0.7688
12031SOL    HW237382   4.879   4.720   2.445  0.5432 -0.6034  2.6380
12032SOL     OW37383   5.665   3.032   3.965  0.0823 -0.7683  0.3809
12032SOL    HW137384   5.603   3.102   3.943 -0.7594 -1.7256 -0.4253
12032SOL    HW237385   5.690   2.995   3.880  0.2197 -1.6750  0.8031
12033SOL     OW37386   4.908   1.378   8.622 -0.5858  0.0407 -0.5137
12033SOL    HW137387   4.932   1.298   8.574 -0.4049  0.9204 -1.9608
12033SOL    HW237388   4.986   1.433   8.617 -0.6483  0.2485  0.6358
12034SOL     OW37389   5.804   7.445   2.304 -0.3152 -0.1067 -0.7964
12034SOL    HW137390   5.889   7.482   2.283 -0.3486  0.1297 -0.5154
12034SOL    HW237391   5.771   7.412   2.221 -0.8455  1.6335 -1.3245
12035SOL     OW37392   0.691   3.667   2.440 -0.0333 -0.0271 -0.2589
12035SOL    HW137393   0.676   3.655   2.346  1.2686  1.7126 -0.7302
12035SOL    HW237394   0.608   3.642   2.481 -0.1245 -2.4177 -1.6938
12036SOL     OW37395   6.541   6.537   2.611 -0.4161  0.1095 -0.2817
12036SOL    HW137396   6.465   6.584   2.576 -1.9046 -0.2443  2.2097
12036SOL    HW237397   6.544   6.562   2.704  1.6342 -1.0637  0.0256
12037SOL     OW37398   6.755   5.944   2.740  0.1805 -0.5869  0.0957
12037SOL    HW137399   6.699   5.870   2.762 -0.2275  0.0320  1.2373
12037SOL    HW237400   6.752   6.001   2.817 -0.1828  1.0363 -1.0440
12038SOL     OW37401   8.454   8.602   3.691 -0.1193 -0.0888  0.1794
12038SOL    HW137402   8.367   8.571   3.667  0.1879 -0.9537  0.1224
12038SOL    HW237403   8.487   8.644   3.612 -0.3290 -0.1292  0.0689
12039SOL     OW37404   2.787   5.585   1.589 -0.7530  0.3708  0.1137
12039SOL    HW137405   2.811   5.500   1.623 -0.4837  1.0096  1.5664
12039SOL    HW237406   2.735   5.626   1.658 -1.1542  1.2665 -0.6790
12040SOL     OW37407   2.717   6.769   6.412 -0.3991 -0.4619 -0.1214
12040SOL    HW137408   2.675   6.740   6.331  1.8188  0.2543 -1.6059
12040SOL    HW237409   2.760   6.690   6.446 -0.5576 -0.5549 -0.1357
12041SOL     OW37410   3.473   1.451   0.372  0.5468  0.0843  0.5724
12041SOL    HW137411   3.415   1.496   0.433 -0.3155 -0.2662  0.0223
12041SOL    HW237412   3.437   1.471   0.285  0.8759 -0.6530  0.2605
12042SOL     OW37413   2.897   1.378   8.630 -0.4431 -0.3106  0.2568
12042SOL    HW137414   2.877   1.317   8.559 -1.0178  0.7845 -0.5443
12042SOL    HW237415   2.822   1.438   8.632  0.5474  0.9598  0.3821
12043SOL     OW37416   4.711   5.758   3.434  0.1170  0.0577 -0.3484
12043SOL    HW137417   4.675   5.700   3.502 -0.6889 -1.3326 -1.8890
12043SOL    HW237418   4.802   5.729   3.425  0.9013  1.6902  1.5737
12044SOL     OW37419   8.340   6.886   4.717 -0.6582 -0.4615  0.0501
12044SOL    HW137420   8.319   6.935   4.797  0.5362 -0.7743  0.5676
12044SOL    HW237421   8.405   6.821   4.744 -0.3748 -0.6986 -1.1363
12045SOL     OW37422   2.254   7.352   2.082  0.1274  0.2301 -0.5712
12045SOL    HW137423   2.265   7.414   2.154 -0.4340  0.7007 -0.8812
12045SOL    HW237424   2.339   7.349   2.039  1.2452 -1.9445  1.5766
12046SOL     OW37425   6.601   4.082   4.714  0.0474 -0.1178 -0.3490
12046SOL    HW137426   6.586   4.026   4.791 -0.1598  0.0550 -0.2642
12046SOL    HW237427   6.637   4.022   4.648  0.2955 -0.2529 -0.0955
12047SOL     OW37428   6.614   2.355   4.436  0.1069 -0.2913 -0.0666
12047SOL    HW137429   6.595   2.263   4.420  0.0471 -0.1856 -0.6397
12047SOL    HW237430   6.629   2.392   4.349  1.2724  0.0004  0.2454
12048SOL     OW37431   7.698   3.592   4.655  0.0519  0.1086 -0.0863
12048SOL    HW137432   7.750   3.523   4.613 -0.4243 -0.5701  0.4106
12048SOL    HW237433   7.639   3.545   4.714 -1.7903  0.7431 -1.3074
12049SOL     OW37434   8.472   8.240   5.688 -0.2109  0.1108 -0.8890
12049SOL    HW137435   8.518   8.290   5.621  1.7459  0.0239  0.3240
12049SOL    HW237436   8.471   8.150   5.655  0.4707  0.1236 -0.9478
12050SOL     OW37437   4.608   4.727   3.617  0.5520 -0.6931 -0.1117
12050SOL    HW137438   4.584   4.800   3.673 -0.9668 -1.0844 -0.2217
12050SOL    HW237439   4.669   4.765   3.553 -0.7000  0.6346 -0.5520
12051SOL     OW37440   5.212   2.628   5.482 -0.6993  0.5086 -0.5244
12051SOL    HW137441   5.269   2.574   5.427  0.1864  0.3296  0.5217
12051SOL    HW237442   5.123   2.600   5.460 -0.3398 -0.0309 -1.3552
12052SOL     OW37443   5.963   3.143   8.677  0.1457 -0.2540  0.3646
12052SOL    HW137444   5.911   3.116   8.601  0.7649  2.2971 -1.0875
12052SOL    HW237445   6.053   3.125   8.651  0.2431 -1.2282  1.3481
12053SOL     OW37446   8.559   8.125   0.362  0.4637  0.2822 -1.0655
12053SOL    HW137447   8.540   8.038   0.327  1.1248 -0.8003  1.0890
12053SOL    HW237448   8.551   8.184   0.287  0.7728 -1.7327 -2.7573
12054SOL     OW37449   3.849   2.224   8.218  0.2678  0.1749  0.5953
12054SOL    HW137450   3.919   2.191   8.162 -1.3689 -1.5852 -0.5027
12054SOL    HW237451   3.860   2.176   8.301 -0.3235 -1.0201  0.0086
12055SOL     OW37452   5.397   6.128   7.688  0.1311  0.1681 -0.1718
12055SOL    HW137453   5.447   6.189   7.742 -1.2109  1.8731 -0.7445
12055SOL    HW237454   5.346   6.184   7.629 -1.6542 -1.4839 -0.3235
12056SOL     OW37455   3.659   6.896   5.451 -0.7584 -0.1233  0.1631
12056SOL    HW137456   3.602   6.908   5.375 -0.6639 -0.1166  0.0934
12056SOL    HW237457   3.666   6.801   5.461  1.1228 -0.2091 -1.2656
12057SOL     OW37458   6.179   2.214   4.518 -0.2611 -0.2647  0.4852
12057SOL    HW137459   6.193   2.172   4.603  2.7331 -2.0169 -0.7573
12057SOL    HW237460   6.219   2.301   4.527  1.0512 -0.8677  0.5498
12058SOL     OW37461   3.416   2.497   8.502 -0.8416  0.2245 -0.0535
12058SOL    HW137462   3.384   2.580   8.539 -0.5288 -0.0526  0.8683
12058SOL    HW237463   3.344   2.435   8.516 -0.0616 -0.3373  1.7993
12059SOL     OW37464   0.011   7.762   1.267 -0.0360 -0.8114  0.1533
12059SOL    HW137465  -0.045   7.769   1.344 -0.9010 -2.9533 -0.2189
12059SOL    HW237466   0.091   7.719   1.299  1.2982  1.7583  0.5733
12060SOL     OW37467   8.187   0.744   2.139 -0.6149 -0.2688 -0.9098
12060SOL    HW137468   8.103   0.711   2.110 -1.8286  1.9573 -0.1329
12060SOL    HW237469   8.208   0.815   2.078  0.3948 -0.3927 -0.7266
12061SOL     OW37470   7.951   6.576   6.186 -0.7727  0.3752 -0.1333
12061SOL    HW137471   8.040   6.559   6.154 -1.4664  1.4643 -2.8321
12061SOL    HW237472   7.952   6.540   6.275  1.5517 -2.0704 -0.9828
12062SOL     OW37473   1.013   1.206   0.080 -0.8380 -0.2573  0.3655
12062SOL    HW137474   0.953   1.180   0.150  0.8190  0.1814  2.0034
12062SOL    HW237475   1.044   1.293   0.107  1.2742 -0.8860  0.0793
12063SOL     OW37476   8.318   1.105   4.859  0.0615  0.5181  0.3046
12063SOL    HW137477   8.352   1.077   4.775 -1.3763 -0.3847 -0.0166
12063SOL    HW237478   8.250   1.169   4.838  1.5763  2.4445  0.9333
12064SOL     OW37479   1.421   2.896   4.850 -0.0205 -0.3723  0.1950
12064SOL    HW137480   1.436   2.954   4.776  0.5325 -2.0654 -1.0805
12064SOL    HW237481   1.352   2.939   4.901 -0.5860  0.7165 -1.4314
12065SOL     OW37482   4.445   4.465   3.005  0.4417  0.1967  0.7081
12065SOL    HW137483   4.526   4.483   2.957  1.1011 -2.1734  0.7849
12065SOL    HW237484   4.375   4.482   2.941  1.1438 -0.0453 -0.1431
12066SOL     OW37485   4.236   2.707   6.286 -0.0863 -0.3450  0.0215
12066SOL    HW137486   4.225   2.709   6.381 -2.1053  3.8872 -0.0201
12066SOL    HW237487   4.149   2.731   6.252  1.0925  0.3786 -2.7588
12067SOL     OW37488   6.427   8.031   6.946 -0.0695  0.4465  0.3783
12067SOL    HW137489   6.376   7.954   6.920  0.4116  0.3664 -0.3576
12067SOL    HW237490   6.492   7.997   7.008  0.9730  0.0117 -0.9198
12068SOL     OW37491   8.054   2.537   1.590  0.2057  0.2916 -0.4499
12068SOL    HW137492   8.133   2.586   1.613  0.8446 -1.5546  1.5832
12068SOL    HW237493   8.078   2.488   1.511  0.5471  0.9135 -0.7392
12069SOL     OW37494   3.140   6.746   4.000 -1.0158 -0.2356 -0.2413
12069SOL    HW137495   3.156   6.751   3.906  0.3951  0.5106  0.0176
12069SOL    HW237496   3.207   6.686   4.032 -0.0877  1.1887  0.5676
12070SOL     OW37497   3.403   2.485   0.491 -0.0065  0.6038  0.0859
12070SOL    HW137498   3.321   2.499   0.445  0.9600  1.6367 -1.3871
12070SOL    HW237499   3.471   2.491   0.424  1.3265  0.2682  1.3338
12071SOL     OW37500   5.745   0.347   5.347 -0.2368  0.0877 -0.0850
12071SOL    HW137501   5.695   0.395   5.413 -1.4005 -0.4359 -0.5571
12071SOL    HW237502   5.697   0.265   5.335  0.3208 -0.1103 -1.0860
12072SOL     OW37503   3.369   5.984   2.275  0.2002 -0.0602  0.1360
12072SOL    HW137504   3.291   5.931   2.256  1.1956 -0.9672 -1.6879
12072SOL    HW237505   3.440   5.937   2.232  1.9536  0.2659  2.4811
12073SOL     OW37506   2.837   1.951   6.029  0.0914 -0.0660  0.1914
12073SOL    HW137507   2.754   1.963   6.075 -0.3163  0.2027 -0.5984
12073SOL    HW237508   2.870   2.040   6.015  1.7555 -0.2035  2.6665
12074SOL     OW37509   5.782   2.325   3.804 -0.1102  0.2672  0.6349
12074SOL    HW137510   5.870   2.305   3.773  0.2146  1.8840  0.3803
12074SOL    HW237511   5.797   2.380   3.882 -0.8826  0.4046  0.6889
12075SOL     OW37512   1.868   6.517   2.368  0.7632 -0.4622 -0.2494
12075SOL    HW137513   1.947   6.571   2.361  0.7142 -0.4328 -0.5894
12075SOL    HW237514   1.829   6.521   2.281  1.0120 -1.4301 -0.4231
12076SOL     OW37515   2.668   0.257   4.442 -0.2700 -0.9895 -0.3625
12076SOL    HW137516   2.620   0.308   4.507  0.9494 -0.5283  0.2090
12076SOL    HW237517   2.721   0.195   4.493  1.5089  0.0892 -0.8029
12077SOL     OW37518   2.501   8.472   7.233  0.7221  0.4958 -0.1541
12077SOL    HW137519   2.538   8.491   7.319  2.1747 -0.4720 -0.5231
12077SOL    HW237520   2.526   8.548   7.180  0.5717  0.6977  0.0599
12078SOL     OW37521   8.086   0.894   6.960 -0.2500  0.6117  0.1421
12078SOL    HW137522   8.040   0.909   6.877  0.7705 -3.4067 -1.4038
12078SOL    HW237523   8.032   0.937   7.026 -3.5200  0.3409 -2.1202
12079SOL     OW37524   3.956   2.036   7.146  0.1032 -0.4726 -0.1703
12079SOL    HW137525   3.870   2.006   7.120 -0.3955  0.5228  0.2635
12079SOL    HW237526   3.990   2.083   7.069  0.9152 -2.1264 -0.8754
12080SOL     OW37527   1.257   1.393   1.688  1.3796 -0.6281  0.7793
12080SOL    HW137528   1.338   1.359   1.652  0.0072 -1.4968 -1.7578
12080SOL    HW237529   1.246   1.478   1.645  0.1216 -1.3131 -0.3397
12081SOL     OW37530   6.669   4.570   1.341  0.4774 -0.2625  0.1843
12081SOL    HW137531   6.623   4.603   1.264 -0.7957 -1.0959  0.5508
12081SOL    HW237532   6.689   4.479   1.319  0.6411 -0.3303  0.6102
12082SOL     OW37533   5.107   7.003   0.832 -0.1221 -0.1155  0.0099
12082SOL    HW137534   5.129   6.910   0.838 -0.0444 -0.1111 -0.2006
12082SOL    HW237535   5.189   7.049   0.848 -0.2422 -0.0737  0.5264
12083SOL     OW37536   0.991   3.513   6.496 -0.5484  0.1900 -0.2164
12083SOL    HW137537   1.028   3.458   6.565  1.7073 -2.4081 -3.2091
12083SOL    HW237538   1.024   3.601   6.515 -0.5077 -0.2833  2.2717
12084SOL     OW37539   3.794   2.854   0.252 -0.2657  0.1999  1.0985
12084SOL    HW137540   3.830   2.782   0.201 -0.1821 -0.2050  1.7163
12084SOL    HW237541   3.718   2.816   0.296 -1.3874  1.0066 -0.0744
12085SOL     OW37542   1.832   2.221   0.658  0.3566  0.3518 -0.3979
12085SOL    HW137543   1.797   2.141   0.695  2.4214 -1.2111 -1.6126
12085SOL    HW237544   1.772   2.290   0.687 -2.0095 -1.7249 -0.1016
12086SOL     OW37545   0.467   3.287   8.471  0.4468  0.1362 -0.3703
12086SOL    HW137546   0.532   3.337   8.421 -0.4393 -0.6855 -2.4454
12086SOL    HW237547   0.461   3.203   8.425  0.1762 -1.0182  1.6528
12087SOL     OW37548   1.271   0.316   4.057  0.4273 -0.0067  0.1912
12087SOL    HW137549   1.264   0.369   3.978  1.3454 -0.3469 -0.1343
12087SOL    HW237550   1.356   0.339   4.094  0.3406 -0.4209  0.6604
12088SOL     OW37551   7.372   2.416   2.547  0.2246  0.3288 -0.0323
12088SOL    HW137552   7.465   2.397   2.543 -0.0495 -1.2707  0.3769
12088SOL    HW237553   7.350   2.411   2.641 -0.6015 -1.1692 -0.2795
12089SOL     OW37554   7.208   2.616   0.285  0.2255 -0.1651 -0.3964
12089SOL    HW137555   7.254   2.678   0.340  0.4001 -2.1977  1.8995
12089SOL    HW237556   7.193   2.664   0.203  1.3672  2.4440  0.7928
12090SOL     OW37557   2.782   0.201   0.557  0.6275  0.5335 -0.1339
12090SOL    HW137558   2.753   0.259   0.627  1.0225 -1.3879  1.7422
12090SOL    HW237559   2.863   0.239   0.526  0.0665  1.8212 -0.0762
12091SOL     OW37560   2.618   6.408   0.241  0.2776  0.3885 -0.2300
12091SOL    HW137561   2.689   6.416   0.177  0.5967 -0.3506  0.0178
12091SOL    HW237562   2.661   6.381   0.322  0.0222  2.3548  0.6333
12092SOL     OW37563   6.272   1.800   7.501 -0.2301  0.4408 -0.4062
12092SOL    HW137564   6.277   1.822   7.594  2.0368  1.2845 -0.6631
12092SOL    HW237565   6.274   1.885   7.457  0.0574  0.0067 -1.2426
12093SOL     OW37566   6.932   7.879   1.348  0.1173  0.0863 -0.2451
12093SOL    HW137567   6.967   7.924   1.425  2.2378  0.2689 -1.2694
12093SOL    HW237568   6.989   7.804   1.335 -1.4636 -1.1442 -0.4767
12094SOL     OW37569   6.977   1.483   0.393 -0.2001  0.6527  0.0298
12094SOL    HW137570   6.899   1.531   0.365 -0.1200  0.2772 -0.8885
12094SOL    HW237571   6.953   1.391   0.385  0.1555  0.5350  0.2820
12095SOL     OW37572   1.329   8.219   5.313  0.5611 -0.4361 -0.4768
12095SOL    HW137573   1.262   8.272   5.356  1.8476  1.2811 -0.4704
12095SOL    HW237574   1.292   8.198   5.228  0.2139  0.9953 -0.7090
12096SOL     OW37575   5.313   8.699   7.007  0.8056  0.4599  0.1292
12096SOL    HW137576   5.321   8.781   7.056 -1.7268  0.6937  0.3159
12096SOL    HW237577   5.403   8.672   6.989  1.7231  2.7890  0.8649
12097SOL     OW37578   5.927   2.260   1.551  0.1150 -0.4517 -0.2068
12097SOL    HW137579   5.916   2.342   1.600  2.0412 -0.0565 -0.3669
12097SOL    HW237580   5.848   2.210   1.572 -0.6718  1.0468  0.6467
12098SOL     OW37581   8.398   0.778   0.438  0.1044  0.4227 -0.3274
12098SOL    HW137582   8.310   0.740   0.447  0.4393 -0.6990 -1.4172
12098SOL    HW237583   8.424   0.799   0.528 -0.3182 -1.5277  0.3205
12099SOL     OW37584   8.153   1.611   6.454 -0.2590 -0.1765  0.3307
12099SOL    HW137585   8.111   1.673   6.394 -0.8250 -0.4802  0.4074
12099SOL    HW237586   8.089   1.541   6.465 -1.3349  1.0934  3.3141
12100SOL     OW37587   5.927   5.316   5.538  0.6973 -0.1769 -0.0834
12100SOL    HW137588   5.886   5.312   5.624  0.5006  0.5163 -0.1364
12100SOL    HW237589   6.012   5.356   5.553  0.2986  0.8067 -0.3167
12101SOL     OW37590   4.662   7.376   1.080  0.0647 -0.0316  0.4504
12101SOL    HW137591   4.667   7.420   1.165 -1.9677  0.8752  0.1674
12101SOL    HW237592   4.662   7.282   1.102 -1.9352  0.1799  1.6546
12102SOL     OW37593   1.070   0.730   6.835  0.4757 -0.3832 -0.0133
12102SOL    HW137594   1.087   0.776   6.753 -3.2898  0.9061 -0.2702
12102SOL    HW237595   1.129   0.771   6.898  1.0140  1.0103 -1.3588
12103SOL     OW37596   1.667   6.255   6.768 -0.0601 -0.6154  0.7049
12103SOL    HW137597   1.660   6.161   6.751 -0.4215 -0.5319  0.4010
12103SOL    HW237598   1.726   6.261   6.844 -0.5586 -1.1207  1.1389
12104SOL     OW37599   0.952   6.554   2.087 -0.2406  0.3961 -0.2994
12104SOL    HW137600   0.973   6.647   2.081  1.1867  0.1844  0.6876
12104SOL    HW237601   0.919   6.543   2.177  4.5503 -0.7920  1.6523
12105SOL     OW37602   7.027   2.737   5.257 -0.2323  0.2309 -0.5000
12105SOL    HW137603   7.095   2.800   5.234 -1.7001  0.9288 -3.4152
12105SOL    HW237604   6.954   2.791   5.287 -0.7642 -0.2247 -0.9520
12106SOL     OW37605   1.166   5.330   7.966 -0.2740  0.2335  0.1146
12106SOL    HW137606   1.225   5.270   7.920 -0.1215 -0.1504  0.8073
12106SOL    HW237607   1.114   5.370   7.896  0.1650 -0.1179 -0.4208
12107SOL     OW37608   3.573   7.215   1.984  0.3209  0.0171 -0.5558
12107SOL    HW137609   3.490   7.218   2.032 -0.2000 -0.9138 -1.3434
12107SOL    HW237610   3.558   7.271   1.907  0.2569 -0.5118 -0.9319
12108SOL     OW37611   0.313   7.126   8.030  0.3027  0.7570 -0.0024
12108SOL    HW137612   0.385   7.151   8.088  0.4764  0.4120 -0.0659
12108SOL    HW237613   0.253   7.201   8.033 -0.4451  0.1461  1.7940
12109SOL     OW37614   8.500   3.944   5.794  0.3278 -0.5287  0.0115
12109SOL    HW137615   8.559   3.940   5.719  0.0831  0.4309 -0.2391
12109SOL    HW237616   8.518   4.029   5.835 -1.2709  0.0428 -0.4074
12110SOL     OW37617   8.230   4.463   6.506  0.0535  0.3006 -0.3032
12110SOL    HW137618   8.291   4.455   6.579 -0.0206  0.7672 -0.1894
12110SOL    HW237619   8.214   4.557   6.497 -2.1481  0.1249  0.9345
12111SOL     OW37620   6.386   1.240   2.764 -0.2799 -0.4580  0.1215
12111SOL    HW137621   6.393   1.160   2.713 -0.8780  0.1530 -0.9757
12111SOL    HW237622   6.468   1.246   2.812 -0.0012 -1.4327 -0.2147
12112SOL     OW37623   5.082   7.955   6.752  0.0719  0.7359  0.4149
12112SOL    HW137624   5.106   7.981   6.841  1.0264 -0.7985  0.6460
12112SOL    HW237625   5.153   7.897   6.725 -0.5536  0.6532 -1.1056
12113SOL     OW37626   7.891   6.086   7.675 -0.1690 -0.1598 -0.5502
12113SOL    HW137627   7.867   6.132   7.755 -0.4774  0.1047 -0.7936
12113SOL    HW237628   7.987   6.087   7.674 -0.1698  0.1889 -0.3913
12114SOL     OW37629   0.929   3.104   1.948 -0.6184  0.1760 -0.2804
12114SOL    HW137630   0.854   3.164   1.948 -1.7018 -1.1055 -1.4712
12114SOL    HW237631   0.920   3.053   2.029 -1.0885 -0.0210 -0.4535
12115SOL     OW37632   0.511   2.729   5.393 -0.1214 -0.5133 -0.5399
12115SOL    HW137633   0.419   2.710   5.379 -0.2005 -0.2201 -0.4259
12115SOL    HW237634   0.546   2.649   5.433 -0.3133 -0.6435 -0.6323
12116SOL     OW37635   3.712   5.331   4.331  0.3919 -0.0577  0.1813
12116SOL    HW137636   3.670   5.342   4.246  1.3285  1.0890 -0.1465
12116SOL    HW237637   3.678   5.247   4.363  0.6365 -0.9216 -1.6785
12117SOL     OW37638   3.151   2.545   7.672  0.1600  0.0298  0.5090
12117SOL    HW137639   3.236   2.515   7.705 -0.1946 -0.2712  1.1585
12117SOL    HW237640   3.172   2.625   7.623  0.9673 -0.6705 -0.3298
12118SOL     OW37641   7.479   8.159   5.414  0.3691  0.6401  0.0533
12118SOL    HW137642   7.446   8.223   5.477  1.3921  0.0989  1.2018
12118SOL    HW237643   7.417   8.086   5.419  0.7256  0.3683  0.8959
12119SOL     OW37644   5.568   6.999   4.519  0.1549 -0.1888 -0.3889
12119SOL    HW137645   5.492   7.057   4.519  0.1463 -0.1480  1.2988
12119SOL    HW237646   5.637   7.051   4.479  0.0887  0.9450  0.8953
12120SOL     OW37647   1.885   2.062   1.254 -0.0637  0.2949 -0.0804
12120SOL    HW137648   1.974   2.074   1.221  0.0095  1.1510  0.3714
12120SOL    HW237649   1.866   1.969   1.243  1.9249 -0.4984  2.3048
12121SOL     OW37650   5.319   2.626   3.170 -0.6845 -0.0676  0.2904
12121SOL    HW137651   5.225   2.612   3.164 -0.6378  0.1418 -1.1745
12121SOL    HW237652   5.345   2.579   3.249 -1.9772 -0.2656  0.6253
12122SOL     OW37653   1.261   6.547   7.983 -0.2686 -0.3007 -0.1559
12122SOL    HW137654   1.203   6.506   7.919  0.4196 -0.5513 -0.6347
12122SOL    HW237655   1.294   6.625   7.938  0.5314 -0.6932 -0.2635
12123SOL     OW37656   6.032   5.248   7.054  0.2618  0.2751  0.0094
12123SOL    HW137657   6.024   5.248   6.959 -1.1438 -0.8885  0.1057
12123SOL    HW237658   6.092   5.177   7.074  2.5136  2.0383 -0.0894
12124SOL     OW37659   5.793   0.627   8.526  0.1820  0.2225  0.3291
12124SOL    HW137660   5.752   0.679   8.457 -0.9231 -0.0387  0.7606
12124SOL    HW237661   5.882   0.662   8.534  0.2879  0.3300 -1.1286
12125SOL     OW37662   4.193   0.034   0.981  0.0116  0.5080  0.3105
12125SOL    HW137663   4.210   0.118   0.939 -0.4459 -0.0399 -1.0312
12125SOL    HW237664   4.263  -0.023   0.950  0.2383  0.3463  1.0989
12126SOL     OW37665   8.484   6.293   2.708  0.0292 -0.0101 -0.3618
12126SOL    HW137666   8.411   6.242   2.744  1.0450 -1.2669 -0.0363
12126SOL    HW237667   8.447   6.333   2.629 -0.6818 -1.6345 -0.8991
12127SOL     OW37668   0.703   5.468   0.047  0.2047  0.6121 -0.4380
12127SOL    HW137669   0.761   5.468   0.123 -0.7526 -0.2500  0.3122
12127SOL    HW237670   0.743   5.531  -0.014  0.7866  1.5773  0.9048
12128SOL     OW37671   6.530   2.619   8.321 -0.0783 -0.2420 -0.5064
12128SOL    HW137672   6.449   2.640   8.367 -0.3376 -1.6787 -0.2751
12128SOL    HW237673   6.584   2.697   8.331 -1.3909  0.7087 -0.6045
12129SOL     OW37674   7.871   3.397   7.177 -0.3859 -0.7226 -0.3286
12129SOL    HW137675   7.902   3.430   7.262  0.3723 -1.8091 -0.1550
12129SOL    HW237676   7.783   3.432   7.168 -0.1191  0.1954  0.4646
12130SOL     OW37677   0.695   6.697   2.832 -0.2333  0.2652  0.0747
12130SOL    HW137678   0.620   6.751   2.807 -0.5291 -0.1541  0.0498
12130SOL    HW237679   0.771   6.748   2.804 -0.5307  0.3325 -0.6397
12131SOL     OW37680   2.837   6.997   7.423 -0.0624  0.6175 -0.1141
12131SOL    HW137681   2.859   7.025   7.512  0.3568 -0.1167  0.0222
12131SOL    HW237682   2.918   7.011   7.373  0.7909 -2.0448  0.3733
12132SOL     OW37683   7.704   0.452   7.585  0.1376  0.5757  0.2006
12132SOL    HW137684   7.763   0.526   7.569  1.2800 -0.3293  0.1133
12132SOL    HW237685   7.761   0.383   7.618 -0.8565 -0.3926 -0.0711
12133SOL     OW37686   8.579   5.193   6.937 -0.6690 -0.0611  0.3839
12133SOL    HW137687   8.656   5.172   6.990 -0.7163  1.0682  0.9380
12133SOL    HW237688   8.562   5.113   6.887 -0.2675 -0.9791  1.6377
12134SOL     OW37689   8.411   5.530   6.980  0.1640 -0.6736 -0.4393
12134SOL    HW137690   8.414   5.572   7.066 -2.6029 -1.0243 -0.0918
12134SOL    HW237691   8.379   5.442   6.997 -0.6832 -0.6672 -1.8422
12135SOL     OW37692   6.911   8.558   1.095  0.1237 -0.2176 -0.7599
12135SOL    HW137693   6.904   8.486   1.032  1.4097  1.2732 -2.7010
12135SOL    HW237694   6.827   8.557   1.141 -0.1065 -2.5854 -1.0832
12136SOL     OW37695   3.234   1.941   3.581  0.0983  0.6668 -0.4699
12136SOL    HW137696   3.171   1.979   3.643  0.5295  0.1585  0.3039
12136SOL    HW237697   3.281   2.016   3.546 -0.7662  1.0353 -0.8729
12137SOL     OW37698   7.842   3.077   5.051 -0.4247 -0.0793 -0.3078
12137SOL    HW137699   7.865   3.105   5.139  0.6602  0.6597 -0.8014
12137SOL    HW237700   7.746   3.079   5.050 -0.4840 -0.8207  1.0564
12138SOL     OW37701   8.133   7.587   3.496  0.6997 -0.1426  0.2446
12138SOL    HW137702   8.177   7.505   3.475  0.8684 -0.1484  0.6176
12138SOL    HW237703   8.142   7.596   3.591  2.4679  1.3217 -0.0036
12139SOL     OW37704   5.273   2.623   4.059 -0.4816  1.0090  0.1300
12139SOL    HW137705   5.304   2.628   4.149  0.2125  0.4992 -0.0723
12139SOL    HW237706   5.285   2.712   4.025  0.5833  0.8774  0.1257
12140SOL     OW37707   4.932   5.090   0.273 -0.1046  0.3787  0.1781
12140SOL    HW137708   4.926   5.080   0.178 -2.0684 -0.0770  0.3185
12140SOL    HW237709   4.844   5.116   0.300  0.3263  0.1255  1.9188
12141SOL     OW37710   0.416   7.039   1.513 -0.2657  0.0560 -0.3818
12141SOL    HW137711   0.480   7.065   1.580 -0.0094 -0.4033 -0.4442
12141SOL    HW237712   0.454   7.070   1.431  0.1910 -0.7483 -0.4940
12142SOL     OW37713   5.017   3.919   3.031 -1.0141  0.8471 -0.4283
12142SOL    HW137714   4.994   3.991   2.971  0.6595  0.1254 -2.0459
12142SOL    HW237715   5.102   3.945   3.068 -0.3797 -0.2751 -1.0519
12143SOL     OW37716   1.001   6.329   7.552  0.3264 -0.3319 -0.3384
12143SOL    HW137717   1.033   6.418   7.567  1.1379 -0.7387  0.4519
12143SOL    HW237718   1.029   6.308   7.463 -2.6907  1.3474 -1.8473
12144SOL     OW37719   8.201   3.570   6.399  0.3119 -0.0796 -0.2626
12144SOL    HW137720   8.295   3.567   6.384  0.1688  0.0825 -1.3202
12144SOL    HW237721   8.166   3.614   6.321 -0.4003  2.3577  1.3219
12145SOL     OW37722   1.998   6.642   7.130 -0.0871 -0.3178 -0.0093
12145SOL    HW137723   2.073   6.643   7.190  0.5695  1.2983 -0.7971
12145SOL    HW237724   2.036   6.628   7.044 -0.7203  0.2748 -0.3944
12146SOL     OW37725   2.296   4.915   5.242  0.0427 -0.1533 -0.6368
12146SOL    HW137726   2.275   4.902   5.149  1.1496 -1.9948 -0.6739
12146SOL    HW237727   2.236   4.983   5.271  0.3456  1.2019 -2.9548
12147SOL     OW37728   2.814   5.648   2.701 -0.1040 -0.1602  0.4617
12147SOL    HW137729   2.906   5.623   2.691 -0.4861 -1.3678 -0.1688
12147SOL    HW237730   2.771   5.612   2.624 -1.3655 -0.8811  1.4820
12148SOL     OW37731   0.001   0.174   5.344  0.3021 -0.5682  0.1595
12148SOL    HW137732  -0.039   0.254   5.310 -1.4935 -1.0768  0.9904
12148SOL    HW237733   0.062   0.205   5.411  0.5674  0.1495 -0.3897
12149SOL     OW37734   7.002   7.146   5.655 -0.3947  0.2828 -0.6249
12149SOL    HW137735   6.991   7.147   5.560 -0.4629  0.5954 -0.6139
12149SOL    HW237736   6.997   7.238   5.681 -2.8907  0.0514 -0.0306
12150SOL     OW37737   3.612   4.425   8.491  0.6144 -0.4660  0.0202
12150SOL    HW137738   3.601   4.518   8.470 -0.1594 -0.6477 -0.4131
12150SOL    HW237739   3.706   4.410   8.482  1.2113  0.9243  2.8670
12151SOL     OW37740   6.728   4.130   3.053  0.2728 -1.4170  0.2574
12151SOL    HW137741   6.708   4.090   2.969 -0.1040 -0.2115 -0.2507
12151SOL    HW237742   6.821   4.154   3.047 -0.2843  0.7960 -0.7928
12152SOL     OW37743   7.280   7.630   0.869 -0.3201 -0.3014  0.0927
12152SOL    HW137744   7.219   7.556   0.868 -1.4493  0.5987 -0.8256
12152SOL    HW237745   7.325   7.625   0.785  0.8656 -0.9280  0.7437
12153SOL     OW37746   0.179   3.860   1.153  0.1573 -0.1783  0.5380
12153SOL    HW137747   0.232   3.930   1.116  1.1305 -0.8262  0.6777
12153SOL    HW237748   0.128   3.902   1.223 -0.4409  0.6990 -0.3895
12154SOL     OW37749   5.593   6.889   1.877 -0.1215  0.6826 -0.1146
12154SOL    HW137750   5.520   6.846   1.833 -0.1725  1.9761 -1.3844
12154SOL    HW237751   5.671   6.861   1.829 -0.1291  1.7418 -0.7815
12155SOL     OW37752   0.228   6.670   3.093  0.2256  0.5138  0.0614
12155SOL    HW137753   0.139   6.700   3.112 -0.0275 -0.3000  0.2167
12155SOL    HW237754   0.229   6.657   2.998  0.6440  1.9468 -0.1431
12156SOL     OW37755   1.270   3.129   6.232  0.9113  0.2767 -0.1453
12156SOL    HW137756   1.347   3.152   6.283  0.2225 -1.1197  1.6450
12156SOL    HW237757   1.201   3.116   6.298  0.0038 -1.7161 -1.3910
12157SOL     OW37758   4.968   7.851   1.222  0.0506  0.4697 -0.1276
12157SOL    HW137759   4.883   7.894   1.219 -0.5249 -0.6767 -2.0036
12157SOL    HW237760   5.028   7.913   1.181 -0.1737  0.6708 -0.1554
12158SOL     OW37761   0.333   2.202   3.764 -0.2705  0.4785  0.5468
12158SOL    HW137762   0.330   2.295   3.742 -0.4079  0.4655  0.5063
12158SOL    HW237763   0.257   2.164   3.718  0.7655  0.0401 -0.8627
12159SOL     OW37764   5.680   7.376   0.441 -0.6184 -0.3212 -0.0371
12159SOL    HW137765   5.586   7.386   0.429 -0.6025 -0.1902 -0.0577
12159SOL    HW237766   5.690   7.308   0.508 -0.7421  0.3974  0.7252
12160SOL     OW37767   4.035   8.376   6.728  0.5197 -0.3188 -0.5014
12160SOL    HW137768   4.034   8.376   6.632 -0.6861  2.2336 -0.5709
12160SOL    HW237769   4.115   8.423   6.750  1.0093 -1.2676 -0.2266
12161SOL     OW37770   8.700   2.359   7.239  0.1199  0.2295 -0.1738
12161SOL    HW137771   8.729   2.437   7.193 -0.3372 -0.0643 -0.9807
12161SOL    HW237772   8.767   2.344   7.306  0.5114  0.9716 -0.3938
12162SOL     OW37773   5.176   5.404   2.513 -0.0087 -0.5394  0.5190
12162SOL    HW137774   5.144   5.465   2.580 -0.8569 -1.3074  0.8402
12162SOL    HW237775   5.162   5.450   2.430  0.2164  0.0671  0.8135
12163SOL     OW37776   5.291   3.055   0.071 -0.0424  0.2398 -0.8393
12163SOL    HW137777   5.293   3.117  -0.002  0.9879  0.7570 -0.3833
12163SOL    HW237778   5.212   3.003   0.055 -1.1801  1.9320 -1.0142
12164SOL     OW37779   4.818   7.136   3.878  0.6283 -0.0115 -0.0490
12164SOL    HW137780   4.789   7.226   3.862  2.3398  0.4320 -0.9094
12164SOL    HW237781   4.771   7.084   3.812 -0.2070  0.2544  0.3160
12165SOL     OW37782   3.808   6.485   8.386  0.0298 -0.0429 -0.1704
12165SOL    HW137783   3.726   6.500   8.340 -0.4653 -0.8890  0.4117
12165SOL    HW237784   3.812   6.555   8.451 -0.2545 -0.0337 -0.1614
12166SOL     OW37785   1.166   5.103   7.320 -0.6966 -0.1412 -0.0078
12166SOL    HW137786   1.123   5.150   7.248 -0.9940 -0.4393 -0.0225
12166SOL    HW237787   1.098   5.093   7.386 -0.2074  0.8980  0.6915
12167SOL     OW37788   7.891   6.915   4.454  0.2790  0.7071  0.8387
12167SOL    HW137789   7.872   7.007   4.439 -2.1304  0.1595  0.0822
12167SOL    HW237790   7.987   6.911   4.462  0.6967  2.9139 -1.6470
12168SOL     OW37791   6.421   2.226   0.778 -0.1094 -0.0165 -0.1265
12168SOL    HW137792   6.333   2.264   0.775  0.2054  0.7686 -3.5211
12168SOL    HW237793   6.407   2.132   0.767 -0.5408  0.2047 -1.6916
12169SOL     OW37794   1.858   5.400   3.987  0.4649 -0.2042 -0.0492
12169SOL    HW137795   1.783   5.372   3.934  0.4402  0.2191 -0.2469
12169SOL    HW237796   1.837   5.373   4.076  0.0465 -0.0275 -0.0950
12170SOL     OW37797   3.911   0.333   1.673 -0.3380 -0.7635 -0.8340
12170SOL    HW137798   3.954   0.286   1.745 -1.0352  4.0440  3.2656
12170SOL    HW237799   3.819   0.308   1.679 -0.3637 -0.5204 -0.1060
12171SOL     OW37800   7.320   3.607   5.757  0.6502  0.1841 -0.2926
12171SOL    HW137801   7.410   3.614   5.790  1.3068  2.0062 -2.2511
12171SOL    HW237802   7.323   3.647   5.670 -1.7759 -1.0268 -1.0201
12172SOL     OW37803   2.025   3.591   2.214 -0.1833 -0.3098 -0.2881
12172SOL    HW137804   2.109   3.552   2.239 -1.1979 -1.3295  1.8088
12172SOL    HW237805   2.032   3.683   2.241  0.5327 -0.1747 -0.9001
12173SOL     OW37806   7.655   4.594   1.314  0.8833 -0.0745  0.3305
12173SOL    HW137807   7.680   4.514   1.361  0.2649 -0.5702 -0.1561
12173SOL    HW237808   7.733   4.618   1.264  1.2736 -0.0202  0.9623
12174SOL     OW37809   8.636   3.018   4.644  0.0216  0.5040  0.3274
12174SOL    HW137810   8.620   3.001   4.737 -1.7907  0.2017 -0.0138
12174SOL    HW237811   8.633   2.932   4.603  1.8989  0.4977  0.0891
12175SOL     OW37812   3.740   7.255   8.152 -0.5717  0.6103 -0.1479
12175SOL    HW137813   3.720   7.163   8.138 -1.3771  0.5828  0.9921
12175SOL    HW237814   3.813   7.255   8.214 -0.3009  0.7341 -0.4673
12176SOL     OW37815   4.380   5.980   3.937  0.1545  0.0238  0.0420
12176SOL    HW137816   4.397   5.932   3.856  1.4098  1.2049 -0.4254
12176SOL    HW237817   4.407   6.070   3.918  1.1982  0.1811  2.0009
12177SOL     OW37818   8.699   6.301   0.877  0.6670  0.3017  0.5970
12177SOL    HW137819   8.741   6.323   0.960  0.6830 -0.4241  0.7883
12177SOL    HW237820   8.609   6.279   0.901  0.5938  0.3623  0.3811
12178SOL     OW37821   2.414   3.839   1.328 -0.1910 -0.0298  0.4377
12178SOL    HW137822   2.482   3.861   1.264 -1.4678 -0.0583 -0.9755
12178SOL    HW237823   2.463   3.815   1.407  1.4024  2.1963  0.2357
12179SOL     OW37824   6.239   6.775   7.684 -0.3227 -0.8435 -0.3879
12179SOL    HW137825   6.179   6.835   7.640  1.5353  1.9778  0.5957
12179SOL    HW237826   6.202   6.764   7.772  0.2998  0.5327  0.0739
12180SOL     OW37827   0.310   7.198   6.093  0.4515 -0.2859  0.0045
12180SOL    HW137828   0.315   7.134   6.164 -1.2440 -0.4472  0.0315
12180SOL    HW237829   0.239   7.166   6.038  0.6943  0.6928 -0.8957
12181SOL     OW37830   2.913   4.517   7.284 -0.2550  0.3694  0.5519
12181SOL    HW137831   2.897   4.443   7.225  2.7315 -2.3240  2.7730
12181SOL    HW237832   2.959   4.581   7.229  0.4790 -1.0924 -0.6156
12182SOL     OW37833   4.983   4.199   2.197  0.3458  0.1414  0.5686
12182SOL    HW137834   4.918   4.199   2.128  0.1630 -0.9187  0.7212
12182SOL    HW237835   5.061   4.238   2.157  0.8893 -2.2399 -0.9135
12183SOL     OW37836   3.529   1.041   4.201  0.2276  0.3830  0.1576
12183SOL    HW137837   3.532   0.958   4.248  1.1987  1.0891  1.4204
12183SOL    HW237838   3.495   1.104   4.265  0.3467  1.1201 -0.4855
12184SOL     OW37839   1.062   2.752   1.804  0.2114 -0.2946 -0.3037
12184SOL    HW137840   1.085   2.670   1.848  0.9400 -0.1189 -0.3561
12184SOL    HW237841   1.096   2.743   1.716  0.9049  0.3388 -0.1081
12185SOL     OW37842   3.237   8.502   2.400 -0.0111  0.2169 -0.0001
12185SOL    HW137843   3.237   8.413   2.367 -0.5572 -0.3237  1.3795
12185SOL    HW237844   3.262   8.494   2.492  0.0010  1.4922  0.1307
12186SOL     OW37845   1.740   8.571   8.529 -0.5859  0.0688 -0.1734
12186SOL    HW137846   1.693   8.531   8.602  0.2726  0.8148  0.8042
12186SOL    HW237847   1.831   8.575   8.558 -0.5049  1.9498 -0.5744
12187SOL     OW37848   1.336   1.132   5.239 -0.3889  0.2343 -0.0162
12187SOL    HW137849   1.312   1.043   5.267 -0.4636  0.5585  0.9850
12187SOL    HW237850   1.417   1.150   5.288  1.6203 -0.5732 -2.7608
12188SOL     OW37851   1.373   6.627   7.399  0.0017 -1.0100  0.2289
12188SOL    HW137852   1.453   6.677   7.407 -0.2310 -0.6445  0.2802
12188SOL    HW237853   1.385   6.552   7.458  1.3376 -2.3420 -1.6126
12189SOL     OW37854   6.781   4.917   1.234 -0.1366 -0.3315 -0.5259
12189SOL    HW137855   6.798   4.980   1.303  0.4988  0.0582 -1.0377
12189SOL    HW237856   6.692   4.885   1.253 -0.0182 -0.1378  0.3878
12190SOL     OW37857   2.973   0.024   2.759  0.2718  0.9683  0.3300
12190SOL    HW137858   2.984  -0.016   2.673  1.6274  2.7151 -0.3766
12190SOL    HW237859   2.947   0.115   2.740  1.8123  1.7532  1.6960
12191SOL     OW37860   5.066   2.919   3.813  0.2669 -0.2796  0.1131
12191SOL    HW137861   5.158   2.896   3.820  0.6271  0.9176 -0.3386
12191SOL    HW237862   5.066   3.015   3.811 -1.0377 -0.2461  0.7902
12192SOL     OW37863   2.403   8.275   5.788 -0.4936  0.4196 -0.2954
12192SOL    HW137864   2.377   8.363   5.814 -0.4108  0.1929  0.5745
12192SOL    HW237865   2.359   8.217   5.851 -0.2924 -0.1436 -0.6623
12193SOL     OW37866   5.736   1.715   8.706  0.0473  0.3546 -0.5460
12193SOL    HW137867   5.649   1.677   8.718  0.5191 -0.5677  0.0752
12193SOL    HW237868   5.722   1.809   8.717 -0.9502  0.2795 -0.9677
12194SOL     OW37869   2.081   8.438   5.744 -0.2825  0.2688 -0.4460
12194SOL    HW137870   2.068   8.360   5.797 -0.3997 -0.9157 -2.1287
12194SOL    HW237871   2.001   8.489   5.756 -1.0384 -0.8060 -0.7892
12195SOL     OW37872   1.434   5.632   0.101 -0.8019  0.0772 -0.4119
12195SOL    HW137873   1.482   5.582   0.035 -1.0337  0.3103 -0.7608
12195SOL    HW237874   1.344   5.599   0.096 -0.5713 -0.7737  0.6471
12196SOL     OW37875   3.696   6.322   1.979 -0.1342  0.2152 -0.7406
12196SOL    HW137876   3.666   6.406   1.946 -1.4837 -0.7046 -1.9763
12196SOL    HW237877   3.633   6.300   2.049  0.2607  0.2708 -0.3657
12197SOL     OW37878   0.817   4.700   6.622 -1.1780 -0.7204 -0.5535
12197SOL    HW137879   0.864   4.737   6.547  0.1696 -0.4517  0.3650
12197SOL    HW237880   0.729   4.737   6.617 -0.6707  0.4461 -1.2015
12198SOL     OW37881   2.463   6.660   0.935  0.0722  0.1082 -0.1671
12198SOL    HW137882   2.482   6.753   0.928  1.3531 -0.0008  1.2989
12198SOL    HW237883   2.379   6.655   0.979  0.4910  0.5769  0.7045
12199SOL     OW37884   2.181   6.730   0.963 -0.0292  0.1545 -0.1302
12199SOL    HW137885   2.161   6.667   1.031 -0.8181  0.3776 -0.1466
12199SOL    HW237886   2.173   6.815   1.005  1.3441  0.2581 -0.0239
12200SOL     OW37887   7.305   7.443   1.210 -0.3200  0.1111  0.7530
12200SOL    HW137888   7.213   7.457   1.188 -0.0149  0.9641 -0.0547
12200SOL    HW237889   7.303   7.390   1.290 -1.5040 -1.8980 -0.5137
12201SOL     OW37890   8.593   2.217   1.023  0.3797 -0.1372  0.3000
12201SOL    HW137891   8.506   2.177   1.022  0.0646  0.5149 -1.0784
12201SOL    HW237892   8.651   2.147   0.994 -0.0991  0.1750 -1.5785
12202SOL     OW37893   3.979   7.080   0.852  0.0774 -0.2367  0.1860
12202SOL    HW137894   3.998   7.153   0.792  0.9550  0.2557  1.0373
12202SOL    HW237895   3.937   7.014   0.797  0.6139  0.3180 -0.9159
12203SOL     OW37896   0.581   6.943   0.355 -0.5877  0.1517 -0.4530
12203SOL    HW137897   0.631   6.990   0.289 -0.6985 -1.8103 -2.0314
12203SOL    HW237898   0.489   6.958   0.331 -0.6245 -0.8525 -1.0200
12204SOL     OW37899   3.510   6.718   6.784  0.1113 -0.0472  0.7731
12204SOL    HW137900   3.454   6.744   6.711  0.1488 -0.4582  0.6018
12204SOL    HW237901   3.493   6.625   6.796  0.7175 -0.1585  0.7645
12205SOL     OW37902   6.599   2.385   1.702  0.7812  0.2100  0.3249
12205SOL    HW137903   6.675   2.369   1.759  0.4255 -0.7465  0.5528
12205SOL    HW237904   6.609   2.323   1.630 -0.0165 -0.2473  0.5939
12206SOL     OW37905   6.169   0.952   3.590  0.1937 -0.0486  0.4381
12206SOL    HW137906   6.218   0.899   3.527 -1.9775  0.3417 -1.7126
12206SOL    HW237907   6.184   1.043   3.561 -1.6611  0.0832 -0.2604
12207SOL     OW37908   0.078   1.763   2.536 -0.1328  0.4041  0.0228
12207SOL    HW137909  -0.007   1.725   2.559 -0.2525  0.2431 -0.6748
12207SOL    HW237910   0.064   1.803   2.450  0.4855  0.4063 -0.0774
12208SOL     OW37911   1.626   4.065   6.949 -0.7069  0.4156 -0.4386
12208SOL    HW137912   1.717   4.070   6.920 -0.0749 -0.9273  1.1645
12208SOL    HW237913   1.599   4.156   6.959  1.7917  0.9606  2.9046
12209SOL     OW37914   6.063   5.811   5.029  0.4769  0.0614 -0.4499
12209SOL    HW137915   5.977   5.820   5.071  1.1969  1.3595  0.8382
12209SOL    HW237916   6.077   5.894   4.985  2.5132  1.3296  2.3090
12210SOL     OW37917   7.782   0.166   4.178  0.3033 -0.5812  0.0625
12210SOL    HW137918   7.733   0.103   4.125  0.1839 -2.0086  1.7510
12210SOL    HW237919   7.862   0.120   4.202  0.6190  0.2367  0.6334
12211SOL     OW37920   6.563   3.695   8.516  0.0839 -0.2273  0.2975
12211SOL    HW137921   6.549   3.775   8.465 -2.0567  0.9237  2.4727
12211SOL    HW237922   6.490   3.638   8.492  0.2238 -0.5196  0.5604
12212SOL     OW37923   0.664   1.711   4.263 -0.0496 -0.3739  0.0260
12212SOL    HW137924   0.633   1.626   4.232 -3.4056 -1.3761  4.8812
12212SOL    HW237925   0.741   1.689   4.317  0.2999 -0.0236 -0.3295
12213SOL     OW37926   4.168   1.329   2.152  0.2366 -0.0364  0.0661
12213SOL    HW137927   4.219   1.346   2.232 -0.8515  1.3462  0.5035
12213SOL    HW237928   4.150   1.235   2.155 -2.0058  0.3271  2.9027
12214SOL     OW37929   6.294   3.377   3.402 -0.4697  0.2368  0.2136
12214SOL    HW137930   6.365   3.380   3.466  0.7686  1.5165 -1.1176
12214SOL    HW237931   6.214   3.368   3.453  0.5785 -0.3141  1.8166
12215SOL     OW37932   4.270   4.700   8.604 -0.0897  0.1013  0.0480
12215SOL    HW137933   4.292   4.626   8.548 -0.6306 -1.2247  1.4998
12215SOL    HW237934   4.354   4.732   8.637  0.0599 -0.9699  0.7347
12216SOL     OW37935   7.417   2.488   7.168  0.7239 -0.3009 -0.1649
12216SOL    HW137936   7.376   2.516   7.086  1.6457  0.3592 -0.4168
12216SOL    HW237937   7.509   2.514   7.159  1.2117 -1.7110  0.3931
12217SOL     OW37938   8.352   7.624   8.053 -0.4620  0.2685 -0.5193
12217SOL    HW137939   8.289   7.563   8.093 -1.1598  0.9407 -0.5817
12217SOL    HW237940   8.379   7.681   8.124 -1.2198  1.0578 -0.8449
12218SOL     OW37941   5.202   6.276   1.190  0.5786 -0.1396  0.1139
12218SOL    HW137942   5.154   6.326   1.124  2.0679  2.0471  0.5734
12218SOL    HW237943   5.134   6.238   1.246 -0.6352  0.7607 -0.7057
12219SOL     OW37944   7.841   7.973   1.019  0.5056 -0.1745  0.0845
12219SOL    HW137945   7.829   8.016   0.935 -1.7450  0.0126  0.4358
12219SOL    HW237946   7.813   8.037   1.084  0.7997 -0.8238  0.8763
12220SOL     OW37947   0.391   0.132   8.684 -0.2903 -0.2799  0.2054
12220SOL    HW137948   0.364   0.222   8.664 -1.6305 -0.6943  0.0307
12220SOL    HW237949   0.411   0.094   8.598  0.0580 -0.2210  0.2588
12221SOL     OW37950   8.100   2.174   0.284  0.0647 -0.3676  0.4300
12221SOL    HW137951   8.032   2.141   0.225 -1.2394 -0.1457  1.7363
12221SOL    HW237952   8.175   2.192   0.227 -1.6426  1.3652 -1.4503
12222SOL     OW37953   5.303   1.466   7.007 -0.0900  0.1076 -0.5459
12222SOL    HW137954   5.266   1.485   7.093  1.6111 -1.0915  0.5266
12222SOL    HW237955   5.342   1.549   6.979 -1.5839  0.7880 -0.6880
12223SOL     OW37956   1.509   7.246   6.000  0.0674  0.6098 -0.6123
12223SOL    HW137957   1.599   7.231   5.970  0.2116  0.1469  0.0112
12223SOL    HW237958   1.517   7.317   6.065  0.0035  0.4878 -0.4694
12224SOL     OW37959   7.398   2.685   1.931  0.4514  0.1052  0.4349
12224SOL    HW137960   7.344   2.746   1.881  0.6703  0.0555  0.1321
12224SOL    HW237961   7.459   2.741   1.978 -0.1764  0.1902  1.1659
12225SOL     OW37962   6.822   0.208   0.224  0.5170  0.4703 -0.5097
12225SOL    HW137963   6.901   0.193   0.277 -0.6073 -3.0458  0.4891
12225SOL    HW237964   6.752   0.218   0.289 -0.0175  3.2926 -1.3862
12226SOL     OW37965   3.691   0.520   7.331  0.3917 -0.3381 -0.1926
12226SOL    HW137966   3.651   0.592   7.283  0.9237 -0.4371 -0.8091
12226SOL    HW237967   3.648   0.441   7.297  0.1247 -0.3484  0.1598
12227SOL     OW37968   0.115   0.533   7.434  0.0472  0.2818 -0.8569
12227SOL    HW137969   0.049   0.602   7.430 -1.1899 -0.8270 -0.2649
12227SOL    HW237970   0.174   0.552   7.361 -1.1742  1.0541 -1.6840
12228SOL     OW37971   8.209   5.965   3.567 -0.2025 -0.5783 -0.2709
12228SOL    HW137972   8.201   5.939   3.659 -0.1226 -1.5417 -0.5217
12228SOL    HW237973   8.263   6.044   3.568  0.2851 -0.9147  0.4621
12229SOL     OW37974   6.258   3.182   6.283  0.1065 -0.0060  0.1213
12229SOL    HW137975   6.262   3.210   6.374  2.6607 -1.5921  0.5851
12229SOL    HW237976   6.222   3.094   6.286  0.7984 -0.3131 -0.3131
12230SOL     OW37977   1.342   6.070   6.878 -0.5508 -0.7188  0.3019
12230SOL    HW137978   1.392   6.050   6.958 -1.6856 -2.3994  0.6458
12230SOL    HW237979   1.386   6.021   6.809  0.6183  0.9823 -0.2224
12231SOL     OW37980   5.233   7.750   1.860  0.1086  0.2885  0.1139
12231SOL    HW137981   5.266   7.771   1.947 -1.7543  1.4664  0.5855
12231SOL    HW237982   5.151   7.703   1.876  0.5798 -1.0084 -1.0285
12232SOL     OW37983   3.773   0.263   0.089 -0.3232 -0.0705  0.0883
12232SOL    HW137984   3.743   0.182   0.048 -0.2930 -1.1170  2.0377
12232SOL    HW237985   3.697   0.294   0.139  0.2656  0.0074  0.9593
12233SOL     OW37986   8.246   3.977   1.520  0.0321 -0.2474  0.1957
12233SOL    HW137987   8.216   4.060   1.556  1.7003  0.4558  0.0604
12233SOL    HW237988   8.340   3.988   1.508  0.0546 -1.5871 -1.3377
12234SOL     OW37989   6.407   1.129   1.631  0.0814 -0.3785  0.4943
12234SOL    HW137990   6.334   1.191   1.634 -0.4312 -0.9356 -0.1674
12234SOL    HW237991   6.431   1.117   1.722  0.3181  0.9313  0.6347
12235SOL     OW37992   2.335   8.504   5.925 -0.0515 -0.1866  0.0820
12235SOL    HW137993   2.369   8.584   5.965 -1.1856  0.0470  0.6257
12235SOL    HW237994   2.263   8.533   5.869  0.0368 -0.7477 -0.3342
12236SOL     OW37995   6.419   0.479   0.380 -0.7144  0.0841 -0.1304
12236SOL    HW137996   6.417   0.471   0.284 -0.0684  1.6288 -0.3006
12236SOL    HW237997   6.415   0.573   0.396  1.9369  0.0496  1.2609
12237SOL     OW37998   1.565   3.152   0.706 -0.3860 -0.2371  0.1623
12237SOL    HW137999   1.601   3.207   0.636  0.1279 -0.2232  0.4341
12237SOL    HW238000   1.476   3.133   0.678 -0.7813  1.2225  0.3189
12238SOL     OW38001   4.799   0.101   6.964 -0.3976 -0.3113 -0.2698
12238SOL    HW138002   4.893   0.093   6.977 -0.4275 -2.6842 -0.9475
12238SOL    HW238003   4.782   0.195   6.965  1.9450  0.1711 -0.0474
12239SOL     OW38004   0.040   1.971   4.250  0.7139  1.0015  0.0656
12239SOL    HW138005   0.100   1.928   4.312  0.9659  1.0031 -0.1748
12239SOL    HW238006   0.094   1.986   4.172 -0.1882 -1.1012 -1.0482
12240SOL     OW38007   2.740   4.119   3.601 -0.1108 -0.1296 -0.2398
12240SOL    HW138008   2.743   4.024   3.608  0.5151 -0.0234  1.2670
12240SOL    HW238009   2.646   4.140   3.607 -0.2177 -0.6242 -0.1326
12241SOL     OW38010   3.767   4.226   7.627  0.4166  0.3863  0.0422
12241SOL    HW138011   3.740   4.302   7.576 -0.5170  1.6387  2.2863
12241SOL    HW238012   3.688   4.195   7.670  1.2362 -0.3317  1.1083
12242SOL     OW38013   6.476   6.126   6.190  0.0327  0.0751  0.0630
12242SOL    HW138014   6.521   6.208   6.212 -0.7796  0.2415  1.1392
12242SOL    HW238015   6.504   6.108   6.100  2.0930  0.2738  0.5942
12243SOL     OW38016   1.499   1.570   7.243 -0.3959 -0.1652 -0.0739
12243SOL    HW138017   1.410   1.577   7.279 -0.2027 -1.2970  0.6502
12243SOL    HW238018   1.554   1.547   7.317  0.5576  0.7389 -0.4813
12244SOL     OW38019   5.442   1.826   8.015  0.3917  0.1795 -0.0895
12244SOL    HW138020   5.428   1.904   7.963 -1.1617 -0.7298 -1.1321
12244SOL    HW238021   5.424   1.853   8.105 -1.5528  0.7169 -0.6013
12245SOL     OW38022   8.208   2.260   3.753 -0.5015 -0.0632  0.4124
12245SOL    HW138023   8.256   2.178   3.767 -1.0276 -0.1968  1.5247
12245SOL    HW238024   8.273   2.328   3.773  0.9462 -0.0098 -3.4883
12246SOL     OW38025   3.988   2.270   2.284  0.1169 -0.1075 -0.0402
12246SOL    HW138026   3.904   2.230   2.304 -0.1324  0.2522 -0.3696
12246SOL    HW238027   4.006   2.328   2.357 -1.8534  2.9443 -1.7847
12247SOL     OW38028   4.148   8.483   5.824 -0.0241  0.0378  0.4949
12247SOL    HW138029   4.234   8.504   5.787 -0.5605 -2.6735 -2.7058
12247SOL    HW238030   4.163   8.402   5.874 -0.6439 -0.1927  0.3112
12248SOL     OW38031   3.290   7.908   3.604  0.1591 -0.4361  0.2304
12248SOL    HW138032   3.200   7.901   3.633  1.0870 -0.5782  3.3813
12248SOL    HW238033   3.291   7.984   3.546 -1.5081  1.3488  2.3884
12249SOL     OW38034   3.765   4.576   1.563  0.1920 -0.0001 -0.0208
12249SOL    HW138035   3.740   4.501   1.617  0.8000 -0.2870 -0.1274
12249SOL    HW238036   3.832   4.542   1.503  0.4136  0.6047 -0.1309
12250SOL     OW38037   3.797   7.653   6.952 -0.3072 -0.6752 -0.6112
12250SOL    HW138038   3.784   7.746   6.935 -1.0270 -0.9124 -1.4012
12250SOL    HW238039   3.892   7.644   6.959 -0.1290 -0.1042 -1.9321
12251SOL     OW38040   8.665   8.360   2.184 -0.0271 -0.7495  0.3055
12251SOL    HW138041   8.710   8.444   2.192 -1.3780 -0.0248  0.8265
12251SOL    HW238042   8.710   8.303   2.246  1.1259 -0.5308 -0.3026
12252SOL     OW38043   5.197   2.487   6.042 -0.5702 -0.0882  0.2525
12252SOL    HW138044   5.155   2.537   6.113 -1.7328  1.8244 -1.6629
12252SOL    HW238045   5.279   2.533   6.026 -0.9228  0.2999 -0.4842
12253SOL     OW38046   8.101   6.139   1.834 -0.0180 -0.1094  0.4702
12253SOL    HW138047   8.174   6.183   1.878 -0.4238  0.4532  0.5976
12253SOL    HW238048   8.023   6.172   1.879 -0.3321 -1.0470  0.6345
12254SOL     OW38049   5.033   3.867   1.449 -0.1540  0.2857  0.2604
12254SOL    HW138050   5.088   3.808   1.501  0.0530  0.4961  0.2830
12254SOL    HW238051   5.026   3.947   1.502 -0.6592  0.1817  0.3523
12255SOL     OW38052   1.276   4.070   4.986 -0.2308 -0.0138  0.0208
12255SOL    HW138053   1.333   4.002   4.950 -0.0497  0.0619  0.1621
12255SOL    HW238054   1.283   4.059   5.081 -2.0055 -1.3058  0.0597
12256SOL     OW38055   0.752   0.198   4.820  0.2424  0.1144 -0.0655
12256SOL    HW138056   0.687   0.206   4.750 -1.3125 -1.0295  1.1795
12256SOL    HW238057   0.716   0.249   4.892  1.4084  0.5744  0.2204
12257SOL     OW38058   2.738   2.832   7.095 -0.0820  0.2502  0.2121
12257SOL    HW138059   2.812   2.795   7.046  0.2928  0.0220  0.9451
12257SOL    HW238060   2.661   2.790   7.056  0.1529  0.5904 -0.6519
12258SOL     OW38061   8.149   6.759   5.420 -0.2535  0.0757  0.3625
12258SOL    HW138062   8.095   6.784   5.495  2.7008  3.0563  1.7994
12258SOL    HW238063   8.219   6.705   5.458 -0.9755 -2.0081 -1.0851
12259SOL     OW38064   7.157   6.212   5.985 -0.6122  0.5806  0.1075
12259SOL    HW138065   7.193   6.281   5.929 -0.0901 -1.7404 -2.6576
12259SOL    HW238066   7.228   6.148   5.993 -1.9610 -1.0074  0.0299
12260SOL     OW38067   7.805   0.839   7.419  0.2002 -0.6239  0.3735
12260SOL    HW138068   7.807   0.746   7.442  1.6863 -0.0696  2.7839
12260SOL    HW238069   7.726   0.873   7.462  0.7271 -0.4024  1.1798
12261SOL     OW38070   6.768   6.075   5.078  0.0668 -0.0345 -0.4274
12261SOL    HW138071   6.722   6.080   5.162  0.6942  2.1749 -0.1608
12261SOL    HW238072   6.792   5.983   5.069  0.8962 -0.1694  2.3377
12262SOL     OW38073   2.101   1.507   1.359  0.2516 -0.3526  0.1056
12262SOL    HW138074   2.142   1.439   1.306 -0.1760 -0.0650 -0.6037
12262SOL    HW238075   2.168   1.574   1.368  1.1346 -1.4129  1.9062
12263SOL     OW38076   0.438   3.591   2.513  0.2975  0.1428  0.6343
12263SOL    HW138077   0.362   3.646   2.534 -0.5361 -0.7567  0.0138
12263SOL    HW238078   0.408   3.501   2.526  0.5825 -0.3390 -1.6761
12264SOL     OW38079   3.475   0.385   2.632  0.1204 -0.5423 -0.1250
12264SOL    HW138080   3.484   0.335   2.714  1.2893 -0.2988 -0.0880
12264SOL    HW238081   3.386   0.420   2.636  0.5252  0.4191  1.6047
12265SOL     OW38082   2.969   4.186   2.004  0.3368 -0.2799  0.3290
12265SOL    HW138083   2.939   4.277   2.006 -2.0733 -1.0229  1.4566
12265SOL    HW238084   3.028   4.179   2.079 -0.9042 -0.0616  1.3566
12266SOL     OW38085   4.634   8.256   1.789  0.1820 -0.0285  0.5771
12266SOL    HW138086   4.723   8.224   1.805  1.1272 -0.0072 -3.6538
12266SOL    HW238087   4.638   8.349   1.810  1.8801  0.4571 -1.6511
12267SOL     OW38088   0.104   1.398   8.248  0.1071 -0.3345  0.4537
12267SOL    HW138089   0.132   1.405   8.157  0.1055 -0.1940  0.4649
12267SOL    HW238090   0.049   1.474   8.263 -1.2086 -1.1934  0.1018
12268SOL     OW38091   6.459   5.520   5.257 -0.5460 -0.2094 -0.0395
12268SOL    HW138092   6.539   5.561   5.224 -0.3241  0.6121  1.4219
12268SOL    HW238093   6.388   5.568   5.214 -0.2799 -0.8401 -1.2273
12269SOL     OW38094   3.689   2.101   7.785 -0.2146 -0.0438 -0.9443
12269SOL    HW138095   3.650   2.153   7.855  1.1458  1.0799 -0.9804
12269SOL    HW238096   3.630   2.027   7.775 -0.4907 -0.2093  1.3396
12270SOL     OW38097   2.173   1.582   6.702  0.1166  0.0397 -0.0104
12270SOL    HW138098   2.161   1.493   6.671 -1.4975  0.1966  0.1045
12270SOL    HW238099   2.246   1.576   6.764 -2.2349 -1.9538  2.8308
12271SOL     OW38100   1.919   7.976   4.837 -0.5107  0.3881 -0.1223
12271SOL    HW138101   2.013   7.962   4.834 -0.8459 -3.7338  1.7182
12271SOL    HW238102   1.900   7.992   4.929 -1.7574 -1.7563  0.0711
12272SOL     OW38103   7.057   8.332   7.048 -0.3724 -0.2490 -0.0579
12272SOL    HW138104   6.978   8.347   7.100 -0.7721 -0.4648 -0.5845
12272SOL    HW238105   7.116   8.284   7.106 -0.4691  0.2746  0.4723
12273SOL     OW38106   3.167   7.996   2.628 -0.6022  0.3840  0.0909
12273SOL    HW138107   3.230   7.948   2.574 -0.8875 -0.8340  0.8137
12273SOL    HW238108   3.099   7.932   2.648 -2.0223  1.6421 -0.5669
12274SOL     OW38109   3.636   4.127   2.714 -0.3350  0.3857 -0.3359
12274SOL    HW138110   3.606   4.172   2.634 -1.3251 -0.7548 -0.6237
12274SOL    HW238111   3.561   4.129   2.772 -1.2503 -2.8699 -1.2156
12275SOL     OW38112   5.058   3.894   0.900  0.0982 -0.0795 -0.0150
12275SOL    HW138113   5.061   3.890   0.995 -0.7150 -1.5715 -0.0158
12275SOL    HW238114   5.149   3.909   0.873  0.2797  0.6701  0.9991
12276SOL     OW38115   7.317   5.028   1.287 -0.7765  0.4425  0.8126
12276SOL    HW138116   7.362   4.946   1.304 -0.2179  0.0664 -1.9451
12276SOL    HW238117   7.373   5.095   1.325  0.6598 -0.2262 -0.0737
12277SOL     OW38118   7.518   1.368   7.202  0.4750 -0.1466 -0.1824
12277SOL    HW138119   7.542   1.447   7.153  2.0030  1.0007  2.2168
12277SOL    HW238120   7.425   1.381   7.222 -0.1026 -0.4814 -2.3207
12278SOL     OW38121   7.779   0.693   4.022 -0.1630  0.1564 -0.5953
12278SOL    HW138122   7.771   0.648   3.938  0.9287 -1.0548 -0.0689
12278SOL    HW238123   7.690   0.726   4.039 -0.4543  0.2363 -2.1001
12279SOL     OW38124   3.106   6.176   7.248 -0.2736  0.6355  0.3502
12279SOL    HW138125   3.165   6.251   7.258  0.7177 -0.0878  0.1466
12279SOL    HW238126   3.052   6.198   7.172  0.4551  0.8695 -0.1161
12280SOL     OW38127   5.694   8.547   8.081  0.3176 -0.5641  0.3332
12280SOL    HW138128   5.743   8.590   8.011  0.8267 -2.4906 -0.5490
12280SOL    HW238129   5.754   8.544   8.155  0.9824 -1.4830 -0.2309
12281SOL     OW38130   8.101   0.733   5.670 -0.6739  0.0051  0.4121
12281SOL    HW138131   8.157   0.712   5.745  0.3187  0.3471 -0.2074
12281SOL    HW238132   8.132   0.818   5.640 -1.4922  0.1686  0.0103
12282SOL     OW38133   5.967   4.831   4.398 -0.4629  0.5636 -0.3487
12282SOL    HW138134   6.035   4.848   4.333 -0.1633  0.4749 -0.0625
12282SOL    HW238135   5.925   4.915   4.412 -1.4850  0.3095 -1.7097
12283SOL     OW38136   3.559   7.991   8.120 -0.0438  0.7104  0.0949
12283SOL    HW138137   3.464   7.988   8.116  0.0310 -0.7869 -2.2497
12283SOL    HW238138   3.586   7.900   8.132  1.1156  1.0582  0.2518
12284SOL     OW38139   2.940   5.247   6.468 -0.0380  0.4560  0.2932
12284SOL    HW138140   2.892   5.184   6.414  0.9816 -1.1864  1.2284
12284SOL    HW238141   2.875   5.280   6.529  0.1213 -2.7413  2.4467
12285SOL     OW38142   8.601   7.122   7.702 -0.2995 -0.3003  0.3053
12285SOL    HW138143   8.565   7.060   7.765 -0.2263 -0.0075  0.6355
12285SOL    HW238144   8.668   7.072   7.655  0.9147 -0.0265  1.6769
12286SOL     OW38145   5.208   0.931   1.598  0.1779 -0.1367  0.5707
12286SOL    HW138146   5.195   0.915   1.692  0.0413 -0.7155  0.4499
12286SOL    HW238147   5.297   0.966   1.593  0.0180  0.3396  0.9671
12287SOL     OW38148   6.007   7.844   8.255 -0.2664 -0.1127  0.1292
12287SOL    HW138149   6.035   7.890   8.176  1.1383 -1.2208 -0.0453
12287SOL    HW238150   6.074   7.864   8.320 -1.7716  1.3747  1.3155
12288SOL     OW38151   5.114   0.779   2.124  0.6312  0.2983 -0.3908
12288SOL    HW138152   5.031   0.789   2.170  1.1543 -0.4398  0.7680
12288SOL    HW238153   5.180   0.774   2.193  1.4497 -0.9067 -1.1964
12289SOL     OW38154   1.461   4.002   2.412  0.1976  0.3033  0.3906
12289SOL    HW138155   1.435   4.021   2.321 -1.0970  0.6843  0.8175
12289SOL    HW238156   1.459   4.088   2.455  0.0032  0.0064  0.9721
12290SOL     OW38157   0.973   4.701   4.625 -0.6748 -0.2650 -0.2657
12290SOL    HW138158   1.014   4.723   4.541  0.0155 -0.9568 -0.1104
12290SOL    HW238159   0.881   4.684   4.603 -1.1969  2.2837 -0.4741
12291SOL     OW38160   5.240   3.049   4.076  0.1258 -0.7172 -0.5353
12291SOL    HW138161   5.204   3.138   4.067  2.0750  0.1297 -0.4383
12291SOL    HW238162   5.257   3.021   3.986  0.5611 -0.5178 -0.5192
12292SOL     OW38163   5.864   2.034   8.511  0.0963 -0.4248  0.5104
12292SOL    HW138164   5.898   1.999   8.593  2.9267  1.5944  0.3304
12292SOL    HW238165   5.922   2.107   8.490 -1.2649 -0.1100 -2.6973
12293SOL     OW38166   3.060   2.343   6.436 -0.3611 -0.4711  0.0522
12293SOL    HW138167   3.114   2.331   6.514 -1.0139  1.0454  0.7780
12293SOL    HW238168   3.118   2.321   6.363  1.4570  1.5925  0.7557
12294SOL     OW38169   0.944   7.277   3.302  0.0207  0.2328 -0.1393
12294SOL    HW138170   0.873   7.340   3.313 -0.4546 -0.5327  1.6794
12294SOL    HW238171   0.910   7.213   3.239 -0.2832  0.7297 -0.4830
12295SOL     OW38172   2.052   6.467   5.358 -0.0255  0.1010 -0.0671
12295SOL    HW138173   2.021   6.490   5.446 -0.1749  0.9509 -0.3334
12295SOL    HW238174   2.015   6.380   5.342 -0.2685  0.0781  0.5824
12296SOL     OW38175   7.089   7.452   8.153 -0.9555 -0.1205  0.9572
12296SOL    HW138176   7.168   7.455   8.098 -1.8894 -0.4576 -0.4444
12296SOL    HW238177   7.122   7.465   8.242  0.6419  0.1231  0.3679
12297SOL     OW38178   2.535   8.003   3.796 -0.8088  0.1558 -0.5160
12297SOL    HW138179   2.556   8.096   3.786 -0.5081 -0.0564 -2.0924
12297SOL    HW238180   2.615   7.957   3.772 -1.8586 -0.5621 -2.8642
12298SOL     OW38181   0.687   0.360   5.018  0.3696 -0.3254 -0.2425
12298SOL    HW138182   0.597   0.395   5.018  0.7291  0.6745 -1.7649
12298SOL    HW238183   0.716   0.371   5.108 -0.8594 -0.2059  0.1702
12299SOL     OW38184   2.856   3.775   8.444 -0.6512  0.2177 -0.0912
12299SOL    HW138185   2.915   3.776   8.369 -0.1828 -0.5916  0.2485
12299SOL    HW238186   2.826   3.865   8.453  0.3547  0.5943 -0.4188
12300SOL     OW38187   0.416   2.912   3.149 -0.0251  0.1707  0.4952
12300SOL    HW138188   0.467   2.832   3.140  2.0630  1.4596  0.2067
12300SOL    HW238189   0.456   2.974   3.088 -0.7498  1.8364  1.6210
12301SOL     OW38190   1.887   1.477   3.369 -0.3703 -0.0791  0.5603
12301SOL    HW138191   1.911   1.557   3.416  1.3880  0.0280 -0.4404
12301SOL    HW238192   1.845   1.508   3.288 -1.6891 -0.2337  1.1603
12302SOL     OW38193   1.234   8.301   8.537  0.6449 -0.5615 -0.3701
12302SOL    HW138194   1.161   8.249   8.570  1.3541 -1.5895 -0.3741
12302SOL    HW238195   1.312   8.259   8.573  1.2193  1.3863  0.8751
12303SOL     OW38196   4.069   0.195   1.845 -0.7766  0.0793  0.2565
12303SOL    HW138197   4.029   0.234   1.923 -1.4275  0.8610 -0.4388
12303SOL    HW238198   4.043   0.103   1.848 -1.2355  0.2147  0.6881
12304SOL     OW38199   6.983   6.600   5.932  0.1042 -0.3571  0.2086
12304SOL    HW138200   7.056   6.549   5.896 -0.3919 -0.8165 -0.1465
12304SOL    HW238201   7.025   6.678   5.968  0.6937 -0.2590 -0.6577
12305SOL     OW38202   2.765   3.051   0.909 -0.3787 -0.0239  0.4391
12305SOL    HW138203   2.733   3.141   0.904  1.1110  0.6896  2.5056
12305SOL    HW238204   2.714   3.011   0.980 -1.2941 -0.9892 -0.7021
12306SOL     OW38205   3.806   4.491   4.288 -0.3127  0.1601  0.5796
12306SOL    HW138206   3.892   4.461   4.316 -0.3135  1.5879  2.2729
12306SOL    HW238207   3.812   4.586   4.292 -1.1917  0.3916 -1.8263
12307SOL     OW38208   5.666   4.461   7.564  0.3734  0.1735  0.5105
12307SOL    HW138209   5.600   4.493   7.625 -0.2420  0.1632 -0.1405
12307SOL    HW238210   5.683   4.534   7.505  1.1151  0.2506  0.8183
12308SOL     OW38211   2.549   5.705   7.347 -0.4083  0.2383 -0.2937
12308SOL    HW138212   2.464   5.724   7.386 -0.3537  0.4176 -0.2595
12308SOL    HW238213   2.557   5.610   7.350 -0.6342  0.2167 -0.3515
12309SOL     OW38214   2.716   3.245   4.469  0.1284  0.2715 -0.1579
12309SOL    HW138215   2.756   3.158   4.464  0.8897  0.6544 -1.3377
12309SOL    HW238216   2.684   3.262   4.380 -2.7917 -0.0326  0.7280
12310SOL     OW38217   8.371   2.573   1.475 -0.1812 -0.0176 -0.5047
12310SOL    HW138218   8.326   2.642   1.426 -0.6671  0.2312  0.2654
12310SOL    HW238219   8.377   2.500   1.414  2.2772  1.3737 -2.1107
12311SOL     OW38220   3.268   8.219   2.333 -0.1683  0.5229 -0.5360
12311SOL    HW138221   3.269   8.174   2.248 -1.1283  0.2220 -0.4089
12311SOL    HW238222   3.191   8.184   2.377  1.0452 -0.3071  1.0138
12312SOL     OW38223   8.075   0.744   2.807 -0.0664 -0.1047 -0.2200
12312SOL    HW138224   8.139   0.813   2.794  0.7830 -0.4569  1.7155
12312SOL    HW238225   8.072   0.732   2.902 -3.2727  0.1220 -0.1871
12313SOL     OW38226   3.545   0.767   4.624 -0.4362  0.2356 -0.1277
12313SOL    HW138227   3.480   0.697   4.617 -0.6369  0.4049  0.0225
12313SOL    HW238228   3.618   0.738   4.569 -0.4432 -0.1743  0.0794
12314SOL     OW38229   1.027   1.786   1.627 -0.2615  0.1702  0.0816
12314SOL    HW138230   0.976   1.716   1.587  0.4074 -0.3003  0.0354
12314SOL    HW238231   1.069   1.745   1.703  3.0853 -0.5587 -1.9652
12315SOL     OW38232   1.629   2.324   7.067  0.2057 -0.0446 -0.1221
12315SOL    HW138233   1.613   2.235   7.035  1.6987 -1.1369  1.8887
12315SOL    HW238234   1.623   2.316   7.163  0.6193  1.9803  0.1211
12316SOL     OW38235   3.447   2.530   2.817  0.2926  0.0118 -0.0811
12316SOL    HW138236   3.537   2.499   2.810  0.2641 -0.0416 -0.2145
12316SOL    HW238237   3.416   2.534   2.726  0.1977  0.1375 -0.0424
12317SOL     OW38238   6.575   2.766   0.230 -0.4023  0.0701 -0.2182
12317SOL    HW138239   6.637   2.776   0.302  0.1549 -1.1880 -0.4982
12317SOL    HW238240   6.520   2.692   0.256 -3.1539  2.3316  0.9496
12318SOL     OW38241   7.409   1.713   7.979  0.8040 -0.1666  0.2382
12318SOL    HW138242   7.396   1.762   8.060  1.1097 -0.1569  0.2855
12318SOL    HW238243   7.445   1.629   8.007  0.2857 -0.4166  0.1558
12319SOL     OW38244   6.485   3.354   5.865  0.3380 -0.1125  0.1080
12319SOL    HW138245   6.551   3.332   5.931  1.6771  1.0377 -0.7994
12319SOL    HW238246   6.434   3.273   5.856  3.4263 -2.1096 -1.2201
12320SOL     OW38247   8.059   3.033   3.782 -0.2755 -0.0653 -0.1138
12320SOL    HW138248   8.026   2.989   3.704 -1.0484 -0.9853  0.7023
12320SOL    HW238249   8.053   3.126   3.761 -3.4189 -0.1565 -0.0768
12321SOL     OW38250   4.703   7.248   2.939  0.2180  0.1493  0.2155
12321SOL    HW138251   4.787   7.246   2.986  1.7510  2.2086 -2.1848
12321SOL    HW238252   4.641   7.279   3.005  1.3047 -1.2782  2.0336
12322SOL     OW38253   5.352   7.131   3.391  0.3358  0.0676 -0.1445
12322SOL    HW138254   5.353   7.196   3.322 -0.6490  0.9486  0.6314
12322SOL    HW238255   5.297   7.169   3.460 -0.3736 -1.6177  0.2861
12323SOL     OW38256   2.660   0.162   8.638 -0.1335 -0.3002 -0.1648
12323SOL    HW138257   2.571   0.150   8.670  0.4974 -1.4441  1.2559
12323SOL    HW238258   2.710   0.189   8.715  0.9504 -0.6904 -0.7081
12324SOL     OW38259   3.654   0.803   6.470 -0.4929  0.0011 -0.1625
12324SOL    HW138260   3.657   0.708   6.472 -1.3450 -0.0399 -0.5253
12324SOL    HW238261   3.638   0.825   6.378  0.3322  0.5239 -0.1940
12325SOL     OW38262   8.257   7.145   0.574 -0.2669 -0.0797 -0.1397
12325SOL    HW138263   8.262   7.212   0.641 -1.5118  0.3144 -0.4060
12325SOL    HW238264   8.281   7.190   0.493  2.5883 -0.8652  0.1554
12326SOL     OW38265   5.774   1.616   1.016  0.1867 -0.0965  0.0435
12326SOL    HW138266   5.855   1.665   1.027 -0.3169  0.7268  0.1636
12326SOL    HW238267   5.718   1.673   0.963  0.6255 -1.7602 -2.3772
12327SOL     OW38268   4.935   5.370   0.216 -0.7164 -0.6112  0.4964
12327SOL    HW138269   4.959   5.430   0.287  0.2590 -1.4120  0.8632
12327SOL    HW238270   4.927   5.285   0.258  0.1588 -1.1553 -0.3745
12328SOL     OW38271   3.179   7.373   1.739 -0.0107  0.5466 -0.0438
12328SOL    HW138272   3.116   7.439   1.712  0.8570  2.1271  1.5844
12328SOL    HW238273   3.248   7.377   1.672 -1.2051 -0.7038 -1.4424
12329SOL     OW38274   6.370   8.610   5.404 -0.1969  0.1433  0.1618
12329SOL    HW138275   6.282   8.642   5.383  0.3348  2.4388  1.2157
12329SOL    HW238276   6.356   8.546   5.474 -1.0219  0.6505  0.4788
12330SOL     OW38277   1.647   4.193   5.302 -0.2424 -0.5870  0.3413
12330SOL    HW138278   1.647   4.223   5.393  3.1022 -0.2189  0.3552
12330SOL    HW238279   1.651   4.098   5.308  2.1000 -0.5190  0.7256
12331SOL     OW38280   4.840   8.213   7.942 -0.1821  0.1083 -0.3287
12331SOL    HW138281   4.848   8.281   7.875  0.3324  0.4844  0.1056
12331SOL    HW238282   4.926   8.210   7.984 -0.6893  0.3602  0.7724
12332SOL     OW38283   5.813   6.760   5.906  0.3816  0.1374 -0.6115
12332SOL    HW138284   5.905   6.783   5.905  0.3528  0.2770 -1.7729
12332SOL    HW238285   5.792   6.747   5.999  1.4588  0.4854 -0.3058
12333SOL     OW38286   7.581   3.321   1.212  0.4621  0.7300  0.0810
12333SOL    HW138287   7.502   3.271   1.232 -1.6018  3.8178  0.3850
12333SOL    HW238288   7.619   3.277   1.135 -2.8365  0.3787 -1.5077
12334SOL     OW38289   1.888   4.956   0.965  0.2518  0.2874  0.3366
12334SOL    HW138290   1.933   4.969   0.881  1.0107 -0.2422  0.6539
12334SOL    HW238291   1.868   5.045   0.994  1.8647  0.5889  0.5906
12335SOL     OW38292   5.279   7.337   6.473 -0.3086  0.3236 -0.1189
12335SOL    HW138293   5.219   7.345   6.399 -1.6002  0.0784  0.8562
12335SOL    HW238294   5.365   7.322   6.433 -1.2283 -1.5761 -1.5748
12336SOL     OW38295   8.085   5.693   7.284  0.2366 -0.4661 -0.0279
12336SOL    HW138296   8.038   5.760   7.334  1.4037  0.3285  0.0451
12336SOL    HW238297   8.166   5.680   7.333  1.4806  0.4256 -1.7336
12337SOL     OW38298   3.522   0.743   5.400 -0.6663  0.1340 -0.2090
12337SOL    HW138299   3.497   0.658   5.363 -1.5158  0.4516 -0.3935
12337SOL    HW238300   3.445   0.798   5.385  0.7273  1.6606 -2.3698
12338SOL     OW38301   7.622   1.635   3.971  0.4404 -0.5434 -0.1880
12338SOL    HW138302   7.621   1.600   4.060 -0.0232  1.7157  0.7487
12338SOL    HW238303   7.708   1.676   3.962 -0.3350  1.2357  0.0938
12339SOL     OW38304   3.810   7.242   0.247 -0.5653 -0.4941  0.1983
12339SOL    HW138305   3.888   7.230   0.194 -1.5950 -2.3470 -1.0004
12339SOL    HW238306   3.822   7.328   0.289  3.0877 -1.6662  1.8796
12340SOL     OW38307   2.363   0.194   3.090  0.1331  0.0348 -0.3828
12340SOL    HW138308   2.449   0.186   3.050  0.7957  0.9265  0.8054
12340SOL    HW238309   2.381   0.205   3.184 -1.2967 -0.3459 -0.0399
12341SOL     OW38310   2.897   5.492   0.273 -0.2561  0.2166  0.6964
12341SOL    HW138311   2.905   5.462   0.363 -0.9750  0.3122  0.7985
12341SOL    HW238312   2.805   5.475   0.250 -0.1543  0.4638  0.0856
12342SOL     OW38313   7.721   8.159   8.492 -0.2185  0.1059 -0.3584
12342SOL    HW138314   7.712   8.255   8.491  0.5215  0.3557  3.2749
12342SOL    HW238315   7.699   8.134   8.581 -0.3703 -3.1888 -1.1929
12343SOL     OW38316   6.430   7.100   4.832  0.2769  0.0002  0.1095
12343SOL    HW138317   6.369   7.155   4.883  0.1356  0.2548 -0.3250
12343SOL    HW238318   6.488   7.061   4.898  2.7929  3.5233  0.2619
12344SOL     OW38319   3.985   4.961   4.437 -0.0530 -0.2451  0.2504
12344SOL    HW138320   4.045   4.925   4.502 -0.3805  1.1359  1.3639
12344SOL    HW238321   4.034   5.033   4.396 -0.4830  0.0647  0.2692
12345SOL     OW38322   6.280   5.663   8.199 -0.3865 -0.2301 -0.5686
12345SOL    HW138323   6.237   5.579   8.217 -0.1740 -0.2727 -0.2652
12345SOL    HW238324   6.369   5.639   8.173  0.0988 -0.0363  0.8259
12346SOL     OW38325   1.429   6.262   8.216 -0.4347  0.4611 -0.2658
12346SOL    HW138326   1.334   6.264   8.226 -0.3465  1.4870  0.5500
12346SOL    HW238327   1.455   6.354   8.208  0.3970  0.1433 -1.5729
12347SOL     OW38328   3.494   6.565   3.496 -0.4039  0.3108  0.0016
12347SOL    HW138329   3.582   6.554   3.460  0.0917  0.1141  1.2398
12347SOL    HW238330   3.466   6.477   3.521 -0.1208  0.6137  1.4722
12348SOL     OW38331   0.697   3.605   7.458 -0.3787 -0.4750 -0.1027
12348SOL    HW138332   0.604   3.612   7.437  0.0027 -0.8957 -2.1068
12348SOL    HW238333   0.728   3.696   7.463 -0.8634 -0.3385  0.4268
12349SOL     OW38334   2.951   7.719   8.510  0.1391  0.5504  0.0155
12349SOL    HW138335   2.904   7.637   8.525 -0.6606  0.1636 -3.6977
12349SOL    HW238336   3.039   7.693   8.483  0.1883  0.9615 -0.2327
12350SOL     OW38337   7.305   7.518   6.282 -0.0651  0.3054 -0.0461
12350SOL    HW138338   7.264   7.437   6.312  0.1320  0.0355 -0.4971
12350SOL    HW238339   7.234   7.566   6.240 -0.0023 -0.0077 -0.5202
12351SOL     OW38340   0.456   3.484   2.207  0.1864 -0.0515  0.5175
12351SOL    HW138341   0.477   3.456   2.296 -1.1602 -0.3028  0.7831
12351SOL    HW238342   0.503   3.567   2.196  0.9208 -0.3613  1.2041
12352SOL     OW38343   3.070   1.467   1.716 -0.5336  0.1697 -0.3563
12352SOL    HW138344   3.011   1.428   1.652  0.0037 -0.6130 -0.3968
12352SOL    HW238345   3.051   1.421   1.798 -1.0794  1.0265  0.0146
12353SOL     OW38346   1.799   1.474   0.701 -0.1617  0.5898 -0.1316
12353SOL    HW138347   1.750   1.394   0.684  0.4100  0.5538 -1.8277
12353SOL    HW238348   1.753   1.542   0.651 -0.0771  1.1212  0.4996
12354SOL     OW38349   2.060   0.146   7.148  0.3215 -0.1883  0.4384
12354SOL    HW138350   2.098   0.064   7.180  0.3560 -0.5729 -0.5765
12354SOL    HW238351   2.118   0.214   7.182  1.5066 -0.7167 -0.4599
12355SOL     OW38352   1.827   0.456   2.701  0.3479 -0.8253  0.1982
12355SOL    HW138353   1.829   0.384   2.764  1.2434  0.1459  1.3190
12355SOL    HW238354   1.846   0.534   2.753  0.9782  0.0242 -1.2508
12356SOL     OW38355   0.534   6.062   2.735 -0.3357 -0.1958 -0.2570
12356SOL    HW138356   0.467   6.099   2.678 -1.8627 -1.0326  0.9239
12356SOL    HW238357   0.529   6.114   2.815 -0.6902 -1.2429  0.4227
12357SOL     OW38358   1.444   4.901   4.373 -0.2655  0.4668 -0.3715
12357SOL    HW138359   1.446   4.857   4.458 -1.3687  2.2536  0.6449
12357SOL    HW238360   1.535   4.926   4.357  0.2006 -1.1741 -0.4691
12358SOL     OW38361   6.244   2.854   4.880  0.0320  0.2886  0.1749
12358SOL    HW138362   6.292   2.788   4.929 -0.5404 -0.8911 -0.8047
12358SOL    HW238363   6.152   2.827   4.886 -0.1818  0.8381 -0.4835
12359SOL     OW38364   5.559   7.369   3.675 -0.0152 -0.0226  0.5426
12359SOL    HW138365   5.606   7.286   3.675  1.3062  0.5986 -2.4935
12359SOL    HW238366   5.614   7.427   3.728  1.3159 -0.0103 -0.7909
12360SOL     OW38367   4.619   4.385   7.624  0.8316 -0.1189 -0.4496
12360SOL    HW138368   4.556   4.351   7.562 -0.8685  0.0494  1.0948
12360SOL    HW238369   4.662   4.457   7.578 -0.8469  0.4368 -1.2154
12361SOL     OW38370   2.259   3.990   8.075  0.0892 -0.0251  0.2062
12361SOL    HW138371   2.180   4.038   8.050 -0.0010 -0.2314  0.0925
12361SOL    HW238372   2.304   3.973   7.993 -0.4814 -1.1787  0.1028
12362SOL     OW38373   1.714   7.268   8.416  0.2162 -0.3369 -0.8231
12362SOL    HW138374   1.802   7.231   8.411  0.0936 -0.6228 -0.9029
12362SOL    HW238375   1.659   7.195   8.446  0.1134  0.0100 -0.1446
12363SOL     OW38376   5.538   2.303   5.998  0.6788  0.3072  0.2281
12363SOL    HW138377   5.513   2.213   6.018 -1.1356  0.5385 -0.7303
12363SOL    HW238378   5.512   2.315   5.906 -0.1914  2.1139  0.6537
12364SOL     OW38379   5.397   3.028   7.762  0.4858  0.4226 -0.8271
12364SOL    HW138380   5.491   3.023   7.778  0.3150  0.5279  0.3469
12364SOL    HW238381   5.367   2.937   7.768  0.4864  0.4137 -0.9714
12365SOL     OW38382   2.459   0.670   8.370  0.1416  0.1727 -0.3377
12365SOL    HW138383   2.380   0.624   8.398  0.1126 -0.7076 -1.7561
12365SOL    HW238384   2.511   0.603   8.325  1.5398  0.8212  0.2463
12366SOL     OW38385   7.669   1.215   0.244 -0.2517 -0.3114  0.7802
12366SOL    HW138386   7.758   1.249   0.249 -0.5956  0.8096 -0.3599
12366SOL    HW238387   7.680   1.120   0.251  1.2242 -0.3390 -1.1073
12367SOL     OW38388   6.543   1.794   8.272  0.3643  0.2626 -0.3946
12367SOL    HW138389   6.611   1.836   8.220  1.8038 -0.6975  0.6358
12367SOL    HW238390   6.568   1.702   8.276  0.1954  0.2479  1.7599
12368SOL     OW38391   0.263   2.009   1.193 -0.6560  0.4535  0.2719
12368SOL    HW138392   0.358   2.019   1.204 -0.5089 -2.5331  3.1401
12368SOL    HW238393   0.225   2.076   1.250 -0.1560 -0.1896  1.3989
12369SOL     OW38394   6.185   6.631   1.321 -0.0943 -0.2093  0.5501
12369SOL    HW138395   6.193   6.723   1.294 -1.4681 -0.4681 -0.8347
12369SOL    HW238396   6.246   6.584   1.265 -1.1628 -0.4237 -0.4812
12370SOL     OW38397   6.030   7.063   2.144  0.3606 -0.3109  0.2093
12370SOL    HW138398   6.030   7.096   2.234  0.5809 -1.2201  0.5600
12370SOL    HW238399   5.950   7.098   2.106  0.6953  0.7978  0.4802
12371SOL     OW38400   1.071   7.210   4.618 -0.2400  0.2743  0.3797
12371SOL    HW138401   1.166   7.203   4.606  0.1503  3.9088  0.0649
12371SOL    HW238402   1.042   7.265   4.545 -2.7024 -0.9662  0.3013
12372SOL     OW38403   7.440   0.527   3.401 -0.2270  0.3592  0.0938
12372SOL    HW138404   7.423   0.512   3.308  0.7193 -1.5373  0.1912
12372SOL    HW238405   7.364   0.489   3.445  0.4436 -0.9348  0.1752
12373SOL     OW38406   4.295   3.318   6.376  0.0020 -0.0931  0.5333
12373SOL    HW138407   4.329   3.233   6.404  1.0988  0.5024  1.0843
12373SOL    HW238408   4.367   3.358   6.328 -0.5299  0.4973  0.2114
12374SOL     OW38409   5.903   5.244   2.251 -0.3511  1.2995 -0.3363
12374SOL    HW138410   5.835   5.178   2.266 -0.5935  1.6232 -0.0240
12374SOL    HW238411   5.954   5.245   2.332 -0.4948  1.6705 -0.2512
12375SOL     OW38412   2.859   3.130   6.832  0.2135  0.4730  0.0074
12375SOL    HW138413   2.814   3.106   6.913  0.5497 -1.9788 -0.4672
12375SOL    HW238414   2.938   3.076   6.830  0.6070  1.0348 -1.5913
12376SOL     OW38415   5.104   0.539   3.138 -0.0653  0.0157  0.2262
12376SOL    HW138416   5.166   0.484   3.089 -1.6356 -1.3180 -0.3601
12376SOL    HW238417   5.026   0.542   3.083 -0.4768  1.8412  0.8447
12377SOL     OW38418   5.403   2.495   2.217 -0.3118 -0.3040 -0.1280
12377SOL    HW138419   5.309   2.475   2.216 -0.1192 -1.2048 -0.7133
12377SOL    HW238420   5.406   2.591   2.222 -1.2725 -0.2256 -0.7246
12378SOL     OW38421   6.926   8.554   1.700 -0.9158  0.5720 -0.2801
12378SOL    HW138422   6.915   8.598   1.616  0.4705  1.9665  0.2133
12378SOL    HW238423   6.842   8.512   1.717 -1.6276  1.3440 -1.7583
12379SOL     OW38424   0.314   4.801   1.723 -0.0149 -1.2338  0.3560
12379SOL    HW138425   0.376   4.788   1.651  2.3052 -1.6278  2.2757
12379SOL    HW238426   0.293   4.895   1.720 -1.3897 -1.5337 -1.8177
12380SOL     OW38427   7.507   4.213   3.684  0.3883 -0.3974  0.0146
12380SOL    HW138428   7.492   4.305   3.663  0.7546 -0.4354 -0.4278
12380SOL    HW238429   7.567   4.182   3.616  0.9507 -0.7341  0.6545
12381SOL     OW38430   6.610   0.955   6.385 -0.1443  0.5160  0.4672
12381SOL    HW138431   6.690   0.964   6.334  0.4077 -0.2170  1.1691
12381SOL    HW238432   6.556   1.030   6.359  1.0661  1.4440  0.5208
12382SOL     OW38433   4.966   0.254   7.204 -0.7569 -0.3489 -0.4996
12382SOL    HW138434   4.899   0.321   7.201  0.1233  0.6034  0.4605
12382SOL    HW238435   4.961   0.218   7.293  0.2841  0.0650 -0.2537
12383SOL     OW38436   6.734   8.563   1.312  0.0558 -0.2320  0.7459
12383SOL    HW138437   6.714   8.538   1.402  0.0110  0.1544  0.8427
12383SOL    HW238438   6.652   8.598   1.278  0.0606 -0.4205  0.5381
12384SOL     OW38439   3.639   3.664   2.810 -0.3927 -0.3478  0.5894
12384SOL    HW138440   3.580   3.725   2.854  1.1944  0.9049  1.0964
12384SOL    HW238441   3.650   3.701   2.722  0.6539  0.2102  0.9319
12385SOL     OW38442   1.522   1.052   4.047 -0.7684 -0.2477  0.2264
12385SOL    HW138443   1.490   1.126   3.995 -0.2770  0.6094  1.0913
12385SOL    HW238444   1.472   0.977   4.016 -2.3556  0.7208  0.3434
12386SOL     OW38445   8.186   1.348   1.112  0.0639  0.3766 -0.3861
12386SOL    HW138446   8.158   1.382   1.027 -0.6042 -2.2562 -1.3024
12386SOL    HW238447   8.256   1.286   1.092  0.6369  0.4730  1.1158
12387SOL     OW38448   2.124   7.414   8.244  0.2314  0.8320 -0.4037
12387SOL    HW138449   2.095   7.323   8.240  1.4412  0.4578 -1.4121
12387SOL    HW238450   2.086   7.448   8.325 -0.6356 -0.4245 -0.2615
12388SOL     OW38451   8.604   7.728   7.374 -0.0658  0.0853 -0.6587
12388SOL    HW138452   8.536   7.766   7.318  0.9044  0.7394 -1.4312
12388SOL    HW238453   8.604   7.784   7.452 -0.7373 -0.2171 -0.4332
12389SOL     OW38454   5.712   5.087   6.880  0.2439 -0.0740 -0.1389
12389SOL    HW138455   5.727   5.102   6.974  2.4656  1.2441 -0.6174
12389SOL    HW238456   5.740   4.997   6.865 -0.2959 -0.3501  0.4923
12390SOL     OW38457   1.886   2.158   6.295 -0.0951 -0.3705 -0.2850
12390SOL    HW138458   1.833   2.131   6.371 -1.3135  1.3102 -0.4998
12390SOL    HW238459   1.913   2.075   6.254 -0.5259 -1.2868  1.2056
12391SOL     OW38460   0.039   1.831   5.706  0.6234  0.2875 -0.0449
12391SOL    HW138461  -0.035   1.820   5.765  0.1201 -3.0400 -1.0594
12391SOL    HW238462   0.001   1.872   5.628  0.4311  0.9793  0.4056
12392SOL     OW38463   0.476   4.404   0.177  0.3059  0.3997 -0.2320
12392SOL    HW138464   0.452   4.330   0.121  2.0988 -0.0190 -0.5119
12392SOL    HW238465   0.492   4.476   0.116  1.1867  0.2506 -0.1878
12393SOL     OW38466   1.914   1.399   4.478 -0.0358  0.4728  0.3361
12393SOL    HW138467   1.878   1.376   4.392 -0.4003 -0.5517  0.7468
12393SOL    HW238468   1.851   1.362   4.541 -1.0874  3.2750  1.0873
12394SOL     OW38469   7.245   2.620   1.622 -0.2768 -0.0249 -0.6987
12394SOL    HW138470   7.258   2.601   1.529  1.0792 -1.3152 -0.2769
12394SOL    HW238471   7.273   2.711   1.632 -2.1321  0.7472 -1.8387
12395SOL     OW38472   4.271   0.904   8.262 -0.6415  0.4721  0.7336
12395SOL    HW138473   4.243   0.873   8.349  0.6301 -0.9334  0.6900
12395SOL    HW238474   4.316   0.829   8.223 -0.0721  1.4774 -0.6403
12396SOL     OW38475   0.402   5.431   3.392 -0.1791 -0.0662 -0.7540
12396SOL    HW138476   0.310   5.458   3.393  0.0520  0.7592 -0.6631
12396SOL    HW238477   0.427   5.431   3.300 -0.3129 -0.4320 -0.7888
12397SOL     OW38478   0.771   1.063   4.376  0.3495  0.0866  0.7339
12397SOL    HW138479   0.844   1.112   4.414  1.4884 -1.2885  0.3830
12397SOL    HW238480   0.812   0.999   4.318 -1.1613 -0.4337  0.1885
12398SOL     OW38481   8.401   8.274   3.057 -0.1719  0.3525 -0.2851
12398SOL    HW138482   8.460   8.286   2.982 -0.0745 -0.3438 -0.3203
12398SOL    HW238483   8.456   8.290   3.133 -0.2182  0.8369 -0.3467
12399SOL     OW38484   1.213   2.087   4.813  0.2382  0.1686 -0.3017
12399SOL    HW138485   1.131   2.039   4.797  0.1076  0.8597 -2.0197
12399SOL    HW238486   1.192   2.146   4.885 -1.2244  1.1920 -1.4764
12400SOL     OW38487   2.211   4.274   6.234 -0.0354 -0.1939 -0.1528
12400SOL    HW138488   2.204   4.191   6.282 -0.2669 -0.8268 -1.2356
12400SOL    HW238489   2.302   4.302   6.247 -0.0717 -0.3901  0.5732
12401SOL     OW38490   0.915   7.080   1.540  0.0973 -0.1769  0.4303
12401SOL    HW138491   0.958   7.148   1.489 -0.5802 -0.0179  0.0582
12401SOL    HW238492   0.874   7.023   1.475  0.0181 -0.5055  0.7662
12402SOL     OW38493   2.446   5.308   6.555  0.5063  0.1610 -0.7581
12402SOL    HW138494   2.406   5.232   6.596 -1.9239  3.7237  4.7362
12402SOL    HW238495   2.379   5.342   6.496  1.1335 -1.1279 -2.2840
12403SOL     OW38496   3.997   8.038   4.056 -0.1496 -0.4787 -0.3052
12403SOL    HW138497   4.037   7.956   4.086 -0.2678 -0.3781  0.1362
12403SOL    HW238498   4.070   8.089   4.021 -0.1880 -1.0819 -1.3032
12404SOL     OW38499   3.718   2.491   3.592  0.5327  0.4567 -0.3839
12404SOL    HW138500   3.646   2.428   3.585  0.0602  1.0119 -0.6724
12404SOL    HW238501   3.719   2.517   3.684  1.1811 -0.4834 -0.1197
12405SOL     OW38502   1.310   6.689   2.690  0.2555  0.4572  0.2431
12405SOL    HW138503   1.375   6.720   2.753  1.2932 -1.4055  0.1581
12405SOL    HW238504   1.354   6.694   2.605  0.8171 -1.9563  0.3175
12406SOL     OW38505   8.421   4.934   2.695  0.3910 -0.2288 -1.1054
12406SOL    HW138506   8.466   4.850   2.686  1.0208  0.0903 -1.0343
12406SOL    HW238507   8.334   4.919   2.658 -0.8194 -1.9470  2.0154
12407SOL     OW38508   1.852   8.183   4.052 -0.0033  0.0982 -0.4775
12407SOL    HW138509   1.817   8.160   3.966 -2.5327  1.5699  0.0435
12407SOL    HW238510   1.903   8.263   4.036  1.9049 -1.1692 -0.9898
12408SOL     OW38511   2.046   7.164   8.375  0.1497 -0.1147  0.6793
12408SOL    HW138512   1.973   7.134   8.321  0.0595  2.9257 -1.0906
12408SOL    HW238513   2.120   7.109   8.349  0.1735  1.3585 -2.8767
12409SOL     OW38514   5.482   7.977   4.406 -0.0741 -0.0274 -0.3436
12409SOL    HW138515   5.497   8.030   4.484 -0.0630 -0.7128  0.1295
12409SOL    HW238516   5.569   7.948   4.379 -0.1741 -0.7271  0.0651
12410SOL     OW38517   8.601   8.187   1.989 -0.3161 -0.0098 -0.3260
12410SOL    HW138518   8.585   8.261   2.047 -0.1195 -0.0376 -0.2356
12410SOL    HW238519   8.651   8.225   1.916  1.9315 -0.4925  0.8846
12411SOL     OW38520   7.628   1.757   8.252  0.3690  0.4201 -0.1762
12411SOL    HW138521   7.635   1.704   8.331  1.1584 -0.5920 -0.8805
12411SOL    HW238522   7.675   1.705   8.185  0.8252  1.8354 -0.9894
12412SOL     OW38523   5.890   6.136   8.231  0.3500  0.2148  0.0318
12412SOL    HW138524   5.941   6.171   8.303  0.8351 -1.2518  0.4367
12412SOL    HW238525   5.947   6.070   8.191 -0.2626  0.3488 -1.1197
12413SOL     OW38526   8.704   0.949   5.068  0.6878 -0.4752  0.0492
12413SOL    HW138527   8.697   0.930   4.975  0.1674 -1.5537  0.2936
12413SOL    HW238528   8.798   0.944   5.086  0.8721  0.5202 -0.5566
12414SOL     OW38529   0.534   4.041   0.502 -0.0387  0.2092 -0.2093
12414SOL    HW138530   0.559   4.062   0.592 -1.2274  0.4386  0.0879
12414SOL    HW238531   0.438   4.040   0.503 -0.0650 -0.5237 -1.3114
12415SOL     OW38532   6.258   8.433   1.069 -0.2518  0.1741 -0.5110
12415SOL    HW138533   6.168   8.399   1.076 -0.5919  1.3263  1.2924
12415SOL    HW238534   6.303   8.397   1.146  0.1827  1.4195 -0.1697
12416SOL     OW38535   5.591   7.255   5.679 -0.4453  0.0285 -0.8411
12416SOL    HW138536   5.664   7.211   5.722 -0.6116  1.2160  0.7672
12416SOL    HW238537   5.606   7.348   5.696 -1.6578  0.3824 -1.5816
12417SOL     OW38538   3.840   6.481   4.554 -0.5041 -0.8883  0.1159
12417SOL    HW138539   3.812   6.391   4.539 -1.4322 -0.7742  1.0647
12417SOL    HW238540   3.931   6.483   4.524 -1.1839 -1.5094 -2.1257
12418SOL     OW38541   3.119   2.325   7.968  0.0417 -0.2709 -0.4899
12418SOL    HW138542   3.097   2.232   7.973 -0.0728 -0.2170  0.1521
12418SOL    HW238543   3.195   2.329   7.910  0.0951 -0.7710 -0.4557
12419SOL     OW38544   6.893   8.190   5.873  0.4466  0.2718  0.0813
12419SOL    HW138545   6.959   8.259   5.865  0.7248 -0.0893 -0.8785
12419SOL    HW238546   6.812   8.237   5.897  0.7034  0.8848 -0.2345
12420SOL     OW38547   3.856   0.736   0.284 -0.3938 -0.4921 -0.5690
12420SOL    HW138548   3.772   0.694   0.265 -1.7680  0.5180  2.5608
12420SOL    HW238549   3.835   0.828   0.297  1.3484 -0.0655 -0.4883
12421SOL     OW38550   2.053   6.744   7.560 -0.4462  0.5101  0.0226
12421SOL    HW138551   2.136   6.697   7.568 -0.6387  0.0901 -0.4182
12421SOL    HW238552   2.017   6.744   7.649 -0.3731 -0.0506  0.0541
12422SOL     OW38553   2.864   1.543   7.473 -0.3531  0.8586 -0.0185
12422SOL    HW138554   2.862   1.534   7.568 -0.6971  0.1899 -0.0768
12422SOL    HW238555   2.955   1.528   7.449 -0.2240  1.2532  0.2251
12423SOL     OW38556   1.904   4.953   4.357 -0.0744 -0.2294  0.0853
12423SOL    HW138557   1.862   4.922   4.438 -2.4864  0.5806 -0.7576
12423SOL    HW238558   1.958   5.026   4.385  0.2459 -0.8398  1.1387
12424SOL     OW38559   6.774   6.934   5.325 -0.1040  0.0488 -0.3650
12424SOL    HW138560   6.820   7.015   5.302  0.5137 -0.3300 -0.4623
12424SOL    HW238561   6.786   6.925   5.419 -0.0384 -0.0223 -0.3811
12425SOL     OW38562   0.456   3.666   1.673  0.5296 -0.9282 -0.4276
12425SOL    HW138563   0.414   3.729   1.615 -0.5378  0.3002  1.5928
12425SOL    HW238564   0.401   3.588   1.668  0.9147 -1.1430 -1.6528
12426SOL     OW38565   7.908   0.332   2.689 -0.0953  0.2558 -0.6807
12426SOL    HW138566   7.993   0.377   2.696  0.5427 -0.9180 -0.6077
12426SOL    HW238567   7.844   0.397   2.717  0.7062  1.3919 -1.3745
12427SOL     OW38568   7.083   0.018   2.661  0.1112 -0.0979 -0.0597
12427SOL    HW138569   7.027   0.089   2.693  2.4309  1.4780  0.7949
12427SOL    HW238570   7.105   0.044   2.572  0.5152 -0.0187  0.0604
12428SOL     OW38571   6.975   8.436   8.154 -0.0208  0.6179 -0.0516
12428SOL    HW138572   6.942   8.523   8.176 -0.2190  0.5687 -0.1506
12428SOL    HW238573   6.910   8.376   8.191 -0.1892  0.5273 -0.4874
12429SOL     OW38574   3.961   4.479   1.382  0.1782 -0.0250  0.4211
12429SOL    HW138575   4.016   4.409   1.417  0.9114  0.5521  0.4382
12429SOL    HW238576   4.021   4.532   1.329 -0.2491  0.9247  0.8825
12430SOL     OW38577   2.038   5.265   2.425 -0.6036  0.4471  0.0238
12430SOL    HW138578   1.959   5.214   2.406  0.6498 -0.9473 -1.8585
12430SOL    HW238579   2.039   5.333   2.357  0.2868 -0.1762 -0.6152
12431SOL     OW38580   5.901   7.175   3.767  0.0285  0.0087 -0.5054
12431SOL    HW138581   5.960   7.102   3.746 -1.6733 -1.3404 -0.7928
12431SOL    HW238582   5.944   7.252   3.727  0.1401 -1.4051 -3.3655
12432SOL     OW38583   0.235   8.468   5.127  0.2470  0.3583 -0.0678
12432SOL    HW138584   0.199   8.489   5.041  0.9308 -0.2423 -0.5090
12432SOL    HW238585   0.211   8.377   5.142 -2.4104  1.2284  1.6908
12433SOL     OW38586   5.961   0.446   1.223 -0.4242  0.0317 -0.2020
12433SOL    HW138587   5.937   0.355   1.239  1.0298 -0.1620  1.1055
12433SOL    HW238588   6.055   0.450   1.240 -0.6840  2.0404  1.2253
12434SOL     OW38589   1.883   4.596   8.124 -0.7383  0.4316 -0.0086
12434SOL    HW138590   1.936   4.654   8.179 -0.0285 -1.2137  1.1170
12434SOL    HW238591   1.844   4.534   8.185 -0.3016 -1.1704 -1.2838
12435SOL     OW38592   7.834   2.857   8.326 -0.0500  0.5112 -0.3002
12435SOL    HW138593   7.919   2.814   8.336  0.7968  2.0161 -0.6255
12435SOL    HW238594   7.793   2.812   8.253  0.9967  0.5206 -0.9191
12436SOL     OW38595   8.553   0.024   3.426 -0.5399  0.3048  0.0313
12436SOL    HW138596   8.480   0.078   3.397  0.3360  0.7455 -1.4637
12436SOL    HW238597   8.631   0.075   3.403  0.2698 -0.6843  0.5077
12437SOL     OW38598   3.654   0.518   6.461 -0.1042  0.3114 -0.3858
12437SOL    HW138599   3.703   0.437   6.446  1.2219  1.1890 -0.9750
12437SOL    HW238600   3.581   0.514   6.399 -0.6969 -0.9065  0.3488
12438SOL     OW38601   2.551   6.501   3.601  0.4510 -0.0910 -0.3878
12438SOL    HW138602   2.516   6.487   3.513 -1.0225  1.5622 -0.1202
12438SOL    HW238603   2.475   6.523   3.655  1.6339  1.8165  0.6417
12439SOL     OW38604   8.249   4.957   6.040 -0.1760 -0.0474  0.0582
12439SOL    HW138605   8.249   4.964   5.944  0.0776  2.5518  0.1557
12439SOL    HW238606   8.332   4.996   6.066 -1.5009  2.0724  1.3890
12440SOL     OW38607   5.641   0.946   8.583 -0.1068 -0.4024 -0.0082
12440SOL    HW138608   5.684   0.984   8.506  0.4428 -3.0979 -1.1284
12440SOL    HW238609   5.712   0.913   8.637 -0.5726  0.0535  0.9109
12441SOL     OW38610   0.777   4.428   8.176  0.0946  0.5048 -0.1316
12441SOL    HW138611   0.681   4.424   8.173  0.0911  0.6002 -0.1696
12441SOL    HW238612   0.802   4.359   8.237  0.0203  0.2338 -0.4024
12442SOL     OW38613   0.829   1.759   1.315 -0.4309  0.0796  0.2797
12442SOL    HW138614   0.891   1.736   1.246  0.7832  1.2131  0.9294
12442SOL    HW238615   0.847   1.694   1.384 -1.6985 -1.1017 -0.4484
12443SOL     OW38616   5.892   4.942   2.692  0.8420  0.0032 -0.8090
12443SOL    HW138617   5.903   4.943   2.597  1.1539  0.2180 -0.7693
12443SOL    HW238618   5.913   4.852   2.718 -0.1906 -0.3304 -1.0532
12444SOL     OW38619   3.963   4.992   4.077  0.2659  0.2597 -0.0011
12444SOL    HW138620   4.028   5.062   4.083 -0.1392  0.7221 -0.8497
12444SOL    HW238621   4.012   4.918   4.041  0.9054 -0.1990  1.6985
12445SOL     OW38622   3.799   6.344   0.541  0.2770 -0.2057 -0.2715
12445SOL    HW138623   3.880   6.300   0.566  0.4129  0.3345  0.2715
12445SOL    HW238624   3.731   6.279   0.554  0.4747 -0.2643  0.4908
12446SOL     OW38625   1.073   0.366   6.502 -0.1038  0.5477 -0.2241
12446SOL    HW138626   1.027   0.363   6.586 -1.6811 -1.8608 -1.0617
12446SOL    HW238627   1.123   0.448   6.504 -2.0266  1.7747  2.0300
12447SOL     OW38628   3.595   2.021   5.453 -0.1830  0.2957  0.3621
12447SOL    HW138629   3.571   2.102   5.407 -0.7719 -0.0048  0.1248
12447SOL    HW238630   3.646   1.971   5.389  0.4650  0.6192  0.6206
12448SOL     OW38631   1.968   2.224   3.696  0.2646 -0.1710 -0.1908
12448SOL    HW138632   1.921   2.142   3.684 -0.2073  0.1708 -0.7242
12448SOL    HW238633   2.060   2.201   3.687  0.2214 -0.8546  0.8924
12449SOL     OW38634   2.289   1.703   1.398  0.8216  0.1774  0.2909
12449SOL    HW138635   2.264   1.763   1.467  0.1741  2.5208 -1.8646
12449SOL    HW238636   2.319   1.759   1.327  0.4990 -2.0612 -1.7284
12450SOL     OW38637   1.838   5.615   3.505 -0.1578 -0.4938 -0.1736
12450SOL    HW138638   1.758   5.563   3.510  0.8921 -2.1013  0.9365
12450SOL    HW238639   1.840   5.663   3.588  0.6276 -1.4369  0.3745
12451SOL     OW38640   8.186   7.833   1.404 -0.4977  0.4511  0.0141
12451SOL    HW138641   8.235   7.752   1.386  1.1962  1.3396  0.4026
12451SOL    HW238642   8.095   7.804   1.410 -0.0637 -1.2745 -0.8187
12452SOL     OW38643   0.094   7.087   5.923 -0.1001  0.3163  0.3012
12452SOL    HW138644   0.067   7.178   5.913  0.2900  0.4256  0.2354
12452SOL    HW238645   0.041   7.054   5.996 -2.0794 -0.1406 -1.2731
12453SOL     OW38646   5.625   0.051   3.258  0.1948  0.2402  0.0821
12453SOL    HW138647   5.552   0.016   3.308  0.9288  0.7103  1.5581
12453SOL    HW238648   5.703   0.015   3.302  0.8708  0.6304 -0.7665
12454SOL     OW38649   3.848   2.059   0.594  0.0098 -0.0028 -0.3581
12454SOL    HW138650   3.825   1.973   0.630 -0.1973  0.3987  0.5108
12454SOL    HW238651   3.771   2.085   0.543  0.3559 -0.6380 -1.2196
12455SOL     OW38652   2.394   0.035   6.027 -0.5652 -0.1905  0.9891
12455SOL    HW138653   2.332   0.101   6.057 -0.0648  1.2645 -1.0284
12455SOL    HW238654   2.480   0.075   6.040 -0.2519 -0.4873 -0.1320
12456SOL     OW38655   5.845   3.667   7.233 -0.2393 -0.3030  0.7616
12456SOL    HW138656   5.939   3.683   7.226 -0.1511 -0.7391  0.9794
12456SOL    HW238657   5.806   3.752   7.213  0.0967 -0.6877 -1.8675
12457SOL     OW38658   8.516   6.753   8.381 -0.0676 -0.4638  0.3054
12457SOL    HW138659   8.438   6.775   8.330  0.1045  1.0022  0.6223
12457SOL    HW238660   8.507   6.660   8.400 -0.4522 -0.9353 -1.8678
12458SOL     OW38661   6.083   3.533   4.899  1.4001  0.0215  0.2385
12458SOL    HW138662   6.097   3.477   4.975 -0.0615 -0.2639  0.3244
12458SOL    HW238663   6.070   3.473   4.826  1.4074  0.2729  0.0282
12459SOL     OW38664   7.781   0.022   5.076  0.0043 -0.8001  0.4702
12459SOL    HW138665   7.835   0.097   5.100 -1.7819  0.5471  0.5428
12459SOL    HW238666   7.815  -0.007   4.992 -0.5369  1.4872 -0.6286
12460SOL     OW38667   4.054   8.321   1.841 -0.2006  0.0847  0.3178
12460SOL    HW138668   4.124   8.354   1.898  0.6916 -0.0397 -0.6816
12460SOL    HW238669   4.059   8.226   1.852 -0.9010  0.1235  1.0290
12461SOL     OW38670   5.020   2.952   7.177 -0.0982  0.3515  0.1359
12461SOL    HW138671   4.975   2.988   7.100  0.4798  0.0204 -0.3583
12461SOL    HW238672   4.958   2.888   7.213 -0.0702 -0.0312 -0.4861
12462SOL     OW38673   2.757   5.297   5.598 -0.1082 -0.2461  0.0689
12462SOL    HW138674   2.788   5.286   5.508  0.2183 -2.1622  0.3717
12462SOL    HW238675   2.662   5.290   5.591 -0.1124  0.0806 -0.1918
12463SOL     OW38676   7.039   0.370   0.004 -0.1336  0.6148 -0.6251
12463SOL    HW138677   7.075   0.286   0.034 -1.7254  0.3457  0.6537
12463SOL    HW238678   7.077   0.435   0.062 -0.5258  0.5152 -0.2539
12464SOL     OW38679   7.981   4.010   0.427 -0.1066 -0.5463 -0.0824
12464SOL    HW138680   8.033   3.938   0.390  0.0151 -0.4872 -0.0279
12464SOL    HW238681   7.967   3.984   0.518 -0.8728 -0.9517 -0.3103
12465SOL     OW38682   2.353   4.149   5.940 -0.4820  0.0528  0.1545
12465SOL    HW138683   2.406   4.075   5.910 -1.0227 -0.3633  0.2034
12465SOL    HW238684   2.268   4.110   5.961 -0.2850  0.3903  1.7580
12466SOL     OW38685   4.574   5.396   2.240 -0.2497 -0.1252 -0.0634
12466SOL    HW138686   4.574   5.378   2.146 -0.3056 -0.2123 -0.0471
12466SOL    HW238687   4.526   5.478   2.248  1.4731  0.9490 -0.3080
12467SOL     OW38688   1.540   3.043   4.557 -0.5958 -0.1054 -0.3748
12467SOL    HW138689   1.464   3.083   4.599  0.5317  3.0075 -1.0074
12467SOL    HW238690   1.504   2.994   4.483 -2.0220  0.6278 -0.1978
12468SOL     OW38691   4.128   8.596   7.542 -0.0541  0.4841  0.1244
12468SOL    HW138692   4.106   8.507   7.567 -1.6806  0.4060 -1.3596
12468SOL    HW238693   4.044   8.643   7.542  0.2134  1.1232 -2.3020
12469SOL     OW38694   0.239   3.994   3.446  0.2783 -0.4320  0.0159
12469SOL    HW138695   0.186   3.919   3.476 -1.5577  0.5616 -0.5941
12469SOL    HW238696   0.185   4.035   3.378  1.2210  1.4786  0.3782
12470SOL     OW38697   2.671   3.281   2.657  0.3022  0.2922  0.0407
12470SOL    HW138698   2.669   3.294   2.752  1.1716 -1.6457  0.3723
12470SOL    HW238699   2.612   3.207   2.641 -2.7730  2.8194 -1.4519
12471SOL     OW38700   8.552   8.620   5.464 -0.3016 -0.4128  0.4918
12471SOL    HW138701   8.511   8.677   5.529  0.1808 -0.7545  1.1097
12471SOL    HW238702   8.613   8.676   5.417 -2.2075  0.3733 -1.1824
12472SOL     OW38703   5.707   6.737   2.856 -0.3264  0.2088  0.2960
12472SOL    HW138704   5.792   6.781   2.850 -0.2701  0.0431 -0.1679
12472SOL    HW238705   5.648   6.794   2.806  0.1449 -1.1951 -2.0076
12473SOL     OW38706   6.572   3.836   2.574 -0.3920 -0.3326 -0.2050
12473SOL    HW138707   6.556   3.876   2.488 -0.9372 -0.2103 -0.0528
12473SOL    HW238708   6.655   3.790   2.564  0.4977  1.1963 -0.2661
12474SOL     OW38709   8.390   0.768   4.581  0.4317  0.3687 -0.4054
12474SOL    HW138710   8.323   0.722   4.631  0.1391 -0.5384 -1.5965
12474SOL    HW238711   8.450   0.700   4.551  1.4121  1.0661 -0.0935
12475SOL     OW38712   7.953   2.862   0.541 -0.0825  0.2117  0.7240
12475SOL    HW138713   7.947   2.777   0.497  2.3156  1.1260 -1.6530
12475SOL    HW238714   8.031   2.854   0.597 -0.8026  0.3505  1.7699
12476SOL     OW38715   5.482   3.497   3.061 -0.0981  0.0058  0.2371
12476SOL    HW138716   5.525   3.580   3.084  3.1889 -1.7324  1.1259
12476SOL    HW238717   5.492   3.490   2.966  0.3950  0.2711  0.2658
12477SOL     OW38718   5.108   5.884   3.205  0.6451 -0.4280  0.6675
12477SOL    HW138719   5.053   5.914   3.132 -2.2090 -0.7972  2.4739
12477SOL    HW238720   5.118   5.791   3.190  2.9532  0.0076 -0.9225
12478SOL     OW38721   7.095   0.797   6.267 -0.4293 -0.6834  0.0224
12478SOL    HW138722   7.086   0.749   6.349  0.3330 -1.6406 -0.4309
12478SOL    HW238723   7.096   0.730   6.200 -1.7349  0.1380 -0.8552
12479SOL     OW38724   2.797   7.863   5.907  0.0857 -0.3708 -0.3639
12479SOL    HW138725   2.710   7.828   5.925  0.0296 -0.0592 -0.0311
12479SOL    HW238726   2.782   7.956   5.889  0.5010 -0.0397  0.9491
12480SOL     OW38727   4.152   5.059   3.779 -0.0224 -0.2176 -0.0493
12480SOL    HW138728   4.169   4.988   3.841 -1.6473  0.6716  1.5022
12480SOL    HW238729   4.238   5.099   3.765  0.5352 -1.0465  0.8535
12481SOL     OW38730   2.214   5.856   8.634  0.1047  0.5954 -0.4447
12481SOL    HW138731   2.127   5.897   8.632  0.4615  1.3886 -0.0317
12481SOL    HW238732   2.209   5.793   8.705 -0.1853  0.5195 -0.5292
12482SOL     OW38733   5.725   8.304   5.280  0.7749 -0.0745 -0.2631
12482SOL    HW138734   5.660   8.249   5.323  1.1535  1.0233  1.8663
12482SOL    HW238735   5.677   8.348   5.210  0.1031 -1.8612 -0.9894
12483SOL     OW38736   5.926   8.531   5.195 -0.6108  0.1724 -0.5561
12483SOL    HW138737   5.869   8.476   5.248  1.2759  0.3782  1.8757
12483SOL    HW238738   5.949   8.477   5.120  0.0516 -1.8742  1.0254
12484SOL     OW38739   5.876   0.774   5.857  0.4533 -0.1115 -0.0852
12484SOL    HW138740   5.895   0.867   5.870 -1.5575  0.2630  0.5271
12484SOL    HW238741   5.856   0.766   5.764 -3.6089  1.0423  0.4949
12485SOL     OW38742   3.792   4.616   6.254 -0.2594 -0.0695  0.1830
12485SOL    HW138743   3.795   4.554   6.326 -0.4068 -0.0649  0.1926
12485SOL    HW238744   3.873   4.600   6.206 -0.8365 -1.0940 -0.4948
12486SOL     OW38745   2.786   7.299   7.409 -0.4689 -0.0421  0.1483
12486SOL    HW138746   2.821   7.303   7.320 -0.5901 -1.7657 -0.0165
12486SOL    HW238747   2.705   7.250   7.400 -2.7618  3.3443  0.6088
12487SOL     OW38748   3.057   2.048   7.957 -0.2255 -0.5620 -0.2651
12487SOL    HW138749   2.966   2.075   7.943 -0.1053 -1.2357 -2.9286
12487SOL    HW238750   3.052   1.953   7.970  0.0117 -0.4260  0.8823
12488SOL     OW38751   1.846   0.141   1.160 -0.6373  0.5926 -0.0687
12488SOL    HW138752   1.759   0.171   1.132 -0.6585 -0.2613 -0.9800
12488SOL    HW238753   1.905   0.167   1.089 -0.4157 -0.1690 -0.1742
12489SOL     OW38754   8.419   1.187   7.314 -0.6021  0.1648 -0.3360
12489SOL    HW138755   8.359   1.222   7.380  0.5116  0.2811  0.6536
12489SOL    HW238756   8.506   1.198   7.352 -0.0666 -2.0297 -0.7544
12490SOL     OW38757   4.610   7.433   8.359 -0.3830  0.5776 -0.5927
12490SOL    HW138758   4.661   7.514   8.350  1.9228 -0.7516 -0.3237
12490SOL    HW238759   4.549   7.452   8.431  1.7877  1.3518  1.1930
12491SOL     OW38760   1.304   3.874   4.379 -0.3615 -0.1411  0.1138
12491SOL    HW138761   1.335   3.784   4.390 -1.2040 -0.2735  1.5569
12491SOL    HW238762   1.313   3.913   4.466 -1.5525  0.6575 -0.1008
12492SOL     OW38763   6.958   0.980   0.485  0.6425  0.2456 -0.2798
12492SOL    HW138764   6.918   0.910   0.433  0.2277 -0.5488  1.0627
12492SOL    HW238765   6.975   0.940   0.570 -0.2621  1.9791  0.7707
12493SOL     OW38766   1.839   4.321   7.185 -0.3622 -0.2364  0.3091
12493SOL    HW138767   1.817   4.306   7.276 -0.4402 -2.1593  0.0151
12493SOL    HW238768   1.908   4.257   7.166  1.6373  1.9209 -0.2821
12494SOL     OW38769   2.740   1.442   5.486 -0.2051 -0.0748 -0.2585
12494SOL    HW138770   2.710   1.471   5.399 -0.1294  0.1903 -0.1953
12494SOL    HW238771   2.791   1.515   5.520  0.9780 -0.7288 -0.5843
12495SOL     OW38772   0.926   7.537   0.276 -0.1810  0.1719  0.4647
12495SOL    HW138773   0.958   7.622   0.246 -1.0568  0.6582  0.8885
12495SOL    HW238774   0.984   7.515   0.349 -1.6536  1.7690  2.2382
12496SOL     OW38775   4.982   5.829   0.691  0.3589  0.0336 -0.5151
12496SOL    HW138776   4.967   5.754   0.749 -0.9381 -0.6965 -1.7385
12496SOL    HW238777   5.024   5.894   0.747 -1.5638 -0.3280  1.4999
12497SOL     OW38778   2.267   4.774   2.893 -0.3828 -0.1446 -0.1397
12497SOL    HW138779   2.283   4.717   2.818 -0.3823  1.7970 -1.6900
12497SOL    HW238780   2.173   4.764   2.910 -0.3085 -0.8889 -0.1244
12498SOL     OW38781   3.251   8.031   4.155  0.6464 -0.1803 -0.2226
12498SOL    HW138782   3.269   8.046   4.248  0.1231  1.3169 -0.3375
12498SOL    HW238783   3.280   7.941   4.140  1.8542 -0.0615  1.1042
12499SOL     OW38784   6.956   6.683   0.485  0.0309 -0.0446  0.2755
12499SOL    HW138785   6.977   6.598   0.447  0.6381  0.5204 -0.6782
12499SOL    HW238786   6.893   6.722   0.424 -0.3625  0.1451  0.7879
12500SOL     OW38787   4.138   1.454   5.511 -0.1753  0.8365  0.0451
12500SOL    HW138788   4.057   1.502   5.528  0.6730  2.2474  0.2460
12500SOL    HW238789   4.178   1.441   5.597  0.6594  1.7140 -0.1960
12501SOL     OW38790   7.240   5.322   3.995  1.0016  0.5274 -0.3703
12501SOL    HW138791   7.176   5.393   3.997 -0.6699 -0.9111  1.3909
12501SOL    HW238792   7.239   5.290   3.905 -2.4431 -0.8124  0.0223
12502SOL     OW38793   3.287   3.690   7.886  0.0949 -0.3891  0.1307
12502SOL    HW138794   3.333   3.647   7.959 -1.3364 -0.8106  0.8236
12502SOL    HW238795   3.195   3.690   7.913 -0.1047  2.1206 -0.3685
12503SOL     OW38796   3.036   6.143   8.290  0.3185  0.8043  0.2292
12503SOL    HW138797   3.101   6.205   8.320  0.5483  0.8358 -0.3248
12503SOL    HW238798   2.957   6.195   8.275  0.4823  0.9418 -0.1414
12504SOL     OW38799   2.630   0.119   6.108  0.4412 -0.4063 -0.6536
12504SOL    HW138800   2.647   0.153   6.196  1.3315 -1.0580 -0.5611
12504SOL    HW238801   2.642   0.195   6.050 -0.6371  0.1472 -0.1910
12505SOL     OW38802   8.105   6.553   0.456 -0.6651 -0.1523 -0.1622
12505SOL    HW138803   8.084   6.461   0.471 -0.7491 -0.2149 -0.6632
12505SOL    HW238804   8.078   6.597   0.537 -0.2503 -0.6254  0.2382
12506SOL     OW38805   6.357   3.569   1.150  0.1170 -0.0374  0.0446
12506SOL    HW138806   6.319   3.483   1.165  1.6141 -1.1334 -1.9253
12506SOL    HW238807   6.448   3.561   1.178  0.7378  0.3151 -1.6911
12507SOL     OW38808   7.357   1.716   2.036 -0.3585 -0.2642 -0.2681
12507SOL    HW138809   7.375   1.696   1.945 -1.0873  0.6675 -0.6392
12507SOL    HW238810   7.372   1.634   2.083 -0.0309 -0.7609 -1.2272
12508SOL     OW38811   6.519   0.102   6.668 -0.4516  0.1422 -0.0295
12508SOL    HW138812   6.601   0.111   6.620  0.4355  0.1149  1.4119
12508SOL    HW238813   6.484   0.017   6.640 -0.2761  0.3870 -1.0399
12509SOL     OW38814   0.896   6.384   1.570  0.3500  0.1924  0.6306
12509SOL    HW138815   0.933   6.388   1.482 -0.6576 -1.2360  0.0823
12509SOL    HW238816   0.971   6.387   1.629  1.1612 -0.2633 -0.3535
12510SOL     OW38817   0.038   3.278   8.299  0.2756 -0.3491  0.2472
12510SOL    HW138818  -0.052   3.313   8.303 -0.2203 -1.6771  1.4345
12510SOL    HW238819   0.039   3.207   8.362  2.4114  0.1230  0.8183
12511SOL     OW38820   0.600   4.624   5.654  0.3723 -0.3957  0.1995
12511SOL    HW138821   0.542   4.606   5.727 -2.0823  2.2732 -0.8773
12511SOL    HW238822   0.590   4.549   5.596  1.4748 -2.0030  1.9785
12512SOL     OW38823   0.357   4.249   2.674  0.4551  0.2462 -0.7343
12512SOL    HW138824   0.298   4.321   2.696  1.6858  1.1911 -0.4054
12512SOL    HW238825   0.342   4.184   2.742  1.1048  1.2832  0.4302
12513SOL     OW38826   4.953   7.190   6.747  0.2506 -0.3382 -0.0175
12513SOL    HW138827   4.922   7.239   6.823  1.1150 -0.9389  0.7289
12513SOL    HW238828   4.926   7.099   6.764  1.4966 -0.6891  0.1566
12514SOL     OW38829   8.489   5.045   0.253  0.0743  0.3212  0.2446
12514SOL    HW138830   8.528   5.127   0.284 -0.3412  0.0480  1.5356
12514SOL    HW238831   8.463   5.064   0.163  1.9482  0.9292 -0.2228
12515SOL     OW38832   4.729   7.329   5.448  0.7191 -0.2078  0.6750
12515SOL    HW138833   4.724   7.302   5.540 -0.4939 -2.3387  0.0479
12515SOL    HW238834   4.818   7.305   5.420  0.6747 -0.7002  0.9588
12516SOL     OW38835   0.318   7.122   6.697  0.3718  0.4060  0.4071
12516SOL    HW138836   0.358   7.042   6.662  1.5566  1.3240 -0.4094
12516SOL    HW238837   0.264   7.091   6.769  2.1393 -0.9787  1.2364
12517SOL     OW38838   5.916   7.754   3.451  0.1798  0.0520 -0.1796
12517SOL    HW138839   5.992   7.710   3.414 -0.2881 -0.6100 -0.3626
12517SOL    HW238840   5.924   7.741   3.546  0.3878  0.1346 -0.1864
12518SOL     OW38841   1.297   8.155   3.473  0.0179 -0.1720 -0.2621
12518SOL    HW138842   1.267   8.065   3.489  0.0598 -0.4322 -1.5583
12518SOL    HW238843   1.237   8.189   3.407  0.0292  0.7552  0.1878
12519SOL     OW38844   0.452   6.628   5.124 -0.3896  0.2412  0.0676
12519SOL    HW138845   0.542   6.601   5.142 -0.3496  1.0865  1.2864
12519SOL    HW238846   0.400   6.550   5.145  0.0275 -0.1781 -0.4201
12520SOL     OW38847   8.610   1.275   3.694  0.2145 -0.2029 -0.4373
12520SOL    HW138848   8.653   1.282   3.780  0.8814  0.6803 -0.8291
12520SOL    HW238849   8.517   1.263   3.715  0.5055 -1.1866  0.4111
12521SOL     OW38850   8.167   7.412   6.357 -1.2323  0.1407 -0.4514
12521SOL    HW138851   8.241   7.447   6.407 -0.8175  0.2955 -1.1612
12521SOL    HW238852   8.173   7.317   6.370 -1.8118  0.2371  0.7127
12522SOL     OW38853   6.458   3.317   5.103  0.3307  0.6980 -0.2716
12522SOL    HW138854   6.499   3.360   5.178  0.1966 -0.5966  0.5627
12522SOL    HW238855   6.377   3.280   5.138 -0.7331  1.7467 -1.5137
12523SOL     OW38856   7.080   3.203   4.577  0.0344  0.5251 -0.0482
12523SOL    HW138857   7.068   3.246   4.662  0.3829  1.8865 -0.6480
12523SOL    HW238858   7.114   3.116   4.597  0.1063  0.8316  1.2003
12524SOL     OW38859   3.075   5.713   5.357  0.1746 -0.7888  0.6749
12524SOL    HW138860   3.026   5.666   5.289 -1.0482  1.2084  0.0798
12524SOL    HW238861   3.163   5.724   5.320 -0.1111 -0.8239 -0.0235
12525SOL     OW38862   6.683   7.533   7.138 -0.2426 -0.8000 -0.1840
12525SOL    HW138863   6.692   7.628   7.147 -0.3639 -0.4638 -2.8449
12525SOL    HW238864   6.749   7.497   7.197 -2.6711  0.7125  3.8753
12526SOL     OW38865   7.612   1.965   1.109  0.4007 -0.3419  0.1841
12526SOL    HW138866   7.706   1.980   1.119  0.4665 -0.1922 -0.6158
12526SOL    HW238867   7.605   1.893   1.045 -0.0358 -0.0819 -0.0680
12527SOL     OW38868   5.833   3.236   3.505  0.7488 -0.3134 -0.3608
12527SOL    HW138869   5.768   3.243   3.435 -0.2436 -1.1514  0.4275
12527SOL    HW238870   5.829   3.320   3.551  0.1517 -0.3865 -0.2736
12528SOL     OW38871   0.384   7.168   2.610 -0.6336  0.1163  0.2594
12528SOL    HW138872   0.457   7.137   2.556 -1.3429 -0.3152 -0.4653
12528SOL    HW238873   0.413   7.253   2.643  0.7419 -0.6277  1.0772
12529SOL     OW38874   1.417   0.999   1.854  0.0251 -0.7822  0.6439
12529SOL    HW138875   1.436   0.956   1.771  0.0739  0.1202  0.1806
12529SOL    HW238876   1.457   1.085   1.847 -0.5050 -0.4636  1.3549
12530SOL     OW38877   3.315   8.322   6.616 -0.3390  0.2983 -0.3510
12530SOL    HW138878   3.407   8.344   6.604 -0.1684  0.0364  0.4319
12530SOL    HW238879   3.267   8.390   6.569  0.1683  2.0776  1.5601
12531SOL     OW38880   5.984   8.097   6.118 -0.0373  0.2226  0.5212
12531SOL    HW138881   6.041   8.133   6.051  0.4197  1.6209  1.6097
12531SOL    HW238882   5.944   8.020   6.077  0.7119  0.6569 -1.1054
12532SOL     OW38883   7.271   1.416   3.554 -0.1696  0.4330  0.2980
12532SOL    HW138884   7.226   1.399   3.637  1.1492  0.4901  1.0415
12532SOL    HW238885   7.355   1.452   3.579 -0.5311  2.3999 -1.1385
12533SOL     OW38886   0.591   7.952   0.978 -0.3922  0.3418 -0.0980
12533SOL    HW138887   0.559   7.901   0.903 -0.9161  0.3539  0.1178
12533SOL    HW238888   0.527   8.022   0.989 -1.6041 -0.9711  1.7800
12534SOL     OW38889   8.109   7.029   0.935  0.0037 -1.0177 -0.4852
12534SOL    HW138890   8.146   7.107   0.894  0.3505 -0.0894  1.4883
12534SOL    HW238891   8.014   7.043   0.931  0.0236  1.2962  2.8525
12535SOL     OW38892   1.429   3.148   6.938  0.1343 -0.1415  0.1172
12535SOL    HW138893   1.341   3.178   6.916 -0.3481 -0.0561  1.9507
12535SOL    HW238894   1.437   3.164   7.032  1.6452 -1.3155  0.2395
12536SOL     OW38895   0.200   4.248   1.090 -0.3399  0.0369  0.4668
12536SOL    HW138896   0.195   4.250   0.995 -0.0096 -0.3231  0.4395
12536SOL    HW238897   0.162   4.332   1.118 -0.4235  0.1494  0.0208
12537SOL     OW38898   1.768   5.461   8.657  0.0804  0.2328 -0.0524
12537SOL    HW138899   1.776   5.406   8.579 -1.7137  0.7160 -0.6355
12537SOL    HW238900   1.724   5.540   8.625  0.7419  1.1095  1.1642
12538SOL     OW38901   3.220   3.375   8.563  0.0680  0.5316  0.1727
12538SOL    HW138902   3.291   3.403   8.621 -0.5314  0.0901  1.1534
12538SOL    HW238903   3.143   3.421   8.596 -0.2517  0.4047 -0.3847
12539SOL     OW38904   8.387   6.095   4.625  0.5483  0.4932 -0.0493
12539SOL    HW138905   8.314   6.157   4.623  1.7118  1.9212 -1.2950
12539SOL    HW238906   8.418   6.093   4.534  2.1235  0.0493  0.4681
12540SOL     OW38907   8.326   4.830   8.102 -0.3046  0.1919  0.4331
12540SOL    HW138908   8.414   4.865   8.086 -0.2996  0.0325  0.1258
12540SOL    HW238909   8.294   4.804   8.016 -0.1938 -0.8453  0.6937
12541SOL     OW38910   8.621   2.353   1.665 -0.3161  0.7047  0.1205
12541SOL    HW138911   8.603   2.259   1.673 -1.6662  0.7680 -1.4664
12541SOL    HW238912   8.686   2.359   1.595 -0.4394  0.9665  0.0267
12542SOL     OW38913   0.348   7.002   0.268  0.4408 -0.5529  0.3245
12542SOL    HW138914   0.292   6.999   0.345 -1.2338 -4.4929 -0.7934
12542SOL    HW238915   0.291   7.034   0.198  0.5225 -1.5322 -0.2001
12543SOL     OW38916   4.946   2.278   2.967  0.0499  0.2376  0.5298
12543SOL    HW138917   4.881   2.222   2.926  0.6624 -1.2027  1.4545
12543SOL    HW238918   4.896   2.335   3.026 -0.4005 -0.7370  1.1036
12544SOL     OW38919   8.121   4.801   5.814  0.2181  0.3486 -0.1899
12544SOL    HW138920   8.044   4.856   5.798  0.0286  0.7460  1.8061
12544SOL    HW238921   8.089   4.730   5.870  0.8112 -0.8970 -1.3671
12545SOL     OW38922   7.925   4.684   2.352  0.2806 -0.1754 -0.5057
12545SOL    HW138923   7.954   4.718   2.268 -0.2546 -0.2311 -0.7147
12545SOL    HW238924   7.914   4.590   2.337  2.6401 -0.6629  0.3005
12546SOL     OW38925   6.242   6.142   5.286 -0.0539 -0.0942 -0.1323
12546SOL    HW138926   6.158   6.098   5.280  0.9766 -2.0868 -0.9109
12546SOL    HW238927   6.287   6.120   5.204  0.7245  2.0727 -0.3596
12547SOL     OW38928   8.528   8.295   0.650  0.2769 -0.2301  0.5828
12547SOL    HW138929   8.441   8.267   0.680 -0.5225  0.3142 -1.1549
12547SOL    HW238930   8.541   8.251   0.566  1.7352 -0.3646  0.8380
12548SOL     OW38931   8.122   7.790   8.006  0.4266  0.1674 -0.5209
12548SOL    HW138932   8.185   7.854   7.973  1.4110 -1.5572 -2.2294
12548SOL    HW238933   8.163   7.705   7.987 -2.7021 -1.0752 -2.4494
12549SOL     OW38934   8.081   2.200   5.320 -0.0562 -0.5119  0.2933
12549SOL    HW138935   8.075   2.107   5.342 -0.4997 -0.8135 -0.9898
12549SOL    HW238936   8.036   2.207   5.236 -0.6685  0.9947  0.7118
12550SOL     OW38937   3.935   1.128   4.633 -0.4555 -0.4335  0.0301
12550SOL    HW138938   3.852   1.108   4.588 -1.3563 -0.4226  1.6239
12550SOL    HW238939   3.943   1.223   4.627 -0.0351 -0.5146 -0.9666
12551SOL     OW38940   6.921   2.744   0.348  0.3317  0.2882  0.4365
12551SOL    HW138941   6.915   2.677   0.416 -0.5502  0.6594  0.7375
12551SOL    HW238942   6.853   2.808   0.370 -0.5688 -0.0168 -1.2664
12552SOL     OW38943   2.470   6.117   4.684  0.2514  0.1724 -0.3897
12552SOL    HW138944   2.375   6.123   4.679  0.3252  1.1452 -1.1990
12552SOL    HW238945   2.501   6.187   4.626  1.4596  0.8930  1.0428
12553SOL     OW38946   2.118   0.585   6.380  0.1910  0.4194  0.4167
12553SOL    HW138947   2.129   0.523   6.308 -0.1125  0.2745  0.4934
12553SOL    HW238948   2.132   0.533   6.459 -0.9802  0.2289  0.5189
12554SOL     OW38949   5.660   5.214   2.836  0.0809 -0.0381  0.1262
12554SOL    HW138950   5.659   5.309   2.820  0.8969 -0.0318  0.0682
12554SOL    HW238951   5.672   5.176   2.749  0.4341 -0.1609  0.2251
12555SOL     OW38952   2.335   8.282   2.571 -0.5681 -0.5304 -0.2469
12555SOL    HW138953   2.427   8.281   2.596 -0.3318  0.8547 -1.0021
12555SOL    HW238954   2.292   8.229   2.638  0.8256 -1.5841 -0.1340
12556SOL     OW38955   0.952   4.724   1.566 -0.0908 -0.3014 -0.4420
12556SOL    HW138956   0.876   4.754   1.515 -0.1059  0.0224 -0.2305
12556SOL    HW238957   0.926   4.737   1.658  0.0398 -0.6287 -0.3576
12557SOL     OW38958   2.104   6.387   7.397  0.2624  0.5843 -0.2799
12557SOL    HW138959   2.142   6.364   7.482  0.7928  1.7351 -0.1859
12557SOL    HW238960   2.152   6.465   7.370 -2.0488  2.1740 -0.1144
12558SOL     OW38961   5.034   0.090   6.459  0.2701 -0.3355 -0.1513
12558SOL    HW138962   5.090   0.015   6.480 -0.5846 -0.2205  3.2374
12558SOL    HW238963   4.974   0.058   6.392  0.5794 -2.3756  0.4897
12559SOL     OW38964   5.342   4.853   4.578  0.2984  0.3095  0.0985
12559SOL    HW138965   5.272   4.916   4.561 -0.9869 -1.6345 -2.6252
12559SOL    HW238966   5.419   4.891   4.535 -0.1748  0.5287 -0.5630
12560SOL     OW38967   0.978   7.660   5.327 -0.1759  0.0386 -0.3697
12560SOL    HW138968   0.929   7.578   5.328  1.9299 -1.2858 -0.2289
12560SOL    HW238969   0.930   7.716   5.266 -1.8633 -1.1372 -0.1888
12561SOL     OW38970   4.273   6.783   5.518 -0.1996 -0.3485  0.1846
12561SOL    HW138971   4.273   6.757   5.610  1.8123 -0.6104  0.1496
12561SOL    HW238972   4.281   6.879   5.520 -2.4408 -0.1155  0.2607
12562SOL     OW38973   0.371   6.877   3.521 -0.6095 -0.6316  0.0896
12562SOL    HW138974   0.302   6.813   3.539  0.5438 -2.2001 -0.7921
12562SOL    HW238975   0.410   6.847   3.439 -0.4525  1.6265 -0.7085
12563SOL     OW38976   2.719   8.279   7.419 -0.6999  0.1687  0.0223
12563SOL    HW138977   2.693   8.370   7.407  0.7388  0.7049  0.7636
12563SOL    HW238978   2.679   8.254   7.503 -0.5035  0.3438  0.1684
12564SOL     OW38979   6.480   0.689   7.478  0.1642 -0.0830 -0.0588
12564SOL    HW138980   6.562   0.694   7.430  1.2581  1.3721  1.7851
12564SOL    HW238981   6.440   0.775   7.466  0.5871  0.4194  1.6816
12565SOL     OW38982   0.002   1.907   5.443  0.0649 -0.3310  1.1057
12565SOL    HW138983  -0.089   1.915   5.470 -0.0858  0.4968  0.4078
12565SOL    HW238984   0.001   1.929   5.350  0.7768 -1.6732  0.7473
12566SOL     OW38985   8.033   5.098   5.068  0.1207 -0.0794 -0.0395
12566SOL    HW138986   7.967   5.080   5.001 -0.5217 -0.4836  0.6715
12566SOL    HW238987   8.110   5.127   5.020 -0.3799 -0.2006 -0.9327
12567SOL     OW38988   2.207   4.312   6.990 -0.3851  0.1929 -0.2238
12567SOL    HW138989   2.132   4.343   6.939 -0.2514 -0.0455 -0.5762
12567SOL    HW238990   2.206   4.217   6.976  1.2064  0.3742 -1.9703
12568SOL     OW38991   7.041   5.208   2.830  0.0863 -0.0320 -0.1210
12568SOL    HW138992   6.957   5.179   2.865  0.0890  0.9660  0.7571
12568SOL    HW238993   7.054   5.295   2.868  1.6172 -0.2532 -0.0936
12569SOL     OW38994   3.166   5.199   8.039  0.8750  0.2741 -0.6140
12569SOL    HW138995   3.261   5.193   8.027  1.0041  1.0110 -0.0151
12569SOL    HW238996   3.155   5.255   8.116 -0.0518  0.4703 -0.8806
12570SOL     OW38997   6.697   7.140   6.511 -0.0469  0.1198 -0.5159
12570SOL    HW138998   6.713   7.196   6.586  0.0272 -0.0616 -0.3948
12570SOL    HW238999   6.653   7.063   6.547  0.4296 -0.1874 -0.5831
12571SOL     OW39000   5.862   6.633   3.300  0.4631 -0.2476  0.3340
12571SOL    HW139001   5.775   6.642   3.261  0.6256  1.1323  0.2554
12571SOL    HW239002   5.865   6.542   3.329 -0.9711 -0.3485  0.2626
12572SOL     OW39003   6.946   7.796   6.335 -0.3641  0.4729 -0.0635
12572SOL    HW139004   6.952   7.797   6.431 -0.6550 -1.0629 -0.0158
12572SOL    HW239005   6.853   7.812   6.317 -0.7306 -1.3852  0.0050
12573SOL     OW39006   2.699   2.183   2.017  0.2166 -0.3747  0.4535
12573SOL    HW139007   2.692   2.279   2.013  0.4529 -0.3922 -2.1995
12573SOL    HW239008   2.617   2.152   1.978 -0.2644 -1.3172  2.1283
12574SOL     OW39009   7.329   7.495   5.268  0.0991 -0.4030  0.1099
12574SOL    HW139010   7.412   7.529   5.303  0.8691 -2.2670  0.1978
12574SOL    HW239011   7.279   7.470   5.345 -0.2373 -0.0041  0.0262
12575SOL     OW39012   7.530   5.711   4.359 -0.1778  0.2025  0.3909
12575SOL    HW139013   7.554   5.776   4.425 -0.0255  0.2169  0.3237
12575SOL    HW239014   7.604   5.710   4.298  0.0229 -0.3586  0.6379
12576SOL     OW39015   3.837   1.160   8.195  0.1695 -0.2794 -0.0111
12576SOL    HW139016   3.825   1.224   8.125  0.5429 -0.1983 -0.0042
12576SOL    HW239017   3.910   1.106   8.165 -0.3919 -0.9412 -0.1897
12577SOL     OW39018   2.569   2.711   4.650  0.3245  0.1353  0.0139
12577SOL    HW139019   2.567   2.780   4.716  1.3418  0.6336 -0.4542
12577SOL    HW239020   2.527   2.750   4.573  3.2824  1.2713 -1.1586
12578SOL     OW39021   5.668   5.875   4.683  0.4815 -0.3034 -0.0511
12578SOL    HW139022   5.661   5.905   4.593 -2.6174  0.0024  0.1884
12578SOL    HW239023   5.670   5.780   4.677 -0.9562 -0.3288 -0.4401
12579SOL     OW39024   1.472   8.049   5.953 -1.2226 -0.1454 -0.2416
12579SOL    HW139025   1.454   8.066   5.860 -0.4063  0.0175 -0.3748
12579SOL    HW239026   1.424   7.968   5.972 -1.1567 -0.3399 -0.8846
12580SOL     OW39027   4.776   3.461   7.783 -0.0407  0.2152  0.0459
12580SOL    HW139028   4.767   3.373   7.746  1.0659 -0.3168  0.9671
12580SOL    HW239029   4.751   3.451   7.875  1.3558  0.5546  0.4891
12581SOL     OW39030   6.143   2.587   4.798  0.0051  0.5934 -0.2786
12581SOL    HW139031   6.166   2.577   4.890 -0.7540 -0.2227 -0.1626
12581SOL    HW239032   6.226   2.581   4.752  0.5389  2.1917  0.4199
12582SOL     OW39033   0.693   7.497   7.557  0.0717  0.2427 -0.6463
12582SOL    HW139034   0.696   7.565   7.490 -0.6827  0.2079 -0.7265
12582SOL    HW239035   0.654   7.421   7.512  2.1935 -0.7371 -0.9723
12583SOL     OW39036   3.016   8.675   5.125  0.2678  0.0999  0.0221
12583SOL    HW139037   3.099   8.722   5.134  0.5719 -0.4632  0.1507
12583SOL    HW239038   2.954   8.742   5.095  0.3349  0.9486  1.6592
12584SOL     OW39039   7.879   1.984   1.171  0.4229 -0.1305  0.6416
12584SOL    HW139040   7.926   1.977   1.255  1.0813 -0.3961  0.2566
12584SOL    HW239041   7.902   1.905   1.124  1.2418  0.6916 -0.3884
12585SOL     OW39042   8.401   2.940   7.018 -0.2718  0.0694 -0.0726
12585SOL    HW139043   8.327   2.879   7.010 -0.8266  0.8839 -1.5881
12585SOL    HW239044   8.360   3.026   7.026  0.4959  0.2952  2.3688
12586SOL     OW39045   4.389   3.882   4.327  0.5377  0.1604  0.6165
12586SOL    HW139046   4.429   3.955   4.374  0.5808  0.1029  0.6688
12586SOL    HW239047   4.300   3.877   4.362  0.7046 -0.1537  0.9998
12587SOL     OW39048   7.393   4.087   5.775 -0.3255 -0.3548 -0.6526
12587SOL    HW139049   7.330   4.095   5.703 -0.0471 -1.2447 -1.0160
12587SOL    HW239050   7.439   4.004   5.757  2.3663  1.2011 -1.5514
12588SOL     OW39051   4.938   0.445   2.734 -0.1678 -0.3113  0.4671
12588SOL    HW139052   5.020   0.422   2.691 -1.1280  0.3411 -1.8388
12588SOL    HW239053   4.894   0.362   2.749  0.8109 -0.6571  1.6326
12589SOL     OW39054   5.233   8.639   5.233 -0.2813 -0.7212  0.0635
12589SOL    HW139055   5.270   8.693   5.163 -2.7588 -0.4762 -1.1959
12589SOL    HW239056   5.285   8.559   5.232 -0.3560 -0.8132 -2.2550
12590SOL     OW39057   7.290   4.360   4.052  0.4013  0.2205 -0.6664
12590SOL    HW139058   7.340   4.361   3.969 -2.0377  0.5657 -2.2254
12590SOL    HW239059   7.205   4.395   4.029 -0.6831 -0.5466  1.8493
12591SOL     OW39060   5.712   8.287   0.379 -0.2444  0.9455  0.3367
12591SOL    HW139061   5.717   8.214   0.318 -1.9327  2.4961 -1.8327
12591SOL    HW239062   5.692   8.247   0.463 -0.9288 -1.1017 -0.7378
12592SOL     OW39063   8.169   7.838   2.717 -0.1555 -0.2712 -0.2042
12592SOL    HW139064   8.159   7.855   2.811 -0.2183  1.5350 -0.4957
12592SOL    HW239065   8.086   7.865   2.678 -0.0660 -0.8284 -0.8118
12593SOL     OW39066   0.644   6.954   6.984  0.0075 -0.3244  0.1762
12593SOL    HW139067   0.624   7.014   6.913  0.5696 -0.9170 -0.5030
12593SOL    HW239068   0.650   6.868   6.942  2.2252 -0.4325  0.5786
12594SOL     OW39069   2.710   6.864   2.952  0.2028 -0.5413 -0.3520
12594SOL    HW139070   2.768   6.810   2.899 -0.3707 -2.0644  0.5248
12594SOL    HW239071   2.767   6.897   3.022 -0.4426 -4.7588  2.5251
12595SOL     OW39072   4.931   3.626   3.866 -0.2570 -0.0677  0.3174
12595SOL    HW139073   4.907   3.700   3.810 -0.1090 -0.7333 -0.6461
12595SOL    HW239074   4.910   3.655   3.954  2.0439  2.0632  0.2682
12596SOL     OW39075   2.849   3.718   5.920 -0.5154  0.0703  0.3566
12596SOL    HW139076   2.923   3.693   5.863 -0.0646  0.2503  0.8506
12596SOL    HW239077   2.877   3.691   6.008  1.2595  4.5748  1.4981
12597SOL     OW39078   3.394   7.316   1.276  0.3652  0.2139  0.3258
12597SOL    HW139079   3.470   7.330   1.220  0.3969  0.6661  0.4778
12597SOL    HW239080   3.405   7.227   1.309 -0.3040 -0.5318 -1.3729
12598SOL     OW39081   5.868   1.443   5.925 -0.4076 -0.2581  0.9292
12598SOL    HW139082   5.816   1.408   5.997 -0.4858 -1.0860  0.4822
12598SOL    HW239083   5.955   1.457   5.962 -1.0241  1.5968  1.8177
12599SOL     OW39084   3.892   1.414   7.130  0.2272  0.5395 -0.0563
12599SOL    HW139085   3.934   1.385   7.049 -1.6204 -0.5869 -0.6634
12599SOL    HW239086   3.847   1.495   7.106 -1.8820 -0.7688 -0.7114
12600SOL     OW39087   3.504   8.229   0.477  0.5343 -0.0249 -0.4967
12600SOL    HW139088   3.538   8.315   0.452  0.1299 -0.0290 -1.0955
12600SOL    HW239089   3.410   8.234   0.457  0.2958 -0.2368  0.5039
12601SOL     OW39090   1.913   2.149   1.508  1.0866  0.1966 -0.4154
12601SOL    HW139091   1.996   2.194   1.521  0.6500  0.9570 -0.1872
12601SOL    HW239092   1.921   2.108   1.422  1.3961  0.9287 -0.7377
12602SOL     OW39093   1.737   8.111   0.905 -0.0471  0.2438 -0.1268
12602SOL    HW139094   1.804   8.178   0.912  0.6519 -0.4025 -0.4832
12602SOL    HW239095   1.774   8.034   0.948 -1.1136  0.2745  0.9059
12603SOL     OW39096   1.443   3.195   7.204  0.0090 -0.0853 -0.4355
12603SOL    HW139097   1.408   3.267   7.257  1.6067  0.9295 -0.6981
12603SOL    HW239098   1.471   3.130   7.267 -0.1055  0.1622 -0.1279
12604SOL     OW39099   6.162   4.248   0.311  0.1932 -0.0242  0.6073
12604SOL    HW139100   6.196   4.261   0.400  0.5565  0.3784  0.4126
12604SOL    HW239101   6.209   4.172   0.278  0.2025 -0.0536  0.6866
12605SOL     OW39102   3.734   1.806   0.691 -0.3872  0.1572  0.4268
12605SOL    HW139103   3.740   1.711   0.691  1.0594  0.2283  1.1325
12605SOL    HW239104   3.709   1.828   0.781 -2.8596  0.3730 -0.2359
12606SOL     OW39105   7.863   7.753   3.983 -0.4190 -0.2257 -0.3326
12606SOL    HW139106   7.928   7.811   4.022 -2.3056  1.2778  0.7677
12606SOL    HW239107   7.789   7.811   3.964 -1.1737 -1.7331 -2.2148
12607SOL     OW39108   5.821   6.889   3.444  0.0026 -0.1277 -0.6443
12607SOL    HW139109   5.858   6.815   3.396 -0.0753  0.1057 -1.0701
12607SOL    HW239110   5.895   6.925   3.494 -0.1721 -1.0703  0.3109
12608SOL     OW39111   3.442   3.556   8.076 -0.2693  0.0188 -0.0565
12608SOL    HW139112   3.450   3.584   8.167 -0.1049  0.3393 -0.1679
12608SOL    HW239113   3.532   3.536   8.049 -0.4603 -1.4023  0.2614
12609SOL     OW39114   7.610   6.625   7.596  0.3371 -0.2481 -0.5315
12609SOL    HW139115   7.594   6.654   7.506  2.0689 -2.8253 -1.7814
12609SOL    HW239116   7.561   6.543   7.604 -1.2789  0.8126  1.5781
12610SOL     OW39117   7.574   6.824   5.955  0.0480  0.0073  0.1927
12610SOL    HW139118   7.651   6.796   5.905  0.4361 -0.2036  0.8960
12610SOL    HW239119   7.609   6.880   6.024 -0.5290  0.6422 -0.0177
12611SOL     OW39120   3.973   6.840   4.628 -0.1643 -0.0908  0.1645
12611SOL    HW139121   4.007   6.796   4.551  0.2241 -1.5802  1.1392
12611SOL    HW239122   4.050   6.860   4.681 -0.5414 -0.8050  1.0214
12612SOL     OW39123   6.787   8.388   4.683 -0.0469 -0.2256  0.2484
12612SOL    HW139124   6.877   8.356   4.695  0.0402 -0.6846 -1.4078
12612SOL    HW239125   6.776   8.393   4.588 -0.9236  2.3258  0.4242
12613SOL     OW39126   0.376   6.936   5.598 -0.7819  0.0681 -0.1636
12613SOL    HW139127   0.415   6.903   5.679  2.0516 -0.3672 -1.5647
12613SOL    HW239128   0.425   6.893   5.528 -1.8828  1.7811 -2.1227
12614SOL     OW39129   0.202   3.539   2.768 -0.4848 -0.1031  0.0209
12614SOL    HW139130   0.182   3.501   2.682 -0.3847 -0.1432  0.0146
12614SOL    HW239131   0.295   3.564   2.762 -0.4310 -0.2620  0.1753
12615SOL     OW39132   0.654   2.869   4.747  0.0401 -0.2120  0.0761
12615SOL    HW139133   0.707   2.797   4.714  0.7398  0.5048 -0.4131
12615SOL    HW239134   0.697   2.895   4.829  1.8771  1.8437 -1.4313
12616SOL     OW39135   1.022   6.931   4.629 -0.5011  0.3536  1.1860
12616SOL    HW139136   1.014   7.025   4.640  0.0861  0.2725  2.4707
12616SOL    HW239137   1.107   6.918   4.586 -0.7088  0.4179  0.7510
12617SOL     OW39138   1.664   5.434   0.363  0.4293 -0.3165 -0.0902
12617SOL    HW139139   1.573   5.458   0.382  0.0483 -0.4315 -1.5778
12617SOL    HW239140   1.656   5.359   0.304  1.5028 -0.3943 -0.1541
12618SOL     OW39141   0.930   5.846   2.960  0.1265  0.6399 -0.2724
12618SOL    HW139142   0.841   5.872   2.986  0.1649  0.8284 -0.3222
12618SOL    HW239143   0.984   5.865   3.037  0.2108  1.0301 -0.4234
12619SOL     OW39144   0.701   8.462   6.968  0.3677 -0.4613 -0.4545
12619SOL    HW139145   0.703   8.556   6.953  1.3176 -0.2481  0.8451
12619SOL    HW239146   0.740   8.424   6.889  2.5135  0.4121  0.1331
12620SOL     OW39147   2.128   6.370   0.938  0.5289 -0.0054 -0.0587
12620SOL    HW139148   2.110   6.280   0.912  0.4066  0.1604 -0.5552
12620SOL    HW239149   2.042   6.408   0.956  0.4606  0.4298 -1.2498
12621SOL     OW39150   0.597   4.365   0.896  0.0538 -0.5580  0.1808
12621SOL    HW139151   0.627   4.386   0.984  0.4701  1.0523 -0.2958
12621SOL    HW239152   0.553   4.444   0.866  1.2876 -0.4813 -1.6035
12622SOL     OW39153   1.971   7.675   6.051  0.1282  0.1639 -0.0936
12622SOL    HW139154   1.884   7.645   6.024  0.6467 -0.6093 -0.9489
12622SOL    HW239155   2.022   7.678   5.971  0.9799  0.3351  0.4410
12623SOL     OW39156   2.448   2.038   5.547  0.4939 -0.2641 -0.6491
12623SOL    HW139157   2.492   1.954   5.551  1.5118  0.2597 -0.4271
12623SOL    HW239158   2.518   2.102   5.564 -0.7322  0.5026  2.0876
12624SOL     OW39159   7.222   4.163   4.816 -0.1844  1.0796  0.3033
12624SOL    HW139160   7.251   4.207   4.736  0.7846  1.9480  1.1081
12624SOL    HW239161   7.134   4.130   4.794 -0.9625  3.3883 -0.3714
12625SOL     OW39162   4.974   1.571   5.725 -0.4382 -0.2901 -0.0002
12625SOL    HW139163   4.998   1.583   5.634 -0.7644  1.4570  0.1075
12625SOL    HW239164   4.966   1.476   5.736  0.8619 -0.6034 -1.4378
12626SOL     OW39165   2.595   4.477   7.528 -0.1403 -0.4975 -0.0102
12626SOL    HW139166   2.672   4.480   7.470  0.3286 -0.4045  0.6003
12626SOL    HW239167   2.548   4.558   7.509  0.1398 -0.3516 -0.0944
12627SOL     OW39168   3.605   4.113   6.302  0.4515  0.5855 -0.0262
12627SOL    HW139169   3.602   4.021   6.275  0.3579 -0.2459  2.5043
12627SOL    HW239170   3.675   4.151   6.250  0.6308 -0.9655 -1.0027
12628SOL     OW39171   0.625   7.418   5.885 -0.1640  0.2073  0.0757
12628SOL    HW139172   0.632   7.487   5.819 -1.6429  0.0884 -0.2460
12628SOL    HW239173   0.666   7.342   5.845  0.3291  0.5545 -0.0847
12629SOL     OW39174   3.830   8.503   5.578  0.1596  0.0226  0.0188
12629SOL    HW139175   3.889   8.574   5.553  1.1493 -1.0878 -0.9073
12629SOL    HW239176   3.886   8.442   5.626 -0.5402 -0.4365  0.2584
12630SOL     OW39177   2.524   6.194   7.479  0.0834 -0.4558 -0.3142
12630SOL    HW139178   2.575   6.163   7.554 -0.3841 -0.5919 -0.0505
12630SOL    HW239179   2.455   6.129   7.469  0.0898 -0.3902 -0.8127
12631SOL     OW39180   8.616   7.156   2.990 -0.5566  0.6960  0.0306
12631SOL    HW139181   8.662   7.098   3.051 -0.5619  1.5413  0.8603
12631SOL    HW239182   8.550   7.099   2.949  1.0911 -0.5116 -1.1170
12632SOL     OW39183   1.215   2.635   1.163 -0.2727 -0.0090 -0.6684
12632SOL    HW139184   1.243   2.724   1.184 -0.4849 -0.4523  1.8281
12632SOL    HW239185   1.125   2.645   1.131  0.2710  0.7825 -2.0177
12633SOL     OW39186   1.780   1.290   8.170 -0.0548  0.9186 -0.7346
12633SOL    HW139187   1.724   1.269   8.244  1.0528  1.4009  0.2785
12633SOL    HW239188   1.861   1.322   8.210  1.0793 -0.0839 -2.1369
12634SOL     OW39189   3.517   8.207   7.245  0.3427  0.1815  0.2735
12634SOL    HW139190   3.601   8.213   7.199 -0.0973 -0.0276 -0.5550
12634SOL    HW239191   3.524   8.125   7.295  0.9447  0.5705  0.8501
12635SOL     OW39192   0.565   8.455   0.844 -0.4098 -0.3413 -0.2172
12635SOL    HW139193   0.557   8.364   0.872 -0.4906  0.0517  1.0932
12635SOL    HW239194   0.655   8.480   0.865 -0.6326  0.1205  0.2394
12636SOL     OW39195   0.694   2.337   8.605  0.4671  0.4697 -0.0047
12636SOL    HW139196   0.775   2.316   8.649 -0.0020 -0.4841  0.4299
12636SOL    HW239197   0.665   2.255   8.566 -0.7428  0.5787  0.6080
12637SOL     OW39198   4.183   5.282   0.418  0.1572  0.5092  0.6700
12637SOL    HW139199   4.199   5.281   0.324  0.5484 -0.5236  0.7366
12637SOL    HW239200   4.268   5.308   0.456  1.0342 -2.2910  0.8774
12638SOL     OW39201   1.150   0.072   7.100 -0.2131 -0.3143  0.0051
12638SOL    HW139202   1.099   0.046   7.177  0.2270  0.3122  0.5230
12638SOL    HW239203   1.091   0.058   7.026 -1.5426  1.3837  0.6649
12639SOL     OW39204   6.899   4.366   7.629  0.1473  0.1579  0.3884
12639SOL    HW139205   6.876   4.315   7.707  2.6149 -0.4686  0.7903
12639SOL    HW239206   6.946   4.304   7.573  0.6881  1.2722 -0.4201
12640SOL     OW39207   4.871   8.231   0.894 -0.0113  0.1828  0.1952
12640SOL    HW139208   4.808   8.187   0.837  0.2844 -0.7995  0.6027
12640SOL    HW239209   4.954   8.185   0.879  0.8321  1.9463 -0.9024
12641SOL     OW39210   3.704   0.114   7.677 -0.2228 -0.2205 -0.3856
12641SOL    HW139211   3.673   0.025   7.661 -1.1077  0.1899 -1.0644
12641SOL    HW239212   3.725   0.148   7.591  2.6992 -0.6345  0.0743
12642SOL     OW39213   6.062   8.620   7.163  0.1513  0.4361  0.4041
12642SOL    HW139214   6.114   8.566   7.103 -1.0099 -2.5007  1.8522
12642SOL    HW239215   6.081   8.710   7.136  2.4272 -0.6190 -2.0050
12643SOL     OW39216   6.635   3.598   5.789 -0.1787 -0.2859  0.0774
12643SOL    HW139217   6.579   3.658   5.839 -2.8694 -0.5481 -2.3173
12643SOL    HW239218   6.591   3.513   5.797  0.0317 -0.5822 -1.5893
12644SOL     OW39219   3.302   3.383   2.840 -0.0282  0.3531  0.4564
12644SOL    HW139220   3.312   3.471   2.802  0.2309 -0.3408 -1.1630
12644SOL    HW239221   3.221   3.350   2.802  0.5654 -0.6044 -0.0191
12645SOL     OW39222   1.782   6.465   5.078  0.2165  0.0434  0.7468
12645SOL    HW139223   1.877   6.470   5.087  0.2011  0.8964  0.5855
12645SOL    HW239224   1.749   6.503   5.160  0.0332  1.0514  0.2195
12646SOL     OW39225   0.565   7.396   7.164  0.3904  0.2829  0.5684
12646SOL    HW139226   0.603   7.387   7.076 -0.2503  0.0429  0.3140
12646SOL    HW239227   0.485   7.447   7.151 -0.9649 -1.7222  0.6451
12647SOL     OW39228   6.519   5.811   7.338 -0.0227 -0.4525 -0.5033
12647SOL    HW139229   6.476   5.728   7.317 -1.3340  0.0986 -0.0920
12647SOL    HW239230   6.474   5.842   7.417  0.7205  0.4655 -0.4168
12648SOL     OW39231   3.152   6.762   3.699 -0.6396  0.1017 -0.2263
12648SOL    HW139232   3.208   6.819   3.647  0.9547 -0.5614  0.7118
12648SOL    HW239233   3.177   6.673   3.674 -1.8792 -0.2154 -0.4024
12649SOL     OW39234   3.937   7.959   7.704 -0.1500  0.0012 -0.4562
12649SOL    HW139235   4.019   8.002   7.678 -0.0842 -0.1681 -0.5315
12649SOL    HW239236   3.963   7.896   7.771  0.0060 -1.0564 -1.4710
12650SOL     OW39237   5.742   4.293   3.929  0.4628  0.2112  0.1441
12650SOL    HW139238   5.714   4.378   3.964  0.8195  0.5242 -0.3208
12650SOL    HW239239   5.818   4.314   3.874 -0.5213 -0.1632 -1.4174
12651SOL     OW39240   2.725   4.053   3.101 -0.2082  0.1184  0.2456
12651SOL    HW139241   2.697   4.099   3.180  0.1703  0.3454  0.2505
12651SOL    HW239242   2.685   4.101   3.029  0.6121  0.7886  0.2185
12652SOL     OW39243   1.545   5.018   6.466  0.3398 -0.2655  0.6390
12652SOL    HW139244   1.497   5.062   6.396 -0.8321 -1.0601  0.9083
12652SOL    HW239245   1.479   5.005   6.535  1.1559 -0.6595  1.3572
12653SOL     OW39246   6.561   1.142   5.213  0.3290  0.1939 -0.4714
12653SOL    HW139247   6.637   1.088   5.234 -0.2147 -0.0260  1.0849
12653SOL    HW239248   6.595   1.210   5.156  2.0763  1.0348  1.4241
12654SOL     OW39249   7.568   7.438   7.399  0.6473  0.2790 -0.0309
12654SOL    HW139250   7.517   7.517   7.381  0.7113 -0.1571 -2.3976
12654SOL    HW239251   7.643   7.444   7.340  1.5650 -0.7362  0.9862
12655SOL     OW39252   8.388   2.787   0.928  0.8231 -0.1088  0.0464
12655SOL    HW139253   8.435   2.853   0.979  1.4252 -0.3643 -0.1726
12655SOL    HW239254   8.393   2.707   0.981 -1.0937  0.3207  0.9785
12656SOL     OW39255   5.081   6.498   3.893 -0.3899 -0.0300  0.3186
12656SOL    HW139256   5.046   6.437   3.828 -1.2785  0.2350  0.5268
12656SOL    HW239257   5.042   6.582   3.869  2.0578  0.8353 -0.9324
12657SOL     OW39258   0.665   2.943   8.424 -0.6856  0.8276  0.1411
12657SOL    HW139259   0.706   2.988   8.499  3.4589  1.0570 -1.9859
12657SOL    HW239260   0.708   2.857   8.421 -2.2683  0.0345 -0.8183
12658SOL     OW39261   6.680   4.073   8.675  0.0340  0.5334  0.2562
12658SOL    HW139262   6.665   3.990   8.722 -0.2355  0.1518 -0.4918
12658SOL    HW239263   6.632   4.063   8.593 -0.7877  1.8039  0.5517
12659SOL     OW39264   3.440   2.382   7.308 -0.1781  0.2686 -0.4689
12659SOL    HW139265   3.378   2.449   7.281 -0.5740 -0.3460 -1.1289
12659SOL    HW239266   3.403   2.345   7.389 -0.4645  0.1752 -0.6443
12660SOL     OW39267   3.552   0.569   5.838  0.0256  0.6596  0.1651
12660SOL    HW139268   3.465   0.608   5.838  0.0485  0.8314 -2.4599
12660SOL    HW239269   3.611   0.641   5.815  0.8156  0.3949  1.2659
12661SOL     OW39270   3.634   4.801   0.008  0.1834  0.4783  0.3298
12661SOL    HW139271   3.709   4.781   0.064 -1.6983  1.0661  3.2844
12661SOL    HW239272   3.559   4.762   0.053 -1.1585 -2.4193 -3.8156
12662SOL     OW39273   2.221   2.492   2.503  0.4383 -0.4167  0.2619
12662SOL    HW139274   2.129   2.481   2.478  0.2610  0.0204  0.7230
12662SOL    HW239275   2.244   2.579   2.471  0.9393 -0.8462 -0.5880
12663SOL     OW39276   4.483   1.944   8.368  0.2232  0.1731  0.6535
12663SOL    HW139277   4.515   1.864   8.409  2.1677 -0.3477 -1.6639
12663SOL    HW239278   4.549   2.010   8.389 -0.8232  0.9545  1.6371
12664SOL     OW39279   1.087   7.769   4.390  0.3980 -0.0628 -0.2869
12664SOL    HW139280   1.084   7.830   4.464 -2.4462 -1.6379  1.1105
12664SOL    HW239281   1.179   7.743   4.383  1.0293  1.4556  1.5634
12665SOL     OW39282   6.180   3.184   3.978  0.7232 -0.4536 -0.7420
12665SOL    HW139283   6.243   3.186   3.905  1.0347  3.5943 -0.6039
12665SOL    HW239284   6.122   3.259   3.961 -2.8258 -2.7361  0.2959
12666SOL     OW39285   6.228   7.813   6.091 -0.1450 -0.2546 -0.7840
12666SOL    HW139286   6.311   7.766   6.101 -0.3734 -0.2781  1.5754
12666SOL    HW239287   6.245   7.879   6.024  2.8053  1.8351  1.7646
12667SOL     OW39288   1.790   1.550   0.264  0.0192 -0.5131 -0.2827
12667SOL    HW139289   1.860   1.593   0.215  0.2887 -1.5387 -0.8254
12667SOL    HW239290   1.720   1.615   0.268  1.1173  0.6506  0.5830
12668SOL     OW39291   6.406   4.536   6.909 -0.2901  0.2455  0.3758
12668SOL    HW139292   6.312   4.520   6.911 -0.3972  0.8755  1.1654
12668SOL    HW239293   6.417   4.616   6.961  0.5512  0.8361 -0.6898
12669SOL     OW39294   6.411   6.209   5.633  0.2309 -0.5175 -0.3323
12669SOL    HW139295   6.380   6.118   5.630 -0.3978 -0.2989 -0.8719
12669SOL    HW239296   6.500   6.203   5.668  0.5968 -1.4564 -1.3625
12670SOL     OW39297   8.663   7.990   1.096  0.2040  0.0872 -0.1134
12670SOL    HW139298   8.714   7.910   1.105 -0.1768 -0.0736  0.6663
12670SOL    HW239299   8.630   7.987   1.006  2.6818  0.8813 -1.1380
12671SOL     OW39300   0.024   5.079   2.536 -0.1333 -0.4554  0.0839
12671SOL    HW139301   0.030   5.108   2.627 -0.3470  0.7946 -0.2881
12671SOL    HW239302   0.102   5.114   2.494  0.0440 -1.1594 -0.1886
12672SOL     OW39303   4.375   8.461   1.712  0.1278 -0.5130  0.5861
12672SOL    HW139304   4.365   8.438   1.805 -0.0131  1.3612  1.0754
12672SOL    HW239305   4.382   8.556   1.712 -0.2768 -0.4503 -1.3810
12673SOL     OW39306   1.905   0.015   3.722  0.3578  0.1060  0.1338
12673SOL    HW139307   1.829  -0.018   3.673  0.0861  0.9665 -0.0403
12673SOL    HW239308   1.970   0.034   3.654 -0.2015  1.7822  0.0356
12674SOL     OW39309   6.582   4.216   4.972  0.4359 -0.5064 -0.4255
12674SOL    HW139310   6.601   4.284   4.908  0.5753 -0.1109  0.0296
12674SOL    HW239311   6.650   4.150   4.957 -0.0778 -0.8493 -1.2898
12675SOL     OW39312   7.158   3.276   5.131  0.0472  0.0829 -0.3490
12675SOL    HW139313   7.190   3.286   5.041  0.3799  1.6024 -0.0900
12675SOL    HW239314   7.091   3.343   5.140 -0.7137 -0.7283  0.2385
12676SOL     OW39315   2.188   1.503   7.816  0.1495  0.0829 -0.1835
12676SOL    HW139316   2.232   1.419   7.810 -2.1112 -1.2243  0.2210
12676SOL    HW239317   2.151   1.518   7.729  0.6081  0.7226 -0.2799
12677SOL     OW39318   7.756   4.483   0.662  0.1204  0.2795  0.2144
12677SOL    HW139319   7.700   4.472   0.739  0.0479  0.6308  0.2140
12677SOL    HW239320   7.711   4.436   0.593 -1.0430  1.8968 -0.2064
12678SOL     OW39321   5.584   7.111   6.261  0.6108 -0.0443 -0.4369
12678SOL    HW139322   5.553   7.149   6.179  0.7435 -0.5553 -0.7304
12678SOL    HW239323   5.544   7.024   6.263 -1.5762  0.9039  1.3401
12679SOL     OW39324   4.620   3.097   6.352  0.1730 -0.4191 -0.3748
12679SOL    HW139325   4.586   3.020   6.307  0.6071  0.4141 -2.2289
12679SOL    HW239326   4.663   3.148   6.284  0.8595  0.9443  1.0005
12680SOL     OW39327   3.504   2.116   7.425  0.3818 -0.1047 -0.0609
12680SOL    HW139328   3.517   2.065   7.345 -1.7493  0.8034 -1.0685
12680SOL    HW239329   3.410   2.113   7.441  0.8117 -0.9681  2.9628
12681SOL     OW39330   1.438   6.825   5.153  0.2220 -0.4396  0.1939
12681SOL    HW139331   1.425   6.907   5.200 -1.6074 -0.0304 -0.9218
12681SOL    HW239332   1.440   6.758   5.222 -1.2518  0.2646  0.9655
12682SOL     OW39333   1.217   7.362   7.790  0.0535 -0.1900  0.0677
12682SOL    HW139334   1.231   7.270   7.812 -0.4545 -0.3897 -0.4341
12682SOL    HW239335   1.164   7.397   7.862 -1.7855 -0.8933 -0.8896
12683SOL     OW39336   6.012   8.289   1.141  0.6942 -0.3016 -0.0847
12683SOL    HW139337   5.944   8.259   1.080  0.4333 -0.0917  0.1032
12683SOL    HW239338   6.058   8.208   1.166 -0.6908 -0.7197  1.2496
12684SOL     OW39339   0.679   2.294   6.999  0.3070  0.3650  0.3815
12684SOL    HW139340   0.749   2.297   6.933  0.8246 -0.0170  0.9009
12684SOL    HW239341   0.607   2.343   6.960  1.2975  1.8482  0.3237
12685SOL     OW39342   1.710   5.926   5.373  0.2094 -0.1604 -0.7086
12685SOL    HW139343   1.623   5.956   5.347 -0.7455 -0.9848  1.3065
12685SOL    HW239344   1.755   6.005   5.404 -0.8941 -0.1028  0.9029
12686SOL     OW39345   8.203   0.844   3.110 -0.1317 -0.3426  0.5056
12686SOL    HW139346   8.133   0.860   3.173  0.3742  0.8166  0.7914
12686SOL    HW239347   8.283   0.870   3.155  0.0709  2.4151 -1.2064
12687SOL     OW39348   1.629   3.609   0.028  0.1800 -0.2431 -0.2261
12687SOL    HW139349   1.570   3.680   0.004  1.2228  0.0437 -2.2359
12687SOL    HW239350   1.699   3.651   0.077  0.7453  0.1640 -1.3275
12688SOL     OW39351   3.226   0.230   0.566 -0.5878  0.7002  0.1007
12688SOL    HW139352   3.226   0.306   0.508 -1.0632  0.2508 -0.4980
12688SOL    HW239353   3.317   0.223   0.595  0.0322 -0.0019 -1.8431
12689SOL     OW39354   5.549   8.149   5.436 -0.5550  0.1803 -0.3529
12689SOL    HW139355   5.610   8.092   5.482 -0.1010  0.3158 -0.7779
12689SOL    HW239356   5.482   8.090   5.402 -0.8559  0.0684  0.4111
12690SOL     OW39357   2.058   1.608   5.659 -0.4113 -0.2614 -0.9167
12690SOL    HW139358   2.092   1.558   5.585 -1.6678 -0.1147 -1.6174
12690SOL    HW239359   2.023   1.542   5.719  0.2366 -0.3527 -0.6221
12691SOL     OW39360   8.484   2.926   4.853 -0.0710 -0.2533  0.5242
12691SOL    HW139361   8.498   2.834   4.876  2.8533  0.2177  0.9606
12691SOL    HW239362   8.495   2.974   4.935  1.2387  0.6903 -0.1692
12692SOL     OW39363   4.141   3.224   5.808  0.3008 -0.8111  0.0182
12692SOL    HW139364   4.203   3.167   5.854 -0.2810 -0.5954  1.0856
12692SOL    HW239365   4.062   3.222   5.861  0.0005  0.3783 -0.3483
12693SOL     OW39366   8.516   2.416   6.962  0.0596 -0.3253 -0.1294
12693SOL    HW139367   8.551   2.400   6.875  0.2098 -0.9953  0.0480
12693SOL    HW239368   8.590   2.450   7.012  0.3164 -1.1750  0.0835
12694SOL     OW39369   1.371   1.107   6.997 -0.3415  0.5649 -0.3648
12694SOL    HW139370   1.363   1.100   6.902 -2.9349 -0.9203 -0.1152
12694SOL    HW239371   1.289   1.146   7.026  0.1165  0.3771  1.3382
12695SOL     OW39372   1.212   0.510   0.727 -0.1143  0.9234 -0.1363
12695SOL    HW139373   1.118   0.489   0.731 -0.0915  0.9922  1.3973
12695SOL    HW239374   1.220   0.594   0.772  0.7206  0.7399  0.0839
12696SOL     OW39375   0.752   8.521   2.845 -0.0584  0.3952  0.1729
12696SOL    HW139376   0.753   8.433   2.883 -0.3546  0.8608  1.3235
12696SOL    HW239377   0.754   8.579   2.921  0.9715  1.3969 -0.5903
12697SOL     OW39378   6.414   4.366   5.534 -0.4627  0.1664  0.2957
12697SOL    HW139379   6.370   4.438   5.488  0.2719  0.8919  0.6928
12697SOL    HW239380   6.448   4.407   5.614 -0.4137 -0.7301  0.7398
12698SOL     OW39381   3.802   8.507   8.531  0.6476  0.5927 -0.6648
12698SOL    HW139382   3.714   8.471   8.521  1.3502 -1.2394 -0.5050
12698SOL    HW239383   3.833   8.518   8.442 -0.2883  2.7925 -0.7899
12699SOL     OW39384   5.843   1.525   0.149  0.3987  0.2605 -0.3879
12699SOL    HW139385   5.783   1.457   0.178 -0.0083  1.5738  2.0872
12699SOL    HW239386   5.787   1.595   0.116  0.6316  0.8320  0.4055
12700SOL     OW39387   0.614   0.616   6.053 -0.4004  0.5609 -0.9208
12700SOL    HW139388   0.583   0.574   5.973  0.2800 -1.1379 -0.3310
12700SOL    HW239389   0.667   0.549   6.097 -1.2397  1.2159  1.2429
12701SOL     OW39390   3.621   8.016   7.667 -0.3875  0.2334 -0.5526
12701SOL    HW139391   3.687   8.052   7.726  0.6578 -0.2896 -1.3750
12701SOL    HW239392   3.598   7.931   7.704  0.2254 -0.0685 -0.8554
12702SOL     OW39393   2.778   1.469   5.060  0.2573 -0.0606 -0.0439
12702SOL    HW139394   2.765   1.513   5.144  0.3435  2.4268 -1.2491
12702SOL    HW239395   2.855   1.414   5.074 -0.7183 -0.9836  1.9545
12703SOL     OW39396   6.739   4.037   6.469 -0.1122  0.6394  0.5674
12703SOL    HW139397   6.807   4.000   6.412 -1.3748 -0.3674 -0.3521
12703SOL    HW239398   6.747   4.131   6.458 -0.4689  0.4793 -1.5260
12704SOL     OW39399   5.734   1.587   7.317 -0.1849  1.0082 -0.1590
12704SOL    HW139400   5.685   1.508   7.341  0.4754  0.6287 -0.0506
12704SOL    HW239401   5.808   1.555   7.265 -0.0862  1.5839 -0.3812
12705SOL     OW39402   7.596   6.600   1.267 -0.1743  0.0739  0.3883
12705SOL    HW139403   7.550   6.618   1.185  0.3751 -0.5921 -0.0800
12705SOL    HW239404   7.682   6.641   1.255 -0.1049  0.0016  0.6469
12706SOL     OW39405   8.269   7.324   3.271 -0.4273  1.0356 -0.5526
12706SOL    HW139406   8.230   7.298   3.354 -1.1753 -1.6492 -1.6485
12706SOL    HW239407   8.334   7.256   3.252  0.1808  1.9385 -1.8784
12707SOL     OW39408   3.912   4.100   2.666 -0.0650  0.1566 -0.2623
12707SOL    HW139409   3.828   4.077   2.627 -0.2649 -1.1344  0.8701
12707SOL    HW239410   3.968   4.024   2.650  0.1536  0.0178  1.0116
12708SOL     OW39411   3.666   8.649   3.983  0.0526  0.1952  0.0847
12708SOL    HW139412   3.642   8.669   4.074 -0.1217 -0.1494  0.1127
12708SOL    HW239413   3.702   8.561   3.987  0.4613  0.3524 -0.1095
12709SOL     OW39414   1.538   4.367   1.765 -0.0687 -0.1677 -0.0169
12709SOL    HW139415   1.477   4.372   1.692  0.9985 -1.4773 -1.0658
12709SOL    HW239416   1.525   4.279   1.801  1.3562 -0.5931 -0.4586
12710SOL     OW39417   8.636   0.110   7.771 -0.2902  0.3320  0.5672
12710SOL    HW139418   8.627   0.114   7.676 -0.4668 -2.3848  0.4079
12710SOL    HW239419   8.600   0.025   7.796  1.2030  0.2741  2.8754
12711SOL     OW39420   3.964   7.996   8.248 -0.0143  0.3948  0.1243
12711SOL    HW139421   3.996   8.063   8.308 -0.3237  1.9861 -1.3822
12711SOL    HW239422   3.878   7.972   8.282 -0.7663  2.2388 -0.3185
12712SOL     OW39423   2.987   4.741   8.600  0.1425 -0.3354  1.0509
12712SOL    HW139424   2.944   4.804   8.658 -0.0967  1.1479 -0.6519
12712SOL    HW239425   3.074   4.729   8.639 -0.6861 -0.9710  2.8091
12713SOL     OW39426   7.266   7.232   6.324 -0.1441  0.3843  0.1968
12713SOL    HW139427   7.210   7.156   6.341 -0.4033  0.5318  0.0089
12713SOL    HW239428   7.336   7.225   6.388 -0.3827  0.2012  0.4385
12714SOL     OW39429   8.420   2.544   5.439 -0.2746 -0.6965 -0.2049
12714SOL    HW139430   8.434   2.507   5.527  0.0967  0.3301  0.1727
12714SOL    HW239431   8.355   2.613   5.452 -0.0970 -0.4292 -0.7215
12715SOL     OW39432   0.923   8.166   0.175 -0.2763 -0.7722  0.1710
12715SOL    HW139433   0.841   8.177   0.127 -0.7839 -0.5413  1.0634
12715SOL    HW239434   0.931   8.072   0.188  0.0457 -0.8706 -0.6480
12716SOL     OW39435   4.494   6.346   5.628 -0.1482 -0.1109  0.3376
12716SOL    HW139436   4.444   6.285   5.573 -2.1885  0.6184  1.2503
12716SOL    HW239437   4.521   6.293   5.703  0.9266 -0.6350 -0.4022
12717SOL     OW39438   0.143   6.196   7.685 -0.4939 -0.2308 -0.1133
12717SOL    HW139439   0.068   6.161   7.638 -0.9304  1.6256 -0.9086
12717SOL    HW239440   0.116   6.284   7.711  0.6499 -0.3103  1.4742
12718SOL     OW39441   5.869   1.791   5.060  0.2070 -0.8616 -0.1793
12718SOL    HW139442   5.788   1.769   5.014  0.5745  0.1410 -1.3283
12718SOL    HW239443   5.840   1.842   5.136 -0.1988  0.2953 -1.0866
12719SOL     OW39444   3.913   1.914   8.250 -0.5243  0.4554  0.2606
12719SOL    HW139445   3.879   1.841   8.302  0.1510 -1.1049 -1.3868
12719SOL    HW239446   3.975   1.958   8.308 -0.4043 -0.7210  1.0644
12720SOL     OW39447   0.636   0.361   2.164  0.2357  0.2430  0.6885
12720SOL    HW139448   0.547   0.396   2.164 -0.3345 -1.1210  0.0672
12720SOL    HW239449   0.685   0.419   2.223 -1.1472  0.7879  1.3430
12721SOL     OW39450   7.026   4.427   3.623  0.2770 -0.1755  0.0486
12721SOL    HW139451   6.986   4.496   3.569  2.0778 -0.6766 -2.0680
12721SOL    HW239452   7.112   4.462   3.646  0.7215 -1.2036 -0.0131
12722SOL     OW39453   7.041   5.379   8.655  0.1706  0.2136  0.0473
12722SOL    HW139454   7.080   5.300   8.693 -0.9683  0.8631  2.8279
12722SOL    HW239455   6.980   5.346   8.589 -1.1135 -1.3948  1.8971
12723SOL     OW39456   8.496   0.345   7.771 -0.3465  0.1850 -0.6829
12723SOL    HW139457   8.445   0.373   7.847  0.2008  0.7025 -0.4999
12723SOL    HW239458   8.498   0.249   7.777 -3.0382 -0.0374 -1.8266
12724SOL     OW39459   4.434   3.488   6.012  0.1827 -0.3749 -0.3368
12724SOL    HW139460   4.373   3.440   6.069  0.1275  0.7450  0.5778
12724SOL    HW239461   4.449   3.571   6.057  1.3287 -0.0715 -1.2285
12725SOL     OW39462   2.307   4.607   6.827 -0.2090 -0.5228  0.4975
12725SOL    HW139463   2.354   4.534   6.865 -0.2592 -0.7286  0.1654
12725SOL    HW239464   2.221   4.571   6.804 -0.2069 -0.3803  0.2635
12726SOL     OW39465   7.008   6.691   1.422 -0.5281  0.7817 -0.3310
12726SOL    HW139466   6.953   6.618   1.448  0.2180 -0.5750 -2.3645
12726SOL    HW239467   6.950   6.767   1.421 -1.9926 -0.3180 -0.9217
12727SOL     OW39468   6.748   4.368   0.687 -0.5142 -0.0162  0.2881
12727SOL    HW139469   6.819   4.410   0.735 -1.2891 -0.4639  1.9039
12727SOL    HW239470   6.785   4.284   0.658 -0.8211 -1.0387  2.6176
12728SOL     OW39471   5.574   1.349   0.162  0.1489 -0.3521  0.2576
12728SOL    HW139472   5.516   1.279   0.192  2.0806 -1.3504  1.8968
12728SOL    HW239473   5.602   1.394   0.242  0.9530  0.6284 -0.5432
12729SOL     OW39474   0.544   4.653   7.445 -0.3048 -0.1809  0.2070
12729SOL    HW139475   0.464   4.622   7.403 -1.1448  1.9531  0.0737
12729SOL    HW239476   0.537   4.749   7.441  3.0475  0.1463 -1.3108
12730SOL     OW39477   6.437   5.342   3.759 -0.7262 -0.3050  0.6999
12730SOL    HW139478   6.409   5.255   3.734  3.6505 -2.8623  3.3910
12730SOL    HW239479   6.507   5.364   3.698  1.4594 -1.0094  2.7903
12731SOL     OW39480   8.645   5.368   7.260  0.5143 -0.2496  0.2077
12731SOL    HW139481   8.677   5.346   7.347  1.6615 -1.0627 -0.4007
12731SOL    HW239482   8.578   5.302   7.241  0.8297 -0.5550  0.1565
12732SOL     OW39483   7.344   0.056   0.364  0.2781  0.0145  0.2302
12732SOL    HW139484   7.270   0.084   0.419  0.1220 -1.2336  0.6934
12732SOL    HW239485   7.310   0.061   0.275 -0.0312  0.4311  0.3659
12733SOL     OW39486   6.071   1.580   6.704 -1.1038  0.1187  0.0251
12733SOL    HW139487   6.021   1.503   6.732 -2.4638  0.9038 -0.1348
12733SOL    HW239488   6.089   1.628   6.784  0.0853 -0.5376  0.1707
12734SOL     OW39489   0.257   7.314   4.747  0.1087 -0.2292  0.3751
12734SOL    HW139490   0.299   7.395   4.776 -0.4658 -0.0719  0.7962
12734SOL    HW239491   0.221   7.276   4.828 -0.4943 -0.3921  0.0335
12735SOL     OW39492   1.107   5.054   2.423 -0.5383 -0.4554  0.0441
12735SOL    HW139493   1.105   5.129   2.365 -2.1291 -0.7078 -0.2698
12735SOL    HW239494   1.137   4.981   2.368  0.2935 -0.2274  0.1714
12736SOL     OW39495   6.459   3.290   2.326 -0.0864 -0.0290  0.8122
12736SOL    HW139496   6.415   3.373   2.342 -0.7425 -0.1370 -0.3245
12736SOL    HW239497   6.551   3.313   2.310 -0.5886  0.7185 -1.3526
12737SOL     OW39498   6.481   6.895   5.267 -0.2848 -0.2311  0.7166
12737SOL    HW139499   6.445   6.966   5.320 -1.6420  0.1682 -0.6832
12737SOL    HW239500   6.576   6.907   5.273 -0.4712  1.4555  0.8590
12738SOL     OW39501   2.632   6.969   1.229  0.3616 -0.4777  0.2435
12738SOL    HW139502   2.686   6.935   1.159 -1.4079 -0.2835 -1.2978
12738SOL    HW239503   2.677   7.048   1.258  0.7535 -0.1328 -1.2337
12739SOL     OW39504   5.195   0.060   3.312 -0.2429  0.2068  0.1502
12739SOL    HW139505   5.233   0.138   3.272  0.1787  0.5514  1.1650
12739SOL    HW239506   5.111   0.048   3.269 -0.2223  1.1110 -0.1559
12740SOL     OW39507   4.462   7.866   4.578  0.1644 -0.7001  0.8427
12740SOL    HW139508   4.452   7.917   4.658 -1.0356  1.0326 -0.3318
12740SOL    HW239509   4.530   7.913   4.529  0.6300 -1.5404  0.6661
12741SOL     OW39510   4.981   2.576   1.453  0.6352  0.1740 -0.2710
12741SOL    HW139511   4.949   2.652   1.501 -1.0249  0.2251 -1.3964
12741SOL    HW239512   5.010   2.516   1.522 -1.2915  0.4093  0.8359
12742SOL     OW39513   1.735   7.506   5.981 -0.0236 -0.0841 -0.5739
12742SOL    HW139514   1.703   7.521   6.070 -0.4503  0.6003 -0.8346
12742SOL    HW239515   1.760   7.414   5.980 -1.5219 -0.5283 -0.1979
12743SOL     OW39516   1.197   8.107   2.259 -0.3186 -0.5215  0.2707
12743SOL    HW139517   1.104   8.099   2.236 -0.3096 -1.1505  0.4493
12743SOL    HW239518   1.211   8.201   2.265 -0.8221 -0.4027 -0.2647
12744SOL     OW39519   6.613   2.179   7.647  0.2769 -0.1562  0.2382
12744SOL    HW139520   6.686   2.230   7.614 -0.3418  0.2392 -0.5362
12744SOL    HW239521   6.591   2.118   7.576 -1.8013  1.4800 -0.6223
12745SOL     OW39522   0.528   5.629   4.754 -0.0620  0.0782  0.2622
12745SOL    HW139523   0.484   5.700   4.802  1.4012 -0.2939  2.3207
12745SOL    HW239524   0.621   5.646   4.768  0.6142  0.8242 -3.9077
12746SOL     OW39525   6.442   6.079   5.031  0.0256  0.4379  0.1450
12746SOL    HW139526   6.413   6.094   4.941  1.6307  1.5054 -0.2317
12746SOL    HW239527   6.527   6.122   5.036  0.6521 -0.8955  1.7507
12747SOL     OW39528   1.114   7.458   1.066  1.0613  0.1977 -0.3741
12747SOL    HW139529   1.199   7.470   1.024  2.0460 -1.4521  1.0073
12747SOL    HW239530   1.119   7.511   1.145  1.8723 -1.8888  1.0405
12748SOL     OW39531   2.258   1.611   4.049  0.5149 -0.3574 -0.5109
12748SOL    HW139532   2.318   1.615   4.123 -0.6112 -1.7722  0.5452
12748SOL    HW239533   2.175   1.580   4.087  0.2505 -2.3796 -2.5396
12749SOL     OW39534   1.532   7.530   7.253  0.0935 -0.1280 -0.1386
12749SOL    HW139535   1.488   7.453   7.217  0.3608 -0.4380  0.2027
12749SOL    HW239536   1.468   7.570   7.311  0.9045 -1.6722  1.9042
12750SOL     OW39537   6.383   4.173   3.070 -0.5364 -0.2105 -0.3605
12750SOL    HW139538   6.460   4.195   3.123 -0.2136  0.5656 -1.1147
12750SOL    HW239539   6.312   4.164   3.134 -0.3399  1.5043  0.1754
12751SOL     OW39540   8.093   3.001   4.960  0.0400 -0.0480 -0.6252
12751SOL    HW139541   8.153   3.076   4.966 -1.2452  0.9083  0.9470
12751SOL    HW239542   8.006   3.038   4.976 -0.7818 -1.6770 -1.1396
12752SOL     OW39543   2.260   6.260   5.915 -0.4012  0.3201 -0.0227
12752SOL    HW139544   2.342   6.212   5.905  0.2239  1.8349 -3.7722
12752SOL    HW239545   2.282   6.336   5.969  0.4451  0.2181 -0.2237
12753SOL     OW39546   1.321   5.199   5.359 -0.4731 -0.3513 -0.6277
12753SOL    HW139547   1.286   5.173   5.273  0.9362 -1.4851 -0.9162
12753SOL    HW239548   1.337   5.116   5.403  1.0332  0.1290 -0.2125
12754SOL     OW39549   7.167   4.022   3.603 -0.5113 -0.9565  0.4115
12754SOL    HW139550   7.211   4.100   3.570  0.8556 -1.2536  1.4401
12754SOL    HW239551   7.196   3.951   3.545  0.5475 -1.1851  1.2018
12755SOL     OW39552   8.192   5.248   0.347 -0.1081 -0.0472 -0.4994
12755SOL    HW139553   8.175   5.154   0.341 -0.1443 -0.0244 -0.7873
12755SOL    HW239554   8.287   5.256   0.339 -0.2014  0.0218 -1.6158
12756SOL     OW39555   5.600   1.743   1.576 -0.0424 -0.2127  0.5430
12756SOL    HW139556   5.524   1.794   1.547  0.4749 -0.5109 -1.4800
12756SOL    HW239557   5.582   1.654   1.547  1.3586 -0.1537 -0.6356
12757SOL     OW39558   6.568   8.508   7.510 -0.2375 -0.0847  0.9760
12757SOL    HW139559   6.493   8.552   7.472 -0.2396 -2.0063 -1.4610
12757SOL    HW239560   6.644   8.556   7.476 -0.1991  2.0223  3.6452
12758SOL     OW39561   5.198   8.024   7.350  0.2945  0.2166  0.4249
12758SOL    HW139562   5.118   7.998   7.304  0.4053  0.4653  0.0945
12758SOL    HW239563   5.259   7.951   7.336 -0.3686 -0.6836  1.9447
12759SOL     OW39564   2.119   4.943   4.164 -0.2482 -0.0775 -0.0137
12759SOL    HW139565   2.038   4.902   4.195 -0.0007 -0.1232  0.5849
12759SOL    HW239566   2.176   4.869   4.142  0.3547 -0.1008  1.4688
12760SOL     OW39567   4.429   5.155   0.827 -0.3257 -0.3118  0.0539
12760SOL    HW139568   4.350   5.179   0.779  0.7967  2.4151 -0.5949
12760SOL    HW239569   4.496   5.216   0.797  2.6987 -3.7323 -0.9477
12761SOL     OW39570   4.337   0.793   4.376  0.5071  1.0068 -0.2087
12761SOL    HW139571   4.387   0.762   4.301  0.2043 -0.3223  0.1066
12761SOL    HW239572   4.336   0.719   4.436 -0.7760  1.4336  0.3327
12762SOL     OW39573   7.952   0.582   3.251  0.1629 -0.1059 -0.2981
12762SOL    HW139574   7.911   0.648   3.194  0.7430  1.4193  0.9811
12762SOL    HW239575   8.036   0.562   3.209  0.9330  1.5835  0.3696
12763SOL     OW39576   7.454   4.300   1.462 -0.6063  0.1407  0.7551
12763SOL    HW139577   7.459   4.217   1.414  0.1688  1.8607 -2.3920
12763SOL    HW239578   7.383   4.348   1.419 -0.0401  1.6952  1.4989
12764SOL     OW39579   7.635   8.249   3.482 -0.1682 -0.4384  0.3719
12764SOL    HW139580   7.710   8.202   3.445 -0.9842 -1.3564 -0.1875
12764SOL    HW239581   7.664   8.340   3.488 -0.0318 -0.1646 -2.7945
12765SOL     OW39582   3.442   3.913   5.294 -0.2679 -0.4581 -0.0850
12765SOL    HW139583   3.371   3.929   5.231 -3.6811  0.7329  3.6115
12765SOL    HW239584   3.440   3.818   5.307 -0.4218 -0.5643 -0.8195
12766SOL     OW39585   5.441   4.716   1.035  0.4443 -0.3104  0.6093
12766SOL    HW139586   5.447   4.811   1.024  0.6189 -0.2882  0.8802
12766SOL    HW239587   5.413   4.684   0.950  1.3212 -0.1065  0.2265
12767SOL     OW39588   4.224   4.295   0.663  0.1599  0.1234 -0.0544
12767SOL    HW139589   4.170   4.228   0.704  1.4472 -1.2429 -0.4917
12767SOL    HW239590   4.241   4.358   0.733 -0.0715 -0.6566  0.7242
12768SOL     OW39591   6.630   8.141   3.081 -0.1828 -0.3814  0.4631
12768SOL    HW139592   6.626   8.231   3.049  2.4645 -0.7059 -1.0551
12768SOL    HW239593   6.667   8.091   3.008  0.7033 -2.2515  2.0831
12769SOL     OW39594   4.836   4.010   7.878  0.6719 -0.6079  0.2180
12769SOL    HW139595   4.806   3.922   7.903  0.0127 -0.5563 -0.3539
12769SOL    HW239596   4.791   4.068   7.940  0.9373 -0.6528  0.4561
12770SOL     OW39597   6.373   5.579   7.694 -0.1546 -0.5852  0.0554
12770SOL    HW139598   6.458   5.579   7.737 -1.1861  0.8803  2.2632
12770SOL    HW239599   6.362   5.668   7.661 -0.4755 -1.0163 -1.0709
12771SOL     OW39600   8.230   6.500   6.651 -0.8824 -0.1567  0.2311
12771SOL    HW139601   8.145   6.542   6.636  0.4219  2.4259 -0.5002
12771SOL    HW239602   8.262   6.538   6.732  0.0129 -0.3113 -0.0381
12772SOL     OW39603   1.032   5.121   7.555 -0.5520 -0.6896 -0.3200
12772SOL    HW139604   0.975   5.196   7.570  0.9488  0.6782 -1.0634
12772SOL    HW239605   1.106   5.136   7.614  0.6331 -0.5703 -1.7904
12773SOL     OW39606   7.220   3.278   0.139  0.1645 -0.3838  0.0124
12773SOL    HW139607   7.135   3.322   0.133  0.4927  0.3586  0.4909
12773SOL    HW239608   7.206   3.193   0.099  0.1014  0.9943 -3.2060
12774SOL     OW39609   6.202   5.998   0.552 -0.3554 -0.0871  0.1272
12774SOL    HW139610   6.181   5.986   0.459  0.1763  0.5858 -0.0824
12774SOL    HW239611   6.116   6.002   0.595 -0.6093 -1.6516 -0.1494
12775SOL     OW39612   0.248   8.195   3.378 -0.0735  0.6653 -0.1269
12775SOL    HW139613   0.308   8.270   3.380  0.6987  0.0466 -0.0180
12775SOL    HW239614   0.206   8.200   3.292  1.8015 -0.1992 -1.1370
12776SOL     OW39615   6.686   2.122   7.011  0.3155  0.1978  0.1474
12776SOL    HW139616   6.698   2.130   6.916 -1.4224 -0.6378 -0.1696
12776SOL    HW239617   6.659   2.031   7.024 -1.9148  0.9383  1.1365
12777SOL     OW39618   5.278   6.633   3.190 -0.3208  0.2047 -0.9159
12777SOL    HW139619   5.295   6.698   3.122 -0.8414  0.6095 -0.6669
12777SOL    HW239620   5.271   6.684   3.271 -3.2131  0.1909 -1.0601
12778SOL     OW39621   0.071   5.730   1.469 -0.3547 -0.4090 -0.4413
12778SOL    HW139622   0.138   5.724   1.538 -0.5612  1.1901 -0.0562
12778SOL    HW239623   0.059   5.824   1.456 -1.1444 -0.6872 -1.8771
12779SOL     OW39624   8.684   2.143   2.722 -0.5522 -0.3996 -0.6302
12779SOL    HW139625   8.749   2.212   2.740 -1.6872  0.3924  0.6159
12779SOL    HW239626   8.729   2.062   2.744  0.0597  0.1245  0.1266
12780SOL     OW39627   1.847   4.167   7.726 -0.4040 -0.3086 -0.1571
12780SOL    HW139628   1.845   4.155   7.631 -1.6342 -1.8050  0.0162
12780SOL    HW239629   1.936   4.198   7.744  0.0697 -0.6481 -1.7151
12781SOL     OW39630   5.881   2.601   3.460  0.0222 -0.6720 -0.1682
12781SOL    HW139631   5.852   2.628   3.547  2.1708 -0.0560  0.4040
12781SOL    HW239632   5.817   2.534   3.434 -0.6837 -0.8543  1.8499
12782SOL     OW39633   7.378   4.798   7.882  1.1265  0.4929  0.5928
12782SOL    HW139634   7.365   4.858   7.808  2.2368  0.5419  0.4177
12782SOL    HW239635   7.468   4.768   7.873  0.7234 -0.8929  0.9179
12783SOL     OW39636   8.097   7.502   7.355  0.0320  0.3040 -0.4170
12783SOL    HW139637   8.120   7.439   7.287 -0.6552 -0.1157 -0.2709
12783SOL    HW239638   8.066   7.579   7.306 -2.2779 -0.6750 -0.6213
12784SOL     OW39639   3.470   5.259   5.354 -0.3258  0.0826 -0.7348
12784SOL    HW139640   3.474   5.191   5.421 -0.4666  0.6617 -0.1280
12784SOL    HW239641   3.510   5.336   5.395 -0.4355  0.4528 -1.3054
12785SOL     OW39642   2.001   0.661   5.087 -0.2886  0.5400 -0.4421
12785SOL    HW139643   2.003   0.753   5.112  0.2866  0.4291 -0.0744
12785SOL    HW239644   1.953   0.618   5.158  1.1701  0.2565  0.3988
12786SOL     OW39645   1.532   6.208   8.461  0.4860  1.0236 -0.4349
12786SOL    HW139646   1.548   6.121   8.496  2.7005  1.9164  1.0662
12786SOL    HW239647   1.492   6.194   8.376 -0.7302 -1.3865  0.4572
12787SOL     OW39648   5.612   4.031   3.062  0.3081 -0.0341  0.6215
12787SOL    HW139649   5.648   4.120   3.053  1.3469 -0.3978  0.9822
12787SOL    HW239650   5.523   4.038   3.029  1.0500  0.6668 -1.3962
12788SOL     OW39651   3.686   5.563   6.292 -0.0546  0.0373  0.0068
12788SOL    HW139652   3.600   5.605   6.283  0.2944  0.8019  0.1066
12788SOL    HW239653   3.667   5.476   6.326 -0.8470 -0.1062 -0.7619
12789SOL     OW39654   5.275   5.201   6.595  0.4528 -0.6365  0.1718
12789SOL    HW139655   5.350   5.194   6.654 -0.0214 -0.7081  0.7788
12789SOL    HW239656   5.199   5.188   6.652 -0.0347 -0.1645 -0.3662
12790SOL     OW39657   3.510   5.728   2.813  0.4674 -0.0398  0.6131
12790SOL    HW139658   3.462   5.646   2.822  0.4943 -0.1850 -0.3785
12790SOL    HW239659   3.540   5.749   2.901  0.2731 -0.9773  0.9132
12791SOL     OW39660   6.226   6.335   3.454 -0.3673 -0.0230 -0.0841
12791SOL    HW139661   6.213   6.278   3.530  0.2779 -1.2220 -0.8376
12791SOL    HW239662   6.195   6.421   3.483 -1.3088 -0.7263  1.1165
12792SOL     OW39663   8.155   2.637   6.760 -0.1351  0.0431 -0.3302
12792SOL    HW139664   8.235   2.662   6.714  0.9036 -0.4938  1.1234
12792SOL    HW239665   8.127   2.717   6.805 -0.2238  0.1282 -0.5317
12793SOL     OW39666   6.933   2.127   4.987  0.7981 -0.0822 -0.6355
12793SOL    HW139667   6.926   2.196   5.053  2.3460  0.1730 -0.7151
12793SOL    HW239668   6.849   2.131   4.940 -0.5991 -0.7098  1.6799
12794SOL     OW39669   4.229   6.615   7.634  0.6741 -0.0436  0.5200
12794SOL    HW139670   4.227   6.528   7.673  0.0928  0.2307  1.1207
12794SOL    HW239671   4.164   6.665   7.684 -0.2502  0.2690 -0.9256
12795SOL     OW39672   6.547   8.538   3.267 -0.1813  0.3827 -0.0333
12795SOL    HW139673   6.559   8.533   3.172 -2.2637 -0.2868 -0.3071
12795SOL    HW239674   6.493   8.615   3.281  1.9008  1.7817  0.8886
12796SOL     OW39675   2.222   3.137   0.509  0.4432  0.3169  0.1747
12796SOL    HW139676   2.149   3.076   0.502  1.6503 -1.2831  0.8567
12796SOL    HW239677   2.287   3.090   0.561  2.3252  1.2942 -1.1800
12797SOL     OW39678   1.321   7.546   4.801  0.1486  0.3145 -0.5869
12797SOL    HW139679   1.390   7.487   4.833  0.3215  0.9760  0.3106
12797SOL    HW239680   1.247   7.529   4.859 -0.4830 -0.4477 -1.6000
12798SOL     OW39681   0.177   2.818   3.280  0.5848 -0.4188 -0.7022
12798SOL    HW139682   0.215   2.844   3.196  1.5521  0.6269  0.0299
12798SOL    HW239683   0.122   2.892   3.306 -2.0048 -1.8697 -1.6984
12799SOL     OW39684   4.357   4.761   6.714 -0.4457  0.6898 -0.0664
12799SOL    HW139685   4.290   4.775   6.780  0.2494 -0.3107  0.9084
12799SOL    HW239686   4.415   4.837   6.722 -0.4322  0.6337  0.4016
12800SOL     OW39687   4.611   2.978   6.875  0.4562  0.3642  0.1350
12800SOL    HW139688   4.621   2.890   6.911  0.4238  0.8034  1.2868
12800SOL    HW239689   4.617   2.967   6.781 -0.2905 -0.9680  0.2223
12801SOL     OW39690   3.223   7.265   0.932 -0.3506 -0.7072  0.0971
12801SOL    HW139691   3.169   7.284   0.855  2.8682 -0.0830 -2.1860
12801SOL    HW239692   3.266   7.182   0.911  0.5239 -0.5612  1.2521
12802SOL     OW39693   1.380   0.312   0.698  0.7000  0.0188  0.4205
12802SOL    HW139694   1.316   0.382   0.710  1.0674  0.1627  1.6853
12802SOL    HW239695   1.368   0.283   0.607 -0.1347  1.0382  0.1935
12803SOL     OW39696   4.967   5.041   7.488 -0.6212 -0.1596 -0.0858
12803SOL    HW139697   4.969   5.015   7.396 -0.6872  0.7629 -0.3564
12803SOL    HW239698   4.894   5.103   7.494  0.7769  1.5211  0.1096
12804SOL     OW39699   5.968   6.903   8.657 -0.5634  0.3332  0.5353
12804SOL    HW139700   5.967   6.955   8.737  0.2030  0.6232  0.3583
12804SOL    HW239701   5.915   6.954   8.595 -1.3255  0.0130  0.8993
12805SOL     OW39702   3.155   2.461   8.203 -0.5674 -0.2754  0.2352
12805SOL    HW139703   3.234   2.422   8.238 -0.7366  0.7854  1.8976
12805SOL    HW239704   3.136   2.411   8.123  0.5575 -1.9249  0.9652
12806SOL     OW39705   2.347   7.772   3.759  0.4162  0.2864 -0.0909
12806SOL    HW139706   2.339   7.739   3.848 -2.1852  2.3919  0.5906
12806SOL    HW239707   2.421   7.833   3.763  1.3601 -0.8324  0.1464
12807SOL     OW39708   0.360   2.519   1.450  0.0745 -0.2767 -0.1695
12807SOL    HW139709   0.303   2.582   1.406  0.3278 -1.1519 -1.8237
12807SOL    HW239710   0.301   2.452   1.483 -0.1366  0.4865  1.0699
12808SOL     OW39711   6.435   5.754   5.013 -0.5477 -0.2328 -0.3525
12808SOL    HW139712   6.528   5.765   5.030 -0.2359 -0.9129 -1.5413
12808SOL    HW239713   6.422   5.786   4.924 -1.2241 -1.2470 -0.6372
12809SOL     OW39714   2.919   5.510   5.838 -0.3582 -0.0962 -0.3056
12809SOL    HW139715   2.982   5.566   5.792  1.1794 -0.5176  1.1809
12809SOL    HW239716   2.949   5.421   5.818 -0.8161 -0.3134 -0.0114
12810SOL     OW39717   6.820   0.580   0.153  0.1942  0.1615 -0.1479
12810SOL    HW139718   6.840   0.511   0.216  0.6498  0.9811  0.6278
12810SOL    HW239719   6.856   0.549   0.070 -0.4154 -0.9321 -0.0162
12811SOL     OW39720   6.450   0.655   7.768 -0.7273  0.0576 -0.5813
12811SOL    HW139721   6.396   0.676   7.844 -0.3058 -0.8852 -0.0007
12811SOL    HW239722   6.402   0.692   7.694 -1.8083 -0.1391 -0.0053
12812SOL     OW39723   5.262   6.389   6.034  0.1554 -0.0945  0.0562
12812SOL    HW139724   5.308   6.453   5.979  0.6213 -0.7386 -0.3144
12812SOL    HW239725   5.319   6.312   6.034 -1.3729 -1.2858 -1.2546
12813SOL     OW39726   2.722   5.696   4.777  0.1399  0.2573  0.1002
12813SOL    HW139727   2.731   5.625   4.841  1.5585  0.4067  0.0983
12813SOL    HW239728   2.779   5.671   4.705 -0.1529  0.9012 -0.3629
12814SOL     OW39729   3.964   0.993   0.605 -0.3506 -0.2922  0.0629
12814SOL    HW139730   3.898   1.059   0.585  0.5736  0.8419  0.5627
12814SOL    HW239731   4.047   1.036   0.584  0.2534 -1.4560  0.0165
12815SOL     OW39732   8.170   8.590   3.627  0.4098  0.6323 -0.2575
12815SOL    HW139733   8.076   8.591   3.610  0.5208  1.4469 -0.8968
12815SOL    HW239734   8.197   8.681   3.618  1.1795  0.4851  0.4376
12816SOL     OW39735   2.733   4.988   1.328  0.3684 -0.5170  0.0329
12816SOL    HW139736   2.803   4.925   1.312  1.0688  0.5725 -1.4998
12816SOL    HW239737   2.654   4.944   1.298  0.6138 -1.2148  0.3874
12817SOL     OW39738   1.670   1.341   3.897  0.1727  0.1269 -0.9608
12817SOL    HW139739   1.581   1.311   3.880  0.2614 -1.1202  0.5086
12817SOL    HW239740   1.725   1.266   3.875  0.8743  0.8789 -1.8347
12818SOL     OW39741   2.360   1.797   6.342  0.2349 -0.4624 -0.4067
12818SOL    HW139742   2.320   1.872   6.298  0.2299 -0.5617 -0.5698
12818SOL    HW239743   2.361   1.728   6.277  0.6211 -0.4796 -0.3875
12819SOL     OW39744   3.289   6.855   1.726  0.1421  0.3843 -0.2166
12819SOL    HW139745   3.226   6.903   1.672  1.4327  0.0651 -2.1132
12819SOL    HW239746   3.235   6.807   1.789 -1.5904 -0.2423 -2.0639
12820SOL     OW39747   8.221   7.819   6.106 -0.8182  0.1854  0.4421
12820SOL    HW139748   8.270   7.808   6.187 -0.3918 -1.4394  0.0103
12820SOL    HW239749   8.274   7.773   6.040 -2.0762 -0.1466 -0.3664
12821SOL     OW39750   1.405   4.464   2.890 -0.3113 -0.1167  0.5587
12821SOL    HW139751   1.487   4.414   2.892  0.7418  1.2004 -2.6272
12821SOL    HW239752   1.342   4.406   2.849 -0.8261 -0.8580  2.3174
12822SOL     OW39753   6.619   3.763   0.767  0.0601 -0.2317 -0.0646
12822SOL    HW139754   6.605   3.679   0.811  0.5167 -0.0686  0.4129
12822SOL    HW239755   6.569   3.757   0.686 -1.4310 -0.2445  0.8328
12823SOL     OW39756   4.593   6.421   0.105 -0.3022  0.0344  0.3222
12823SOL    HW139757   4.501   6.417   0.080 -0.1768 -2.8017  0.0528
12823SOL    HW239758   4.611   6.337   0.147  2.3082  0.2464 -0.1756
12824SOL     OW39759   0.749   5.042   6.402 -0.4709 -0.3175  0.0132
12824SOL    HW139760   0.845   5.049   6.403 -0.3810 -1.0525 -1.1156
12824SOL    HW239761   0.718   5.129   6.429  0.4915 -0.5167  1.9013
12825SOL     OW39762   4.481   2.378   4.492 -0.0471 -0.0557  0.3040
12825SOL    HW139763   4.569   2.340   4.485 -0.8738 -2.5028  1.8072
12825SOL    HW239764   4.491   2.448   4.557  0.6784 -0.7423  0.9579
12826SOL     OW39765   2.578   1.305   7.486  0.2232 -0.2947 -0.1269
12826SOL    HW139766   2.492   1.267   7.472 -1.3046  2.8207 -0.1232
12826SOL    HW239767   2.613   1.319   7.398 -0.0705 -0.0112 -0.2034
12827SOL     OW39768   4.596   8.039   6.232 -0.1350 -0.0296 -0.5963
12827SOL    HW139769   4.675   7.985   6.221 -0.3996 -0.4128 -0.6553
12827SOL    HW239770   4.620   8.124   6.197  0.3741 -0.0342 -0.2808
12828SOL     OW39771   2.971   1.146   6.969 -0.7432 -0.0138 -0.4151
12828SOL    HW139772   2.965   1.225   6.916 -1.9205  0.2863  0.1306
12828SOL    HW239773   2.880   1.122   6.987 -0.4246 -1.7133 -0.8809
12829SOL     OW39774   6.283   4.026   0.165 -0.1534  0.6876  0.0468
12829SOL    HW139775   6.298   3.951   0.222 -0.8930 -1.0707 -1.9660
12829SOL    HW239776   6.370   4.062   0.150  0.2801 -0.1212  0.5619
12830SOL     OW39777   8.047   1.958   6.437  0.0261  0.0730  0.0161
12830SOL    HW139778   8.111   1.915   6.493  2.2987  3.2740  0.1593
12830SOL    HW239779   8.018   1.890   6.377 -0.0560 -2.6926  2.8908
12831SOL     OW39780   0.928   3.830   3.231 -0.0156 -0.3603 -0.3950
12831SOL    HW139781   1.010   3.786   3.211  0.2555  0.1396 -0.4013
12831SOL    HW239782   0.904   3.875   3.150 -0.5121 -0.8380 -0.5195
12832SOL     OW39783   2.820   8.618   4.355 -0.9081 -0.1939  0.2961
12832SOL    HW139784   2.876   8.542   4.346 -0.2633  0.2984  0.0578
12832SOL    HW239785   2.811   8.653   4.266 -0.7734  0.3028  0.4738
12833SOL     OW39786   8.105   6.373   5.418 -0.1781 -0.8807 -0.4723
12833SOL    HW139787   8.101   6.286   5.378  0.1333 -0.3704 -1.6536
12833SOL    HW239788   8.190   6.375   5.463  0.0719 -0.9920 -0.9311
12834SOL     OW39789   8.006   1.998   4.738 -0.1621 -0.7445 -0.7998
12834SOL    HW139790   7.931   1.944   4.714 -1.9659  1.7193 -1.1209
12834SOL    HW239791   7.979   2.088   4.716  2.0967  0.4816  0.9778
12835SOL     OW39792   6.593   3.699   2.173 -0.1139 -0.1772 -0.1789
12835SOL    HW139793   6.621   3.665   2.088  0.4242 -0.3306  0.0561
12835SOL    HW239794   6.657   3.665   2.235  0.5372  1.3841  0.0508
12836SOL     OW39795   8.452   5.318   0.363  0.2475  0.4933 -0.3313
12836SOL    HW139796   8.442   5.307   0.457  3.1009  1.6017  0.1952
12836SOL    HW239797   8.466   5.412   0.351  0.0163  0.3695 -1.8711
12837SOL     OW39798   7.520   2.038   7.601 -0.3289  0.0203 -0.3313
12837SOL    HW139799   7.613   2.061   7.596 -0.0584 -0.7069  1.0062
12837SOL    HW239800   7.514   1.973   7.671 -1.7238 -0.6196 -0.9915
12838SOL     OW39801   4.067   5.020   2.570  0.1866 -0.4281  0.3520
12838SOL    HW139802   4.028   5.027   2.657 -0.3672  0.5051  0.0394
12838SOL    HW239803   4.143   5.078   2.573  0.8472 -1.2899  0.5695
12839SOL     OW39804   7.748   3.142   8.265  0.0285  0.1512  0.6451
12839SOL    HW139805   7.752   3.212   8.330  0.8008 -0.4773  1.2814
12839SOL    HW239806   7.745   3.061   8.315  2.3884 -0.4459 -0.0508
12840SOL     OW39807   3.017   4.760   3.634 -0.6788  0.5436 -0.0845
12840SOL    HW139808   2.928   4.796   3.635 -0.8692  0.1411 -1.0638
12840SOL    HW239809   3.074   4.836   3.631 -1.0410  0.7990 -0.8960
12841SOL     OW39810   2.497   6.458   5.784  0.0576 -0.3392  0.1935
12841SOL    HW139811   2.448   6.401   5.724  0.3697 -1.0256  0.5733
12841SOL    HW239812   2.574   6.485   5.735 -0.4255  0.2961 -0.2174
12842SOL     OW39813   6.694   6.221   5.640 -0.1699 -0.2056  0.4681
12842SOL    HW139814   6.732   6.133   5.646  1.2723  0.2838 -0.8662
12842SOL    HW239815   6.769   6.279   5.625 -1.2069  1.1239  0.2148
12843SOL     OW39816   2.455   3.926   4.643 -0.1584 -0.4726 -0.0413
12843SOL    HW139817   2.375   3.926   4.591 -0.3844  1.6179  0.2446
12843SOL    HW239818   2.460   3.837   4.680 -3.0386 -0.2758  1.0312
12844SOL     OW39819   7.946   0.985   3.775  0.4078 -0.1189 -0.2586
12844SOL    HW139820   7.956   0.913   3.837  1.3124 -1.7236 -2.1279
12844SOL    HW239821   8.032   0.994   3.734 -0.0828  1.0375 -1.1091
12845SOL     OW39822   6.547   7.345   6.454  0.0650  0.6620  0.6265
12845SOL    HW139823   6.513   7.367   6.367  0.0286  2.2432  1.0263
12845SOL    HW239824   6.612   7.277   6.437  0.5313  1.4070 -0.7173
12846SOL     OW39825   0.317   5.437   7.651 -0.1472  0.3952 -0.0859
12846SOL    HW139826   0.226   5.442   7.680 -1.0284  0.3081 -2.6152
12846SOL    HW239827   0.323   5.499   7.578  1.8968  0.5485  0.1379
12847SOL     OW39828   5.294   1.907   6.133  0.1482 -0.0547  0.5199
12847SOL    HW139829   5.217   1.863   6.170  1.2952 -1.0174  1.8430
12847SOL    HW239830   5.332   1.843   6.072 -0.4337  0.6700 -0.6508
12848SOL     OW39831   3.428   6.195   7.359 -0.3083  0.0545 -0.8702
12848SOL    HW139832   3.523   6.195   7.370 -0.1711  1.4600 -1.7990
12848SOL    HW239833   3.396   6.137   7.428  1.2089 -0.3436 -0.4662
12849SOL     OW39834   7.362   5.959   1.517 -0.4464 -0.3939  0.6694
12849SOL    HW139835   7.340   6.036   1.569  0.3005 -0.4422  1.0794
12849SOL    HW239836   7.321   5.974   1.432 -0.0460  0.6148  0.6414
12850SOL     OW39837   7.178   7.773   4.269 -0.0023  0.3856  0.5685
12850SOL    HW139838   7.219   7.709   4.327 -0.7869 -1.1842 -0.5391
12850SOL    HW239839   7.247   7.797   4.207  0.2269  0.4249  0.8382
12851SOL     OW39840   0.241   5.768   0.645  0.0653  0.3564  0.1552
12851SOL    HW139841   0.250   5.863   0.649 -2.4595  0.6650  0.5534
12851SOL    HW239842   0.259   5.747   0.553  2.2746  0.9511  0.4070
12852SOL     OW39843   3.182   5.091   2.497  0.1718  0.2296 -0.5063
12852SOL    HW139844   3.270   5.116   2.470  1.4748 -2.6632  0.5676
12852SOL    HW239845   3.150   5.165   2.549  2.3022  1.0670 -0.2855
12853SOL     OW39846   0.138   3.875   5.402 -0.0402  0.4233 -0.9548
12853SOL    HW139847   0.048   3.853   5.426  0.1730 -1.3396 -1.6227
12853SOL    HW239848   0.192   3.824   5.462  0.5282  1.2312 -0.7631
12854SOL     OW39849   0.999   1.899   6.796  0.3461 -0.0955  0.2766
12854SOL    HW139850   0.934   1.837   6.761  1.0371 -0.3306 -0.6290
12854SOL    HW239851   0.960   1.985   6.781 -0.9737 -0.2867  2.2481
12855SOL     OW39852   7.958   7.973   8.133 -0.3025 -0.2495  0.7549
12855SOL    HW139853   8.009   7.993   8.211  1.1900 -0.4476 -0.1366
12855SOL    HW239854   8.005   7.901   8.091  0.4820  1.5544 -1.6890
12856SOL     OW39855   3.853   3.219   1.302 -0.5215 -0.2922  0.1615
12856SOL    HW139856   3.873   3.244   1.212 -1.0464  1.9915  0.6103
12856SOL    HW239857   3.769   3.173   1.296  0.4863 -2.1049 -0.7170
12857SOL     OW39858   4.495   0.392   7.715  0.4038 -0.0999  0.1078
12857SOL    HW139859   4.548   0.315   7.737  1.7310  0.3389 -1.4281
12857SOL    HW239860   4.539   0.465   7.757  0.4407  0.1373 -0.3436
12858SOL     OW39861   5.009   7.089   2.714 -0.0483 -0.0470 -0.9067
12858SOL    HW139862   5.008   7.180   2.745  0.4696  0.0775 -1.2406
12858SOL    HW239863   5.059   7.093   2.632 -0.7579 -0.4944 -1.3633
12859SOL     OW39864   8.654   7.811   4.594  0.1611 -0.1546 -0.2191
12859SOL    HW139865   8.604   7.808   4.513  0.1663 -0.0398 -0.2259
12859SOL    HW239866   8.614   7.743   4.649  1.1064 -1.2868 -0.8709
12860SOL     OW39867   7.201   0.220   5.770 -0.2454 -0.2243  0.2120
12860SOL    HW139868   7.225   0.184   5.684  0.5956  0.5596  0.0998
12860SOL    HW239869   7.132   0.161   5.802 -0.5794 -0.5273 -0.9966
12861SOL     OW39870   6.996   4.367   2.927  0.3202 -0.1214 -0.2914
12861SOL    HW139871   7.025   4.298   2.986 -0.8686  0.0995  0.5820
12861SOL    HW239872   6.943   4.425   2.982  1.4489  1.6237 -0.9384
12862SOL     OW39873   6.471   7.459   7.001 -0.1132  0.4244  0.3418
12862SOL    HW139874   6.550   7.494   7.042 -0.6539  0.9077  1.0091
12862SOL    HW239875   6.484   7.365   6.998  0.6014  0.5242  0.1936
12863SOL     OW39876   7.475   8.163   0.295  0.7740 -0.0403 -0.0895
12863SOL    HW139877   7.413   8.214   0.347 -0.0723 -0.2559 -0.8685
12863SOL    HW239878   7.473   8.202   0.208  0.7595 -0.8534 -0.4689
12864SOL     OW39879   2.588   7.031   1.950 -0.2684  0.3381 -0.4962
12864SOL    HW139880   2.605   7.009   1.858 -1.6314 -1.3809 -0.3837
12864SOL    HW239881   2.537   6.957   1.983  0.5754  0.7171  1.7848
12865SOL     OW39882   1.222   4.908   5.925 -0.0600  0.1962 -0.0848
12865SOL    HW139883   1.247   4.901   6.017 -0.8062 -0.0988  0.0991
12865SOL    HW239884   1.278   4.845   5.880  0.2596  0.2937  0.1723
12866SOL     OW39885   3.405   5.188   2.396  0.2023 -0.0760  0.2644
12866SOL    HW139886   3.414   5.126   2.323 -0.8989 -1.3357  1.1478
12866SOL    HW239887   3.408   5.274   2.354  1.3406 -0.7048 -1.0579
12867SOL     OW39888   0.944   0.280   1.031 -0.1433  0.5992  0.0261
12867SOL    HW139889   0.992   0.197   1.021 -0.5042  0.5832 -2.1363
12867SOL    HW239890   0.853   0.253   1.044  0.1127  0.6627  2.3820
12868SOL     OW39891   5.882   6.563   5.304  0.0512  0.2891  0.6647
12868SOL    HW139892   5.919   6.610   5.379  1.2871  1.8416 -0.8340
12868SOL    HW239893   5.957   6.522   5.262 -0.4370  0.4598 -0.4121
12869SOL     OW39894   4.623   7.917   6.804  0.1621 -0.5336  0.0414
12869SOL    HW139895   4.617   7.968   6.723 -0.0767  0.3238  0.5914
12869SOL    HW239896   4.569   7.839   6.787  0.3396 -0.4978 -0.7192
12870SOL     OW39897   6.563   0.840   6.620 -0.4316  0.1148 -0.3724
12870SOL    HW139898   6.575   0.864   6.528 -1.0728  0.6186 -0.3331
12870SOL    HW239899   6.515   0.914   6.657 -1.1204 -0.5725  0.1162
12871SOL     OW39900   2.931   7.694   5.199 -0.7357  0.3693  0.4708
12871SOL    HW139901   2.958   7.771   5.248  0.2383  0.3428 -0.0033
12871SOL    HW239902   2.888   7.638   5.263 -0.6463  0.9059  1.0059
12872SOL     OW39903   1.461   4.052   2.864 -0.0315  0.2820 -0.4900
12872SOL    HW139904   1.373   4.039   2.899  0.6140 -0.5372  0.8890
12872SOL    HW239905   1.466   3.994   2.788 -0.5908  0.1736 -0.4428
12873SOL     OW39906   8.154   7.747   6.958 -0.2468 -0.3715  0.2090
12873SOL    HW139907   8.076   7.780   7.002 -0.4566  0.0026 -0.4309
12873SOL    HW239908   8.123   7.716   6.874  0.3111 -0.0956 -0.1077
12874SOL     OW39909   3.698   0.069   2.176  0.4059  0.1544  0.3772
12874SOL    HW139910   3.785   0.029   2.179  0.0449 -0.6146  0.8894
12874SOL    HW239911   3.688   0.112   2.261  0.2734  0.2277  0.3249
12875SOL     OW39912   8.420   0.177   4.653 -0.0336  0.0865  0.1785
12875SOL    HW139913   8.405   0.211   4.564  1.7268  0.8778  0.1423
12875SOL    HW239914   8.407   0.253   4.710 -0.4993 -0.2654  0.5547
12876SOL     OW39915   6.118   8.306   7.209 -0.5471 -0.5875  0.4045
12876SOL    HW139916   6.062   8.229   7.205 -1.3912  0.0472 -0.5536
12876SOL    HW239917   6.102   8.352   7.127 -2.5217  2.2669  2.2051
12877SOL     OW39918   0.928   1.566   1.475  0.1001 -0.2182 -0.0718
12877SOL    HW139919   0.885   1.491   1.516 -1.4328  0.3196 -0.6336
12877SOL    HW239920   1.010   1.531   1.441 -0.9329 -1.8455 -1.0125
12878SOL     OW39921   6.214   8.282   8.037  0.0877 -0.3328 -0.1901
12878SOL    HW139922   6.180   8.354   7.984 -1.8959 -1.2764 -0.2718
12878SOL    HW239923   6.165   8.287   8.119  2.7370  0.7813  1.4818
12879SOL     OW39924   8.143   4.527   0.742  0.0362 -0.1384 -0.1792
12879SOL    HW139925   8.130   4.439   0.776  0.0132  0.0829  0.4015
12879SOL    HW239926   8.236   4.544   0.754 -0.2234  0.4839  1.1462
12880SOL     OW39927   4.723   4.311   2.526  0.6331 -0.0075 -0.1275
12880SOL    HW139928   4.737   4.250   2.598  2.7928  1.1190  0.4862
12880SOL    HW239929   4.793   4.291   2.463  0.7433  1.1479 -0.3887
12881SOL     OW39930   4.627   7.344   4.054 -0.2533 -0.4704 -0.1364
12881SOL    HW139931   4.598   7.253   4.055 -0.0697 -0.5340  1.7378
12881SOL    HW239932   4.564   7.390   4.108  0.0488  0.4058 -0.5195
12882SOL     OW39933   4.034   1.105   1.968  0.1846  0.2119 -0.2631
12882SOL    HW139934   4.045   1.152   1.886 -3.9639 -1.5518 -2.0886
12882SOL    HW239935   4.051   1.013   1.946 -0.3147 -0.2049  0.9840
12883SOL     OW39936   4.013   4.328   2.592 -0.3279  0.0660  0.4375
12883SOL    HW139937   3.950   4.356   2.526 -0.5568 -0.4259  0.4395
12883SOL    HW239938   3.986   4.239   2.614  0.6025 -0.2941  0.1514
12884SOL     OW39939   2.323   6.412   2.099 -0.2911 -0.1142 -0.4047
12884SOL    HW139940   2.346   6.477   2.165 -1.2744 -0.5013  0.3547
12884SOL    HW239941   2.279   6.461   2.030 -0.1486  0.1635 -0.2960
12885SOL     OW39942   8.384   6.025   8.410 -0.2385 -0.3465  0.4327
12885SOL    HW139943   8.383   6.043   8.504  2.5015  0.6444  0.3531
12885SOL    HW239944   8.429   5.941   8.402 -0.4211 -0.4065 -0.0106
12886SOL     OW39945   1.798   6.713   3.402  0.0715  0.3482 -0.2200
12886SOL    HW139946   1.733   6.659   3.446  0.2806  0.3147  0.0515
12886SOL    HW239947   1.865   6.651   3.373 -0.6901  0.1905 -1.7530
12887SOL     OW39948   6.769   0.418   2.790 -0.1100  0.1082 -0.4078
12887SOL    HW139949   6.836   0.472   2.832  1.6816 -1.3196 -1.2564
12887SOL    HW239950   6.686   0.448   2.827  0.8972  2.5589  0.0345
12888SOL     OW39951   7.429   7.241   4.326  0.3205  0.2082  0.4358
12888SOL    HW139952   7.356   7.186   4.295 -0.1390  0.9805  0.1011
12888SOL    HW239953   7.415   7.325   4.281  3.6132 -0.7219 -2.7900
12889SOL     OW39954   0.855   7.448   1.015 -0.0997 -0.9375 -0.0865
12889SOL    HW139955   0.949   7.432   1.025 -0.4486 -2.5981  0.9982
12889SOL    HW239956   0.830   7.494   1.095 -0.1384 -0.0528 -0.5986
12890SOL     OW39957   6.994   3.234   3.943 -0.1850  0.0501 -0.3615
12890SOL    HW139958   6.927   3.282   3.894 -1.5990 -0.6085  0.8404
12890SOL    HW239959   6.944   3.177   4.002  1.4432 -1.7580 -0.6400
12891SOL     OW39960   0.912   7.246   7.623  0.1342 -0.1108 -0.1214
12891SOL    HW139961   0.900   7.155   7.597 -1.6896  0.4346 -1.3765
12891SOL    HW239962   0.964   7.284   7.552  0.4965 -0.0601  0.1700
12892SOL     OW39963   3.654   5.689   0.378  0.0991 -0.1991  0.5735
12892SOL    HW139964   3.746   5.710   0.362 -0.2329 -0.2799 -1.8824
12892SOL    HW239965   3.652   5.651   0.466  2.0946  1.5443  1.4471
12893SOL     OW39966   8.310   5.067   0.698 -0.3354  0.1250 -0.0872
12893SOL    HW139967   8.235   5.008   0.688 -0.1679  0.1063 -1.4196
12893SOL    HW239968   8.364   5.050   0.621  0.1811  1.3555 -0.0142
12894SOL     OW39969   7.311   1.943   7.442 -0.0775  0.4020  0.2045
12894SOL    HW139970   7.235   1.936   7.500 -0.3498 -0.2654 -0.2233
12894SOL    HW239971   7.380   1.978   7.498 -0.2597 -0.4819  1.0143
12895SOL     OW39972   5.272   2.610   2.498 -0.0009  0.1944  0.4041
12895SOL    HW139973   5.221   2.562   2.433 -1.9628  1.4627  0.9248
12895SOL    HW239974   5.322   2.674   2.447  0.4388 -0.4699 -0.0275
12896SOL     OW39975   1.841   1.884   3.036  0.0049  0.5146  0.1915
12896SOL    HW139976   1.754   1.851   3.013 -0.3973  1.2902  0.5641
12896SOL    HW239977   1.880   1.908   2.952  1.0483 -2.5616 -0.3297
12897SOL     OW39978   7.942   5.375   3.047  0.3280  0.2430 -0.8247
12897SOL    HW139979   7.893   5.296   3.024 -0.3435  0.4510 -0.1565
12897SOL    HW239980   7.921   5.390   3.139 -0.1175  1.5891 -1.1153
12898SOL     OW39981   7.894   0.077   1.855  0.4466  0.3114 -0.2001
12898SOL    HW139982   7.965   0.041   1.907 -0.5224 -0.9630  0.3110
12898SOL    HW239983   7.849  -0.000   1.819 -0.5780  1.0766 -0.6234
12899SOL     OW39984   3.487   7.538   6.979  0.1722  0.0940  0.1284
12899SOL    HW139985   3.414   7.534   7.042  0.5106  1.0149  0.5993
12899SOL    HW239986   3.464   7.609   6.920 -0.0685 -0.6702 -0.7250
12900SOL     OW39987   7.955   5.070   0.379 -1.2588 -0.9998 -0.1980
12900SOL    HW139988   7.911   4.991   0.409  1.2718 -1.4579  2.7802
12900SOL    HW239989   8.047   5.045   0.368  0.0658  1.8186  2.8413
12901SOL     OW39990   6.956   5.323   3.758 -0.2082 -0.3296 -0.0363
12901SOL    HW139991   6.976   5.416   3.772  2.3486 -0.4704 -2.0532
12901SOL    HW239992   6.972   5.282   3.843  1.5181  0.6842  0.1733
12902SOL     OW39993   4.922   0.835   3.095  0.3184  0.8362  0.0334
12902SOL    HW139994   4.850   0.883   3.135 -1.4619 -2.0627  0.6191
12902SOL    HW239995   4.887   0.803   3.012  0.8912 -0.5930  0.3143
12903SOL     OW39996   5.411   1.931   6.394  0.4821 -0.0362  0.3423
12903SOL    HW139997   5.379   1.954   6.307 -1.1624  1.6462  1.3113
12903SOL    HW239998   5.438   1.840   6.387 -1.2395 -0.4619 -1.4816
12904SOL     OW39999   4.086   4.367   2.194 -0.2732  0.0136 -0.0481
12904SOL    HW140000   4.011   4.385   2.137  0.4970  0.6910 -0.8733
12904SOL    HW240001   4.098   4.449   2.243 -0.4081 -0.2854  0.4963
12905SOL     OW40002   6.288   5.707   3.206 -0.4449 -0.1880  0.6393
12905SOL    HW140003   6.381   5.716   3.230 -0.3726 -1.9828  1.1543
12905SOL    HW240004   6.269   5.786   3.155  0.9774  0.9235  1.7283
12906SOL     OW40005   2.345   3.156   5.896 -0.4038  0.3884  0.0737
12906SOL    HW140006   2.311   3.210   5.967 -1.0793  1.1402 -0.7982
12906SOL    HW240007   2.269   3.140   5.839  0.3642  0.8054 -1.1032
12907SOL     OW40008   8.689   0.761   7.811  0.3292  0.3638 -0.0961
12907SOL    HW140009   8.735   0.740   7.893  2.8505  1.4778 -1.1087
12907SOL    HW240010   8.693   0.680   7.760  0.0685  0.0910  0.3150
12908SOL     OW40011   3.994   1.417   4.395  0.0075  0.4153  0.1873
12908SOL    HW140012   4.029   1.348   4.338 -2.2317 -0.0249 -0.7655
12908SOL    HW240013   4.069   1.473   4.413  1.5880 -1.4812 -0.1736
12909SOL     OW40014   2.750   7.106   0.437 -0.1464 -0.0491 -0.0009
12909SOL    HW140015   2.756   7.012   0.457  1.7808  0.1238  0.4812
12909SOL    HW240016   2.787   7.114   0.349 -1.6787  0.1109 -0.6607
12910SOL     OW40017   5.519   2.565   7.217 -0.6172 -0.1135 -0.4917
12910SOL    HW140018   5.519   2.537   7.308 -0.1320 -0.4808 -0.6021
12910SOL    HW240019   5.612   2.568   7.193 -0.7526 -0.2534 -1.0435
12911SOL     OW40020   1.603   0.543   6.883 -0.3158  0.2071 -0.1544
12911SOL    HW140021   1.587   0.636   6.868  1.6895  0.7280  0.6141
12911SOL    HW240022   1.556   0.523   6.964  0.1212  0.8412  0.2659
12912SOL     OW40023   2.001   1.138   4.144 -0.0268  0.0380 -0.1363
12912SOL    HW140024   1.913   1.113   4.170  0.5127 -1.6273  0.1885
12912SOL    HW240025   2.059   1.088   4.201  1.1541  1.8456  0.3384
12913SOL     OW40026   8.710   4.502   6.469 -0.1065 -0.5220  0.3638
12913SOL    HW140027   8.662   4.422   6.449  0.7902 -0.8797 -0.4826
12913SOL    HW240028   8.770   4.513   6.394  1.6215 -0.4969  1.6842
12914SOL     OW40029   1.624   4.037   6.175  0.6326  0.0549 -0.4805
12914SOL    HW140030   1.702   4.054   6.122  0.1269 -0.7591 -1.5125
12914SOL    HW240031   1.592   3.953   6.144  0.6315 -0.7302  1.5210
12915SOL     OW40032   1.459   8.543   2.725 -0.2842  0.2900 -0.1662
12915SOL    HW140033   1.420   8.456   2.730 -0.8543  0.6146  3.0542
12915SOL    HW240034   1.545   8.528   2.685 -1.0939 -1.4394 -1.3608
12916SOL     OW40035   3.046   4.240   0.410  0.2742  0.0788 -0.0507
12916SOL    HW140036   3.116   4.175   0.423 -0.9076 -1.4608 -1.0739
12916SOL    HW240037   3.075   4.291   0.334  0.0445 -0.9601 -0.8655
12917SOL     OW40038   3.133   1.513   7.356  0.2212  0.3454 -0.1288
12917SOL    HW140039   3.147   1.441   7.295  0.2965 -0.5760  0.9430
12917SOL    HW240040   3.219   1.526   7.398 -0.1597  0.0037  0.7867
12918SOL     OW40041   6.918   8.602   6.518  0.5616  0.5231  0.3250
12918SOL    HW140042   7.006   8.571   6.497  0.0255 -0.6548 -0.2847
12918SOL    HW240043   6.916   8.604   6.614  1.1308  0.1902  0.3497
12919SOL     OW40044   7.921   8.174   7.088 -0.7383  0.6247  0.3817
12919SOL    HW140045   7.841   8.197   7.042 -0.3067 -1.5312 -1.6428
12919SOL    HW240046   7.895   8.106   7.150 -0.5763  0.1710 -0.0353
12920SOL     OW40047   3.862   3.666   7.351  0.2476 -0.0047  0.1976
12920SOL    HW140048   3.929   3.598   7.343  0.6053  0.3711 -0.0211
12920SOL    HW240049   3.824   3.674   7.263 -1.6652 -1.7951  0.7787
12921SOL     OW40050   2.317   1.575   6.152  0.7603 -0.0820 -0.3282
12921SOL    HW140051   2.323   1.481   6.135 -4.1830 -0.7164  0.0236
12921SOL    HW240052   2.311   1.614   6.066  0.4242 -0.3809 -0.4433
12922SOL     OW40053   6.133   3.776   6.878  0.2212 -0.0556  0.7662
12922SOL    HW140054   6.226   3.757   6.892  0.3195 -0.5570 -0.4450
12922SOL    HW240055   6.091   3.690   6.873 -0.2832  0.1647  1.0846
12923SOL     OW40056   3.398   4.539   1.240 -0.5783  0.2653  0.3827
12923SOL    HW140057   3.363   4.456   1.270 -1.8017  1.2184  1.7349
12923SOL    HW240058   3.450   4.572   1.313 -1.4465  1.4158  0.5152
12924SOL     OW40059   4.168   7.463   4.281 -0.6098  0.0461  0.2926
12924SOL    HW140060   4.111   7.480   4.356 -0.2432 -0.3999  0.6806
12924SOL    HW240061   4.113   7.479   4.205 -0.5116  2.2342  0.6108
12925SOL     OW40062   6.828   7.283   6.724 -0.2518  0.1435  0.0765
12925SOL    HW140063   6.816   7.359   6.781 -0.9095  0.8882 -1.0286
12925SOL    HW240064   6.908   7.301   6.675 -1.2678  0.9381 -1.3717
12926SOL     OW40065   4.720   6.128   8.648 -0.3037  0.1843  0.2108
12926SOL    HW140066   4.759   6.054   8.603 -0.0804  0.4491 -0.0357
12926SOL    HW240067   4.768   6.204   8.615  0.0270  0.3627  1.0538
12927SOL     OW40068   7.090   3.126   3.688 -0.2961 -0.1008 -0.3312
12927SOL    HW140069   7.039   3.147   3.766 -2.1528 -2.0829 -0.9076
12927SOL    HW240070   7.090   3.208   3.638  3.0936  2.0323  2.6747
12928SOL     OW40071   4.675   8.376   0.168 -0.2784  0.2272  0.5946
12928SOL    HW140072   4.684   8.282   0.188  2.6882  0.4698  0.8748
12928SOL    HW240073   4.616   8.379   0.093 -0.8077 -1.8087  0.8546
12929SOL     OW40074   7.113   7.871   5.733 -0.3296  0.3272  0.2489
12929SOL    HW140075   7.159   7.950   5.761 -0.3699  0.8255 -1.0570
12929SOL    HW240076   7.178   7.821   5.684 -0.2679 -0.5384  1.1646
12930SOL     OW40077   7.225   3.855   0.197  0.1770 -0.2855 -0.0495
12930SOL    HW140078   7.188   3.823   0.279 -1.6862 -0.0060 -0.7161
12930SOL    HW240079   7.174   3.934   0.177  0.5171 -0.4013 -1.5063
12931SOL     OW40080   0.052   7.670   0.568  0.1974  0.0802 -0.7519
12931SOL    HW140081   0.025   7.609   0.637  3.0699  0.2995  0.7611
12931SOL    HW240082   0.099   7.615   0.505  0.5192  0.3352 -0.7383
12932SOL     OW40083   7.541   2.933   7.511  0.1003  0.1765  0.2475
12932SOL    HW140084   7.626   2.894   7.488 -0.9400 -1.8892 -0.3485
12932SOL    HW240085   7.478   2.861   7.500 -2.2845  2.4707 -2.7281
12933SOL     OW40086   7.496   7.465   6.895  0.3769 -0.6268 -0.1000
12933SOL    HW140087   7.481   7.401   6.965 -0.1543 -0.2848  0.1047
12933SOL    HW240088   7.464   7.547   6.931 -0.3875 -0.5448 -0.9309
12934SOL     OW40089   7.657   0.274   6.839  0.1330 -0.2516 -0.2103
12934SOL    HW140090   7.732   0.230   6.879  0.7205  2.0871  1.4347
12934SOL    HW240091   7.632   0.342   6.901 -2.0072  0.4555 -1.7149
12935SOL     OW40092   8.406   8.238   8.651 -0.0115  0.2303  0.3547
12935SOL    HW140093   8.326   8.290   8.640  0.3580  0.6625 -0.3819
12935SOL    HW240094   8.375   8.152   8.680 -0.8414 -0.0049 -1.1163
12936SOL     OW40095   3.800   5.317   8.696  0.1762  0.1407 -0.1169
12936SOL    HW140096   3.846   5.269   8.765 -0.1283 -0.1471 -0.1108
12936SOL    HW240097   3.805   5.409   8.723  1.4369  0.2105 -0.5227
12937SOL     OW40098   0.677   7.845   7.918 -0.0359  0.4823  0.5489
12937SOL    HW140099   0.772   7.854   7.911 -0.2679  2.9322 -0.4698
12937SOL    HW240100   0.650   7.809   7.834 -0.1331  1.4636  0.1442
12938SOL     OW40101   0.542   8.488   4.978  0.4322  0.0103  0.2201
12938SOL    HW140102   0.609   8.507   4.912 -0.3236 -2.6576 -1.4949
12938SOL    HW240103   0.460   8.486   4.929 -0.2478 -1.3684  1.3341
12939SOL     OW40104   5.326   7.960   7.854  0.2383  0.2370  0.5679
12939SOL    HW140105   5.376   7.880   7.870  1.4013  1.0108  1.0164
12939SOL    HW240106   5.312   7.997   7.942 -1.5515 -0.1919  0.4835
12940SOL     OW40107   1.195   2.589   7.826  0.0307 -0.2845 -0.3604
12940SOL    HW140108   1.289   2.576   7.842 -0.1010  0.8411  1.6533
12940SOL    HW240109   1.180   2.682   7.846 -1.7483 -0.7735  0.7902
12941SOL     OW40110   8.042   7.628   5.546 -0.0308  0.3672  0.6857
12941SOL    HW140111   8.049   7.717   5.512 -1.5071  0.3853  0.3590
12941SOL    HW240112   8.037   7.573   5.469 -0.2546  0.1113  0.8813
12942SOL     OW40113   0.485   2.920   5.595 -0.4102 -0.4535  0.3195
12942SOL    HW140114   0.539   2.876   5.660  0.5223 -0.8416 -0.6862
12942SOL    HW240115   0.497   2.868   5.515  1.3888  2.0217 -1.1467
12943SOL     OW40116   4.475   7.133   6.567  0.2016 -0.2435  0.7412
12943SOL    HW140117   4.525   7.202   6.522  1.9777 -2.5886 -1.1194
12943SOL    HW240118   4.396   7.122   6.513 -0.3324  0.6268  1.3240
12944SOL     OW40119   7.679   6.029   6.196 -0.3437  0.2140 -0.5683
12944SOL    HW140120   7.766   5.998   6.221  0.0607  0.7016 -1.3340
12944SOL    HW240121   7.683   6.039   6.101 -0.4132  2.6250 -0.3970
12945SOL     OW40122   5.941   1.451   8.286 -0.5899 -0.2386  0.1267
12945SOL    HW140123   5.887   1.475   8.361 -2.5107  0.3861 -1.3878
12945SOL    HW240124   5.881   1.450   8.211  1.0343 -1.8239 -1.2780
12946SOL     OW40125   5.710   4.738   1.432 -0.2436  0.1150  0.5099
12946SOL    HW140126   5.762   4.781   1.500  0.7789  1.9933 -1.3667
12946SOL    HW240127   5.659   4.808   1.393 -0.9822 -0.9658 -0.5303
12947SOL     OW40128   6.145   8.008   8.058  0.1635 -0.0271 -0.1691
12947SOL    HW140129   6.148   8.089   8.007  1.2504 -1.0665 -1.8690
12947SOL    HW240130   6.234   7.996   8.089 -0.6094  0.9597  2.7665
12948SOL     OW40131   5.120   4.988   0.455 -0.1832  0.4175  0.5653
12948SOL    HW140132   5.161   4.925   0.397  0.5625  1.6480 -0.2933
12948SOL    HW240133   5.062   5.039   0.399 -1.0631  0.2818  1.3134
12949SOL     OW40134   6.010   5.534   4.558 -0.7415  0.1015 -0.3586
12949SOL    HW140135   5.968   5.597   4.498  1.0539 -0.1857 -2.0127
12949SOL    HW240136   6.074   5.586   4.606 -0.6422 -0.0918 -0.2831
12950SOL     OW40137   5.306   2.359   6.373 -0.3440 -0.4080 -0.1703
12950SOL    HW140138   5.366   2.370   6.299 -0.0841 -0.4357  0.0320
12950SOL    HW240139   5.316   2.439   6.425 -0.2081 -0.5688  0.0559
12951SOL     OW40140   6.920   1.213   2.355  0.7248 -0.4922 -0.1484
12951SOL    HW140141   6.858   1.158   2.403  1.0292 -0.9066 -0.2293
12951SOL    HW240142   6.882   1.222   2.268  0.2726  0.0935  0.1031
12952SOL     OW40143   5.313   7.992   2.551 -0.1578 -0.5546  0.5806
12952SOL    HW140144   5.246   8.053   2.520  1.3944  1.0800  0.2958
12952SOL    HW240145   5.373   7.983   2.477  0.1991 -1.6200  0.9931
12953SOL     OW40146   2.244   5.770   2.566 -0.1649 -0.1749  0.3146
12953SOL    HW140147   2.168   5.822   2.590 -0.2897 -0.4238  0.4523
12953SOL    HW240148   2.286   5.821   2.496 -0.9393 -0.4723 -0.3750
12954SOL     OW40149   5.387   0.165   2.744 -0.1882  0.1131  0.4878
12954SOL    HW140150   5.422   0.138   2.829 -0.5469 -0.5407  0.4340
12954SOL    HW240151   5.452   0.135   2.681  0.7572  1.7945  0.6032
12955SOL     OW40152   4.769   5.560   5.592  0.2041 -0.0079  0.3696
12955SOL    HW140153   4.807   5.611   5.521 -0.8631  2.1448  1.2598
12955SOL    HW240154   4.686   5.528   5.557  0.8394 -1.1481 -0.1628
12956SOL     OW40155   2.945   7.074   7.687 -0.7411  0.1567  0.1740
12956SOL    HW140156   2.865   7.125   7.698 -1.0039 -0.6066  2.1934
12956SOL    HW240157   3.013   7.124   7.732 -0.4441 -0.0465 -0.0388
12957SOL     OW40158   6.168   7.498   0.475  0.2358  0.8254 -0.0103
12957SOL    HW140159   6.260   7.489   0.450 -0.1516  0.6495 -1.4762
12957SOL    HW240160   6.132   7.410   0.463  0.1566  0.5271  1.9559
12958SOL     OW40161   2.458   4.952   6.453  0.2098 -0.0946 -0.0483
12958SOL    HW140162   2.416   4.995   6.528  1.1950 -0.4283  0.7160
12958SOL    HW240163   2.476   5.024   6.392  0.3717  0.3430  0.5038
12959SOL     OW40164   2.439   2.211   3.092 -0.8328 -0.4466  0.4215
12959SOL    HW140165   2.381   2.137   3.105  0.1439 -0.9000  2.5455
12959SOL    HW240166   2.381   2.284   3.070 -2.0225 -1.2791  0.7467
12960SOL     OW40167   5.815   5.924   8.636 -0.1302  0.2115 -0.0075
12960SOL    HW140168   5.753   5.965   8.577  0.5622 -0.3233 -1.1372
12960SOL    HW240169   5.865   5.997   8.673 -1.4426  0.6538  0.9796
12961SOL     OW40170   7.502   7.707   5.005  0.0212  0.3197  0.4375
12961SOL    HW140171   7.511   7.612   4.995 -3.4237 -0.0827 -0.0330
12961SOL    HW240172   7.571   7.743   4.950  0.2056 -1.9218 -0.9627
12962SOL     OW40173   7.893   3.896   8.406  0.5257  0.2522 -0.1903
12962SOL    HW140174   7.977   3.903   8.360  0.0590 -1.1154 -1.3340
12962SOL    HW240175   7.902   3.816   8.458  0.7680  1.3778  1.6000
12963SOL     OW40176   7.067   2.491   7.344  0.5442  0.3455 -0.0341
12963SOL    HW140177   7.142   2.501   7.401 -0.3920 -0.4890  1.4056
12963SOL    HW240178   7.058   2.396   7.332 -0.9287  0.3444  0.7780
12964SOL     OW40179   4.727   0.308   1.706 -0.0424  0.0277  0.0938
12964SOL    HW140180   4.698   0.295   1.796  0.0564 -1.7897 -0.0945
12964SOL    HW240181   4.649   0.341   1.661 -0.2828  0.2843  0.6830
12965SOL     OW40182   2.495   6.890   2.560 -0.1305 -0.3457  0.2186
12965SOL    HW140183   2.567   6.835   2.531 -0.6945 -0.3156 -1.3725
12965SOL    HW240184   2.535   6.952   2.621  1.6612  0.8902 -2.0027
12966SOL     OW40185   6.505   5.005   7.794 -0.0313 -0.1259 -0.3437
12966SOL    HW140186   6.432   5.066   7.805  0.8385  0.7979  0.6241
12966SOL    HW240187   6.497   4.945   7.868 -0.2180 -0.4805 -0.6472
12967SOL     OW40188   4.710   5.160   3.534  0.2282 -0.1902  0.2248
12967SOL    HW140189   4.751   5.127   3.454  0.1515 -0.4611  0.2990
12967SOL    HW240190   4.618   5.174   3.509 -0.1760 -1.8239  0.7156
12968SOL     OW40191   2.759   3.203   1.705  0.6653 -0.5539 -0.1207
12968SOL    HW140192   2.812   3.152   1.767  1.9953 -0.3533 -1.0365
12968SOL    HW240193   2.818   3.272   1.675  1.3582 -2.6222 -4.2237
12969SOL     OW40194   1.140   3.285   3.598  0.2920 -0.4090 -0.2293
12969SOL    HW140195   1.076   3.248   3.536  1.4010  0.1583 -1.7624
12969SOL    HW240196   1.099   3.274   3.684 -2.6363  1.3667 -1.2480
12970SOL     OW40197   5.287   7.587   7.657 -0.8426  0.1791  0.0415
12970SOL    HW140198   5.226   7.660   7.653  0.4857  1.2776 -1.1375
12970SOL    HW240199   5.240   7.519   7.706 -1.7536  2.1170  2.0210
12971SOL     OW40200   6.708   5.512   4.486  0.0518 -0.2537 -0.3367
12971SOL    HW140201   6.671   5.424   4.497  0.1744 -0.3352 -0.5683
12971SOL    HW240202   6.788   5.511   4.538  0.1335 -0.3315 -0.4617
12972SOL     OW40203   0.206   0.652   6.805  0.3786  0.1211  0.0358
12972SOL    HW140204   0.141   0.685   6.867 -0.0080  1.9137 -1.2545
12972SOL    HW240205   0.246   0.730   6.768  1.2334 -0.9148 -1.3170
12973SOL     OW40206   8.519   2.160   7.182 -0.2800 -0.0296  0.3515
12973SOL    HW140207   8.438   2.198   7.148 -0.4711 -2.1173 -1.7661
12973SOL    HW240208   8.584   2.230   7.172 -1.2596  0.8044 -0.3985
12974SOL     OW40209   1.204   6.622   5.477 -0.0445  0.2793 -0.4455
12974SOL    HW140210   1.142   6.627   5.550 -0.4030 -0.0183 -0.7214
12974SOL    HW240211   1.196   6.532   5.445 -0.1926  0.5163 -1.0997
12975SOL     OW40212   3.553   8.642   1.950 -0.1297  0.2661 -0.2541
12975SOL    HW140213   3.600   8.706   2.003  0.0379  0.0906 -0.1885
12975SOL    HW240214   3.603   8.637   1.869  0.6949 -0.8367  0.2903
12976SOL     OW40215   7.251   0.307   2.886 -0.1721 -0.0149 -0.0664
12976SOL    HW140216   7.164   0.315   2.926  0.6049  1.5503  1.4607
12976SOL    HW240217   7.298   0.247   2.944  0.5723  1.2829  0.7266
12977SOL     OW40218   5.343   3.393   6.198 -0.5516 -0.5217  0.0159
12977SOL    HW140219   5.391   3.341   6.263 -0.6705  1.6820  2.0027
12977SOL    HW240220   5.267   3.426   6.246  0.9056  3.6820 -0.1415
12978SOL     OW40221   3.055   4.423   5.844 -0.3169 -0.1623 -0.4478
12978SOL    HW140222   3.073   4.407   5.751  1.7116  0.8975 -0.2797
12978SOL    HW240223   3.012   4.343   5.874  1.5281 -1.6779 -1.6476
12979SOL     OW40224   0.721   0.933   3.781  0.2325  0.3215  0.1087
12979SOL    HW140225   0.790   0.999   3.777  0.1703  0.3954  0.2454
12979SOL    HW240226   0.669   0.949   3.702  0.0143  0.6615  0.3210
12980SOL     OW40227   8.115   1.101   6.637  0.0824  0.2541 -0.0502
12980SOL    HW140228   8.159   1.112   6.721 -1.4328 -2.1720  1.1581
12980SOL    HW240229   8.178   1.132   6.572  2.7053 -1.0439  1.7343
12981SOL     OW40230   7.889   8.635   3.592  0.0936  0.3644 -0.7157
12981SOL    HW140231   7.869   8.634   3.685  1.2663 -0.2718 -0.4492
12981SOL    HW240232   7.822   8.691   3.553  0.6285  2.1118  0.7517
12982SOL     OW40233   6.989   0.109   5.103  0.2662 -0.2423  0.2583
12982SOL    HW140234   6.994   0.179   5.168  0.6378 -0.4956  0.5096
12982SOL    HW240235   7.025   0.032   5.148 -1.0208 -0.8347  0.2955
12983SOL     OW40236   5.091   0.694   2.532 -0.4160 -0.5589  0.0039
12983SOL    HW140237   5.137   0.703   2.615 -0.2507  1.9062 -0.2904
12983SOL    HW240238   5.160   0.699   2.465 -0.6721 -1.3157 -0.3313
12984SOL     OW40239   1.172   8.213   6.033  0.0211  0.2866 -0.2325
12984SOL    HW140240   1.255   8.186   6.073 -0.5347 -0.3969  0.4792
12984SOL    HW240241   1.192   8.219   5.939  0.9953  0.6134 -0.0151
12985SOL     OW40242   1.439   0.007   6.882 -0.3043 -0.0367  0.0425
12985SOL    HW140243   1.434   0.012   6.977 -0.6843  0.5411 -0.0026
12985SOL    HW240244   1.432   0.098   6.853  0.7926 -0.1103 -0.5010
12986SOL     OW40245   1.718   2.720   5.573 -0.3946 -0.5916 -0.2945
12986SOL    HW140246   1.805   2.695   5.541 -1.1843 -1.2230 -2.0648
12986SOL    HW240247   1.718   2.815   5.571 -0.1482 -0.6078 -1.4532
12987SOL     OW40248   4.818   7.384   4.404  0.0397  0.2227 -0.5749
12987SOL    HW140249   4.775   7.299   4.411  1.7954 -0.8365 -1.7712
12987SOL    HW240250   4.828   7.398   4.309  1.3821  0.8829 -0.3642
12988SOL     OW40251   5.714   4.884   1.111  0.3117 -0.5725  0.3013
12988SOL    HW140252   5.668   4.908   1.030  0.1442  0.1536  0.5999
12988SOL    HW240253   5.790   4.834   1.082  1.9266  2.1491 -0.5596
12989SOL     OW40254   7.904   2.010   0.418 -0.3613 -0.2011 -0.2387
12989SOL    HW140255   7.959   2.067   0.364 -0.2518  1.4476  1.4971
12989SOL    HW240256   7.815   2.045   0.406 -0.1433  1.1591  1.7243
12990SOL     OW40257   4.440   3.552   3.619  0.0990 -0.1734  0.5769
12990SOL    HW140258   4.405   3.604   3.691 -1.8266 -0.6056  0.0114
12990SOL    HW240259   4.418   3.601   3.540 -0.4574 -1.1108  0.1289
12991SOL     OW40260   4.052   7.371   1.975  0.4454 -0.1829 -0.3201
12991SOL    HW140261   3.980   7.318   1.943  0.3733  0.0922 -0.6240
12991SOL    HW240262   4.058   7.351   2.068 -0.4658  0.2919 -0.1484
12992SOL     OW40263   7.415   5.447   1.595  0.0432  0.1604  0.0729
12992SOL    HW140264   7.337   5.425   1.543  0.5217 -1.3309 -0.0652
12992SOL    HW240265   7.392   5.528   1.640 -1.1536  0.3739 -0.8709
12993SOL     OW40266   4.101   1.584   3.456 -0.1528  0.0242  0.4153
12993SOL    HW140267   4.013   1.594   3.420 -0.2862 -0.1851  0.6804
12993SOL    HW240268   4.152   1.653   3.413 -0.8454  1.3112  1.5451
12994SOL     OW40269   1.117   1.941   4.272 -0.4056 -0.1728  0.0604
12994SOL    HW140270   1.111   2.031   4.241 -0.0164  0.4359  1.6406
12994SOL    HW240271   1.035   1.900   4.244 -0.0305  0.2705 -1.8094
12995SOL     OW40272   6.496   0.459   0.979  0.3233 -0.3638 -0.2894
12995SOL    HW140273   6.449   0.447   1.062  0.0352 -1.2477 -0.5579
12995SOL    HW240274   6.490   0.552   0.961  0.0645 -0.2189  0.4987
12996SOL     OW40275   7.829   5.901   2.811 -0.0826 -0.3559  0.1432
12996SOL    HW140276   7.819   5.893   2.905  1.2674 -2.1737  0.1712
12996SOL    HW240277   7.757   5.850   2.774 -1.6816  1.7994  0.1121
12997SOL     OW40278   1.700   6.241   0.315  0.2434 -0.1247 -0.0715
12997SOL    HW140279   1.693   6.294   0.394 -1.1544  0.7399 -0.7269
12997SOL    HW240280   1.638   6.169   0.329  0.5984 -0.4288 -0.0475
12998SOL     OW40281   6.759   6.592   7.272 -0.1235 -0.5756  0.0245
12998SOL    HW140282   6.727   6.594   7.362 -0.5870  1.3779 -0.1252
12998SOL    HW240283   6.691   6.546   7.223  0.4877 -2.3249  0.7606
12999SOL     OW40284   3.885   4.076   4.807 -0.4579  0.4603 -0.0320
12999SOL    HW140285   3.868   4.060   4.714 -1.1387  1.3821 -0.0882
12999SOL    HW240286   3.908   4.169   4.811 -2.6745  1.0345  0.9682
13000SOL     OW40287   0.222   7.823   3.340 -0.3990 -0.4313  0.1772
13000SOL    HW140288   0.301   7.774   3.319  0.1008  1.2086 -2.1739
13000SOL    HW240289   0.252   7.912   3.358 -1.5658 -0.1886  1.0505
13001SOL     OW40290   4.471   8.071   3.614  0.1571 -0.0212  0.1233
13001SOL    HW140291   4.381   8.103   3.622  0.6860  1.1646  2.2406
13001SOL    HW240292   4.477   8.036   3.525 -2.7944 -1.4938  0.3781
13002SOL     OW40293   0.261   4.566   5.613  0.2694 -0.1719 -0.1057
13002SOL    HW140294   0.249   4.621   5.690 -0.6413  0.2569 -0.5378
13002SOL    HW240295   0.280   4.627   5.542  0.7308 -0.5363 -0.3020
13003SOL     OW40296   0.518   6.686   6.370  1.3319  0.0731  0.4673
13003SOL    HW140297   0.447   6.624   6.386  0.1700  0.9286 -1.1389
13003SOL    HW240298   0.523   6.737   6.450  1.6412 -1.3915  1.4351
13004SOL     OW40299   8.125   2.488   1.002 -0.2291 -0.0015  0.1374
13004SOL    HW140300   8.203   2.524   1.045  1.1968  0.2899 -2.4868
13004SOL    HW240301   8.108   2.548   0.929 -1.6407 -1.2233 -0.5875
13005SOL     OW40302   7.382   8.026   3.929  0.5016  0.0131  0.4091
13005SOL    HW140303   7.369   8.121   3.924  1.9041  0.2138  0.3171
13005SOL    HW240304   7.320   7.990   3.865 -0.3831  0.8250  0.7925
13006SOL     OW40305   7.244   5.272   2.161  0.2570  0.2825 -0.0933
13006SOL    HW140306   7.171   5.217   2.188 -1.6665  2.5852 -0.2810
13006SOL    HW240307   7.289   5.295   2.242  0.8104 -1.1340  0.0232
13007SOL     OW40308   3.239   1.293   1.255 -0.1779  0.4036  0.3508
13007SOL    HW140309   3.157   1.306   1.207  0.1317  0.2368 -0.2356
13007SOL    HW240310   3.261   1.379   1.289 -0.1526  0.6290 -0.2230
13008SOL     OW40311   1.848   6.210   7.458 -0.0491 -0.0770 -0.0205
13008SOL    HW140312   1.896   6.128   7.456 -2.6047 -1.7084  0.6079
13008SOL    HW240313   1.879   6.254   7.538  1.3463 -0.3733 -0.3730
13009SOL     OW40314   1.797   1.163   6.824  0.0133 -0.3613 -0.7634
13009SOL    HW140315   1.811   1.255   6.804 -0.9278 -0.2411 -0.9021
13009SOL    HW240316   1.721   1.162   6.881 -0.1228 -1.0694 -0.9482
13010SOL     OW40317   1.741   8.219   3.068  0.4202  0.2479 -0.3245
13010SOL    HW140318   1.736   8.289   3.003  1.8103  0.2445 -0.4701
13010SOL    HW240319   1.765   8.263   3.149 -0.0553  0.0917 -0.0919
13011SOL     OW40320   1.188   4.632   2.153 -0.0574  0.2914  0.3166
13011SOL    HW140321   1.277   4.597   2.154  0.0913  0.6770  0.6114
13011SOL    HW240322   1.165   4.636   2.060  0.2115  0.1349  0.2432
13012SOL     OW40323   6.340   8.071   0.119 -0.5181 -0.3857 -0.0422
13012SOL    HW140324   6.366   8.057   0.210  0.0544 -2.3371 -0.4687
13012SOL    HW240325   6.249   8.042   0.114 -0.8291  0.5239  0.0634
13013SOL     OW40326   2.074   5.253   1.155 -0.3513 -0.8097 -0.1874
13013SOL    HW140327   2.112   5.168   1.177  0.0544 -0.4180  0.6717
13013SOL    HW240328   2.066   5.299   1.239  0.4763  0.4315 -0.7468
13014SOL     OW40329   5.445   5.020   6.282  0.1736 -0.4708  0.2873
13014SOL    HW140330   5.418   5.079   6.212 -0.9990 -3.2097 -1.7638
13014SOL    HW240331   5.523   4.977   6.248  0.6690 -0.5562  1.4798
13015SOL     OW40332   7.844   5.484   4.947 -0.4817 -0.3036  0.5282
13015SOL    HW140333   7.929   5.482   4.903 -1.6910 -2.1383 -1.9660
13015SOL    HW240334   7.860   5.444   5.032  1.1693 -0.5652  0.1331
13016SOL     OW40335   1.168   6.886   1.037  0.2869  0.1006 -0.5084
13016SOL    HW140336   1.130   6.963   1.080  0.7971 -0.4556  1.0377
13016SOL    HW240337   1.262   6.904   1.034  0.3806 -0.3433 -0.3486
13017SOL     OW40338   6.365   7.552   1.659  0.4823 -0.2840 -0.1127
13017SOL    HW140339   6.283   7.583   1.620  0.0743 -0.4018  0.6194
13017SOL    HW240340   6.430   7.618   1.636  0.0249  0.1669 -0.1154
13018SOL     OW40341   2.331   8.227   0.767 -0.0183  0.3531 -0.2370
13018SOL    HW140342   2.298   8.206   0.680  0.6861 -0.7094 -0.2807
13018SOL    HW240343   2.410   8.278   0.750  0.1553  0.0899 -0.2327
13019SOL     OW40344   3.149   4.144   4.989 -0.2480 -0.0391  0.0888
13019SOL    HW140345   3.163   4.210   4.920 -0.7398 -0.6471 -0.6093
13019SOL    HW240346   3.056   4.150   5.009 -0.4099 -0.9137 -0.3897
13020SOL     OW40347   5.300   7.770   3.869 -0.1459 -0.9220  0.0728
13020SOL    HW140348   5.314   7.834   3.940 -1.2877  1.8732 -2.0478
13020SOL    HW240349   5.381   7.719   3.867  0.0824 -0.8809  3.0755
13021SOL     OW40350   0.060   7.855   6.326 -0.1414 -0.1669 -0.1722
13021SOL    HW140351   0.066   7.829   6.418  1.1310 -0.8127 -0.4165
13021SOL    HW240352   0.014   7.939   6.327 -0.7664 -0.5102  0.9866
13022SOL     OW40353   1.600   1.480   4.416 -0.8546 -0.0040  0.2850
13022SOL    HW140354   1.547   1.514   4.487 -0.7161  0.7794  0.0277
13022SOL    HW240355   1.635   1.558   4.372 -0.7832 -0.4703 -0.5212
13023SOL     OW40356   8.082   7.306   6.095  0.6544 -0.4094 -0.6323
13023SOL    HW140357   8.160   7.348   6.058 -0.1204  0.9628 -0.7462
13023SOL    HW240358   8.060   7.360   6.171  1.1616 -2.1484  0.8113
13024SOL     OW40359   3.287   8.325   7.784 -0.0895  0.4843  0.0593
13024SOL    HW140360   3.381   8.337   7.771 -0.2559  0.0291 -1.7732
13024SOL    HW240361   3.277   8.326   7.879  1.8690 -0.2020  0.3329
13025SOL     OW40362   4.558   2.562   0.342  0.8404  0.4944  0.2081
13025SOL    HW140363   4.632   2.502   0.333  0.9427  0.3417  1.8606
13025SOL    HW240364   4.540   2.591   0.252  0.2920 -2.5916 -0.8225
13026SOL     OW40365   4.761   2.143   2.854  0.4023 -0.1453  0.0004
13026SOL    HW140366   4.737   2.052   2.874 -1.5654  0.5241  0.9678
13026SOL    HW240367   4.779   2.142   2.760 -0.1914 -1.4209 -0.1319
13027SOL     OW40368   1.602   2.085   8.553  0.0056 -0.9055 -0.0216
13027SOL    HW140369   1.592   1.990   8.559 -1.7802 -0.6682  1.6865
13027SOL    HW240370   1.625   2.112   8.641  0.4271  0.2857 -0.4760
13028SOL     OW40371   3.844   1.519   4.603  0.3472  0.2759  0.0455
13028SOL    HW140372   3.900   1.484   4.534 -0.0734 -0.6961  0.1721
13028SOL    HW240373   3.825   1.608   4.576 -2.0369 -0.8583 -2.5552
13029SOL     OW40374   8.483   1.638   7.248  0.2134 -0.5089  0.1137
13029SOL    HW140375   8.513   1.728   7.260  0.3760 -0.3969 -0.9635
13029SOL    HW240376   8.557   1.583   7.274  0.4963 -0.2922 -0.2224
13030SOL     OW40377   4.336   6.360   8.710 -0.0430  0.7579 -0.0219
13030SOL    HW140378   4.261   6.399   8.667  1.1384  2.2363 -0.8430
13030SOL    HW240379   4.405   6.360   8.643  0.7807 -0.2506  0.7916
13031SOL     OW40380   8.602   4.286   0.605  0.1093 -0.4984 -0.5546
13031SOL    HW140381   8.637   4.220   0.545  1.9062  0.3105 -0.4585
13031SOL    HW240382   8.637   4.369   0.572 -1.2417  0.2934 -0.0553
13032SOL     OW40383   7.273   1.077   7.845  0.2068 -0.5960 -0.2964
13032SOL    HW140384   7.231   1.129   7.777  0.1196 -0.1856  0.0709
13032SOL    HW240385   7.257   1.125   7.926  1.5464 -0.3213 -0.1698
13033SOL     OW40386   5.002   5.941   3.890  0.2870  0.1669 -0.0106
13033SOL    HW140387   5.044   6.002   3.950  1.9588  1.1663 -2.0660
13033SOL    HW240388   4.955   5.997   3.828 -2.6035 -0.8668  1.0535
13034SOL     OW40389   6.768   8.347   2.699 -0.1703 -0.1424  0.1844
13034SOL    HW140390   6.816   8.283   2.646  1.2709  0.6072  0.5258
13034SOL    HW240391   6.691   8.369   2.646 -0.3013 -1.5899 -0.2554
13035SOL     OW40392   6.225   7.406   4.332 -0.3173 -0.7573  0.1247
13035SOL    HW140393   6.278   7.482   4.357 -1.0267 -0.0533 -0.4792
13035SOL    HW240394   6.191   7.427   4.245 -0.2609 -1.9156 -0.1989
13036SOL     OW40395   6.246   3.469   7.952  0.4082 -0.2825 -0.4345
13036SOL    HW140396   6.318   3.428   7.905  0.9654  1.1984 -0.9158
13036SOL    HW240397   6.167   3.435   7.910  0.8014 -1.8195  0.0151
13037SOL     OW40398   6.265   3.864   3.852  0.3244 -0.0561 -0.5264
13037SOL    HW140399   6.291   3.891   3.764  0.3207 -0.5217 -0.6742
13037SOL    HW240400   6.192   3.923   3.874  1.7271  1.5298  0.0652
13038SOL     OW40401   2.825   0.412   6.903  0.6983 -0.2574  0.7505
13038SOL    HW140402   2.829   0.344   6.835  1.7173  1.2158 -0.7612
13038SOL    HW240403   2.872   0.375   6.977 -1.4731 -2.4017  1.2011
13039SOL     OW40404   2.882   6.434   4.240 -0.3431  0.0840 -0.1839
13039SOL    HW140405   2.954   6.371   4.251 -1.0857 -0.6068  1.1159
13039SOL    HW240406   2.908   6.488   4.166  1.5765 -0.0541  0.3149
13040SOL     OW40407   5.446   4.505   7.723 -0.0838 -0.5371  0.0860
13040SOL    HW140408   5.371   4.509   7.663 -1.2378 -0.7191  1.4849
13040SOL    HW240409   5.454   4.594   7.757 -1.5622 -1.1103  2.1399
13041SOL     OW40410   7.494   6.432   0.780 -0.1165 -0.0200 -0.1760
13041SOL    HW140411   7.540   6.464   0.857  0.5939 -2.4466  0.5126
13041SOL    HW240412   7.438   6.505   0.753  0.4707  1.3002  1.9239
13042SOL     OW40413   3.203   8.267   0.507  0.0582  0.2905 -0.3453
13042SOL    HW140414   3.180   8.342   0.561 -1.8937  0.2213 -1.0119
13042SOL    HW240415   3.134   8.203   0.525 -0.2984  0.0393 -2.4365
13043SOL     OW40416   6.334   1.521   3.708 -0.3112 -0.2105 -0.1569
13043SOL    HW140417   6.418   1.562   3.729  0.8062 -1.6884 -1.4682
13043SOL    HW240418   6.346   1.430   3.733 -0.8262 -0.8468 -2.0815
13044SOL     OW40419   3.051   2.600   5.063  0.7757  0.0741 -0.3468
13044SOL    HW140420   2.981   2.664   5.048 -1.8285 -2.5119  0.0856
13044SOL    HW240421   3.062   2.556   4.979  0.2000 -1.1301  0.2034
13045SOL     OW40422   1.004   3.105   8.399 -0.3512 -0.0121  0.1371
13045SOL    HW140423   0.940   3.110   8.469 -0.1380 -1.3274  0.4685
13045SOL    HW240424   0.981   3.025   8.351  1.6259 -1.1195  0.9152
13046SOL     OW40425   6.565   2.879   5.052  0.5451  0.2240 -0.4146
13046SOL    HW140426   6.626   2.948   5.076  1.6581 -1.1457  0.8843
13046SOL    HW240427   6.614   2.823   4.992  0.6963 -1.0499  0.8655
13047SOL     OW40428   3.192   4.693   1.135 -0.0507 -0.3399 -0.0827
13047SOL    HW140429   3.264   4.736   1.089 -0.9589  1.2177 -0.1236
13047SOL    HW240430   3.234   4.647   1.208  1.0821 -0.2827 -0.6829
13048SOL     OW40431   0.579   3.847   6.913  0.0246  0.3274 -0.4064
13048SOL    HW140432   0.487   3.822   6.920  0.0456  0.3281 -0.1039
13048SOL    HW240433   0.610   3.804   6.833 -0.4550  1.0201 -0.9658
13049SOL     OW40434   7.509   6.193   8.448 -0.5448 -0.2558  0.4828
13049SOL    HW140435   7.547   6.254   8.385  0.8350 -2.6938 -1.2341
13049SOL    HW240436   7.571   6.194   8.522 -1.0834  1.1064  0.9509
13050SOL     OW40437   3.470   0.975   7.222  0.0769 -0.0075  0.1089
13050SOL    HW140438   3.452   1.004   7.132  1.6866 -0.7800 -0.5106
13050SOL    HW240439   3.439   1.046   7.277  0.3625  1.1317 -1.1481
13051SOL     OW40440   8.394   7.477   6.506 -0.0251  0.2286  0.0976
13051SOL    HW140441   8.456   7.433   6.563 -2.0159 -1.3355  1.2203
13051SOL    HW240442   8.362   7.551   6.557  0.7289  0.9075 -0.3954
13052SOL     OW40443   5.682   2.649   6.595  0.0870  0.4910  0.2400
13052SOL    HW140444   5.700   2.558   6.620  0.5295  0.7564  0.9102
13052SOL    HW240445   5.700   2.652   6.501 -2.2384 -0.6921 -0.3167
13053SOL     OW40446   8.026   1.188   8.612 -0.2771 -0.3061 -0.1268
13053SOL    HW140447   8.050   1.245   8.684 -1.8330 -1.1681  1.1235
13053SOL    HW240448   7.932   1.204   8.598 -0.3473 -1.2812 -0.9104
13054SOL     OW40449   4.881   4.949   7.242  0.2578  0.3610 -0.3387
13054SOL    HW140450   4.787   4.963   7.229  0.4157  0.4275 -1.6197
13054SOL    HW240451   4.892   4.854   7.232  0.1209  0.1307  1.4543
13055SOL     OW40452   7.888   0.925   7.184 -0.0577  0.2022 -0.4486
13055SOL    HW140453   7.903   1.018   7.198 -0.5884  0.3875 -1.0784
13055SOL    HW240454   7.851   0.894   7.268 -2.5037  1.1444 -1.0732
13056SOL     OW40455   2.102   0.040   6.698  0.2359 -0.1965 -0.0029
13056SOL    HW140456   2.107   0.077   6.786  0.1082 -0.5388  0.1510
13056SOL    HW240457   2.033   0.090   6.655 -0.7193 -0.9860  0.5692
13057SOL     OW40458   1.549   7.425   5.698 -0.2111 -0.6302 -0.3582
13057SOL    HW140459   1.470   7.431   5.752 -0.5472 -0.3738 -0.8730
13057SOL    HW240460   1.605   7.363   5.745 -0.8397 -1.0483 -0.1408
13058SOL     OW40461   8.550   3.181   4.422  0.2084 -0.3698 -0.4327
13058SOL    HW140462   8.580   3.135   4.500 -2.7406 -2.7405 -0.5409
13058SOL    HW240463   8.530   3.270   4.453  1.3334 -0.5576  0.9311
13059SOL     OW40464   1.844   7.514   7.798  0.2085  0.2880  0.2765
13059SOL    HW140465   1.793   7.564   7.734  1.2587  0.4119 -0.4853
13059SOL    HW240466   1.895   7.580   7.845  2.0854 -0.0410 -1.1621
13060SOL     OW40467   0.107   2.359   5.857  0.1862 -0.4030 -0.4340
13060SOL    HW140468   0.105   2.374   5.762 -1.8484  2.6079 -0.0810
13060SOL    HW240469   0.061   2.435   5.893  1.5231 -1.0823  3.0389
13061SOL     OW40470   3.064   2.066   8.686  0.2051 -0.1531 -0.2273
13061SOL    HW140471   2.992   2.007   8.666  0.6857 -1.0167  0.4801
13061SOL    HW240472   3.138   2.007   8.706  0.4301  0.6513  1.4989
13062SOL     OW40473   8.101   3.652   0.962  0.2424 -0.1521 -0.1916
13062SOL    HW140474   8.184   3.609   0.942  0.0049  0.2825 -2.3353
13062SOL    HW240475   8.038   3.611   0.903 -0.3561  1.8153 -0.9989
13063SOL     OW40476   5.360   4.462   2.602  0.3772 -0.0711 -0.3673
13063SOL    HW140477   5.306   4.535   2.570  0.2758  0.2714  0.5406
13063SOL    HW240478   5.442   4.503   2.629  0.7072 -0.4463 -0.7922
13064SOL     OW40479   5.630   6.030   1.635  0.3322 -0.2933  0.1069
13064SOL    HW140480   5.705   5.976   1.607  1.4783  0.9870  0.6076
13064SOL    HW240481   5.616   6.005   1.726  0.7716  0.1522  0.2970
13065SOL     OW40482   7.315   5.490   3.557 -0.4628 -0.0454 -0.1716
13065SOL    HW140483   7.280   5.416   3.507 -0.9105  1.4723 -2.2419
13065SOL    HW240484   7.238   5.530   3.596 -0.3602  0.0473 -0.0635
13066SOL     OW40485   2.247   5.725   7.423  0.3495 -0.0566  0.1424
13066SOL    HW140486   2.285   5.706   7.338 -0.8206 -0.8557 -0.2333
13066SOL    HW240487   2.226   5.638   7.460 -0.9954  0.3275  0.3531
13067SOL     OW40488   2.324   8.499   2.451  0.6270  0.1603 -0.3645
13067SOL    HW140489   2.263   8.535   2.516  1.2603 -1.2972  1.0720
13067SOL    HW240490   2.320   8.405   2.464  1.2999 -0.1212 -2.0043
13068SOL     OW40491   1.337   3.799   6.914  0.1795 -0.4190  0.2648
13068SOL    HW140492   1.417   3.797   6.967  0.7610 -1.0427 -0.5937
13068SOL    HW240493   1.269   3.765   6.971  0.8434 -1.3349  0.5274
13069SOL     OW40494   5.584   7.943   0.374 -0.4007  0.2914  0.3096
13069SOL    HW140495   5.532   7.866   0.396 -0.1224  0.2097  0.6893
13069SOL    HW240496   5.614   7.977   0.458  2.0159 -0.9464  0.0401
13070SOL     OW40497   6.834   7.808   5.674  0.0331 -0.0609  0.0976
13070SOL    HW140498   6.823   7.714   5.690  1.5650 -0.6463 -1.8601
13070SOL    HW240499   6.925   7.826   5.696 -0.5746  1.3359  1.7534
13071SOL     OW40500   5.666   4.453   3.509  0.4397 -0.5399  1.0262
13071SOL    HW140501   5.665   4.500   3.592  0.5937  1.1170  0.1389
13071SOL    HW240502   5.651   4.521   3.443  0.7038 -1.7472 -0.3301
13072SOL     OW40503   2.656   0.232   1.273  0.7962  0.0302  0.0885
13072SOL    HW140504   2.647   0.145   1.313  2.6976 -0.1772  0.1631
13072SOL    HW240505   2.740   0.228   1.226  0.0860  1.2703 -1.3607
13073SOL     OW40506   3.413   8.181   8.711 -0.2438  0.2038  0.2428
13073SOL    HW140507   3.437   8.197   8.802  1.3860 -0.8033  0.0247
13073SOL    HW240508   3.318   8.168   8.713 -0.5974  2.4048  1.4358
13074SOL     OW40509   7.441   8.630   6.263 -0.0975  0.0847 -0.4012
13074SOL    HW140510   7.536   8.617   6.268 -0.1402 -0.1103  0.0136
13074SOL    HW240511   7.406   8.574   6.333 -0.5368 -0.0478 -0.7239
13075SOL     OW40512   7.017   8.231   1.117 -0.1507  0.2570 -0.2157
13075SOL    HW140513   6.967   8.258   1.194  1.0993 -0.5522  0.9289
13075SOL    HW240514   7.003   8.301   1.054 -2.5721  0.1536  0.0918
13076SOL     OW40515   0.541   5.476   0.589 -0.3794 -0.0302 -0.5873
13076SOL    HW140516   0.613   5.517   0.636  0.0302 -0.6355 -0.6789
13076SOL    HW240517   0.557   5.496   0.497  0.0408 -0.7221 -0.6702
13077SOL     OW40518   0.368   3.614   8.706 -0.3141  0.8302 -0.4665
13077SOL    HW140519   0.455   3.611   8.746 -0.7428  1.1638  0.5383
13077SOL    HW240520   0.382   3.654   8.621  0.6939 -0.2640 -0.8544
13078SOL     OW40521   4.213   3.375   1.878 -0.4221 -0.0826  0.6459
13078SOL    HW140522   4.187   3.403   1.790 -1.3282 -0.9836  0.6118
13078SOL    HW240523   4.163   3.295   1.894  0.7955 -0.7165  1.4316
13079SOL     OW40524   8.628   5.049   3.606 -0.5860  0.3228  0.1698
13079SOL    HW140525   8.621   4.967   3.557  1.4357 -0.3334  0.8688
13079SOL    HW240526   8.556   5.102   3.574 -0.2641 -0.6358 -2.4364
13080SOL     OW40527   7.632   3.674   3.559  0.0144 -0.1968 -0.0232
13080SOL    HW140528   7.654   3.738   3.626  0.4151  0.5856 -0.8749
13080SOL    HW240529   7.541   3.650   3.577  0.2079 -0.2259  0.9594
13081SOL     OW40530   7.370   3.029   1.500 -0.3137  0.0347 -0.6185
13081SOL    HW140531   7.369   3.109   1.553  0.5420  0.8357 -1.7732
13081SOL    HW240532   7.436   3.045   1.433  0.7009 -2.1090 -0.2033
13082SOL     OW40533   4.985   4.574   6.845  0.0794  0.1696  0.2116
13082SOL    HW140534   4.985   4.485   6.810 -0.3940 -0.6094  2.0746
13082SOL    HW240535   4.942   4.567   6.930 -0.0143  2.1987  0.3932
13083SOL     OW40536   1.110   2.070   8.458  0.0370  0.3122 -0.0054
13083SOL    HW140537   1.084   2.073   8.366  0.8759 -1.3346 -0.3420
13083SOL    HW240538   1.028   2.057   8.506 -0.2439 -0.4798 -0.6757
13084SOL     OW40539   6.611   6.928   0.909  0.2205  0.1205 -0.1683
13084SOL    HW140540   6.684   6.956   0.854 -0.4578 -0.5100 -1.4486
13084SOL    HW240541   6.649   6.918   0.996  1.3502  1.0856 -0.5209
13085SOL     OW40542   5.866   7.664   1.518  0.3424  0.0643  0.3317
13085SOL    HW140543   5.835   7.690   1.431  0.0870  0.0267  0.4121
13085SOL    HW240544   5.795   7.688   1.577  0.2155 -0.5824  0.4413
13086SOL     OW40545   1.433   1.012   3.743  0.1102 -0.3490 -0.6107
13086SOL    HW140546   1.403   1.086   3.796 -0.9642 -0.9722 -0.3349
13086SOL    HW240547   1.359   0.991   3.686  0.8503 -0.4238 -1.5758
13087SOL     OW40548   2.431   0.520   2.383  0.3751  0.2037  0.1791
13087SOL    HW140549   2.390   0.460   2.445 -0.8238 -0.4426 -1.1684
13087SOL    HW240550   2.391   0.605   2.403 -0.4208 -0.1043 -0.0469
13088SOL     OW40551   5.597   3.299   7.433 -0.6723  0.4522 -0.2133
13088SOL    HW140552   5.650   3.378   7.429 -1.0788  0.8478  1.4045
13088SOL    HW240553   5.562   3.288   7.344  0.3835  1.3673 -0.7593
13089SOL     OW40554   5.964   6.118   0.052  0.1406  0.3215 -0.2931
13089SOL    HW140555   6.057   6.131   0.035  0.0115  0.8252 -0.6407
13089SOL    HW240556   5.922   6.195   0.013 -0.5436 -0.5318 -1.2860
13090SOL     OW40557   1.925   7.698   7.500  0.5586 -0.2544 -0.0281
13090SOL    HW140558   1.954   7.769   7.556 -0.5924 -0.7037  1.1932
13090SOL    HW240559   1.838   7.675   7.533  0.1062 -0.9703 -1.5934
13091SOL     OW40560   0.361   2.756   0.548  0.2699 -0.1998  0.3726
13091SOL    HW140561   0.406   2.674   0.528  0.7921  0.1148  0.2356
13091SOL    HW240562   0.313   2.738   0.629  1.1034 -0.3681  0.8390
13092SOL     OW40563   0.125   2.637   2.233 -0.3562  0.1642  0.1018
13092SOL    HW140564   0.063   2.652   2.161  0.8291 -0.4758 -1.1105
13092SOL    HW240565   0.193   2.582   2.194 -0.1218 -0.9495  1.9761
13093SOL     OW40566   4.916   7.668   5.914 -0.4666 -0.0510  0.1812
13093SOL    HW140567   4.993   7.646   5.862  0.4651  1.2717  0.9389
13093SOL    HW240568   4.950   7.678   6.003 -1.6643 -0.2495  0.6754
13094SOL     OW40569   6.863   6.518   6.371  0.2291 -0.0671 -0.1415
13094SOL    HW140570   6.892   6.446   6.427 -4.0557 -2.5768 -0.6174
13094SOL    HW240571   6.899   6.497   6.284  1.6238  0.2214  0.3517
13095SOL     OW40572   4.270   5.450   8.459 -0.2647  0.3985 -0.0677
13095SOL    HW140573   4.192   5.449   8.515  0.9976  0.0473  1.7769
13095SOL    HW240574   4.336   5.403   8.510  1.7167  2.3146 -0.7097
13096SOL     OW40575   4.551   5.964   3.418  0.1003 -0.0588  0.3152
13096SOL    HW140576   4.604   6.042   3.432  2.3259 -1.3379 -0.4784
13096SOL    HW240577   4.606   5.892   3.447 -1.4930 -1.4363  0.0868
13097SOL     OW40578   4.687   3.497   0.127 -0.2079 -0.1602 -0.3017
13097SOL    HW140579   4.641   3.467   0.205 -1.2021  1.8842 -0.0388
13097SOL    HW240580   4.677   3.426   0.064  1.7979 -2.4714  1.7934
13098SOL     OW40581   5.902   6.864   0.884  0.0054  0.6187 -0.1808
13098SOL    HW140582   5.943   6.899   0.963 -0.6690  0.0194  0.4493
13098SOL    HW240583   5.975   6.846   0.824  0.7207 -0.7170  1.0317
13099SOL     OW40584   7.395   2.774   2.892  0.1519  0.1079  0.1353
13099SOL    HW140585   7.435   2.857   2.920 -1.3819  0.5049  1.2911
13099SOL    HW240586   7.338   2.749   2.965 -0.6441 -1.1355 -0.8710
13100SOL     OW40587   0.842   5.111   0.373 -0.0075 -0.6118  0.2112
13100SOL    HW140588   0.877   5.022   0.362 -0.0722 -0.5580 -0.4579
13100SOL    HW240589   0.747   5.099   0.377 -0.2747 -0.3120 -3.0966
13101SOL     OW40590   4.709   1.419   7.866  0.0110  0.3734 -0.6634
13101SOL    HW140591   4.641   1.438   7.931  0.5555  1.0576 -0.2931
13101SOL    HW240592   4.758   1.346   7.904  1.3421  1.7928  0.4945
13102SOL     OW40593   1.636   2.211   2.230  0.5663  0.2858  0.1553
13102SOL    HW140594   1.654   2.120   2.206  1.7343  0.5472 -0.0305
13102SOL    HW240595   1.568   2.239   2.169  3.1708  0.8095 -2.7788
13103SOL     OW40596   3.018   4.396   0.648  0.1854 -0.4415  0.0830
13103SOL    HW140597   3.104   4.399   0.690 -0.6505  1.7386  1.8250
13103SOL    HW240598   3.038   4.375   0.556  2.5052 -0.6779  0.5625
13104SOL     OW40599   5.034   6.286   7.430 -0.2795  0.1674  0.0728
13104SOL    HW140600   4.990   6.243   7.502  1.1194 -1.2900  0.1251
13104SOL    HW240601   4.965   6.329   7.380 -1.4346 -0.1167  1.3921
13105SOL     OW40602   1.340   0.007   2.200  0.6544  0.0877  0.2033
13105SOL    HW140603   1.350   0.027   2.293  2.1073  0.4367 -0.0147
13105SOL    HW240604   1.353   0.091   2.155 -1.3326  0.1974 -0.2794
13106SOL     OW40605   7.626   2.025   3.742  0.0866  0.1475  0.5417
13106SOL    HW140606   7.558   1.993   3.683 -1.0726 -0.5540  2.1618
13106SOL    HW240607   7.707   2.012   3.695 -0.7807 -0.5544 -0.8163
13107SOL     OW40608   6.388   1.380   4.982  0.3248 -0.4613 -0.3431
13107SOL    HW140609   6.352   1.395   4.895  0.1926  0.6053 -0.1282
13107SOL    HW240610   6.316   1.401   5.042  1.2835  1.9221  0.0975
13108SOL     OW40611   4.041   4.690   6.350  0.3037 -0.1604  0.2240
13108SOL    HW140612   4.065   4.740   6.272  0.7469  0.3388  0.6696
13108SOL    HW240613   4.118   4.637   6.370 -0.2890 -1.3194 -0.4512
13109SOL     OW40614   6.702   6.363   3.894  0.2331  0.1556 -0.0626
13109SOL    HW140615   6.665   6.446   3.925  2.0729  0.1809  2.3553
13109SOL    HW240616   6.724   6.379   3.802  0.5168  2.3599  0.3428
13110SOL     OW40617   7.452   3.020   1.177  0.2683 -1.2864  0.0780
13110SOL    HW140618   7.405   2.938   1.161 -0.8970 -0.7332  0.5702
13110SOL    HW240619   7.545   2.994   1.181 -0.1465 -2.7128  1.0814
13111SOL     OW40620   7.257   0.355   8.087  0.1738 -0.3178  0.1144
13111SOL    HW140621   7.262   0.409   8.166  1.2090  3.3563 -2.2227
13111SOL    HW240622   7.308   0.277   8.109  0.8066  0.7370  2.9046
13112SOL     OW40623   8.619   3.560   3.466 -0.3710 -0.1690  0.2004
13112SOL    HW140624   8.578   3.555   3.379  1.6108  1.2239 -0.8976
13112SOL    HW240625   8.673   3.481   3.471  2.4059  1.4682 -1.5161
13113SOL     OW40626   3.791   8.002   1.545 -0.0894 -0.1589  0.1107
13113SOL    HW140627   3.833   8.087   1.548  2.0665 -1.1735  0.2972
13113SOL    HW240628   3.767   7.984   1.636 -1.8776  0.8291 -0.1276
13114SOL     OW40629   1.003   6.496   3.147  0.0163 -0.1071  0.0413
13114SOL    HW140630   0.974   6.567   3.204 -1.8601  0.8781 -2.0066
13114SOL    HW240631   1.095   6.482   3.172 -0.1075  1.7212  1.7898
13115SOL     OW40632   6.989   4.626   3.094 -0.4761  0.1558 -0.6728
13115SOL    HW140633   7.013   4.674   3.015 -0.4393 -2.2430 -2.1953
13115SOL    HW240634   7.072   4.599   3.132 -0.5183 -1.7922 -1.8642
13116SOL     OW40635   4.764   8.685   2.543 -0.1518 -0.2919 -0.2379
13116SOL    HW140636   4.784   8.718   2.456 -0.0173  0.7526  0.1714
13116SOL    HW240637   4.668   8.680   2.545 -0.2526  1.2571  0.0845
13117SOL     OW40638   4.245   4.799   4.494  0.2369 -0.2756 -0.2416
13117SOL    HW140639   4.241   4.841   4.580 -0.8784 -0.4180 -0.2059
13117SOL    HW240640   4.246   4.705   4.512 -2.7569 -0.4194 -0.3785
13118SOL     OW40641   5.037   3.327   7.915 -0.0440  0.4031 -0.2752
13118SOL    HW140642   5.037   3.319   8.011  2.4998 -0.4384 -0.2474
13118SOL    HW240643   5.052   3.420   7.899  2.8999  0.1462  0.3236
13119SOL     OW40644   6.856   7.009   6.759  0.0503 -0.0487  0.2275
13119SOL    HW140645   6.771   6.982   6.723 -0.4022  0.6856  0.7088
13119SOL    HW240646   6.853   7.105   6.757  1.1278 -0.0182 -0.3329
13120SOL     OW40647   3.271   5.662   1.520 -0.1053 -0.2475 -0.6452
13120SOL    HW140648   3.182   5.656   1.484 -0.5568  0.4296  0.3004
13120SOL    HW240649   3.327   5.678   1.444 -1.2285  2.8073 -0.9760
13121SOL     OW40650   8.476   3.367   8.313  0.1633 -0.4041 -0.0634
13121SOL    HW140651   8.428   3.296   8.355  0.1798  0.3348  1.2924
13121SOL    HW240652   8.438   3.374   8.226 -1.0603 -0.9163  0.4034
13122SOL     OW40653   1.662   8.590   6.839 -0.1689  0.2799  0.0168
13122SOL    HW140654   1.710   8.632   6.911  0.2145 -0.5694  0.2724
13122SOL    HW240655   1.576   8.632   6.840  0.1141  0.8685  0.4292
13123SOL     OW40656   2.321   7.865   5.068 -0.0170  0.3781  0.0782
13123SOL    HW140657   2.402   7.874   5.119 -0.0954 -1.6641  0.6185
13123SOL    HW240658   2.251   7.878   5.132 -0.1315  0.9616 -0.1585
13124SOL     OW40659   2.088   6.942   4.994  0.1746 -0.2367 -0.2795
13124SOL    HW140660   2.003   6.965   4.957  0.0666 -0.8787 -0.4288
13124SOL    HW240661   2.098   6.849   4.976  0.8733 -0.1827 -0.1862
13125SOL     OW40662   3.397   2.742   7.796 -0.0293 -0.3570 -0.0208
13125SOL    HW140663   3.456   2.747   7.871 -0.1210 -1.5472  0.1505
13125SOL    HW240664   3.317   2.704   7.831 -0.4531  0.0580 -0.5182
13126SOL     OW40665   6.215   5.742   6.962  0.2295 -0.3001 -0.3527
13126SOL    HW140666   6.302   5.706   6.943  0.9735  1.0672  0.3844
13126SOL    HW240667   6.190   5.702   7.046 -0.4521 -1.6745 -1.1581
13127SOL     OW40668   4.710   5.837   5.085 -0.3632 -0.7024  0.2153
13127SOL    HW140669   4.664   5.761   5.121  1.4492 -1.5884  0.7264
13127SOL    HW240670   4.786   5.848   5.141 -0.2692  1.1491 -0.2160
13128SOL     OW40671   0.004   2.706   2.472  0.0123 -0.0175 -0.2863
13128SOL    HW140672   0.047   2.685   2.389  0.9209  0.3211  0.0780
13128SOL    HW240673   0.037   2.639   2.533 -0.7966 -0.3814 -0.2311
13129SOL     OW40674   6.428   6.262   2.621 -0.4584  0.5893 -0.5122
13129SOL    HW140675   6.477   6.336   2.585  2.2771 -1.0848 -0.4448
13129SOL    HW240676   6.414   6.284   2.713  0.0957  1.1209 -0.5534
13130SOL     OW40677   0.134   2.103   6.196 -0.4096  0.3747  0.2274
13130SOL    HW140678   0.119   2.128   6.287  1.2020  0.4321  0.5114
13130SOL    HW240679   0.209   2.156   6.169 -0.6924  0.1583 -1.0510
13131SOL     OW40680   3.524   3.057   0.197 -0.2499 -0.2783  0.2043
13131SOL    HW140681   3.573   3.116   0.141 -0.7054 -0.8276 -0.7971
13131SOL    HW240682   3.489   2.991   0.138 -3.3698  0.8345  0.6323
13132SOL     OW40683   7.326   2.399   2.823  0.1346 -0.0440 -0.1930
13132SOL    HW140684   7.414   2.378   2.855  1.4492  1.7943 -2.2966
13132SOL    HW240685   7.284   2.442   2.898  0.8792 -1.2036  0.9388
13133SOL     OW40686   8.040   5.776   6.476 -0.3720 -0.2537 -0.1852
13133SOL    HW140687   8.108   5.709   6.470 -0.6064 -0.8345  2.2813
13133SOL    HW240688   8.087   5.856   6.501 -0.3475 -0.0629 -0.8321
13134SOL     OW40689   6.079   0.710   8.553  0.1837 -0.1712  0.4004
13134SOL    HW140690   6.089   0.630   8.502  0.3517 -0.7987  1.3896
13134SOL    HW240691   6.085   0.781   8.489  0.4094 -0.9362 -0.4353
13135SOL     OW40692   0.987   0.432   3.266 -0.1483  0.5027  0.3956
13135SOL    HW140693   1.008   0.502   3.329 -0.1514  0.9028 -0.0391
13135SOL    HW240694   0.925   0.473   3.206 -0.6233 -0.0643  0.4938
13136SOL     OW40695   1.663   2.687   7.373 -0.2351  0.3116  0.0992
13136SOL    HW140696   1.685   2.673   7.281  2.0221  0.5173  0.5496
13136SOL    HW240697   1.690   2.777   7.391 -1.6192  0.6255  0.7284
13137SOL     OW40698   4.884   5.875   2.330  0.0431 -0.2032  0.2151
13137SOL    HW140699   4.955   5.812   2.336  1.1270  0.9528  0.0503
13137SOL    HW240700   4.816   5.831   2.280  0.5967 -1.3668  0.4596
13138SOL     OW40701   1.542   2.957   3.147  0.0488 -0.9623 -0.1264
13138SOL    HW140702   1.475   2.900   3.185 -0.8202 -1.9873 -2.9534
13138SOL    HW240703   1.575   2.908   3.072  1.0526  1.2349 -1.2043
13139SOL     OW40704   4.855   1.625   7.383 -0.2183 -0.0689  0.2100
13139SOL    HW140705   4.808   1.593   7.307  0.6265  0.6773 -0.6456
13139SOL    HW240706   4.812   1.582   7.457 -0.3916 -1.6035 -0.7423
13140SOL     OW40707   7.997   0.445   0.196  0.0587 -0.0966 -0.2949
13140SOL    HW140708   7.975   0.378   0.131 -1.5207 -0.2184  0.3176
13140SOL    HW240709   7.991   0.399   0.280  0.5918  0.4166  0.0282
13141SOL     OW40710   8.638   3.084   2.050  0.2491  0.4067 -0.4370
13141SOL    HW140711   8.664   3.158   2.105 -0.6412  1.6615 -1.6456
13141SOL    HW240712   8.721   3.047   2.019  0.8002 -0.6200  2.0223
13142SOL     OW40713   4.447   5.668   7.336  0.0436  0.1579 -0.4631
13142SOL    HW140714   4.368   5.722   7.340  0.6393  1.1444 -1.4776
13142SOL    HW240715   4.437   5.606   7.408 -0.6425  1.6507  0.7741
13143SOL     OW40716   7.311   0.791   3.374 -0.5297  0.0579 -0.7347
13143SOL    HW140717   7.300   0.715   3.432  0.8061 -0.8619 -1.6174
13143SOL    HW240718   7.224   0.807   3.338 -0.8938 -0.8643 -0.3034
13144SOL     OW40719   5.212   5.896   1.432 -0.4028  0.7070 -0.4883
13144SOL    HW140720   5.291   5.861   1.473  0.1863  2.8595  0.3621
13144SOL    HW240721   5.236   5.906   1.340 -0.0175  0.4060 -0.4232
13145SOL     OW40722   3.217   5.345   5.164 -0.2662  0.2102 -0.5881
13145SOL    HW140723   3.150   5.413   5.167 -1.3904 -0.8447 -0.9701
13145SOL    HW240724   3.214   5.303   5.250 -0.3356 -0.0564 -0.7181
13146SOL     OW40725   3.699   1.590   7.413 -0.9902  0.1143  0.2255
13146SOL    HW140726   3.779   1.616   7.459 -0.0120 -1.1620 -0.6782
13146SOL    HW240727   3.713   1.498   7.390 -2.4563  0.0408 -0.5268
13147SOL     OW40728   0.396   3.277   3.543  0.2909  0.0965  0.0759
13147SOL    HW140729   0.411   3.342   3.474  0.1984 -0.8524 -0.8728
13147SOL    HW240730   0.447   3.308   3.617  2.0894  0.0947 -1.0941
13148SOL     OW40731   2.007   0.460   0.946 -0.3527 -0.2347 -0.4915
13148SOL    HW140732   2.005   0.369   0.915 -0.0440  0.2224 -1.9130
13148SOL    HW240733   1.919   0.475   0.981 -0.8913 -0.6183 -1.6556
13149SOL     OW40734   1.530   3.222   7.801  0.2001 -0.0807 -0.1407
13149SOL    HW140735   1.500   3.151   7.745  0.1932  0.4021 -0.7559
13149SOL    HW240736   1.521   3.188   7.890  0.4309 -0.9360 -0.4359
13150SOL     OW40737   7.967   6.015   8.177 -1.0153 -0.0772  0.0400
13150SOL    HW140738   8.024   6.086   8.206 -1.1494  1.3857 -2.8879
13150SOL    HW240739   7.924   5.985   8.256 -1.1903  3.3423  1.4173
13151SOL     OW40740   0.365   1.737   6.326 -0.0323 -0.3562  0.1532
13151SOL    HW140741   0.450   1.778   6.344  0.8766 -2.0926  0.0314
13151SOL    HW240742   0.335   1.780   6.245  1.9067 -1.3302 -1.1737
13152SOL     OW40743   0.574   5.733   8.585 -0.0127  0.3928 -0.2125
13152SOL    HW140744   0.612   5.671   8.524 -0.4063  0.4276 -0.4947
13152SOL    HW240745   0.635   5.807   8.586  1.4989 -0.7758  1.5939
13153SOL     OW40746   4.359   3.202   0.327  0.2984 -0.0574  0.2632
13153SOL    HW140747   4.341   3.270   0.391  0.6268 -0.7014  1.0539
13153SOL    HW240748   4.362   3.121   0.377  0.8203 -0.5439 -0.5200
13154SOL     OW40749   3.490   7.779   1.800  0.1316  0.5480 -0.5125
13154SOL    HW140750   3.573   7.731   1.804 -0.6059 -0.6891  1.3804
13154SOL    HW240751   3.514   7.867   1.773  2.0306  0.1345 -0.2888
13155SOL     OW40752   8.558   4.167   7.848 -0.0400 -0.5173 -0.2956
13155SOL    HW140753   8.512   4.111   7.910 -0.0080  1.2513  1.4081
13155SOL    HW240754   8.626   4.210   7.900  2.5162 -1.7307 -2.3624
13156SOL     OW40755   7.901   2.443   7.902  0.0076 -0.1242 -0.5548
13156SOL    HW140756   7.811   2.414   7.917 -0.3072 -1.1365 -3.5761
13156SOL    HW240757   7.944   2.433   7.987 -2.2733 -1.3698  0.5556
13157SOL     OW40758   0.494   0.437   5.841  0.0123 -0.6106  0.0825
13157SOL    HW140759   0.498   0.366   5.776 -0.2347  0.7105 -1.4317
13157SOL    HW240760   0.410   0.423   5.886 -0.0237 -1.2818 -0.1844
13158SOL     OW40761   7.853   5.885   7.981  0.1253  0.5465 -0.6995
13158SOL    HW140762   7.931   5.841   7.946 -0.1149  0.2636 -0.8867
13158SOL    HW240763   7.887   5.948   8.044  0.5369  0.7094 -1.0745
13159SOL     OW40764   6.641   3.240   1.024 -0.3242 -0.1593  0.3030
13159SOL    HW140765   6.639   3.209   0.933  0.8493 -0.4265  0.3440
13159SOL    HW240766   6.704   3.182   1.067  0.9093  1.4003  0.7129
13160SOL     OW40767   1.165   8.651   4.724 -0.0375  0.0240  0.2241
13160SOL    HW140768   1.145   8.734   4.680 -0.9309  0.2587  1.0448
13160SOL    HW240769   1.247   8.668   4.770  1.0212 -0.2857 -1.4606
13161SOL     OW40770   5.728   3.769   6.600  0.2128  0.2611 -0.0973
13161SOL    HW140771   5.716   3.694   6.659 -0.0737  0.7039  0.4211
13161SOL    HW240772   5.785   3.829   6.649  2.0072 -0.4100 -1.2471
13162SOL     OW40773   2.479   6.031   0.306  0.1364  0.2356 -0.3324
13162SOL    HW140774   2.399   5.984   0.285  0.2224  0.4485 -1.1367
13162SOL    HW240775   2.449   6.116   0.339  0.0170  0.0202  0.1325
13163SOL     OW40776   7.710   0.147   4.802  0.2485  0.0673  0.2748
13163SOL    HW140777   7.626   0.109   4.827 -0.4643  1.2404 -0.2583
13163SOL    HW240778   7.773   0.077   4.817 -0.4705 -0.1334  2.9407
13164SOL     OW40779   2.805   2.831   3.680 -0.4228 -0.5599  0.2319
13164SOL    HW140780   2.742   2.761   3.664 -0.0386 -0.6962 -0.7870
13164SOL    HW240781   2.877   2.813   3.619  0.6296 -0.4265  1.3817
13165SOL     OW40782   7.319   6.150   8.704 -0.1504  0.2696 -0.2926
13165SOL    HW140783   7.363   6.086   8.759 -2.4988 -0.0516  1.3544
13165SOL    HW240784   7.384   6.174   8.638  1.5963 -1.9534  0.5132
13166SOL     OW40785   5.200   0.898   7.541 -0.0800  0.4023 -0.6044
13166SOL    HW140786   5.287   0.885   7.505 -0.7437 -1.3536 -1.6991
13166SOL    HW240787   5.190   0.993   7.548  2.0542  0.6256 -0.0430
13167SOL     OW40788   7.662   5.871   2.174 -0.2315 -0.0330 -0.0275
13167SOL    HW140789   7.704   5.957   2.183 -0.3699  0.2195 -1.4949
13167SOL    HW240790   7.664   5.854   2.079 -0.8943 -1.3010  0.1715
13168SOL     OW40791   6.694   3.604   7.925 -0.4085  0.0939  0.6395
13168SOL    HW140792   6.646   3.642   7.999 -0.2848  3.1202 -0.6917
13168SOL    HW240793   6.730   3.680   7.879  1.8095 -1.8461 -1.0089
13169SOL     OW40794   1.890   6.799   0.173 -0.5994  0.0178 -0.0106
13169SOL    HW140795   1.906   6.800   0.078  1.3870  1.2451  0.2801
13169SOL    HW240796   1.893   6.707   0.197 -0.3921 -0.2543 -1.0280
13170SOL     OW40797   3.769   3.008   6.227  0.0185 -0.5135  0.6471
13170SOL    HW140798   3.721   3.087   6.204 -1.2114 -0.8190  1.9494
13170SOL    HW240799   3.703   2.938   6.221  0.6631 -1.1766  1.0989
13171SOL     OW40800   0.203   3.165   6.149  0.3844  0.0877  0.1127
13171SOL    HW140801   0.217   3.229   6.219 -0.4547  0.6387 -0.2163
13171SOL    HW240802   0.172   3.216   6.075  1.1050 -0.5210 -0.6218
13172SOL     OW40803   1.027   2.011   2.260 -0.1901 -0.2544 -0.2996
13172SOL    HW140804   1.111   2.056   2.254  0.0474 -0.7277 -0.5380
13172SOL    HW240805   1.046   1.921   2.237 -1.0936 -0.0037 -2.2157
13173SOL     OW40806   7.431   1.548   0.467 -0.1990  0.3171 -0.2132
13173SOL    HW140807   7.403   1.638   0.451 -1.2970 -0.2038 -1.2975
13173SOL    HW240808   7.352   1.503   0.496  0.2796 -0.3763  0.0255
13174SOL     OW40809   5.841   6.300   5.449 -0.4396 -0.2980  0.0874
13174SOL    HW140810   5.810   6.210   5.455 -0.5843 -0.2161  0.6275
13174SOL    HW240811   5.818   6.328   5.361 -1.1152 -0.5274  0.1904
13175SOL     OW40812   0.895   0.240   7.831 -0.4467 -0.1195  0.4834
13175SOL    HW140813   0.816   0.187   7.826 -1.2193  0.8457  1.6526
13175SOL    HW240814   0.863   0.330   7.834  0.7520  0.3508 -0.0018
13176SOL     OW40815   8.389   3.703   0.373 -0.1034 -0.0556  0.3836
13176SOL    HW140816   8.332   3.651   0.430 -0.3555  1.5887  1.6895
13176SOL    HW240817   8.468   3.718   0.425  0.5085 -0.1728 -0.4727
13177SOL     OW40818   8.229   0.453   0.691  0.2577 -0.4860 -0.2102
13177SOL    HW140819   8.184   0.369   0.675  0.8580 -1.0875  1.1313
13177SOL    HW240820   8.251   0.485   0.603  3.4483 -3.6463 -0.7946
13178SOL     OW40821   7.280   2.667   3.113  0.0098  0.3591  0.1093
13178SOL    HW140822   7.263   2.658   3.207  0.4948  0.5515  0.2224
13178SOL    HW240823   7.218   2.608   3.071  0.8522 -0.9423  0.6434
13179SOL     OW40824   2.642   0.609   5.570  0.1603  0.3017 -0.0882
13179SOL    HW140825   2.601   0.630   5.654  2.1709  0.3863  0.9179
13179SOL    HW240826   2.597   0.529   5.542  0.5929 -0.7344  1.9400
13180SOL     OW40827   7.359   5.875   5.394 -0.3389 -0.0518 -0.2061
13180SOL    HW140828   7.319   5.938   5.335 -2.5641 -2.6405 -1.7277
13180SOL    HW240829   7.377   5.799   5.338 -1.8538 -2.3794  2.2324
13181SOL     OW40830   2.792   4.620   6.605  0.5462 -0.2181  0.1840
13181SOL    HW140831   2.815   4.704   6.566 -0.1722 -0.5176 -0.9115
13181SOL    HW240832   2.735   4.643   6.679 -0.8879  0.2162 -1.0083
13182SOL     OW40833   3.890   7.883   1.323 -0.2627  0.5434 -0.5342
13182SOL    HW140834   3.871   7.914   1.411  0.5762  0.8662 -0.4552
13182SOL    HW240835   3.821   7.820   1.304 -0.5411  0.5901  0.2923
13183SOL     OW40836   0.796   6.103   5.222  0.6656 -0.1162  0.3589
13183SOL    HW140837   0.807   6.166   5.293 -2.1083 -1.1667  1.8519
13183SOL    HW240838   0.807   6.155   5.142 -0.1994  2.0010  1.5220
13184SOL     OW40839   2.616   3.020   1.583  0.3502  0.6423  0.5198
13184SOL    HW140840   2.525   3.049   1.591  0.8911  2.2822  1.2326
13184SOL    HW240841   2.667   3.092   1.620  1.9813  0.0008 -0.3832
13185SOL     OW40842   1.068   3.441   7.440 -0.0130 -0.9781  0.1143
13185SOL    HW140843   1.146   3.486   7.408  1.6817 -2.0651  2.4068
13185SOL    HW240844   1.087   3.348   7.425 -1.0944 -1.2294  0.2511
13186SOL     OW40845   6.074   4.143   6.096 -0.0244 -0.6701 -0.1943
13186SOL    HW140846   5.993   4.124   6.048  0.5251 -1.3472 -0.8905
13186SOL    HW240847   6.070   4.237   6.114 -1.2713 -0.8118  0.3799
13187SOL     OW40848   3.325   0.255   3.833 -0.0872 -0.0693 -0.1075
13187SOL    HW140849   3.313   0.163   3.855 -2.3586 -0.3208 -2.0065
13187SOL    HW240850   3.304   0.302   3.914 -1.2133 -1.1578  0.2681
13188SOL     OW40851   3.891   2.323   1.407  0.5061  0.0905 -0.0214
13188SOL    HW140852   3.802   2.340   1.437  0.5491 -1.4368  1.1137
13188SOL    HW240853   3.921   2.251   1.462  1.6963 -0.8152 -1.7587
13189SOL     OW40854   2.531   2.694   7.579  0.9096 -0.2497  0.5162
13189SOL    HW140855   2.469   2.652   7.639  0.5318 -0.9097 -0.3133
13189SOL    HW240856   2.613   2.698   7.629  0.2161  0.6879  1.6481
13190SOL     OW40857   6.454   7.130   7.654 -0.0930 -0.2619  0.4948
13190SOL    HW140858   6.427   7.220   7.674  1.5772  0.3049  0.4007
13190SOL    HW240859   6.375   7.078   7.664 -1.1961  1.2826  0.1386
13191SOL     OW40860   2.423   2.510   6.178 -0.2000  0.0292 -0.3849
13191SOL    HW140861   2.447   2.420   6.201 -0.7940  0.1388  0.7570
13191SOL    HW240862   2.463   2.563   6.246 -0.9233  0.4992 -0.3130
13192SOL     OW40863   7.560   6.266   7.281 -0.2043  0.0938  0.0591
13192SOL    HW140864   7.619   6.291   7.351 -0.1216  1.0980 -0.3596
13192SOL    HW240865   7.569   6.335   7.215  0.2696 -1.1843 -1.2738
13193SOL     OW40866   0.173   3.203   1.070 -0.5211 -0.0391 -0.1417
13193SOL    HW140867   0.168   3.297   1.052 -1.2441  0.3620  1.8953
13193SOL    HW240868   0.120   3.191   1.149  2.0059 -1.6700  1.4611
13194SOL     OW40869   3.566   0.139   4.954  0.2553  0.0429  0.0794
13194SOL    HW140870   3.613   0.218   4.925 -1.8685  1.0377 -0.8863
13194SOL    HW240871   3.603   0.068   4.902  0.7605  0.7685 -0.5711
13195SOL     OW40872   2.402   0.194   1.165  0.0789  0.4868 -0.3953
13195SOL    HW140873   2.354   0.266   1.125  0.1990  0.9929  0.3617
13195SOL    HW240874   2.467   0.236   1.221 -0.4998 -0.1888  0.8307
13196SOL     OW40875   2.519   8.318   3.664 -0.4206 -0.1081  0.3232
13196SOL    HW140876   2.593   8.360   3.620 -1.8486  0.9988 -1.1411
13196SOL    HW240877   2.515   8.359   3.750 -0.0619  0.7331 -0.0520
13197SOL     OW40878   5.609   6.741   2.533 -0.0503 -0.1151  0.0248
13197SOL    HW140879   5.530   6.688   2.521  0.2351 -0.3281 -1.0484
13197SOL    HW240880   5.680   6.676   2.538  0.2709  0.1278 -1.0213
13198SOL     OW40881   5.549   6.626   7.910 -0.1424  0.4015 -0.0671
13198SOL    HW140882   5.589   6.629   7.823  1.8315  1.6930  0.8125
13198SOL    HW240883   5.483   6.695   7.908  0.2741  0.7987 -0.3700
13199SOL     OW40884   6.710   0.842   7.397 -0.1956 -0.3390 -0.0975
13199SOL    HW140885   6.719   0.808   7.486  0.9763  2.8138  1.1324
13199SOL    HW240886   6.667   0.927   7.407 -1.4301 -0.5458 -2.7473
13200SOL     OW40887   1.457   8.601   7.924  0.2545  0.0662 -0.0960
13200SOL    HW140888   1.489   8.578   8.011  0.5521  3.0594  0.6966
13200SOL    HW240889   1.530   8.583   7.866  1.8152  2.3882  1.0168
13201SOL     OW40890   0.869   2.730   3.188  0.0170 -0.3110 -0.1330
13201SOL    HW140891   0.864   2.818   3.226 -0.8906 -1.0381  1.5128
13201SOL    HW240892   0.850   2.671   3.260 -0.5322 -1.8290 -1.4592
13202SOL     OW40893   8.439   0.055   1.013 -0.3141 -0.1033 -0.2680
13202SOL    HW140894   8.458  -0.025   0.964 -2.8630 -0.7910 -0.3035
13202SOL    HW240895   8.379   0.027   1.082 -0.0514  1.5418  0.6740
13203SOL     OW40896   1.466   6.931   5.468  0.0437  0.4018  0.3665
13203SOL    HW140897   1.493   7.001   5.409  0.3898  0.0003  0.0462
13203SOL    HW240898   1.499   6.958   5.554 -1.8995  1.8087  0.7302
13204SOL     OW40899   6.204   2.732   5.413  0.0349  0.0558 -0.1005
13204SOL    HW140900   6.257   2.787   5.356  0.3751 -0.1544  0.0096
13204SOL    HW240901   6.129   2.707   5.359  0.2252  0.0680 -0.3716
13205SOL     OW40902   7.098   0.209   2.215  0.4060  0.0327  0.1346
13205SOL    HW140903   7.160   0.155   2.263 -0.8439 -2.2657 -0.6958
13205SOL    HW240904   7.104   0.180   2.125 -1.2824  0.2851 -0.1087
13206SOL     OW40905   8.620   3.270   7.681 -0.1088  0.5723  0.0451
13206SOL    HW140906   8.577   3.284   7.765 -2.0623  1.7998 -1.0705
13206SOL    HW240907   8.553   3.292   7.616  0.9062 -1.5223 -1.8672
13207SOL     OW40908   4.715   8.526   1.851 -0.1618  0.2617  0.1852
13207SOL    HW140909   4.800   8.505   1.812 -1.0657 -2.9631 -0.3515
13207SOL    HW240910   4.665   8.563   1.779 -0.0520 -0.4203 -0.2543
13208SOL     OW40911   8.572   2.003   3.565 -0.2892  0.7734  0.8670
13208SOL    HW140912   8.647   2.061   3.577 -0.7453  1.7441 -0.7952
13208SOL    HW240913   8.603   1.917   3.594  1.3754  1.2162  0.4506
13209SOL     OW40914   1.278   5.743   2.734  0.0081 -0.1247  0.5976
13209SOL    HW140915   1.356   5.688   2.731 -0.2589 -0.5440  1.2275
13209SOL    HW240916   1.312   5.833   2.732  0.3937 -0.2098 -2.4828
13210SOL     OW40917   8.688   4.946   7.600  0.4473  0.4733 -0.1706
13210SOL    HW140918   8.745   4.943   7.522 -0.4653 -0.3774 -0.8252
13210SOL    HW240919   8.677   4.855   7.625 -2.2831  0.4022 -1.3106
13211SOL     OW40920   2.176   7.773   8.443  0.2233  0.4023  0.7469
13211SOL    HW140921   2.266   7.740   8.447 -0.0743 -0.3203  2.0708
13211SOL    HW240922   2.140   7.753   8.529 -1.1146  0.9596  0.3303
13212SOL     OW40923   7.265   7.901   0.766  0.7160  0.5425 -0.0727
13212SOL    HW140924   7.229   7.874   0.851  1.9183 -0.7646  0.0673
13212SOL    HW240925   7.357   7.876   0.771  0.9785  1.1575 -1.4929
13213SOL     OW40926   7.941   8.327   1.978 -0.6164  0.4076  0.3948
13213SOL    HW140927   8.010   8.341   2.043 -0.1498  0.1937 -0.0542
13213SOL    HW240928   7.958   8.393   1.911  0.3513 -0.9011 -0.7033
13214SOL     OW40929   2.847   1.951   8.651  0.4747 -0.1942  0.4132
13214SOL    HW140930   2.771   1.904   8.684 -0.8839  2.5904  1.5478
13214SOL    HW240931   2.811   2.019   8.594  2.3233 -0.3676 -1.0801
13215SOL     OW40932   7.337   1.369   1.948 -0.3784 -0.2043 -0.5047
13215SOL    HW140933   7.353   1.341   1.859  1.1036 -1.0216 -0.0062
13215SOL    HW240934   7.406   1.433   1.966 -1.1804  0.6069 -0.2121
13216SOL     OW40935   5.663   2.945   1.460 -0.4572  0.1285  0.5559
13216SOL    HW140936   5.749   2.925   1.499 -0.1478 -0.8856 -0.5874
13216SOL    HW240937   5.661   2.893   1.380 -2.4838 -0.4955  0.9713
13217SOL     OW40938   2.486   5.100   7.004 -0.3876  0.5982  0.4657
13217SOL    HW140939   2.509   5.177   6.953 -0.2451  1.2664  1.5131
13217SOL    HW240940   2.570   5.063   7.031 -0.4754  1.1124  1.4688
13218SOL     OW40941   1.078   8.036   5.785  0.4117  0.0303  0.3039
13218SOL    HW140942   1.169   8.052   5.759  0.4138  1.0724  0.8923
13218SOL    HW240943   1.032   8.019   5.703  0.8072  1.2432 -0.1853
13219SOL     OW40944   3.054   5.586   2.479  0.1925  0.1520  0.0249
13219SOL    HW140945   3.097   5.614   2.560  0.5299 -1.4011  0.4054
13219SOL    HW240946   3.124   5.583   2.414  0.0561  0.6883 -0.1522
13220SOL     OW40947   6.477   5.553   7.356 -0.2473  0.3554 -0.0152
13220SOL    HW140948   6.387   5.533   7.381 -0.5935  1.8000  0.0012
13220SOL    HW240949   6.524   5.471   7.370 -1.1994  0.0258  1.6490
13221SOL     OW40950   0.802   8.528   3.640  0.3736 -0.3324  0.1650
13221SOL    HW140951   0.833   8.604   3.689  0.6848  0.3295 -1.0088
13221SOL    HW240952   0.791   8.459   3.706  3.2415 -0.2792  0.8270
13222SOL     OW40953   8.517   2.145   4.638 -0.2817 -0.8830  0.0693
13222SOL    HW140954   8.426   2.118   4.654 -0.8185  0.2128 -0.9499
13222SOL    HW240955   8.555   2.073   4.589 -1.0221 -0.7999 -0.6595
13223SOL     OW40956   5.419   5.761   1.883 -0.3747 -0.0313 -0.1715
13223SOL    HW140957   5.381   5.722   1.803  0.4762  1.6282 -1.4437
13223SOL    HW240958   5.439   5.685   1.938 -0.7216 -1.2766 -1.6531
13224SOL     OW40959   6.868   6.868   4.051 -0.2309 -0.2133  0.5907
13224SOL    HW140960   6.795   6.894   3.995  0.5264  0.5015 -0.0883
13224SOL    HW240961   6.916   6.949   4.068  1.0795 -0.8342  0.0312
13225SOL     OW40962   4.107   6.066   8.394  0.6878  0.6791 -0.6565
13225SOL    HW140963   4.201   6.060   8.380  0.6387  2.7381 -2.3679
13225SOL    HW240964   4.092   6.158   8.417 -0.7575  0.0483  1.1695
13226SOL     OW40965   2.669   0.784   1.350 -0.1080  0.3557 -0.4197
13226SOL    HW140966   2.676   0.794   1.445  0.3405 -3.0216  0.0081
13226SOL    HW240967   2.730   0.714   1.329  0.2027  1.3744 -3.3323
13227SOL     OW40968   2.999   3.494   2.033 -0.3347 -0.6039  0.4056
13227SOL    HW140969   3.073   3.554   2.029 -1.4450  0.7760 -2.0436
13227SOL    HW240970   3.036   3.409   2.011  0.7526 -0.2252  0.6906
13228SOL     OW40971   4.290   5.505   1.904 -0.2625  0.0434  0.0187
13228SOL    HW140972   4.373   5.463   1.882 -0.6331  0.0399 -1.4994
13228SOL    HW240973   4.270   5.476   1.993  1.4914  0.2771  0.5188
13229SOL     OW40974   5.039   2.649   3.095 -0.2619  0.4028  0.3989
13229SOL    HW140975   5.040   2.637   3.190  0.2388 -2.3296  0.1477
13229SOL    HW240976   4.946   2.644   3.072 -0.2692 -0.8110  0.6145
13230SOL     OW40977   5.419   8.667   3.428 -0.1934  0.0313  0.5483
13230SOL    HW140978   5.325   8.682   3.416 -0.6046 -2.4778  0.0672
13230SOL    HW240979   5.429   8.649   3.521 -0.5806 -1.7379  0.2825
13231SOL     OW40980   6.791   0.342   2.326  0.2017 -0.0159 -0.0255
13231SOL    HW140981   6.810   0.248   2.325  1.3344  0.2001 -1.1740
13231SOL    HW240982   6.806   0.371   2.236 -0.2841  1.2367  0.2755
13232SOL     OW40983   5.006   5.865   4.529  0.1220  0.9323  0.2532
13232SOL    HW140984   5.100   5.850   4.540  0.0885  1.9209  2.5769
13232SOL    HW240985   4.977   5.794   4.472  2.5379  1.5892 -1.9778
13233SOL     OW40986   6.487   6.074   3.097  0.3161  0.5777 -0.5605
13233SOL    HW140987   6.580   6.080   3.076  0.4982 -0.5087 -0.1231
13233SOL    HW240988   6.473   6.136   3.168  0.9750 -0.1279  0.2031
13234SOL     OW40989   8.270   6.476   2.261  0.7996  0.2385  0.2065
13234SOL    HW140990   8.269   6.443   2.171 -1.7242  1.7375 -0.4346
13234SOL    HW240991   8.202   6.425   2.305  1.6828 -0.1454  1.1592
13235SOL     OW40992   8.218   6.130   0.900 -0.0870 -0.4527  0.1666
13235SOL    HW140993   8.195   6.180   0.822  0.1132  0.8999  0.9486
13235SOL    HW240994   8.301   6.166   0.929  0.6405 -2.0119  0.1418
13236SOL     OW40995   8.487   6.603   5.267 -0.0120  0.3334 -0.1495
13236SOL    HW140996   8.444   6.597   5.181 -0.7514  0.2355  0.2158
13236SOL    HW240997   8.491   6.513   5.298  1.3787  0.2131 -0.5986
13237SOL     OW40998   6.120   8.335   0.467 -0.6825  0.0791 -0.5706
13237SOL    HW140999   6.208   8.306   0.442 -1.0542 -1.5740 -0.0612
13237SOL    HW241000   6.136   8.404   0.532  0.2267  1.3308 -2.0394
13238SOL     OW41001   6.189   5.505   1.588 -0.2835 -0.5965 -0.0452
13238SOL    HW141002   6.265   5.551   1.622 -0.9815 -0.1202  0.9019
13238SOL    HW241003   6.114   5.548   1.628 -1.0544 -1.1925 -0.7965
13239SOL     OW41004   4.832   5.025   0.564 -0.0257 -0.1780  0.0853
13239SOL    HW141005   4.763   5.052   0.503  0.1629 -1.1140 -0.5640
13239SOL    HW241006   4.887   5.103   0.573 -0.7841  0.3737  0.0803
13240SOL     OW41007   6.068   3.442   3.956 -0.2141  0.6157  0.2550
13240SOL    HW141008   6.103   3.481   3.876  0.9458  0.8281  0.8433
13240SOL    HW241009   6.017   3.512   3.996 -0.6268  0.5730 -0.1750
13241SOL     OW41010   7.876   5.248   7.019 -0.4949  0.0949  0.0336
13241SOL    HW141011   7.811   5.282   7.080 -1.8786 -1.5092 -0.4574
13241SOL    HW241012   7.960   5.263   7.063 -1.3670 -0.0714  1.8648
13242SOL     OW41013   2.710   6.286   5.196 -0.2534 -0.3276 -0.0959
13242SOL    HW141014   2.708   6.190   5.201  0.3461 -0.3214  0.5668
13242SOL    HW241015   2.673   6.307   5.111  0.5908 -1.2106 -0.7036
13243SOL     OW41016   7.822   1.101   7.656  0.6995  0.3757 -0.1333
13243SOL    HW141017   7.759   1.066   7.593  0.9550  2.7095 -1.8737
13243SOL    HW241018   7.815   1.044   7.732 -0.0395 -2.3059 -2.0489
13244SOL     OW41019   3.728   0.758   0.694  0.1719  0.0814 -0.4452
13244SOL    HW141020   3.726   0.794   0.782  1.7333  1.8918 -1.0789
13244SOL    HW241021   3.711   0.833   0.637 -1.2273 -1.1206 -1.6965
13245SOL     OW41022   4.566   3.209   8.452  0.2716  0.0034 -0.6188
13245SOL    HW141023   4.615   3.244   8.377  0.3575  0.3218 -0.4193
13245SOL    HW241024   4.474   3.220   8.428  0.2857 -0.9299 -1.1493
13246SOL     OW41025   4.022   7.861   2.175 -0.5114 -0.3172  0.3558
13246SOL    HW141026   3.963   7.923   2.218  0.3312  1.1270 -0.4835
13246SOL    HW241027   4.110   7.890   2.198 -0.0029  0.6531 -2.3760
13247SOL     OW41028   4.509   7.908   8.136  0.1396 -0.1006  0.3464
13247SOL    HW141029   4.538   7.889   8.046 -1.6132 -0.8752 -0.1048
13247SOL    HW241030   4.588   7.941   8.180  0.6399  2.0777 -1.9487
13248SOL     OW41031   3.344   3.262   6.420 -0.4264 -0.2323  0.4259
13248SOL    HW141032   3.292   3.241   6.342 -0.8306  2.0279 -0.0155
13248SOL    HW241033   3.377   3.351   6.403 -0.4210  0.2897  2.7580
13249SOL     OW41034   4.910   3.846   6.550  0.3695 -0.6049 -0.1288
13249SOL    HW141035   5.000   3.837   6.582  0.8027  0.9032 -0.8332
13249SOL    HW241036   4.919   3.858   6.456 -0.7235 -2.3099 -0.4939
13250SOL     OW41037   0.936   6.188   0.898  0.5546 -0.5522 -0.2850
13250SOL    HW141038   0.966   6.130   0.969 -0.5870  0.7040  1.2994
13250SOL    HW241039   1.013   6.242   0.878 -0.1771  2.2867  3.3756
13251SOL     OW41040   4.916   6.182   6.296 -0.0167  0.5851 -0.0525
13251SOL    HW141041   4.894   6.122   6.367  2.6440 -0.5419 -0.0611
13251SOL    HW241042   4.931   6.125   6.220 -0.0422  1.5117 -0.7718
13252SOL     OW41043   6.412   6.465   6.031 -0.2621 -0.4345  0.4233
13252SOL    HW141044   6.415   6.448   5.937  2.6608 -1.1314  0.5341
13252SOL    HW241045   6.338   6.524   6.043 -1.2143 -0.9655 -2.1772
13253SOL     OW41046   4.355   0.082   7.841  0.1016 -0.4501  0.0408
13253SOL    HW141047   4.292   0.032   7.893 -1.1435  0.6750 -0.3168
13253SOL    HW241048   4.337   0.174   7.865 -0.1598  0.0690 -1.9755
13254SOL     OW41049   5.739   1.605   2.827  0.0936  0.0580  0.2868
13254SOL    HW141050   5.652   1.633   2.856  0.8271  1.2682  1.4313
13254SOL    HW241051   5.728   1.513   2.802 -1.5514  0.2561  0.2229
13255SOL     OW41052   4.001   0.397   0.062  0.3887  0.4787  0.1637
13255SOL    HW141053   3.912   0.364   0.076  0.1924  0.5625 -0.8437
13255SOL    HW241054   4.016   0.457   0.135 -0.3703  0.4554  0.3437
13256SOL     OW41055   2.249   4.552   8.349 -0.2972 -0.6051  0.7061
13256SOL    HW141056   2.319   4.601   8.391 -1.5176  0.3864  1.6706
13256SOL    HW241057   2.286   4.523   8.266  0.7189  1.2614  0.4666
13257SOL     OW41058   3.772   5.748   2.458 -0.0040  0.4073 -0.2769
13257SOL    HW141059   3.680   5.757   2.435  0.6881  1.3293 -3.0578
13257SOL    HW241060   3.773   5.687   2.532 -2.7023 -0.8456 -1.1677
13258SOL     OW41061   5.573   0.643   8.045  0.6323 -0.1357 -0.3291
13258SOL    HW141062   5.594   0.727   8.086  0.9407 -0.5398  0.3632
13258SOL    HW241063   5.654   0.592   8.054 -0.2699 -1.3638  1.4486
13259SOL     OW41064   2.536   4.570   8.338 -0.5150 -0.4527  1.0677
13259SOL    HW141065   2.624   4.584   8.301 -1.0327 -0.0426 -0.0458
13259SOL    HW241066   2.547   4.496   8.398  0.6772 -0.1457  1.2584
13260SOL     OW41067   2.234   3.763   4.253  0.1477  0.8405  0.2655
13260SOL    HW141068   2.205   3.718   4.174 -0.3474  1.5955  0.0144
13260SOL    HW241069   2.309   3.816   4.225  1.3311 -0.4952  0.7513
13261SOL     OW41070   1.083   3.023   7.104 -0.0200  0.3611  0.2514
13261SOL    HW141071   1.012   2.968   7.139 -2.5036  2.4727 -1.1183
13261SOL    HW241072   1.101   2.987   7.018  1.0190 -0.4786  0.7890
13262SOL     OW41073   8.131   8.067   8.337 -0.0665  0.0354  0.3684
13262SOL    HW141074   8.091   8.131   8.396 -0.5602 -1.0046  1.1960
13262SOL    HW241075   8.222   8.094   8.330  0.2245 -0.3171  2.3330
13263SOL     OW41076   6.608   2.624   0.986 -0.2633  0.0740 -0.4921
13263SOL    HW141077   6.617   2.649   1.078 -0.6369  1.4389 -0.8146
13263SOL    HW241078   6.571   2.536   0.989 -2.1770  0.8460  0.6676
13264SOL     OW41079   3.234   5.583   2.253  0.6292 -0.1798  0.2376
13264SOL    HW141080   3.222   5.549   2.164  2.3118 -1.8607  0.5736
13264SOL    HW241081   3.211   5.675   2.247 -0.4490 -0.5173 -1.6625
13265SOL     OW41082   1.133   6.376   1.691 -0.4808  0.2091  0.6346
13265SOL    HW141083   1.099   6.378   1.781  1.8275 -0.6635  1.6254
13265SOL    HW241084   1.202   6.310   1.694 -1.2169 -0.8187 -2.1664
13266SOL     OW41085   4.917   8.076   8.653  0.2362 -0.1824  0.3496
13266SOL    HW141086   4.839   8.055   8.704 -0.0966  0.7142  0.2155
13266SOL    HW241087   4.885   8.123   8.577  0.6037 -2.4307 -1.3120
13267SOL     OW41088   6.593   8.152   0.513  0.0367  0.2582  0.3237
13267SOL    HW141089   6.515   8.110   0.475 -0.3842 -0.3368  1.7986
13267SOL    HW241090   6.586   8.136   0.607  1.0883  1.6507  0.6680
13268SOL     OW41091   8.478   4.191   1.239 -0.5566  0.5849 -0.3032
13268SOL    HW141092   8.394   4.236   1.247  0.0035  1.6687 -0.3132
13268SOL    HW241093   8.537   4.256   1.201  0.7273  0.4307  1.2905
13269SOL     OW41094   6.996   0.893   6.753 -0.1215 -0.2686  0.0882
13269SOL    HW141095   7.063   0.826   6.738  0.0047 -0.0827 -0.2068
13269SOL    HW241096   6.928   0.874   6.689 -0.1686 -0.2202  0.1236
13270SOL     OW41097   4.062   0.649   7.006  0.0673  0.2915  0.0687
13270SOL    HW141098   3.987   0.707   7.017  1.6196  2.4337 -0.1406
13270SOL    HW241099   4.075   0.610   7.092  0.9427  2.8091  1.1742
13271SOL     OW41100   0.292   6.113   5.625 -0.7138  0.7863 -0.0327
13271SOL    HW141101   0.206   6.155   5.613 -0.8382  0.5161 -0.0911
13271SOL    HW241102   0.282   6.027   5.584 -1.0821 -0.0745  1.7609
13272SOL     OW41103   6.772   3.152   3.552  0.2648  0.6017  0.3925
13272SOL    HW141104   6.786   3.246   3.558  3.0494  0.2439  0.8755
13272SOL    HW241105   6.826   3.124   3.477  0.8043 -0.7956  1.2592
13273SOL     OW41106   6.313   8.423   3.364 -0.4107 -0.6873 -0.6646
13273SOL    HW141107   6.387   8.455   3.416 -1.0192 -1.2757  0.6081
13273SOL    HW241108   6.349   8.350   3.313  0.3022  0.1816 -1.4314
13274SOL     OW41109   0.666   0.703   0.927  0.1987 -0.3708 -0.0712
13274SOL    HW141110   0.674   0.754   1.008  0.1906  0.4570 -0.5785
13274SOL    HW241111   0.699   0.616   0.951 -0.1695 -0.2575  0.9228
13275SOL     OW41112   2.162   5.227   3.164 -0.7102 -0.4183 -0.0857
13275SOL    HW141113   2.161   5.132   3.180 -1.0457 -0.4453 -0.2554
13275SOL    HW241114   2.254   5.247   3.146 -0.2987 -0.3997  1.7784
13276SOL     OW41115   1.374   4.567   4.798  0.3235  0.1067  0.1923
13276SOL    HW141116   1.370   4.472   4.811 -0.0000 -0.2196 -1.9296
13276SOL    HW241117   1.463   4.591   4.825  0.4470 -0.8076  0.6336
13277SOL     OW41118   5.390   0.942   4.928 -0.8321 -0.2194 -0.1731
13277SOL    HW141119   5.416   0.917   5.017  3.5054 -2.4665 -1.8065
13277SOL    HW241120   5.382   1.038   4.932 -1.0772 -0.2661  2.6298
13278SOL     OW41121   5.468   6.561   5.863 -0.3667 -0.0052  0.4231
13278SOL    HW141122   5.548   6.576   5.913 -0.9119  1.4703  0.8680
13278SOL    HW241123   5.489   6.593   5.775 -0.4043  0.1869  0.4848
13279SOL     OW41124   1.660   7.407   8.103 -0.7193  0.1826  0.6756
13279SOL    HW141125   1.715   7.485   8.116 -0.0177 -0.1883  0.0111
13279SOL    HW241126   1.721   7.339   8.074 -1.5333 -0.2220 -0.1371
13280SOL     OW41127   5.162   7.472   1.028  0.3089 -0.3282 -0.0409
13280SOL    HW141128   5.124   7.391   1.061  0.5024  0.3965  2.1754
13280SOL    HW241129   5.223   7.445   0.960 -0.1209 -1.9788  0.2026
13281SOL     OW41130   3.562   2.008   5.001  0.4642  0.1613  0.2943
13281SOL    HW141131   3.533   1.970   4.919  0.1159 -0.1416  0.5554
13281SOL    HW241132   3.496   2.074   5.022  1.9511  2.1771 -1.0363
13282SOL     OW41133   1.645   2.259   1.041  0.5426 -0.1079 -0.0289
13282SOL    HW141134   1.683   2.200   1.108  1.0201  0.5137  0.2574
13282SOL    HW241135   1.616   2.200   0.971 -1.1468 -0.8967  1.2637
13283SOL     OW41136   4.834   0.439   3.880 -0.0795  0.3395 -0.8004
13283SOL    HW141137   4.814   0.477   3.794  0.3495  0.9623 -0.6288
13283SOL    HW241138   4.913   0.388   3.866  0.3517  0.9532 -0.6430
13284SOL     OW41139   0.696   6.305   2.134  0.3320  0.0988 -0.3410
13284SOL    HW141140   0.686   6.400   2.134  1.5764  0.2508  0.0079
13284SOL    HW241141   0.674   6.279   2.224  0.4316  0.1181 -0.3103
13285SOL     OW41142   3.139   5.083   4.059  0.0415  0.3250  0.3793
13285SOL    HW141143   3.072   5.129   4.009  0.1487 -0.2541 -0.3114
13285SOL    HW241144   3.206   5.149   4.076  0.2031  0.4174 -0.6094
13286SOL     OW41145   6.631   0.586   8.013  0.0495 -0.3894 -0.0832
13286SOL    HW141146   6.537   0.585   7.995 -0.1765  1.1990  0.7936
13286SOL    HW241147   6.673   0.585   7.927 -0.7869 -0.6787 -0.4903
13287SOL     OW41148   3.831   3.648   8.193 -0.3707 -0.4423  0.4512
13287SOL    HW141149   3.755   3.691   8.232 -0.6407  0.8512 -1.3648
13287SOL    HW241150   3.798   3.610   8.111  0.9181  0.1645 -0.3795
13288SOL     OW41151   3.661   3.388   6.543 -0.5287 -0.3331  0.0454
13288SOL    HW141152   3.611   3.466   6.520 -0.3877 -0.1695  0.2895
13288SOL    HW241153   3.597   3.329   6.582 -0.9631 -0.9843 -1.5684
13289SOL     OW41154   0.620   6.822   1.353 -0.0463  0.3865 -0.4138
13289SOL    HW141155   0.629   6.727   1.367 -1.2852  0.3538  0.2507
13289SOL    HW241156   0.628   6.860   1.440 -3.1248  0.5657 -0.0991
13290SOL     OW41157   1.004   2.701   2.742 -0.4486  0.3203  0.4334
13290SOL    HW141158   1.080   2.676   2.795  0.1785 -1.2765 -1.1022
13290SOL    HW241159   0.954   2.760   2.798  1.7448  1.1864  1.6151
13291SOL     OW41160   5.323   6.805   7.867  0.5027  0.3345 -0.1900
13291SOL    HW141161   5.311   6.814   7.962  1.4132  2.4867 -0.2290
13291SOL    HW241162   5.237   6.778   7.835  0.0276  0.1438  1.1771
13292SOL     OW41163   3.310   1.945   1.833  0.1463 -0.5040 -0.3975
13292SOL    HW141164   3.401   1.949   1.860 -0.5856 -0.3389  2.3088
13292SOL    HW241165   3.270   1.879   1.890 -1.6762  0.2712 -0.6859
13293SOL     OW41166   4.574   1.262   2.749  0.0876  0.4213  0.8361
13293SOL    HW141167   4.547   1.171   2.763  0.8786  0.1634  0.7228
13293SOL    HW241168   4.655   1.255   2.698  0.4895  1.1668  1.3609
13294SOL     OW41169   6.655   4.765   6.993 -0.1816  0.5073 -0.3740
13294SOL    HW141170   6.598   4.772   6.917 -0.9716 -1.4622 -0.0309
13294SOL    HW241171   6.741   4.795   6.962  0.0562 -2.1903 -2.7327
13295SOL     OW41172   1.219   2.682   4.192  0.2406  0.1006  0.3077
13295SOL    HW141173   1.198   2.612   4.131 -1.2887 -0.1675  1.1131
13295SOL    HW241174   1.270   2.744   4.140 -1.2987  0.0474 -1.3627
13296SOL     OW41175   7.463   3.360   6.016 -0.0168  0.3075 -0.4862
13296SOL    HW141176   7.514   3.355   5.936 -0.0265  0.8786 -0.5329
13296SOL    HW241177   7.377   3.325   5.992 -0.4270  1.6567 -1.0781
13297SOL     OW41178   4.227   8.284   7.872 -0.0599  0.3255 -0.5026
13297SOL    HW141179   4.296   8.339   7.908 -0.1314 -0.4291  0.8655
13297SOL    HW241180   4.250   8.195   7.899 -0.4697 -0.2148 -1.8137
13298SOL     OW41181   5.947   1.380   0.986  0.4439  0.0351 -0.3081
13298SOL    HW141182   5.994   1.384   1.069  0.5032  1.4191 -0.3931
13298SOL    HW241183   5.934   1.471   0.960 -0.5653 -0.3450 -1.2638
13299SOL     OW41184   1.332   4.233   7.282 -0.1201  0.1838 -0.5245
13299SOL    HW141185   1.266   4.168   7.304 -0.4330  1.2423  2.0285
13299SOL    HW241186   1.282   4.312   7.261  0.2341  0.8885  1.0652
13300SOL     OW41187   4.910   7.771   2.415  0.1077  0.5475  0.2180
13300SOL    HW141188   4.928   7.865   2.416 -2.9447  1.2518  1.2628
13300SOL    HW241189   4.949   7.739   2.496  2.9201  0.4152 -1.0833
13301SOL     OW41190   6.494   1.999   0.541 -0.1258 -0.2202  0.2121
13301SOL    HW141191   6.452   2.079   0.508 -0.7876 -0.2825  0.8553
13301SOL    HW241192   6.585   2.007   0.514 -0.4982  0.0308 -1.0404
13302SOL     OW41193   6.324   5.479   4.007 -0.2731  0.7161  0.3110
13302SOL    HW141194   6.301   5.434   4.088 -1.4547 -0.8017 -0.7865
13302SOL    HW241195   6.252   5.539   3.991 -1.7186 -1.2637 -1.1538
13303SOL     OW41196   3.664   0.570   2.628  0.0175  0.0912  0.5420
13303SOL    HW141197   3.588   0.513   2.635  0.4791 -0.6585 -0.3022
13303SOL    HW241198   3.739   0.511   2.639  0.5223  1.1262  3.7300
13304SOL     OW41199   8.492   4.965   8.540  0.2797  0.7602 -0.1735
13304SOL    HW141200   8.473   5.006   8.456 -1.0963  0.2082 -0.1602
13304SOL    HW241201   8.448   5.020   8.605 -1.0065 -0.3055 -0.0953
13305SOL     OW41202   1.306   3.072   0.644  0.0985 -0.0155 -0.3108
13305SOL    HW141203   1.216   3.045   0.658  0.5803 -0.9897  1.1691
13305SOL    HW241204   1.300   3.163   0.614 -1.3040  1.1965  3.1694
13306SOL     OW41205   5.985   7.818   6.868 -0.0524 -0.0337  0.3153
13306SOL    HW141206   6.005   7.829   6.775 -1.7341  1.1587  0.0602
13306SOL    HW241207   6.046   7.750   6.897 -0.4420 -1.4838 -1.9889
13307SOL     OW41208   5.889   0.075   4.093 -0.2597 -0.1097  0.0516
13307SOL    HW141209   5.842  -0.002   4.123  0.2102  1.4412  6.0526
13307SOL    HW241210   5.823   0.128   4.048 -2.0789 -1.5628  0.8895
13308SOL     OW41211   6.494   7.547   5.035  0.0947  0.3286 -0.1249
13308SOL    HW141212   6.409   7.591   5.047  0.0975  0.3113 -0.0422
13308SOL    HW241213   6.499   7.484   5.107 -0.5176 -0.7781 -1.0146
13309SOL     OW41214   3.881   4.749   4.264 -0.3073  0.5479 -0.0526
13309SOL    HW141215   3.890   4.763   4.169 -1.3292  3.5149  0.1738
13309SOL    HW241216   3.922   4.826   4.303  0.8512 -1.0366  2.0045
13310SOL     OW41217   6.077   6.856   8.346  0.4754 -0.0180 -0.0501
13310SOL    HW141218   6.040   6.768   8.350  0.1040  0.1580  0.3952
13310SOL    HW241219   6.153   6.853   8.405  0.6260 -0.1193 -0.2498
13311SOL     OW41220   5.559   4.158   8.098 -0.0851  0.6743 -0.6290
13311SOL    HW141221   5.495   4.197   8.039 -0.5189  1.3174  0.2423
13311SOL    HW241222   5.644   4.182   8.061 -0.3493  1.5785 -0.6722
13312SOL     OW41223   2.981   2.058   3.359  0.4730 -0.5713  0.0372
13312SOL    HW141224   3.007   2.128   3.419 -0.8037  0.9539 -1.0993
13312SOL    HW241225   2.937   1.994   3.415  2.1899 -0.8092  1.1910
13313SOL     OW41226   3.760   3.765   5.737 -0.3154 -0.3720 -0.2016
13313SOL    HW141227   3.680   3.816   5.750  0.0361  0.1870 -0.1937
13313SOL    HW241228   3.811   3.816   5.676  0.7463  0.0983  1.0362
13314SOL     OW41229   6.923   5.847   5.055  0.2992 -0.1254  0.2058
13314SOL    HW141230   6.985   5.809   5.118  0.0363 -0.8274  0.0434
13314SOL    HW241231   6.843   5.797   5.067  0.4918 -0.8355 -1.2677
13315SOL     OW41232   1.082   6.792   3.940  0.0247 -0.0651  0.0369
13315SOL    HW141233   1.049   6.702   3.941  3.5109 -1.4946  0.1809
13315SOL    HW241234   1.029   6.836   3.874 -0.2315 -2.9320 -1.8385
13316SOL     OW41235   7.227   4.283   1.677  0.0259 -0.0771  0.5395
13316SOL    HW141236   7.213   4.324   1.592 -0.4609 -1.0608  0.1300
13316SOL    HW241237   7.321   4.294   1.694  0.2001 -0.2057 -0.3069
13317SOL     OW41238   5.481   2.217   1.608  0.3442  0.0677  0.3051
13317SOL    HW141239   5.422   2.290   1.626 -0.5503 -0.3182 -0.9121
13317SOL    HW241240   5.493   2.220   1.513  0.7381 -1.0438  0.3136
13318SOL     OW41241   2.729   5.780   1.258 -0.4027  0.7993 -0.0100
13318SOL    HW141242   2.672   5.857   1.257 -0.5195  0.8152  2.2923
13318SOL    HW241243   2.807   5.808   1.209 -1.2542  1.6596 -0.9357
13319SOL     OW41244   2.399   4.223   2.380  0.1209  0.1329 -0.5065
13319SOL    HW141245   2.326   4.214   2.442 -2.7787 -0.7083 -3.7401
13319SOL    HW241246   2.403   4.139   2.336  5.6333 -1.2311  1.7714
13320SOL     OW41247   6.180   4.845   6.860  0.2151  0.2188  0.5220
13320SOL    HW141248   6.258   4.820   6.908  0.3001 -0.3561  0.0925
13320SOL    HW241249   6.122   4.769   6.867  1.2882 -1.0267 -2.5373
13321SOL     OW41250   8.320   3.781   8.510  0.5908  0.6606  0.5544
13321SOL    HW141251   8.314   3.856   8.451  1.1522 -0.3830 -0.8929
13321SOL    HW241252   8.398   3.797   8.562  0.9204  0.8995 -0.0099
13322SOL     OW41253   0.838   0.171   3.329  0.3641 -0.1041  0.0001
13322SOL    HW141254   0.860   0.264   3.335 -0.4686  0.1260 -0.4177
13322SOL    HW241255   0.747   0.169   3.299  0.8909 -1.0549 -1.6897
13323SOL     OW41256   4.691   5.964   5.916 -0.2343  1.3298  0.2552
13323SOL    HW141257   4.684   5.880   5.869  4.1733  0.6510  0.4155
13323SOL    HW241258   4.656   5.945   6.003 -1.4658  0.3704 -0.4204
13324SOL     OW41259   2.261   8.298   3.899  0.3356 -0.0495 -0.2583
13324SOL    HW141260   2.242   8.389   3.875  1.5420  0.1329 -0.6223
13324SOL    HW241261   2.356   8.297   3.915  0.8163 -1.7779 -2.7548
13325SOL     OW41262   0.403   6.667   4.858 -0.0048  0.0361  0.2747
13325SOL    HW141263   0.328   6.607   4.862  0.5877 -0.6843  0.9476
13325SOL    HW241264   0.426   6.681   4.950 -0.3827  1.6475  0.1559
13326SOL     OW41265   8.391   6.773   2.314 -0.1837 -0.3200  0.2978
13326SOL    HW141266   8.372   6.774   2.220  2.1065 -1.8407 -0.2603
13326SOL    HW241267   8.358   6.688   2.344 -2.3882  0.8054  1.3032
13327SOL     OW41268   1.838   0.792   0.785 -0.3966 -0.3442 -0.0334
13327SOL    HW141269   1.835   0.880   0.746  1.7464 -0.7566 -1.3208
13327SOL    HW241270   1.889   0.741   0.722  0.8533 -1.7646  2.0393
13328SOL     OW41271   2.969   6.181   8.599 -0.1570 -0.7270 -0.0337
13328SOL    HW141272   2.892   6.238   8.589 -0.8045 -1.5601  0.1092
13328SOL    HW241273   2.957   6.139   8.684  0.1334 -1.3399 -0.2907
13329SOL     OW41274   4.384   5.972   1.780 -0.1157 -0.1068 -0.8940
13329SOL    HW141275   4.425   5.910   1.840  1.3637  0.4598 -1.2986
13329SOL    HW241276   4.290   5.960   1.796  0.1479 -1.7688 -0.2895
13330SOL     OW41277   7.572   0.161   1.122 -0.4010  0.3063  0.3312
13330SOL    HW141278   7.553   0.143   1.029 -0.7045 -1.1105  0.6391
13330SOL    HW241279   7.660   0.199   1.121 -0.8208  1.3214 -0.6149
13331SOL     OW41280   7.444   4.782   5.296 -0.8150  0.6102 -0.4436
13331SOL    HW141281   7.424   4.825   5.213  0.3174  0.3943 -0.8473
13331SOL    HW241282   7.360   4.775   5.340 -1.3534  1.2144 -1.3392
13332SOL     OW41283   5.633   1.079   6.800 -0.1699  0.0871 -0.5677
13332SOL    HW141284   5.562   1.016   6.815 -0.1402 -0.0990 -1.1972
13332SOL    HW241285   5.670   1.055   6.715  0.6303  0.2062 -0.2624
13333SOL     OW41286   5.585   6.995   2.943 -0.1812 -0.2771  0.6402
13333SOL    HW141287   5.517   7.027   2.883 -0.4150 -1.1806  0.4062
13333SOL    HW241288   5.608   7.072   2.996 -0.3771  0.3954 -0.2191
13334SOL     OW41289   6.428   5.140   3.399  0.4639  0.5540 -0.1610
13334SOL    HW141290   6.424   5.233   3.375 -1.6613  0.6803  0.4733
13334SOL    HW241291   6.446   5.141   3.493  1.0630  0.2820 -0.2665
13335SOL     OW41292   1.512   5.592   0.636  0.9928 -0.2457 -0.1122
13335SOL    HW141293   1.452   5.546   0.578  0.0057 -0.1793  0.8154
13335SOL    HW241294   1.599   5.561   0.610  0.3966 -2.5797  0.3926
13336SOL     OW41295   6.332   3.768   2.708 -0.6521 -0.1728 -0.3711
13336SOL    HW141296   6.423   3.764   2.679 -0.0964 -1.8275  1.4165
13336SOL    HW241297   6.336   3.804   2.797 -1.9882  1.6834 -0.9811
13337SOL     OW41298   2.134   2.279   6.173  0.0974  0.0141 -0.4425
13337SOL    HW141299   2.151   2.337   6.247  2.1437 -2.0886  0.8678
13337SOL    HW241300   2.041   2.258   6.179  0.1602  0.1322  1.3628
13338SOL     OW41301   7.764   1.606   2.635  0.4494 -0.5347  0.1803
13338SOL    HW141302   7.857   1.624   2.625  0.5620  0.1424  2.0612
13338SOL    HW241303   7.758   1.555   2.715 -0.8991  0.6380  0.8707
13339SOL     OW41304   2.451   8.543   2.196 -0.2329 -0.0800 -1.2002
13339SOL    HW141305   2.421   8.459   2.161  1.2800 -1.1933  0.0544
13339SOL    HW241306   2.397   8.557   2.274 -0.4569  0.1174 -1.3867
13340SOL     OW41307   1.913   3.018   1.582 -0.1552 -0.2892 -0.5860
13340SOL    HW141308   1.955   2.956   1.522  0.1557 -0.4085 -0.2446
13340SOL    HW241309   1.950   2.998   1.668 -0.4817 -0.0128 -0.3766
13341SOL     OW41310   3.885   8.021   3.392  0.0976 -0.1526  0.1502
13341SOL    HW141311   3.817   8.053   3.332  0.7256 -2.6919 -2.1404
13341SOL    HW241312   3.968   8.048   3.351  0.5677  0.9938  1.7493
13342SOL     OW41313   6.670   2.855   0.003  0.3239 -0.8723 -0.2967
13342SOL    HW141314   6.638   2.825   0.088  1.0616 -1.4197 -0.2012
13342SOL    HW241315   6.701   2.775  -0.040  0.6246 -0.4959 -0.7858
13343SOL     OW41316   8.549   3.623   2.780  0.1196  0.2974 -0.0844
13343SOL    HW141317   8.614   3.662   2.722  1.6072 -0.1217  1.2292
13343SOL    HW241318   8.596   3.609   2.862 -0.6169 -3.1102 -0.0983
13344SOL     OW41319   6.075   5.676   3.770 -0.0002 -0.0445 -0.8642
13344SOL    HW141320   6.079   5.583   3.747 -1.0602  0.0453 -1.4789
13344SOL    HW241321   6.098   5.722   3.688  0.2497  0.2377 -0.6381
13345SOL     OW41322   3.508   1.883   7.704  0.3261  0.0154 -0.6208
13345SOL    HW141323   3.475   1.795   7.723  1.7599 -0.3272  0.4666
13345SOL    HW241324   3.474   1.903   7.618  0.2110 -1.7396 -1.0299
13346SOL     OW41325   3.220   4.472   7.010 -0.1477  0.9120 -0.4659
13346SOL    HW141326   3.254   4.398   6.959 -0.2365 -0.1895  1.0078
13346SOL    HW241327   3.224   4.546   6.950  2.0090  0.1842 -1.3189
13347SOL     OW41328   7.679   6.890   3.158 -0.5151 -0.0194  0.1697
13347SOL    HW141329   7.707   6.900   3.067 -0.0681  0.1409  0.3261
13347SOL    HW241330   7.619   6.964   3.173 -0.4151  0.0800  0.0746
13348SOL     OW41331   1.457   7.637   2.882  0.2269  0.1805  0.4239
13348SOL    HW141332   1.374   7.589   2.879  0.6035 -0.5170 -2.8136
13348SOL    HW241333   1.520   7.578   2.842  2.2302  0.9486  2.2414
13349SOL     OW41334   8.058   5.605   6.742 -0.2878 -0.3827  0.8036
13349SOL    HW141335   8.066   5.645   6.829 -3.2586 -1.8493  1.8874
13349SOL    HW241336   8.108   5.524   6.748 -0.8472 -0.6978  1.3320
13350SOL     OW41337   8.532   0.319   2.233 -0.4364 -0.4904 -0.0574
13350SOL    HW141338   8.515   0.246   2.292  1.1716  0.4424  1.6549
13350SOL    HW241339   8.449   0.368   2.232 -0.8804 -1.2090  0.4134
13351SOL     OW41340   8.020   6.513   3.884 -0.4552  0.0109  0.4635
13351SOL    HW141341   8.110   6.543   3.898 -0.4717  1.4260 -1.8709
13351SOL    HW241342   7.966   6.588   3.907 -1.0478 -0.6734  1.3889
13352SOL     OW41343   4.316   5.001   2.814 -0.3307  0.0701  0.0640
13352SOL    HW141344   4.332   5.090   2.783 -1.1510  0.3306  0.3373
13352SOL    HW241345   4.224   5.002   2.842 -0.0114 -0.5196  1.2054
13353SOL     OW41346   6.934   7.943   8.370  0.1499  0.2408 -0.2700
13353SOL    HW141347   7.017   7.990   8.357 -0.2704  0.5316 -2.3425
13353SOL    HW241348   6.923   7.893   8.289 -1.4787 -0.1567  0.1720
13354SOL     OW41349   4.465   6.243   1.759  0.2513 -0.2894  0.6778
13354SOL    HW141350   4.559   6.231   1.767  0.4977  0.8362 -0.2944
13354SOL    HW241351   4.427   6.177   1.817  1.6604  0.4221  2.5036
13355SOL     OW41352   8.399   2.495   4.368  0.2523 -0.2364 -0.0944
13355SOL    HW141353   8.355   2.418   4.333 -0.5410  1.2336 -2.5602
13355SOL    HW241354   8.377   2.566   4.307  2.6924  1.4864  0.8465
13356SOL     OW41355   0.929   5.343   1.624  0.2010  0.6081  0.1154
13356SOL    HW141356   0.906   5.263   1.673 -0.3504  0.4478 -0.3930
13356SOL    HW241357   0.899   5.326   1.535  0.7856  1.0830 -0.1772
13357SOL     OW41358   6.907   4.192   4.235  0.5480 -0.9511  0.1884
13357SOL    HW141359   6.996   4.214   4.263  1.6312 -4.6154  0.2606
13357SOL    HW241360   6.912   4.189   4.139 -0.1460  0.8481  0.0558
13358SOL     OW41361   8.295   7.141   1.696  0.0393 -0.0536  0.3462
13358SOL    HW141362   8.252   7.057   1.682  1.7522 -0.8123 -0.6201
13358SOL    HW241363   8.385   7.128   1.668  0.2911  2.1977 -0.1515
13359SOL     OW41364   3.488   4.667   2.486  0.1890 -0.2367 -0.3426
13359SOL    HW141365   3.556   4.722   2.448 -0.4544 -0.0705 -1.2952
13359SOL    HW241366   3.422   4.729   2.518  0.6157 -0.3840  0.8621
13360SOL     OW41367   6.737   0.436   0.472  0.7063  0.2600 -0.0644
13360SOL    HW141368   6.654   0.441   0.424  1.2299  1.1819 -0.9278
13360SOL    HW241369   6.761   0.528   0.488  1.4893  0.0031  0.2830
13361SOL     OW41370   3.573   1.857   0.450  0.0438 -0.0557 -0.2189
13361SOL    HW141371   3.614   1.883   0.533  1.8730  1.6841 -1.5474
13361SOL    HW241372   3.491   1.906   0.447  0.5432  0.8232  0.0714
13362SOL     OW41373   5.134   6.157   6.788  0.2422  0.2044  0.1357
13362SOL    HW141374   5.178   6.073   6.775 -0.3367 -0.0789 -0.0594
13362SOL    HW241375   5.180   6.198   6.861 -0.4644 -0.9881  1.2878
13363SOL     OW41376   0.694   3.657   2.172  0.3567 -0.5283  0.4561
13363SOL    HW141377   0.724   3.571   2.142 -0.1535 -0.2847 -0.7808
13363SOL    HW241378   0.691   3.711   2.093  2.5383  1.2146  1.4495
13364SOL     OW41379   8.522   0.730   8.119 -0.0623 -0.2672  0.5238
13364SOL    HW141380   8.457   0.670   8.156 -0.4131  0.5139  1.2187
13364SOL    HW241381   8.577   0.675   8.063 -2.0778 -0.7315 -1.1105
13365SOL     OW41382   7.869   1.023   4.212 -0.5782  0.4180  0.3561
13365SOL    HW141383   7.963   1.029   4.226 -0.8619  2.3048  1.8356
13365SOL    HW241384   7.853   1.068   4.129 -0.2648  0.7114  0.4565
13366SOL     OW41385   4.171   4.369   5.793 -0.2421 -0.4795  0.2297
13366SOL    HW141386   4.222   4.354   5.873  1.6506  2.3153 -0.3233
13366SOL    HW241387   4.100   4.428   5.820  0.8401  1.0853 -0.2077
13367SOL     OW41388   3.302   7.559   4.207  0.0311 -0.5765 -0.5134
13367SOL    HW141389   3.258   7.478   4.180 -0.8307  0.0266 -1.0078
13367SOL    HW241390   3.323   7.547   4.299 -1.9522 -0.5958 -0.0210
13368SOL     OW41391   7.929   3.986   2.858 -0.0659  0.1959  0.2860
13368SOL    HW141392   7.855   4.029   2.816 -0.4401 -1.5574 -0.9399
13368SOL    HW241393   7.978   3.945   2.786 -0.2664 -2.2042  1.4272
13369SOL     OW41394   2.919   8.094   8.013  0.2445  0.6486  0.2792
13369SOL    HW141395   2.902   8.153   7.939  2.0039 -0.4979 -1.1221
13369SOL    HW241396   2.979   8.144   8.069  2.2506  0.0555 -1.2275
13370SOL     OW41397   3.189   4.591   8.282  0.1455  0.3526  0.8122
13370SOL    HW141398   3.254   4.522   8.294  0.2539  0.3206  0.1201
13370SOL    HW241399   3.241   4.670   8.264 -0.0009  0.2593 -0.0791
13371SOL     OW41400   4.949   4.165   8.163 -0.1381 -0.3636 -0.7685
13371SOL    HW141401   4.937   4.201   8.075 -0.8863  0.5366 -0.3136
13371SOL    HW241402   4.949   4.241   8.220 -1.4964 -1.0441  0.2063
13372SOL     OW41403   5.597   1.709   2.519 -0.1493 -0.5607  0.2024
13372SOL    HW141404   5.588   1.781   2.581  0.0085 -0.4210  0.0651
13372SOL    HW241405   5.551   1.738   2.441  0.7648 -0.1795 -0.2126
13373SOL     OW41406   3.745   6.661   8.612 -0.1380 -0.2946 -0.2227
13373SOL    HW141407   3.685   6.587   8.613  0.3866 -0.7453  1.2285
13373SOL    HW241408   3.780   6.665   8.701  1.9853 -0.0718 -0.9933
13374SOL     OW41409   0.903   1.632   4.435 -0.0592  0.0932 -0.0379
13374SOL    HW141410   0.971   1.580   4.391 -1.2212 -0.0486 -1.7995
13374SOL    HW241411   0.948   1.673   4.509  1.7163 -0.6971 -0.6086
13375SOL     OW41412   2.846   6.400   6.868  0.3504 -0.1809 -0.1173
13375SOL    HW141413   2.864   6.449   6.787 -0.5354 -1.8078 -1.3630
13375SOL    HW241414   2.769   6.347   6.847  2.0059 -3.1031  0.6802
13376SOL     OW41415   0.037   1.921   8.566  0.0245 -0.5024  0.0798
13376SOL    HW141416  -0.055   1.914   8.593  0.3153  0.2599  1.3158
13376SOL    HW241417   0.085   1.937   8.647  1.1299  0.1359 -0.6765
13377SOL     OW41418   3.818   1.162   6.306 -0.2804  0.0691 -0.1696
13377SOL    HW141419   3.798   1.249   6.342  1.2661  1.3514 -2.1684
13377SOL    HW241420   3.899   1.137   6.351 -0.5043 -0.1597  0.1084
13378SOL     OW41421   7.072   4.830   4.482 -0.4420  0.0016  0.3054
13378SOL    HW141422   6.999   4.770   4.496 -0.6401 -0.2767 -1.6164
13378SOL    HW241423   7.030   4.915   4.468 -0.6591 -0.5164 -2.9261
13379SOL     OW41424   3.195   1.802   2.027  0.4810  0.2887 -0.1937
13379SOL    HW141425   3.108   1.837   2.006  0.6953  0.2895 -1.1233
13379SOL    HW241426   3.217   1.841   2.111 -1.0268 -0.8408  0.7814
13380SOL     OW41427   3.128   0.923   4.497 -0.0984  0.3565  0.2129
13380SOL    HW141428   3.158   0.929   4.406 -0.4219 -0.0318  0.0769
13380SOL    HW241429   3.208   0.909   4.548 -0.1183 -1.9824 -0.2855
13381SOL     OW41430   7.760   8.592   8.672 -0.7200  0.4095 -0.4302
13381SOL    HW141431   7.780   8.676   8.713 -1.4139  1.5552 -2.2853
13381SOL    HW241432   7.751   8.531   8.745 -1.0639  2.1291  1.0455
13382SOL     OW41433   6.983   0.003   8.471 -0.5555  0.2712  0.1358
13382SOL    HW141434   6.942  -0.052   8.538 -0.6244  1.6418  1.2666
13382SOL    HW241435   7.075   0.006   8.496  0.0167 -1.4764 -1.4798
13383SOL     OW41436   7.595   3.589   6.550  0.4774  0.0319  0.1864
13383SOL    HW141437   7.660   3.604   6.619  0.8785 -1.0197  0.0581
13383SOL    HW241438   7.641   3.614   6.469  1.1552 -1.8033 -0.0300
13384SOL     OW41439   3.297   6.184   8.628 -0.2166 -0.1657  0.1616
13384SOL    HW141440   3.202   6.181   8.614 -0.4125  0.8210  1.1553
13384SOL    HW241441   3.308   6.236   8.707  1.2556  1.7413 -1.2088
13385SOL     OW41442   8.454   5.937   2.567 -0.5070 -0.1430 -0.5183
13385SOL    HW141443   8.531   5.974   2.525 -0.9120 -0.9804 -2.0720
13385SOL    HW241444   8.486   5.902   2.650  0.6415  0.1261 -0.8334
13386SOL     OW41445   6.860   6.659   5.228 -0.3225 -0.0115  0.3228
13386SOL    HW141446   6.825   6.748   5.223  0.0686  0.2012  1.1741
13386SOL    HW241447   6.954   6.670   5.222 -0.3209 -0.7094 -3.6594
13387SOL     OW41448   3.648   7.462   4.275  0.3489  0.9136 -0.2923
13387SOL    HW141449   3.671   7.469   4.183  1.9385  0.3419  0.0368
13387SOL    HW241450   3.607   7.376   4.283 -0.8054  1.4103 -0.6432
13388SOL     OW41451   3.271   5.564   5.795 -0.5515  0.1299 -0.0475
13388SOL    HW141452   3.211   5.530   5.729  0.1491 -1.8803  0.3059
13388SOL    HW241453   3.241   5.525   5.877  0.4169  0.2064  0.3493
13389SOL     OW41454   8.415   2.408   7.996 -0.3354  0.0967 -0.1185
13389SOL    HW141455   8.346   2.445   8.051 -0.5278 -1.8610  1.0358
13389SOL    HW241456   8.434   2.323   8.035  2.3669  0.3248 -0.7139
13390SOL     OW41457   6.726   3.588   7.128 -0.1749  0.0628 -0.2611
13390SOL    HW141458   6.668   3.527   7.175 -1.4349  0.6001 -1.0614
13390SOL    HW241459   6.813   3.571   7.164 -1.0392  0.3322  2.1550
13391SOL     OW41460   6.059   4.428   5.104 -0.7244  0.0748 -0.0501
13391SOL    HW141461   6.100   4.342   5.096 -2.7164 -0.7858 -2.5102
13391SOL    HW241462   6.096   4.479   5.031 -0.0805  1.1088  0.9669
13392SOL     OW41463   7.770   5.099   5.306 -0.1709 -0.1102  0.2447
13392SOL    HW141464   7.681   5.071   5.328 -0.5898 -0.2744 -1.5176
13392SOL    HW241465   7.813   5.019   5.276 -1.0255  0.6966 -3.7340
13393SOL     OW41466   5.779   1.076   5.164  0.4571 -0.5472 -0.1287
13393SOL    HW141467   5.874   1.072   5.152  0.5609 -1.5089  0.8545
13393SOL    HW241468   5.758   1.169   5.160  1.0941 -0.4429 -2.7580
13394SOL     OW41469   4.206   5.236   7.055  0.2691 -0.3413 -0.0779
13394SOL    HW141470   4.165   5.306   7.004  1.9521  0.1601 -0.8109
13394SOL    HW241471   4.134   5.177   7.076 -0.3958 -1.2475 -4.0889
13395SOL     OW41472   1.514   1.537   4.945  0.1111  0.0046  0.7093
13395SOL    HW141473   1.452   1.507   5.012  0.2779  0.7208  1.2037
13395SOL    HW241474   1.564   1.459   4.921 -1.8269 -0.8997 -0.6531
13396SOL     OW41475   2.034   6.011   2.322  0.5481 -0.0598 -0.3736
13396SOL    HW141476   2.046   5.924   2.286  0.5386 -0.7690  1.2759
13396SOL    HW241477   1.954   6.043   2.280 -0.1421 -1.3360 -0.0751
13397SOL     OW41478   4.014   0.342   2.069 -0.3171 -0.0931 -0.1800
13397SOL    HW141479   3.968   0.338   2.152  0.8155  0.2876  0.4917
13397SOL    HW241480   3.981   0.421   2.027  1.6438  1.7356  1.5204
13398SOL     OW41481   4.642   2.118   7.976 -0.7292  0.4783 -0.4825
13398SOL    HW141482   4.666   2.029   7.948  1.3562  0.2581  1.6806
13398SOL    HW241483   4.627   2.165   7.894  0.7154 -1.2054 -1.8075
13399SOL     OW41484   7.751   8.546   1.783 -0.4924  0.2999 -0.7498
13399SOL    HW141485   7.724   8.533   1.693  1.3720  0.4513 -1.3754
13399SOL    HW241486   7.837   8.505   1.789  0.0762  1.5702  0.5474
13400SOL     OW41487   1.721   8.308   6.470  0.3534  0.3200  0.2882
13400SOL    HW141488   1.756   8.397   6.477 -1.6254  1.1854 -0.1293
13400SOL    HW241489   1.626   8.320   6.469  0.0470 -1.6600 -1.3638
13401SOL     OW41490   0.204   2.811   8.178 -0.2866 -0.3065 -0.1708
13401SOL    HW141491   0.247   2.797   8.093 -1.6586  1.6748 -1.2592
13401SOL    HW241492   0.276   2.829   8.238  0.7280 -1.9416 -0.8259
13402SOL     OW41493   2.832   7.395   7.922  0.0775  0.2209 -0.0867
13402SOL    HW141494   2.798   7.483   7.903 -0.4353  0.1755  0.6136
13402SOL    HW241495   2.851   7.358   7.835 -0.8135  0.5841 -0.4521
13403SOL     OW41496   0.608   5.256   8.630 -0.8488 -0.3265  0.1515
13403SOL    HW141497   0.565   5.193   8.688  0.8768 -0.3794  1.4473
13403SOL    HW241498   0.623   5.333   8.685  1.7868 -0.7740  0.1709
13404SOL     OW41499   0.434   7.626   3.382  0.1195 -0.0575 -0.9540
13404SOL    HW141500   0.400   7.542   3.411 -2.4284  1.0951 -0.2664
13404SOL    HW241501   0.513   7.640   3.433 -0.6004 -1.0943  0.5177
13405SOL     OW41502   0.352   1.641   2.567 -0.2864  0.6088 -0.0324
13405SOL    HW141503   0.346   1.551   2.598 -1.3730  0.4612 -0.6170
13405SOL    HW241504   0.261   1.666   2.550 -0.1141  2.1424  1.0388
13406SOL     OW41505   7.098   1.464   8.188 -0.0218 -0.2870  0.4239
13406SOL    HW141506   7.162   1.410   8.235  0.9309  0.8356  0.4601
13406SOL    HW241507   7.061   1.521   8.255 -1.3073 -1.1205  0.4561
13407SOL     OW41508   7.987   7.488   2.725  0.3402  0.2060  0.1393
13407SOL    HW141509   7.995   7.573   2.769 -1.5168  1.3591 -1.5845
13407SOL    HW241510   8.045   7.430   2.775  1.7447  2.4741  1.3275
13408SOL     OW41511   7.806   6.089   4.721 -0.2498  0.9169  0.0027
13408SOL    HW141512   7.747   6.116   4.791 -0.3520  1.3568 -0.2486
13408SOL    HW241513   7.827   6.170   4.674  1.4887  0.9648  0.7804
13409SOL     OW41514   5.557   7.619   7.627 -0.3799  0.6227 -0.0039
13409SOL    HW141515   5.485   7.653   7.679 -1.5318 -0.5357 -0.7565
13409SOL    HW241516   5.520   7.612   7.538  1.0708  1.2007 -0.6831
13410SOL     OW41517   0.615   6.596   7.274  0.6569  0.4430 -0.2880
13410SOL    HW141518   0.578   6.598   7.363 -0.8829  0.7252 -0.9120
13410SOL    HW241519   0.552   6.645   7.221  1.2164 -0.3099 -1.6752
13411SOL     OW41520   1.813   5.064   2.945 -0.4800 -0.0105 -0.2195
13411SOL    HW141521   1.744   5.103   2.999 -1.1419 -1.2961 -0.1118
13411SOL    HW241522   1.890   5.119   2.961 -0.6836 -0.2610  1.9135
13412SOL     OW41523   5.492   4.136   4.154 -0.2569  0.0773 -0.0205
13412SOL    HW141524   5.418   4.179   4.198  0.3853 -0.8073  2.0394
13412SOL    HW241525   5.567   4.193   4.173  0.5015 -1.5384  2.2922
13413SOL     OW41526   3.150   8.126   1.350 -0.0803  0.5986  0.4362
13413SOL    HW141527   3.186   8.121   1.262 -1.0944 -1.8951  0.0931
13413SOL    HW241528   3.228   8.124   1.407  0.4939 -0.7401 -0.3572
13414SOL     OW41529   5.119   2.136   5.983 -0.0268  0.1486  0.1187
13414SOL    HW141530   5.181   2.081   6.030  0.1403 -0.2443 -0.5421
13414SOL    HW241531   5.054   2.161   6.048  0.5984  0.2303  0.7226
13415SOL     OW41532   7.351   3.757   7.333  0.2166  0.4814  0.0986
13415SOL    HW141533   7.385   3.745   7.244  0.4803 -2.5530  0.4989
13415SOL    HW241534   7.258   3.774   7.322  0.4618  1.2922 -0.7866
13416SOL     OW41535   8.347   3.533   1.269 -0.1265  0.4353 -0.3210
13416SOL    HW141536   8.305   3.567   1.190 -0.7615 -1.3133 -0.7571
13416SOL    HW241537   8.325   3.598   1.337 -0.7380  1.2377 -1.2530
13417SOL     OW41538   2.221   5.384   4.637 -0.3412  0.2406  0.0769
13417SOL    HW141539   2.287   5.383   4.567  0.5791 -1.4460  0.9042
13417SOL    HW241540   2.137   5.388   4.591  0.2761  0.6819 -1.0563
13418SOL     OW41541   2.198   7.728   2.019  0.1541  0.5842 -0.1048
13418SOL    HW141542   2.279   7.691   1.985  0.0630 -0.5989  0.9120
13418SOL    HW241543   2.181   7.803   1.962 -0.6773 -1.9673 -3.5273
13419SOL     OW41544   3.727   6.158   6.158  0.3390  0.2784 -0.9856
13419SOL    HW141545   3.723   6.163   6.062 -0.3933  1.1048 -0.9184
13419SOL    HW241546   3.710   6.065   6.177  2.1969 -0.2589 -1.7167
13420SOL     OW41547   4.994   4.494   2.294 -0.0736  0.6033 -0.3469
13420SOL    HW141548   4.913   4.454   2.262  0.3365 -2.4642  1.9828
13420SOL    HW241549   5.064   4.448   2.247  0.3761  0.5134  0.3982
13421SOL     OW41550   8.652   2.517   8.663 -0.0313  0.1278  0.1013
13421SOL    HW141551   8.561   2.529   8.690 -0.2644 -1.4606  0.0799
13421SOL    HW241552   8.702   2.573   8.723 -1.0623  1.7678 -0.4960
13422SOL     OW41553   0.162   6.775   5.780 -0.0051 -0.0787 -0.3985
13422SOL    HW141554   0.227   6.839   5.807  1.3235 -0.8519 -1.6241
13422SOL    HW241555   0.180   6.760   5.687 -0.9029 -1.5065 -0.3743
13423SOL     OW41556   8.119   7.387   4.250 -0.4600  0.0281  0.4337
13423SOL    HW141557   8.037   7.432   4.232 -0.5971 -0.0921  0.7593
13423SOL    HW241558   8.184   7.458   4.256 -0.1872  0.0266 -1.6121
13424SOL     OW41559   1.403   5.141   4.000 -0.3445  0.3429  0.6150
13424SOL    HW141560   1.403   5.122   3.906  0.6973  1.2107  0.4260
13424SOL    HW241561   1.481   5.096   4.033 -0.3686  0.5434  0.9455
13425SOL     OW41562   8.336   4.325   4.068 -0.6212 -0.1622 -0.2179
13425SOL    HW141563   8.317   4.326   4.162 -0.8417  0.0829 -0.2636
13425SOL    HW241564   8.416   4.273   4.060 -0.6580 -0.2666  0.0954
13426SOL     OW41565   7.759   4.431   2.538  0.0829 -0.0949  0.1763
13426SOL    HW141566   7.743   4.343   2.572 -1.5588  0.1699  0.1531
13426SOL    HW241567   7.751   4.488   2.614  1.7992  0.0149  0.3218
13427SOL     OW41568   1.988   7.675   0.641  0.1395 -0.4336 -0.2853
13427SOL    HW141569   2.043   7.602   0.611 -0.0460 -0.6516 -0.1043
13427SOL    HW241570   2.047   7.729   0.693  0.1423 -0.7705  0.0715
13428SOL     OW41571   7.056   2.880   6.348  0.1597  0.4787  0.7073
13428SOL    HW141572   7.084   2.789   6.360 -0.3285  0.2208 -0.0421
13428SOL    HW241573   7.130   2.923   6.305  0.3958  0.4487  1.0741
13429SOL     OW41574   6.003   4.011   3.869 -0.3163  0.2746 -0.1561
13429SOL    HW141575   5.917   4.034   3.903 -0.1024  0.2818  0.3886
13429SOL    HW241576   5.986   3.947   3.799 -0.6201 -2.2840  2.0856
13430SOL     OW41577   4.938   2.186   7.766  0.0239 -0.2296 -0.3134
13430SOL    HW141578   4.896   2.182   7.680  0.0564  0.8897 -0.4017
13430SOL    HW241579   4.997   2.111   7.768  0.4098  0.0265 -1.4683
13431SOL     OW41580   4.035   0.360   5.604  0.1029 -0.2485 -0.2939
13431SOL    HW141581   4.106   0.312   5.561 -0.0869 -1.5915  0.8232
13431SOL    HW241582   3.966   0.295   5.616 -0.7196  0.6591  0.0018
13432SOL     OW41583   1.270   2.253   6.405 -0.2651  0.2163 -0.8938
13432SOL    HW141584   1.359   2.227   6.381  1.1959  1.0143  2.9078
13432SOL    HW241585   1.220   2.172   6.406  1.2906 -0.7614  0.0234
13433SOL     OW41586   1.687   0.670   3.351  0.1780 -0.0934  0.1441
13433SOL    HW141587   1.721   0.742   3.298  0.9956  1.2975  2.4510
13433SOL    HW241588   1.594   0.691   3.363  0.6287  1.1868  1.6589
13434SOL     OW41589   5.605   6.774   7.398  0.2807 -0.1962 -0.3371
13434SOL    HW141590   5.595   6.869   7.393 -1.2208 -0.2378  1.1555
13434SOL    HW241591   5.626   6.747   7.308 -1.9599  1.2789 -1.3928
13435SOL     OW41592   1.404   8.593   5.531  0.0507 -0.0513 -0.5661
13435SOL    HW141593   1.427   8.509   5.490 -0.4418 -0.5132  0.0662
13435SOL    HW241594   1.394   8.572   5.624 -0.6186  0.5926 -0.4805
13436SOL     OW41595   6.089   1.718   6.465  0.4558  0.0723  0.9629
13436SOL    HW141596   6.048   1.671   6.537 -0.8619  0.5753  0.5760
13436SOL    HW241597   6.180   1.690   6.466  0.2922 -0.4601  2.3755
13437SOL     OW41598   1.289   8.428   0.650 -0.8161 -0.6291 -0.0556
13437SOL    HW141599   1.327   8.467   0.728 -0.4360 -1.7294  0.3266
13437SOL    HW241600   1.281   8.501   0.588  0.6577 -0.1016  0.3317
13438SOL     OW41601   0.329   7.243   5.123  0.4140  0.4831  0.3442
13438SOL    HW141602   0.252   7.252   5.067  0.3412  1.1770  0.5428
13438SOL    HW241603   0.303   7.179   5.189  0.7787 -0.9820 -0.8558
13439SOL     OW41604   8.170   7.773   8.707  0.1754  0.2002  0.1436
13439SOL    HW141605   8.154   7.777   8.613  1.2640 -0.2850 -0.0710
13439SOL    HW241606   8.105   7.711   8.740  1.8542 -2.1913 -0.8048
13440SOL     OW41607   7.917   2.731   7.871  0.1106 -0.1811  0.3333
13440SOL    HW141608   7.891   2.640   7.861 -2.0623  0.4523 -0.2666
13440SOL    HW241609   7.848   2.770   7.925  0.9689  1.1371  0.5346
13441SOL     OW41610   6.901   6.216   8.003 -0.1909 -0.2962  0.0278
13441SOL    HW141611   6.883   6.148   8.068  1.0086  0.3293  1.0585
13441SOL    HW241612   6.926   6.168   7.925 -0.7423 -1.0540  0.2995
13442SOL     OW41613   2.594   3.326   2.047  0.1148  0.3123 -0.3824
13442SOL    HW141614   2.674   3.273   2.039 -0.2071 -0.7805  2.3718
13442SOL    HW241615   2.574   3.353   1.958  3.3983  0.4269 -1.2181
13443SOL     OW41616   5.090   8.412   0.056 -0.0425  0.8830 -0.4188
13443SOL    HW141617   5.097   8.492   0.004 -0.2423  1.2083  0.0511
13443SOL    HW241618   5.028   8.433   0.125 -1.1530 -0.1094 -1.0774
13444SOL     OW41619   3.426   5.834   7.061  0.3243 -0.0063  0.2387
13444SOL    HW141620   3.446   5.741   7.072  0.1861 -0.2122 -1.0486
13444SOL    HW241621   3.375   5.838   6.980 -1.4760  0.9622  1.3576
13445SOL     OW41622   4.782   1.355   0.881 -0.3101 -0.3830  0.6627
13445SOL    HW141623   4.721   1.289   0.915 -0.1693  0.1092  1.9080
13445SOL    HW241624   4.727   1.416   0.833 -0.7929 -0.0384  1.6301
13446SOL     OW41625   4.557   4.953   6.198  0.2092 -0.2858 -0.2415
13446SOL    HW141626   4.580   5.045   6.181 -0.0472 -0.2822 -0.5631
13446SOL    HW241627   4.617   4.927   6.268  1.8380 -0.5385 -1.6518
13447SOL     OW41628   0.844   1.174   2.139  0.0534 -0.2658  0.5308
13447SOL    HW141629   0.826   1.234   2.212  1.4629  1.0551 -0.1419
13447SOL    HW241630   0.939   1.160   2.143  0.1121 -0.4018 -0.8630
13448SOL     OW41631   3.148   8.107   3.919 -0.0399 -0.4148 -0.3005
13448SOL    HW141632   3.210   8.167   3.876  0.5949 -1.2289 -0.5357
13448SOL    HW241633   3.187   8.091   4.005 -0.5477  0.0124  0.0222
13449SOL     OW41634   5.153   7.017   6.021  0.2217 -0.2693 -0.7596
13449SOL    HW141635   5.077   7.018   6.079  0.4522  0.7275 -0.4572
13449SOL    HW241636   5.168   6.924   6.002  0.7291 -0.7178  1.5677
13450SOL     OW41637   6.621   5.625   1.862  0.3327 -0.4334  0.3366
13450SOL    HW141638   6.544   5.574   1.888  0.1260  0.9368  2.7116
13450SOL    HW241639   6.693   5.588   1.914  0.6030  0.2893  0.4942
13451SOL     OW41640   7.433   6.412   6.215  0.2310 -0.0320  0.7118
13451SOL    HW141641   7.416   6.336   6.270 -1.4502  0.0142  0.3109
13451SOL    HW241642   7.521   6.398   6.180  0.8968 -0.5768  2.5391
13452SOL     OW41643   5.466   7.308   1.305  0.8009 -0.5354  0.0384
13452SOL    HW141644   5.441   7.388   1.352 -0.2504 -0.9960  0.2833
13452SOL    HW241645   5.488   7.338   1.217  3.3639  0.4300  0.9038
13453SOL     OW41646   6.593   2.411   3.570 -0.8538 -0.0667 -0.9371
13453SOL    HW141647   6.661   2.466   3.532  0.7816 -0.3663  1.3314
13453SOL    HW241648   6.524   2.472   3.596 -0.1612  0.6098 -0.6713
13454SOL     OW41649   7.394   0.354   5.897 -0.3899  0.0206  0.1288
13454SOL    HW141650   7.470   0.299   5.877  1.1141  1.7635  0.6654
13454SOL    HW241651   7.321   0.314   5.850  1.3793 -0.3233 -2.5410
13455SOL     OW41652   2.983   8.077   1.762 -0.3900 -0.5234 -0.3612
13455SOL    HW141653   3.015   8.031   1.685  1.5704  1.7569 -1.0408
13455SOL    HW241654   2.927   8.146   1.727  2.8853  2.4903 -0.2268
13456SOL     OW41655   3.956   2.649   2.338 -0.1933 -0.4624 -0.3466
13456SOL    HW141656   3.937   2.741   2.353  1.2962  0.0618 -1.4824
13456SOL    HW241657   3.869   2.607   2.333 -1.0397  1.3422 -2.6233
13457SOL     OW41658   4.965   5.645   4.810 -0.0106 -0.0960 -0.4458
13457SOL    HW141659   4.905   5.584   4.852 -1.1236  0.7271 -0.7804
13457SOL    HW241660   4.908   5.715   4.778  0.8862 -0.2311 -2.4791
13458SOL     OW41661   1.976   3.894   6.771 -1.0562  0.0139  0.1975
13458SOL    HW141662   2.060   3.865   6.736 -1.0928  0.7648 -0.5420
13458SOL    HW241663   1.913   3.874   6.702 -1.2729  0.6905  0.1903
13459SOL     OW41664   0.813   0.595   6.410  0.3332 -0.1067 -0.0901
13459SOL    HW141665   0.882   0.556   6.356  0.9636 -1.3458  1.5587
13459SOL    HW241666   0.856   0.616   6.493 -0.8991  0.6333  0.3869
13460SOL     OW41667   6.430   1.726   4.403  0.4780 -0.3515 -0.4240
13460SOL    HW141668   6.409   1.817   4.420 -0.2741 -0.7896  1.2394
13460SOL    HW241669   6.405   1.712   4.311  1.7835  1.3840 -1.0966
13461SOL     OW41670   2.741   7.925   5.488 -0.0064 -0.1382 -0.0199
13461SOL    HW141671   2.656   7.966   5.505  0.4116  1.1752 -0.9430
13461SOL    HW241672   2.740   7.844   5.540 -1.4068  0.3670  0.7798
13462SOL     OW41673   1.080   1.815   7.632  0.4557 -0.2240  0.7675
13462SOL    HW141674   1.040   1.902   7.625 -1.4529 -1.1261 -0.9866
13462SOL    HW241675   1.132   1.818   7.712  0.3798  2.4826  0.8066
13463SOL     OW41676   7.045   5.022   3.287 -0.2510  0.0505 -0.2293
13463SOL    HW141677   7.055   5.003   3.193 -0.3140 -0.9434 -0.0453
13463SOL    HW241678   6.952   5.044   3.297 -0.7587 -2.0403 -0.0499
13464SOL     OW41679   7.062   6.725   6.560 -0.0882  0.0084  0.8039
13464SOL    HW141680   7.024   6.655   6.613  1.2736 -0.6763  0.9294
13464SOL    HW241681   7.089   6.792   6.623  0.7850 -0.4397  0.9184
13465SOL     OW41682   8.555   6.051   0.063 -0.1011  0.3516  0.5934
13465SOL    HW141683   8.593   5.964   0.059 -1.7860 -0.4441  1.0725
13465SOL    HW241684   8.567   6.079   0.154 -1.7166 -0.4355  1.0811
13466SOL     OW41685   4.076   7.021   5.751  0.4569  0.0583  0.2107
13466SOL    HW141686   4.055   7.082   5.821  0.6900 -1.0802  1.3149
13466SOL    HW241687   3.993   6.977   5.732  0.7260 -0.8007  0.9571
13467SOL     OW41688   6.441   8.380   8.182  0.4205  0.2312 -0.6738
13467SOL    HW141689   6.370   8.346   8.127 -0.5531  0.8610  0.1387
13467SOL    HW241690   6.407   8.371   8.272  1.0520  1.2534 -0.3140
13468SOL     OW41691   0.953   2.297   6.872 -0.0085  0.7973  0.0639
13468SOL    HW141692   1.035   2.271   6.913  2.1317  2.3652 -2.8483
13468SOL    HW241693   0.939   2.232   6.803 -0.8127  0.9872  0.0340
13469SOL     OW41694   0.614   7.116   0.065 -0.0046  0.5613  0.0327
13469SOL    HW141695   0.666   7.172   0.007 -2.1604  1.5538 -1.0428
13469SOL    HW241696   0.586   7.173   0.136 -0.8790  0.4557 -0.2158
13470SOL     OW41697   2.646   6.001   8.411  0.3684 -0.1846 -0.6156
13470SOL    HW141698   2.736   5.993   8.443  0.9559  0.5710 -2.0008
13470SOL    HW241699   2.651   5.972   8.320 -1.4620 -3.3439  0.1435
13471SOL     OW41700   0.973   5.695   4.218  0.2876 -0.2170 -0.0562
13471SOL    HW141701   0.964   5.643   4.298  0.5439  0.2558  0.2830
13471SOL    HW241702   0.890   5.681   4.171  0.7713 -1.8001 -0.4994
13472SOL     OW41703   0.578   5.954   5.266 -0.1254  0.5374 -0.1224
13472SOL    HW141704   0.536   6.027   5.312 -1.7395 -0.3055 -0.2021
13472SOL    HW241705   0.659   5.991   5.231 -2.1472  3.0561 -2.5075
13473SOL     OW41706   1.776   2.014   1.699 -0.0303  1.0615  0.1915
13473SOL    HW141707   1.694   2.009   1.651 -0.0805 -1.7328  0.3716
13473SOL    HW241708   1.838   2.051   1.638 -0.8773  0.8408 -0.8297
13474SOL     OW41709   5.294   3.949   3.092  0.3490 -0.0478  0.1771
13474SOL    HW141710   5.357   3.878   3.101  1.9327  1.3108  0.3773
13474SOL    HW241711   5.311   4.006   3.167 -0.8968  0.5513  0.0373
13475SOL     OW41712   3.355   8.401   5.211  0.2069  0.0758  0.0351
13475SOL    HW141713   3.304   8.320   5.218  1.5503 -0.6808  1.9844
13475SOL    HW241714   3.368   8.429   5.301 -1.1299  3.1276 -0.6138
13476SOL     OW41715   0.184   4.323   5.531  0.2237  0.0249  0.2182
13476SOL    HW141716   0.106   4.355   5.487 -1.3331 -1.1581  1.9478
13476SOL    HW241717   0.214   4.398   5.583  0.3270  0.5208 -0.5447
13477SOL     OW41718   5.887   0.019   0.637  0.3523 -0.6276  0.0616
13477SOL    HW141719   5.810   0.069   0.665 -1.2232 -2.6469 -0.3765
13477SOL    HW241720   5.860  -0.020   0.553  1.5465 -2.0574  0.3066
13478SOL     OW41721   8.216   8.623   8.622  0.1224  0.0916  0.4835
13478SOL    HW141722   8.261   8.622   8.538 -0.6514 -0.2975  0.0608
13478SOL    HW241723   8.187   8.533   8.635 -1.5679  0.5448  0.1513
13479SOL     OW41724   1.144   8.016   3.749 -0.3551  0.2136 -0.0669
13479SOL    HW141725   1.144   8.110   3.764 -1.0565  0.3981 -1.0854
13479SOL    HW241726   1.237   7.993   3.742 -0.1871  1.1613 -1.5450
13480SOL     OW41727   1.785   7.763   6.608 -0.4176 -0.0016  0.3139
13480SOL    HW141728   1.876   7.785   6.624 -0.2388 -0.9418  0.6198
13480SOL    HW241729   1.743   7.772   6.694 -0.9927  2.0876 -0.1261
13481SOL     OW41730   0.899   0.008   3.823 -0.3873  0.0488 -0.7941
13481SOL    HW141731   0.875   0.069   3.754 -0.9356  2.2208  1.2185
13481SOL    HW241732   0.987   0.035   3.850 -0.8116  0.2495  0.4237
13482SOL     OW41733   2.288   2.028   4.120 -0.0995 -0.4753  0.4045
13482SOL    HW141734   2.273   2.100   4.182 -1.0120 -0.4850  0.2077
13482SOL    HW241735   2.353   2.063   4.059 -1.7454  0.8428 -0.6808
13483SOL     OW41736   1.568   7.881   2.926  0.0514 -0.3466 -0.3957
13483SOL    HW141737   1.502   7.816   2.904 -0.2630 -0.0764 -0.2552
13483SOL    HW241738   1.546   7.909   3.015 -0.4964  0.7675 -0.8578
13484SOL     OW41739   8.451   1.858   5.545  0.0427 -0.1562 -0.1978
13484SOL    HW141740   8.392   1.796   5.503 -0.2598 -0.2739  0.3939
13484SOL    HW241741   8.475   1.816   5.627  0.3341  0.2353 -0.0820
13485SOL     OW41742   0.046   2.488   2.637 -0.1107  0.8962 -0.4784
13485SOL    HW141743   0.057   2.448   2.551 -0.8536  0.8114 -0.5394
13485SOL    HW241744   0.095   2.432   2.696 -1.9680 -0.7473 -0.3964
13486SOL     OW41745   1.457   2.384   0.642  0.3898  0.1989 -0.3573
13486SOL    HW141746   1.540   2.395   0.688  0.4644  0.0614 -0.4617
13486SOL    HW241747   1.465   2.439   0.564  0.8606 -0.7893 -1.0116
13487SOL     OW41748   0.665   5.633   7.705 -0.2556  0.3215  0.3941
13487SOL    HW141749   0.743   5.635   7.649 -0.4862  1.9158  0.0640
13487SOL    HW241750   0.651   5.541   7.724  0.0860 -0.2499 -1.8168
13488SOL     OW41751   1.162   2.187   7.081 -0.7253  0.2197  0.8440
13488SOL    HW141752   1.234   2.218   7.136 -1.0839 -0.8296  1.9496
13488SOL    HW241753   1.099   2.151   7.142 -1.9050  0.5054 -0.1618
13489SOL     OW41754   3.164   4.992   5.771 -0.8038 -0.1794  0.2721
13489SOL    HW141755   3.179   4.898   5.783 -1.7351 -0.2692  0.8149
13489SOL    HW241756   3.089   4.997   5.711 -0.0555  0.2418 -0.6656
13490SOL     OW41757   4.873   7.319   6.447 -0.5738  0.3077 -0.2819
13490SOL    HW141758   4.924   7.305   6.527  0.2237  1.1399 -0.6263
13490SOL    HW241759   4.910   7.258   6.384  0.2186  1.0933 -0.6103
13491SOL     OW41760   2.240   2.686   3.193 -0.3297  0.0130  0.1526
13491SOL    HW141761   2.221   2.616   3.256  0.3237 -1.1194 -0.8524
13491SOL    HW241762   2.177   2.755   3.213 -2.6434 -1.8244 -0.3416
13492SOL     OW41763   6.148   4.838   7.773  0.3651 -0.9501 -0.2920
13492SOL    HW141764   6.181   4.824   7.861 -2.0423  0.6182  0.9500
13492SOL    HW241765   6.069   4.784   7.768  0.1135 -0.5200 -1.2709
13493SOL     OW41766   5.355   4.173   5.143  0.7735  0.0260 -0.2358
13493SOL    HW141767   5.273   4.153   5.187  0.2783 -0.9791 -1.5405
13493SOL    HW241768   5.415   4.198   5.213 -0.0637 -1.1872  0.9572
13494SOL     OW41769   0.276   8.705   2.981  0.3182 -0.4402 -0.5702
13494SOL    HW141770   0.192   8.709   3.027  0.0748 -2.5279 -0.7100
13494SOL    HW241771   0.338   8.677   3.048  0.6089 -0.3088 -0.7853
13495SOL     OW41772   2.782   1.246   4.370  0.5092 -0.1957 -0.8327
13495SOL    HW141773   2.848   1.276   4.308  1.1212  0.8853  0.2991
13495SOL    HW241774   2.699   1.277   4.334  0.7119 -0.6781 -1.7420
13496SOL     OW41775   6.194   4.351   0.047 -0.0571  0.3246 -0.9880
13496SOL    HW141776   6.250   4.428   0.058  0.6628  0.0324 -2.4181
13496SOL    HW241777   6.191   4.311   0.134 -1.4856  2.6188  0.1161
13497SOL     OW41778   3.549   2.892   3.996 -0.0756 -0.2324 -0.1329
13497SOL    HW141779   3.637   2.896   4.034 -0.5117  0.2022  0.8760
13497SOL    HW241780   3.560   2.842   3.915  0.7257 -2.0156  1.0257
13498SOL     OW41781   6.278   0.382   5.933  0.3420  0.6848  0.9234
13498SOL    HW141782   6.356   0.344   5.973  1.3578  0.1486 -1.4400
13498SOL    HW241783   6.281   0.354   5.842 -1.9188  1.7753  0.4428
13499SOL     OW41784   3.677   2.803   4.987  0.6405  0.1961 -0.5659
13499SOL    HW141785   3.601   2.857   4.966 -0.5211  0.1058  2.6928
13499SOL    HW241786   3.743   2.866   5.018  0.2770 -0.0017  0.6601
13500SOL     OW41787   8.284   6.556   4.211 -0.3950  0.0604  0.3434
13500SOL    HW141788   8.202   6.595   4.241  0.3135  0.2069  2.1923
13500SOL    HW241789   8.344   6.566   4.284  0.7429 -1.7156 -0.2769
13501SOL     OW41790   1.610   5.619   3.283 -0.4869  0.2807 -0.3597
13501SOL    HW141791   1.547   5.659   3.343  0.4118 -0.6979  1.2909
13501SOL    HW241792   1.684   5.680   3.282 -0.1555 -0.1060  0.1973
13502SOL     OW41793   6.958   6.030   4.484 -0.5547  0.4029  0.2192
13502SOL    HW141794   7.031   5.971   4.464 -1.1022 -0.1045 -0.3301
13502SOL    HW241795   6.935   6.068   4.399 -1.8412 -0.5188  0.1344
13503SOL     OW41796   0.823   2.926   7.180  0.3229  0.4320  0.7048
13503SOL    HW141797   0.805   2.842   7.137 -0.2531  0.4121  0.9852
13503SOL    HW241798   0.778   2.921   7.264  0.5577  0.8983  0.8644
13504SOL     OW41799   2.575   8.612   4.723 -0.2395  0.0699  0.0005
13504SOL    HW141800   2.539   8.638   4.808 -0.7199  0.6583 -0.3799
13504SOL    HW241801   2.502   8.572   4.677  0.3703 -1.6082  0.3972
13505SOL     OW41802   3.976   6.555   1.271  0.4719 -0.2080  0.4443
13505SOL    HW141803   4.064   6.518   1.265  1.3096  1.6243  0.9130
13505SOL    HW241804   3.918   6.478   1.270  2.0788 -1.4832  0.6893
13506SOL     OW41805   3.501   0.793   5.098  0.5698  0.3264  0.2851
13506SOL    HW141806   3.577   0.775   5.154  0.5350  0.0820  0.2585
13506SOL    HW241807   3.426   0.785   5.157  0.6564  2.6146  0.7936
13507SOL     OW41808   2.901   4.208   2.557 -0.5542 -0.2747 -0.6496
13507SOL    HW141809   2.961   4.140   2.527 -0.6541 -0.7473  0.1787
13507SOL    HW241810   2.902   4.274   2.488 -0.4755 -1.1317 -1.4802
13508SOL     OW41811   0.464   3.956   2.015 -0.3240 -0.1204  0.1124
13508SOL    HW141812   0.523   4.032   2.015 -0.3404 -0.1080 -0.6669
13508SOL    HW241813   0.504   3.894   1.954  0.8151 -1.6378  2.2646
13509SOL     OW41814   4.253   8.345   0.404 -0.6157  0.3819  0.1921
13509SOL    HW141815   4.333   8.364   0.355 -1.3176  0.3136 -1.0181
13509SOL    HW241816   4.191   8.314   0.338 -1.6352  0.3955  1.1106
13510SOL     OW41817   6.083   3.716   1.482 -0.0394  0.0070 -0.3894
13510SOL    HW141818   6.077   3.702   1.387 -0.7648  2.1221 -0.7246
13510SOL    HW241819   6.159   3.774   1.492 -1.2589  1.6209  0.0113
13511SOL     OW41820   4.119   5.289   2.851  0.3416  0.1354 -0.5919
13511SOL    HW141821   4.213   5.280   2.837  0.6855  0.4655  1.2220
13511SOL    HW241822   4.092   5.358   2.791  1.6494  1.3946  0.2196
13512SOL     OW41823   3.219   6.041   1.434  0.4204  0.4377  0.8445
13512SOL    HW141824   3.188   6.116   1.382  0.5797 -0.0736 -0.0050
13512SOL    HW241825   3.214   5.967   1.374 -0.1217 -0.3163  1.7980
13513SOL     OW41826   4.975   3.311   6.972 -0.0923 -0.2134  0.3510
13513SOL    HW141827   5.011   3.318   6.884  1.0931  0.1351  0.8468
13513SOL    HW241828   4.919   3.234   6.968 -0.3343 -0.0075 -0.7927
13514SOL     OW41829   7.369   0.084   5.554  0.2696 -0.2321  0.4941
13514SOL    HW141830   7.450   0.100   5.602  0.5441  0.7171 -0.2366
13514SOL    HW241831   7.391   0.017   5.490  1.0669  1.3754 -1.0064
13515SOL     OW41832   3.299   7.653   8.609 -0.6730  0.4997 -0.1230
13515SOL    HW141833   3.248   7.730   8.638  0.0707  1.1220 -0.4255
13515SOL    HW241834   3.352   7.686   8.536 -1.5366 -0.7090 -1.3530
13516SOL     OW41835   0.918   6.511   7.817 -0.3447  0.2092 -0.1864
13516SOL    HW141836   0.851   6.571   7.786 -1.1206 -2.0624 -3.4207
13516SOL    HW241837   0.993   6.528   7.760 -0.3160 -1.2479 -0.6250
13517SOL     OW41838   6.361   3.069   5.916  0.0840 -0.0850  0.1846
13517SOL    HW141839   6.275   3.087   5.953 -0.9308 -2.9456 -0.5656
13517SOL    HW241840   6.421   3.081   5.989 -0.5447  3.9191  0.2724
13518SOL     OW41841   1.650   1.064   8.041  0.0743  0.0557 -0.4025
13518SOL    HW141842   1.639   1.151   8.081 -0.9236 -0.2880  0.1145
13518SOL    HW241843   1.730   1.071   7.990  0.1099  1.2325 -0.2189
13519SOL     OW41844   3.879   3.267   1.021  0.3420  0.0205 -0.0669
13519SOL    HW141845   3.893   3.316   0.940 -0.1388 -0.9344 -0.7496
13519SOL    HW241846   3.948   3.202   1.022  1.0769  0.7823  0.9190
13520SOL     OW41847   7.854   0.205   1.121  0.0544  0.1956  0.0062
13520SOL    HW141848   7.863   0.249   1.037  0.5113  0.5469  0.2324
13520SOL    HW241849   7.900   0.262   1.183 -0.8430  0.2780  0.6134
13521SOL     OW41850   1.698   1.000   8.355  0.1135  0.1034 -0.1422
13521SOL    HW141851   1.662   1.076   8.401  0.8085  0.0209  0.5551
13521SOL    HW241852   1.621   0.958   8.315 -0.6446 -0.2711  1.5943
13522SOL     OW41853   8.706   6.316   2.297  0.0536 -0.0081  0.2070
13522SOL    HW141854   8.790   6.341   2.334 -0.4188 -0.3033  1.5519
13522SOL    HW241855   8.710   6.343   2.205  1.9868 -0.9578 -0.0203
13523SOL     OW41856   8.637   6.594   2.481 -0.3930  0.1593 -0.4183
13523SOL    HW141857   8.721   6.549   2.494  0.3807  1.8087  0.7679
13523SOL    HW241858   8.662   6.679   2.444 -1.6943  0.1168 -1.4466
13524SOL     OW41859   8.552   8.220   3.507  0.0150  0.0304 -0.3349
13524SOL    HW141860   8.621   8.155   3.526 -0.1316  0.1523  0.6564
13524SOL    HW241861   8.472   8.179   3.539 -0.0011  0.9171  0.8012
13525SOL     OW41862   1.179   6.522   5.088  0.7974 -0.0499  0.3317
13525SOL    HW141863   1.238   6.509   5.013  0.6138  0.5995  0.0630
13525SOL    HW241864   1.157   6.615   5.084 -0.0947 -0.2475  0.5394
13526SOL     OW41865   3.689   0.969   4.767 -0.2299 -0.2364  1.0396
13526SOL    HW141866   3.749   0.905   4.804 -0.5869 -1.4203 -0.3328
13526SOL    HW241867   3.647   0.924   4.694 -2.4841  0.6897  1.6708
13527SOL     OW41868   1.585   3.096   5.215  0.5173  0.2625 -0.1212
13527SOL    HW141869   1.503   3.098   5.266  0.1105  0.8679 -0.7844
13527SOL    HW241870   1.649   3.140   5.271  0.6282 -0.9713  0.7759
13528SOL     OW41871   7.957   3.353   6.205 -0.1014 -0.1975  0.5736
13528SOL    HW141872   7.980   3.439   6.240  0.9302  0.1492 -0.8800
13528SOL    HW241873   7.911   3.371   6.124 -1.6071 -1.0082  1.2074
13529SOL     OW41874   6.020   6.635   1.683  0.5805  0.0289 -0.3126
13529SOL    HW141875   5.965   6.566   1.645 -1.6851  0.7618  1.3922
13529SOL    HW241876   6.105   6.593   1.695 -0.2077 -1.9131 -0.9580
13530SOL     OW41877   3.624   2.606   4.440 -0.2810  0.1116 -0.2549
13530SOL    HW141878   3.531   2.626   4.451 -0.2551  0.2822 -0.3480
13530SOL    HW241879   3.669   2.688   4.458 -0.0930 -0.1579  0.5574
13531SOL     OW41880   4.690   3.096   0.274  0.3411 -0.1045 -0.8329
13531SOL    HW141881   4.648   3.032   0.331  0.1390  1.5240  0.9611
13531SOL    HW241882   4.650   3.180   0.299  1.1073  0.8364 -2.5783
13532SOL     OW41883   5.338   6.412   1.737  0.4916 -0.3070 -0.4380
13532SOL    HW141884   5.385   6.488   1.704 -1.6843  0.6241 -1.5772
13532SOL    HW241885   5.274   6.392   1.669 -2.1372 -0.2149  1.8325
13533SOL     OW41886   0.377   5.225   0.438  0.6955  0.4065 -0.7287
13533SOL    HW141887   0.361   5.267   0.353 -0.6612  0.8304 -0.2969
13533SOL    HW241888   0.390   5.298   0.499  2.4266  0.0892 -0.6853
13534SOL     OW41889   7.816   4.537   1.883 -0.1913  0.5227 -0.7388
13534SOL    HW141890   7.808   4.616   1.935  1.4382 -0.2300  0.7864
13534SOL    HW241891   7.771   4.470   1.934  2.8870 -0.6072  0.7421
13535SOL     OW41892   4.043   0.561   0.308 -0.0272 -0.3688 -0.5686
13535SOL    HW141893   4.032   0.547   0.402  0.7982 -1.5641 -0.6317
13535SOL    HW241894   3.971   0.619   0.284 -0.5501 -0.4587  0.7070
13536SOL     OW41895   2.714   5.760   8.641  0.4497 -0.0196  0.0227
13536SOL    HW141896   2.764   5.826   8.594 -1.0141  0.2297 -1.3017
13536SOL    HW241897   2.631   5.803   8.662 -0.1104 -1.0807  0.0869
13537SOL     OW41898   4.607   4.965   5.062 -0.2170 -0.4810  0.1378
13537SOL    HW141899   4.540   4.914   5.017  1.3584 -1.5604 -1.1117
13537SOL    HW241900   4.689   4.918   5.044  1.0255  1.3438  0.7228
13538SOL     OW41901   0.915   2.043   1.506 -0.0770 -0.0309  0.4595
13538SOL    HW141902   0.836   2.056   1.453  1.1087  1.6789 -1.0368
13538SOL    HW241903   0.903   1.958   1.547 -1.4975 -1.0581 -1.8927
13539SOL     OW41904   0.653   0.395   0.253  0.1951 -0.1693  0.0518
13539SOL    HW141905   0.681   0.344   0.329 -0.7526 -0.6451  0.0980
13539SOL    HW241906   0.571   0.436   0.280 -1.0742 -1.7168 -1.2571
13540SOL     OW41907   5.209   5.110   4.198  0.7512 -0.0319 -0.1201
13540SOL    HW141908   5.129   5.160   4.183  0.7343  0.2465  0.8779
13540SOL    HW241909   5.180   5.030   4.241  1.0314  0.2012  0.5123
13541SOL     OW41910   1.522   3.766   3.618  0.5196  0.7178  0.1722
13541SOL    HW141911   1.600   3.806   3.580  0.0717  2.5491  1.0579
13541SOL    HW241912   1.484   3.714   3.547  1.0684  2.0225 -1.1224
13542SOL     OW41913   2.989   0.129   4.745  0.3501 -0.4201  0.0355
13542SOL    HW141914   3.040   0.054   4.777 -0.5099 -1.0309  0.0336
13542SOL    HW241915   2.906   0.090   4.717 -0.0021  0.5064 -0.2313
13543SOL     OW41916   7.403   1.099   4.619 -0.2025  0.1809  0.5394
13543SOL    HW141917   7.331   1.043   4.648 -0.6480  1.0944  1.2267
13543SOL    HW241918   7.469   1.037   4.585 -0.3539 -0.8313  1.9853
13544SOL     OW41919   7.616   0.894   4.218 -0.2093  0.0474 -0.1999
13544SOL    HW141920   7.684   0.953   4.252 -0.7887  0.4893  0.2174
13544SOL    HW241921   7.538   0.949   4.211 -1.0443 -0.8939  1.1694
13545SOL     OW41922   0.485   2.048   5.216  0.0531 -0.2512 -0.1132
13545SOL    HW141923   0.490   2.054   5.311  0.7295 -2.3119  0.0367
13545SOL    HW241924   0.512   1.958   5.196  1.0521  0.4631 -2.3403
13546SOL     OW41925   1.435   0.123   4.550  0.2373 -0.0548 -0.0372
13546SOL    HW141926   1.343   0.149   4.548  0.1882 -0.2510 -0.7204
13546SOL    HW241927   1.466   0.141   4.461  0.3316 -1.8831 -0.4019
13547SOL     OW41928   2.564   5.828   3.584 -0.3186  0.3133  0.2378
13547SOL    HW141929   2.633   5.763   3.600 -0.4278  0.2340  0.3847
13547SOL    HW241930   2.538   5.813   3.493  0.1139  0.5877  0.0667
13548SOL     OW41931   4.775   5.512   8.712  0.8671 -0.5650 -0.4392
13548SOL    HW141932   4.846   5.467   8.665  1.0051 -1.9335  1.0000
13548SOL    HW241933   4.788   5.488   8.803 -0.8047  0.0769 -0.0002
13549SOL     OW41934   7.416   5.363   6.964 -0.3981 -0.3354  0.3931
13549SOL    HW141935   7.449   5.280   6.999 -1.2931 -0.9994 -0.2795
13549SOL    HW241936   7.324   5.346   6.947 -0.3594  0.4723 -0.7191
13550SOL     OW41937   4.881   3.580   5.067  0.1876  0.0307 -0.4496
13550SOL    HW141938   4.843   3.507   5.115  1.1674 -0.0668  0.1882
13550SOL    HW241939   4.837   3.577   4.981 -0.1793 -0.9601 -0.2409
13551SOL     OW41940   1.920   3.590   4.453  0.5269 -0.1881  0.3630
13551SOL    HW141941   1.953   3.504   4.478  0.2721  0.1166  1.8814
13551SOL    HW241942   1.997   3.648   4.460  0.3795 -0.0402  0.8062
13552SOL     OW41943   8.193   1.814   3.638  0.7524  0.3579 -0.3605
13552SOL    HW141944   8.217   1.875   3.567  1.1490  0.6013 -0.0210
13552SOL    HW241945   8.276   1.776   3.666  0.5028 -0.3630 -0.5832
13553SOL     OW41946   7.472   3.792   2.773  0.4457  0.0903  0.0969
13553SOL    HW141947   7.533   3.778   2.845 -0.6966  0.1032  1.0956
13553SOL    HW241948   7.393   3.744   2.798 -1.7191  3.7312  1.1726
13554SOL     OW41949   6.314   4.792   2.592  0.5194  0.3477  0.2542
13554SOL    HW141950   6.320   4.716   2.650 -0.6788 -0.7321 -0.9740
13554SOL    HW241951   6.227   4.786   2.553  1.4588  0.6892 -2.0651
13555SOL     OW41952   2.122   0.015   6.291 -0.1447  0.0067  0.3345
13555SOL    HW141953   2.156   0.074   6.224 -0.7695 -1.2184 -1.1339
13555SOL    HW241954   2.187   0.019   6.362  1.7498 -0.3610 -1.2989
13556SOL     OW41955   6.975   7.579   3.798 -0.2928 -0.2775  0.6601
13556SOL    HW141956   7.007   7.575   3.708 -0.2359 -1.2712  0.7189
13556SOL    HW241957   7.018   7.656   3.835  2.7433 -1.9765  0.9842
13557SOL     OW41958   6.886   1.238   4.523  0.0141 -0.0429 -0.1340
13557SOL    HW141959   6.903   1.331   4.507  2.6273 -0.3352  0.5647
13557SOL    HW241960   6.795   1.226   4.495 -0.3784  2.6779 -0.3532
13558SOL     OW41961   6.928   4.241   8.278  0.0092  0.1715 -0.1611
13558SOL    HW141962   6.931   4.146   8.272  2.3179  0.1121  0.9054
13558SOL    HW241963   6.964   4.272   8.195  0.7877  0.0429  0.1141
13559SOL     OW41964   3.259   1.371   5.504 -0.5220 -0.3296 -0.1281
13559SOL    HW141965   3.245   1.446   5.446 -0.7439  0.7687  1.2868
13559SOL    HW241966   3.182   1.370   5.560  1.4900  1.3176  2.9557
13560SOL     OW41967   3.111   4.806   4.005 -0.3179  0.3766 -0.3186
13560SOL    HW141968   3.126   4.900   4.005 -1.0523  0.5318 -2.3959
13560SOL    HW241969   3.191   4.769   4.044  0.4487  1.7903 -0.4967
13561SOL     OW41970   1.611   4.897   2.648 -0.8191  0.1880 -0.2383
13561SOL    HW141971   1.553   4.929   2.717  0.1867  0.9567  0.2766
13561SOL    HW241972   1.614   4.802   2.661 -0.9942  0.2769  0.4850
13562SOL     OW41973   1.850   4.458   4.264  0.2476 -0.0395 -0.3119
13562SOL    HW141974   1.769   4.473   4.312  0.3366  0.3279 -0.2672
13562SOL    HW241975   1.916   4.511   4.310  0.1632  0.9777 -1.2958
13563SOL     OW41976   8.474   2.153   8.445  0.1527 -0.0571  0.2298
13563SOL    HW141977   8.534   2.189   8.380 -1.0038  1.7011  0.0503
13563SOL    HW241978   8.411   2.224   8.461 -1.7271 -1.7145  0.5812
13564SOL     OW41979   5.035   8.108   0.280 -0.1597  0.0176 -0.1535
13564SOL    HW141980   4.993   8.079   0.361  0.4280  2.2618  1.0287
13564SOL    HW241981   4.962   8.119   0.219 -0.7675 -0.3996  0.4793
13565SOL     OW41982   3.574   4.195   7.019  0.3061 -0.4467 -0.3132
13565SOL    HW141983   3.487   4.222   6.989 -0.9176 -0.3106  2.9126
13565SOL    HW241984   3.557   4.117   7.072  1.7988  0.6681  1.9659
13566SOL     OW41985   1.996   1.666   6.887  0.3157 -0.1346 -0.0648
13566SOL    HW141986   2.039   1.699   6.967 -0.9200 -0.7732  0.9048
13566SOL    HW241987   2.068   1.642   6.829  1.2468  0.4912  0.7940
13567SOL     OW41988   2.790   8.184   5.107 -0.6118  0.1023  0.6661
13567SOL    HW141989   2.828   8.118   5.164  0.5581 -1.6129 -1.9178
13567SOL    HW241990   2.847   8.260   5.118  2.7000 -1.7872 -1.6641
13568SOL     OW41991   8.156   3.756   7.523  0.6318 -0.5629 -0.6072
13568SOL    HW141992   8.180   3.716   7.439  2.5244 -0.7773  0.0024
13568SOL    HW241993   8.185   3.693   7.589 -0.4657 -0.2061  0.2548
13569SOL     OW41994   7.324   7.040   3.365 -0.6417 -0.2203 -0.1176
13569SOL    HW141995   7.393   7.061   3.303 -0.2384  0.6409  0.6004
13569SOL    HW241996   7.260   6.990   3.314  1.3772 -2.7939 -0.3520
13570SOL     OW41997   7.282   7.182   5.091 -0.0445 -0.5670 -0.2418
13570SOL    HW141998   7.290   7.231   5.009 -0.2512  1.8756  1.0977
13570SOL    HW241999   7.372   7.172   5.122  0.0700 -1.8681 -0.9227
13571SOL     OW42000   7.060   2.180   5.297  0.1934 -0.3790  0.0592
13571SOL    HW142001   7.094   2.133   5.221  0.8171  1.5160 -0.9041
13571SOL    HW242002   7.123   2.250   5.312 -0.8364  0.3267  1.2382
13572SOL     OW42003   8.296   1.499   4.030  0.4968  0.2516 -0.8032
13572SOL    HW142004   8.310   1.490   3.936 -1.6570 -0.7045 -1.0831
13572SOL    HW242005   8.214   1.452   4.047 -0.2791  2.1785  1.2056
13573SOL     OW42006   5.423   2.764   2.320  0.3134 -0.1180 -0.2223
13573SOL    HW142007   5.484   2.825   2.361  1.5136 -0.4746 -1.4396
13573SOL    HW242008   5.370   2.819   2.262 -0.7377  0.2286  1.0048
13574SOL     OW42009   3.819   3.725   1.195  0.3887  0.5501  0.1747
13574SOL    HW142010   3.725   3.742   1.191  0.5300  1.7445  1.2181
13574SOL    HW242011   3.837   3.668   1.120 -1.0747  0.7035 -0.3182
13575SOL     OW42012   8.481   8.688   4.472 -0.8517 -0.6086  0.0686
13575SOL    HW142013   8.545   8.637   4.521  0.1293  1.0191  0.5702
13575SOL    HW242014   8.438   8.743   4.537 -2.4583 -1.3245 -0.3364
13576SOL     OW42015   3.140   7.812   4.462  0.1309  0.1686  0.1349
13576SOL    HW142016   3.102   7.780   4.544  0.8517 -1.3277 -0.0743
13576SOL    HW242017   3.204   7.877   4.489 -1.5654  1.7305  0.5644
13577SOL     OW42018   1.038   7.411   1.800  0.1831  1.1719  0.1620
13577SOL    HW142019   1.012   7.318   1.805 -0.1091  1.2991  1.4164
13577SOL    HW242020   0.955   7.459   1.801  0.3247  1.4615 -0.7107
13578SOL     OW42021   1.796   1.518   7.967 -0.3327 -0.9451 -0.2317
13578SOL    HW142022   1.783   1.491   7.876 -1.9452 -0.5186 -0.1602
13578SOL    HW242023   1.873   1.469   7.996 -0.3706 -1.8192 -1.5362
13579SOL     OW42024   2.532   5.887   5.671  0.4689 -0.3537  0.2152
13579SOL    HW142025   2.570   5.807   5.708  0.0965 -0.0063  1.3703
13579SOL    HW242026   2.605   5.949   5.669  0.6419 -0.5651 -0.2387
13580SOL     OW42027   5.819   2.545   0.265 -0.3673 -0.1818 -0.1859
13580SOL    HW142028   5.844   2.514   0.352 -0.5763 -1.9513 -0.7136
13580SOL    HW242029   5.882   2.503   0.206 -0.9045  0.1194 -0.9855
13581SOL     OW42030   6.523   0.192   0.025  0.2611  0.2286  0.6771
13581SOL    HW142031   6.468   0.262   0.059 -0.0731 -0.0728  0.7678
13581SOL    HW242032   6.566   0.155   0.102  1.6728  1.3564  0.4665
13582SOL     OW42033   3.791   4.434   2.467  0.8653 -0.2507  0.6993
13582SOL    HW142034   3.762   4.437   2.558  0.7096 -1.2492  0.6926
13582SOL    HW242035   3.710   4.428   2.416  0.9541  0.2382  0.4882
13583SOL     OW42036   1.780   7.723   0.361  0.0063  0.1451 -0.2862
13583SOL    HW142037   1.750   7.698   0.449  0.0122  0.6090 -0.1514
13583SOL    HW242038   1.769   7.818   0.358  2.4444  0.5209  0.1681
13584SOL     OW42039   3.864   7.047   2.598  0.3700  0.3282 -0.4273
13584SOL    HW142040   3.896   7.133   2.623 -0.2283  0.0918  1.2825
13584SOL    HW242041   3.941   6.990   2.601  0.5087  0.5299 -0.1753
13585SOL     OW42042   7.836   7.170   1.737 -0.0644  0.0966 -0.8561
13585SOL    HW142043   7.887   7.103   1.782  1.5394  0.7459 -1.6233
13585SOL    HW242044   7.746   7.155   1.766  0.4810 -1.3612  0.2201
13586SOL     OW42045   7.799   0.585   0.069 -0.4497 -0.2515 -0.4161
13586SOL    HW142046   7.832   0.577  -0.020 -2.1360 -1.2600 -0.9939
13586SOL    HW242047   7.849   0.521   0.119  0.6990  0.5097 -0.5451
13587SOL     OW42048   4.095   0.215   7.206  0.9890 -0.1963  0.1213
13587SOL    HW142049   4.157   0.143   7.216  3.7560  2.1120  1.4782
13587SOL    HW242050   4.086   0.251   7.294  1.5679  2.4178 -0.7834
13588SOL     OW42051   3.299   0.337   2.862  0.1211 -0.6966 -0.4179
13588SOL    HW142052   3.288   0.242   2.864  1.9424 -0.9322 -0.2317
13588SOL    HW242053   3.210   0.371   2.874 -0.0945 -2.2926  6.1961
13589SOL     OW42054   5.751   4.939   1.646 -0.4967 -0.7082 -0.2062
13589SOL    HW142055   5.745   4.904   1.735 -1.0964  0.7814  0.3738
13589SOL    HW242056   5.669   4.987   1.634 -0.0517 -0.1805 -1.2569
13590SOL     OW42057   5.837   8.644   3.417  0.3043 -0.6493 -0.1952
13590SOL    HW142058   5.919   8.624   3.372 -0.4389 -0.1105 -1.9062
13590SOL    HW242059   5.792   8.560   3.424  0.1834 -0.6633 -1.0325
13591SOL     OW42060   4.147   4.599   2.330  0.3997  0.1074  0.1456
13591SOL    HW142061   4.208   4.664   2.364  0.5109  1.2054 -1.9513
13591SOL    HW242062   4.060   4.639   2.342  0.3394 -0.0824  0.3403
13592SOL     OW42063   3.827   1.112   7.425  0.4460  0.4616  0.4897
13592SOL    HW142064   3.795   1.092   7.513 -1.0358 -1.0186 -0.3368
13592SOL    HW242065   3.918   1.081   7.425 -0.2128 -1.6562  0.8711
13593SOL     OW42066   3.191   1.727   0.843 -0.3318 -0.4134  0.0719
13593SOL    HW142067   3.194   1.669   0.919 -0.6076  1.0848  1.2775
13593SOL    HW242068   3.187   1.668   0.768 -0.3745 -1.9404  1.2260
13594SOL     OW42069   3.921   3.386   8.354  0.7872 -0.1227 -0.2327
13594SOL    HW142070   3.860   3.380   8.281  0.3131  0.3367  0.1158
13594SOL    HW242071   3.906   3.306   8.404 -1.2223  1.0196  1.1207
13595SOL     OW42072   8.279   2.981   6.561 -0.1860 -0.1814  0.1028
13595SOL    HW142073   8.232   3.021   6.487 -0.5010 -1.6163 -0.5043
13595SOL    HW242074   8.229   2.903   6.582  1.8242 -1.7426 -0.5274
13596SOL     OW42075   0.233   6.401   2.882 -0.4354 -0.6595  0.4013
13596SOL    HW142076   0.140   6.379   2.877 -0.7401  0.2283  1.8407
13596SOL    HW242077   0.255   6.390   2.974  0.6559  0.0667  0.2338
13597SOL     OW42078   5.897   4.221   2.496 -0.5617  0.2365 -0.5958
13597SOL    HW142079   5.925   4.130   2.486 -0.3712  0.2917 -0.5632
13597SOL    HW242080   5.938   4.250   2.577  0.2667  0.6834 -1.1673
13598SOL     OW42081   2.509   4.987   4.673  0.2355  0.2893 -0.2229
13598SOL    HW142082   2.449   4.912   4.676  1.0113 -0.3407  2.2723
13598SOL    HW242083   2.459   5.056   4.630 -2.1493 -0.3238  1.3818
13599SOL     OW42084   1.662   6.497   3.524 -0.2206  0.2495 -0.1797
13599SOL    HW142085   1.646   6.403   3.519  1.1494 -0.0385  0.4808
13599SOL    HW242086   1.597   6.529   3.587 -0.3156 -0.3413  0.0271
13600SOL     OW42087   1.686   0.592   7.262 -0.3358 -0.1973  0.6046
13600SOL    HW142088   1.630   0.524   7.225  1.0980 -1.1428  0.1021
13600SOL    HW242089   1.699   0.655   7.191  1.6118 -1.5061 -0.2597
13601SOL     OW42090   7.331   0.434   0.780 -0.4749 -0.0934 -0.0163
13601SOL    HW142091   7.305   0.362   0.836  0.1835  0.6733  1.3196
13601SOL    HW242092   7.413   0.405   0.740 -1.3875 -0.9975 -1.3296
13602SOL     OW42093   7.262   8.271   3.878  0.0031  0.2907 -0.1239
13602SOL    HW142094   7.223   8.267   3.965  2.1966 -0.1872  0.9061
13602SOL    HW242095   7.283   8.363   3.865  0.7578  0.2054  0.4018
13603SOL     OW42096   0.394   6.346   0.761 -0.5336  0.5324  0.0479
13603SOL    HW142097   0.381   6.272   0.820  0.6946  0.5343  0.3507
13603SOL    HW242098   0.350   6.321   0.680 -0.1088 -0.5352  0.1395
13604SOL     OW42099   3.309   2.072   3.192  0.5551 -0.1068 -0.1680
13604SOL    HW142100   3.394   2.091   3.152  0.1404  0.2072 -0.9194
13604SOL    HW242101   3.329   2.058   3.285  1.0993  2.5889  0.2054
13605SOL     OW42102   4.614   1.593   1.093  0.3457 -0.6349  0.8682
13605SOL    HW142103   4.532   1.558   1.127  0.7262 -1.5570  0.8630
13605SOL    HW242104   4.606   1.590   0.998  0.2766 -0.4519  0.8674
13606SOL     OW42105   5.496   8.400   3.727  0.1018  0.2378  0.3091
13606SOL    HW142106   5.566   8.412   3.791  0.7864  0.5063 -0.4623
13606SOL    HW242107   5.453   8.486   3.722  0.8052  0.5543 -0.4415
13607SOL     OW42108   2.082   2.751   5.301  0.1863 -0.6015 -0.1512
13607SOL    HW142109   2.048   2.727   5.387 -1.9365  0.7043 -0.5615
13607SOL    HW242110   2.034   2.830   5.277  3.1238  1.0316 -1.1276
13608SOL     OW42111   5.235   4.935   4.861  0.5317  0.6153 -0.2364
13608SOL    HW142112   5.243   4.850   4.905  1.5232  0.1358 -1.2881
13608SOL    HW242113   5.276   4.922   4.775 -1.6200  1.4020 -1.4904
13609SOL     OW42114   8.113   0.687   0.168  0.3647 -0.0250 -0.2587
13609SOL    HW142115   8.131   0.707   0.076 -0.2357  0.5544 -0.2540
13609SOL    HW242116   8.067   0.603   0.165 -0.8983  0.6470 -0.6096
13610SOL     OW42117   8.157   1.163   7.955 -0.2586 -0.1485  0.2944
13610SOL    HW142118   8.199   1.182   8.039  2.7776  1.8594 -1.4696
13610SOL    HW242119   8.079   1.218   7.954 -1.2581 -1.3825  2.3154
13611SOL     OW42120   3.071   0.376   7.387 -0.1380  0.1977  0.6080
13611SOL    HW142121   3.102   0.431   7.458  2.2768  0.6285 -0.6449
13611SOL    HW242122   3.125   0.296   7.394 -0.2651  0.0151 -0.3697
13612SOL     OW42123   1.839   6.961   4.861 -0.2568  0.0329 -0.1671
13612SOL    HW142124   1.842   6.924   4.773 -0.3746  0.0132 -0.1625
13612SOL    HW242125   1.755   6.932   4.897  0.1699 -0.6951  0.2728
13613SOL     OW42126   5.984   8.271   5.424  0.1870  0.8546 -0.6829
13613SOL    HW142127   5.892   8.282   5.398 -0.6991 -1.9318  0.8496
13613SOL    HW242128   6.028   8.248   5.342 -1.0541 -0.3168 -1.0828
13614SOL     OW42129   6.718   7.801   1.782 -0.2000  0.0953 -0.3874
13614SOL    HW142130   6.690   7.744   1.854  1.0256 -1.1509 -0.8613
13614SOL    HW242131   6.784   7.750   1.735  0.8419  1.8520 -0.9239
13615SOL     OW42132   5.388   7.261   3.154 -0.3349 -0.5810  0.1094
13615SOL    HW142133   5.472   7.304   3.139 -0.1954 -0.8326  0.1748
13615SOL    HW242134   5.330   7.300   3.088 -0.2728 -0.1165  0.3198
13616SOL     OW42135   5.630   2.612   8.240  0.1409  0.1126 -0.6128
13616SOL    HW142136   5.598   2.681   8.182  2.5508  0.3464 -1.7995
13616SOL    HW242137   5.665   2.658   8.316  1.7286  0.2575 -1.3949
13617SOL     OW42138   1.923   3.887   2.663  0.3360 -0.2526  0.0354
13617SOL    HW142139   1.998   3.945   2.652 -0.1880  0.0787 -2.3405
13617SOL    HW242140   1.847   3.942   2.644 -0.1606 -1.6523 -2.4273
13618SOL     OW42141   1.377   0.840   3.379 -0.0811 -0.8247 -0.0225
13618SOL    HW142142   1.401   0.795   3.297  0.3649  0.9155 -0.8877
13618SOL    HW242143   1.284   0.821   3.391  0.1914 -2.3820 -0.0582
13619SOL     OW42144   2.187   5.392   4.919 -0.0221  0.1335 -0.3781
13619SOL    HW142145   2.203   5.372   4.827 -0.4941  2.2244 -0.9646
13619SOL    HW242146   2.093   5.410   4.925 -0.2400 -1.2246  0.7883
13620SOL     OW42147   5.035   0.350   0.794  0.2899 -0.3395 -0.3824
13620SOL    HW142148   5.120   0.348   0.837 -0.2865  0.3960  0.8425
13620SOL    HW242149   5.054   0.376   0.703  1.5833 -2.5110 -0.7929
13621SOL     OW42150   6.471   7.533   1.254 -0.6451  0.2999 -0.6623
13621SOL    HW142151   6.445   7.623   1.272  1.4795  0.8516 -0.0616
13621SOL    HW242152   6.410   7.480   1.306  0.0069  1.5332  1.4995
13622SOL     OW42153   1.301   4.821   3.916 -0.2971 -0.5661 -0.3792
13622SOL    HW142154   1.370   4.784   3.971 -0.8347 -0.9550  0.0415
13622SOL    HW242155   1.327   4.912   3.902 -0.5209 -0.2477  1.1273
13623SOL     OW42156   6.595   1.449   1.769  0.6871 -0.0212 -0.3213
13623SOL    HW142157   6.637   1.364   1.782  0.3610 -0.2396 -0.6914
13623SOL    HW242158   6.567   1.449   1.677 -0.2807  0.0470 -0.0410
13624SOL     OW42159   6.757   0.156   7.845 -0.1608  0.3954 -0.7873
13624SOL    HW142160   6.787   0.118   7.762 -2.4787 -2.9603 -0.2973
13624SOL    HW242161   6.673   0.198   7.824 -1.2967 -1.4003 -0.0627
13625SOL     OW42162   1.232   1.099   0.244 -0.1309 -0.1748 -0.6726
13625SOL    HW142163   1.163   1.133   0.187  0.8439 -0.2323 -1.9313
13625SOL    HW242164   1.189   1.030   0.295 -0.8630 -0.6544 -1.8830
13626SOL     OW42165   2.050   6.960   6.930 -0.3452  0.0682  0.0726
13626SOL    HW142166   1.965   6.998   6.953 -0.4059 -0.3431  0.5480
13626SOL    HW242167   2.076   7.006   6.850 -1.0954  0.0758 -0.1728
13627SOL     OW42168   7.793   0.425   3.078  0.4379  0.4183 -1.0410
13627SOL    HW142169   7.825   0.389   3.161 -0.8965  1.0878 -0.1833
13627SOL    HW242170   7.824   0.516   3.078  1.8587 -0.0303 -2.1100
13628SOL     OW42171   6.925   6.782   0.977  0.2656  0.1226  0.2046
13628SOL    HW142172   7.006   6.733   0.987  1.2924  1.5502 -0.6758
13628SOL    HW242173   6.892   6.756   0.890  0.8396  0.9809 -0.2867
13629SOL     OW42174   6.866   6.976   1.314 -0.4382  0.0926 -0.6670
13629SOL    HW142175   6.951   6.997   1.277 -0.0673  0.6113  0.4306
13629SOL    HW242176   6.871   7.007   1.404 -2.5089  2.0483 -1.1366
13630SOL     OW42177   7.666   1.791   4.427  0.2457  0.2477 -0.5854
13630SOL    HW142178   7.595   1.746   4.472  0.2579  0.3637 -0.4465
13630SOL    HW242179   7.722   1.823   4.498  0.8597 -0.5281 -0.7209
13631SOL     OW42180   7.969   7.515   5.293 -0.1716  0.2307 -0.0545
13631SOL    HW142181   7.888   7.563   5.278 -0.3404 -0.1200 -0.2771
13631SOL    HW242182   7.944   7.443   5.350  0.1035  0.4720  0.3782
13632SOL     OW42183   3.647   2.597   6.691  0.0972 -1.3160  0.5370
13632SOL    HW142184   3.553   2.590   6.676 -0.1228  1.6261 -0.0655
13632SOL    HW242185   3.657   2.592   6.786 -0.6643 -1.5156  0.6115
13633SOL     OW42186   6.943   2.102   3.194 -0.1361  0.2476 -0.2397
13633SOL    HW142187   6.980   2.073   3.111 -0.3878  0.6170 -0.4806
13633SOL    HW242188   6.988   2.048   3.260  0.5747  0.4460 -0.5559
13634SOL     OW42189   0.423   6.149   8.569 -0.0594  0.6860  0.4300
13634SOL    HW142190   0.362   6.142   8.497 -0.3340 -2.7119  0.8041
13634SOL    HW242191   0.503   6.107   8.537  1.1983  2.5778  0.8885
13635SOL     OW42192   7.999   6.751   2.989  0.0807 -0.4480 -0.1947
13635SOL    HW142193   8.047   6.731   3.069  2.1196  1.3549 -0.8976
13635SOL    HW242194   8.060   6.733   2.919 -1.8020 -2.3772 -1.4793
13636SOL     OW42195   5.371   7.304   4.790  0.5303  0.5919  0.2082
13636SOL    HW142196   5.433   7.362   4.745 -0.1435  1.2357  0.1057
13636SOL    HW242197   5.309   7.362   4.832 -0.9109 -0.0561 -0.9461
13637SOL     OW42198   3.838   3.425   2.637 -0.4662  0.6529 -0.1970
13637SOL    HW142199   3.881   3.461   2.559  1.2342 -2.0944 -0.6788
13637SOL    HW242200   3.802   3.341   2.607  0.2289 -0.4634  1.9288
13638SOL     OW42201   8.297   1.973   3.446 -0.0933  0.5587  0.0035
13638SOL    HW142202   8.381   2.009   3.476 -0.3575  1.6912 -0.5515
13638SOL    HW242203   8.307   1.963   3.351 -0.7868  1.3262 -0.1689
13639SOL     OW42204   6.645   3.580   1.215  0.4044  0.4393  0.2962
13639SOL    HW142205   6.712   3.611   1.277 -0.3248  0.0727  1.2969
13639SOL    HW242206   6.694   3.555   1.137  1.4468  0.1113  1.0375
13640SOL     OW42207   3.898   2.481   0.987 -0.2583  0.1421 -0.4275
13640SOL    HW142208   3.889   2.576   0.982  1.0537  0.3950  1.2540
13640SOL    HW242209   3.965   2.460   0.921 -1.7593  0.1311 -2.0072
13641SOL     OW42210   4.208   4.021   5.415  0.2979 -0.0438 -0.1172
13641SOL    HW142211   4.232   4.081   5.344 -0.2159 -0.7961 -0.9373
13641SOL    HW242212   4.177   3.942   5.371  1.5338 -1.1630  0.9514
13642SOL     OW42213   3.588   1.408   4.554 -0.0013 -0.1998  0.1348
13642SOL    HW142214   3.664   1.438   4.604  0.8245  0.1891 -1.2840
13642SOL    HW242215   3.625   1.369   4.475 -1.1108 -3.5742  1.1037
13643SOL     OW42216   6.759   4.473   4.764 -0.2400  0.1478  0.7274
13643SOL    HW142217   6.808   4.436   4.837  0.1564 -2.8466 -0.8917
13643SOL    HW242218   6.671   4.435   4.772 -0.6170  0.9403  0.4385
13644SOL     OW42219   6.694   3.099   2.194 -0.1262 -0.2371  0.5350
13644SOL    HW142220   6.784   3.069   2.194 -0.3122 -0.8420  1.3179
13644SOL    HW242221   6.699   3.194   2.200  0.4592 -0.2035 -0.3646
13645SOL     OW42222   4.030   8.316   2.624 -0.1814 -0.0391  0.0842
13645SOL    HW142223   4.084   8.343   2.549  1.0151 -0.1032  0.8795
13645SOL    HW242224   4.017   8.397   2.674 -0.7730 -0.0377 -0.0771
13646SOL     OW42225   0.345   8.120   7.721  0.7294 -0.2525 -0.4786
13646SOL    HW142226   0.426   8.122   7.771 -0.1304 -0.3549  0.9514
13646SOL    HW242227   0.278   8.095   7.784 -0.4403 -0.0836 -1.6164
13647SOL     OW42228   2.054   0.882   8.002  0.0570 -0.4488  0.5727
13647SOL    HW142229   1.970   0.840   8.017  1.3246 -2.8786  1.4225
13647SOL    HW242230   2.118   0.820   8.036  2.2435  1.0543 -0.5670
13648SOL     OW42231   8.452   6.556   2.071  0.2426 -0.1979 -0.1370
13648SOL    HW142232   8.499   6.622   2.020 -0.8172  1.4978  0.9840
13648SOL    HW242233   8.427   6.601   2.152 -0.6093 -1.9540  0.6290
13649SOL     OW42234   3.584   0.992   1.525  0.1748  0.1750  0.2513
13649SOL    HW142235   3.590   0.896   1.530 -0.3087  0.1371  0.1973
13649SOL    HW242236   3.666   1.023   1.563 -0.4578 -0.2276  2.0435
13650SOL     OW42237   3.702   0.325   4.813 -0.1899  0.2982 -0.7313
13650SOL    HW142238   3.732   0.404   4.858  0.7911 -0.8224  0.6592
13650SOL    HW242239   3.773   0.262   4.825 -1.3910 -1.1344 -0.9068
13651SOL     OW42240   1.315   7.090   6.991  0.6461 -0.4038 -0.0526
13651SOL    HW142241   1.395   7.073   6.941  0.1534 -0.3925 -0.8576
13651SOL    HW242242   1.293   7.006   7.030 -0.7369 -1.2854 -2.4917
13652SOL     OW42243   1.690   6.691   4.074  0.5658  0.4866  0.3677
13652SOL    HW142244   1.662   6.712   4.163 -0.3213  1.2960 -0.0838
13652SOL    HW242245   1.760   6.754   4.055  1.3084 -0.2043  0.7652
13653SOL     OW42246   3.463   2.201   2.566  0.1183 -0.7590 -0.9113
13653SOL    HW142247   3.397   2.267   2.547 -0.5785 -0.8881  0.9270
13653SOL    HW242248   3.518   2.240   2.634 -0.1050 -1.9034 -0.0424
13654SOL     OW42249   1.306   3.052   5.379  0.0694 -0.6119  0.4603
13654SOL    HW142250   1.310   2.997   5.458 -0.4355 -0.2054  0.7712
13654SOL    HW242251   1.281   2.992   5.310  0.5602 -0.9835  0.6005
13655SOL     OW42252   3.029   7.311   6.577 -0.0595 -0.1642 -0.3153
13655SOL    HW142253   3.001   7.394   6.615 -0.4211 -0.2192 -0.4643
13655SOL    HW242254   3.063   7.261   6.652  1.0399  0.4695 -0.3582
13656SOL     OW42255   7.955   2.919   3.399 -0.0810  0.3113 -0.9500
13656SOL    HW142256   8.015   2.867   3.452 -1.7437 -0.7349 -0.0134
13656SOL    HW242257   7.930   2.992   3.456  0.6051  0.9973 -1.4998
13657SOL     OW42258   2.632   7.172   5.356  0.2367  0.4776  0.1458
13657SOL    HW142259   2.695   7.101   5.367  2.3228  2.1018 -0.5356
13657SOL    HW242260   2.628   7.186   5.261 -2.0360 -0.2899  0.0851
13658SOL     OW42261   0.085   4.027   7.723 -0.3109  0.6648 -0.1920
13658SOL    HW142262   0.091   4.112   7.766  1.3542  0.3840  0.2081
13658SOL    HW242263   0.089   4.046   7.630 -0.5155  1.0543 -0.1220
13659SOL     OW42264   7.562   5.969   1.228 -0.4362 -0.3721 -0.0800
13659SOL    HW142265   7.513   6.033   1.178  0.0390  0.2341  0.2229
13659SOL    HW242266   7.605   5.915   1.162 -0.9232 -0.4574 -0.3360
13660SOL     OW42267   5.158   7.370   0.112 -0.3545 -0.2376  0.1158
13660SOL    HW142268   5.182   7.333   0.196 -2.2518 -0.5161  0.5942
13660SOL    HW242269   5.185   7.462   0.117  1.6722 -0.7886  0.0678
13661SOL     OW42270   3.453   2.642   2.051  0.1602  0.2978  0.0344
13661SOL    HW142271   3.520   2.690   2.002  1.2608 -2.3476 -1.2764
13661SOL    HW242272   3.379   2.637   1.990  0.1717  0.0735  0.0394
13662SOL     OW42273   5.943   0.319   7.314 -0.4593 -0.1628 -0.0473
13662SOL    HW142274   5.863   0.319   7.263 -1.6449  1.6736  1.6791
13662SOL    HW242275   5.933   0.246   7.376 -0.3376 -0.5432 -0.4721
13663SOL     OW42276   4.870   6.859   2.556  0.4844 -0.2538  0.4858
13663SOL    HW142277   4.877   6.782   2.500  0.6356 -0.0565  0.2314
13663SOL    HW242278   4.815   6.920   2.506  1.9275  0.5612 -0.1711
13664SOL     OW42279   0.436   7.943   0.004 -0.3044 -0.0319  0.0668
13664SOL    HW142280   0.457   7.914  -0.084 -0.9288 -2.7409  0.7364
13664SOL    HW242281   0.361   8.002  -0.009 -1.3468 -1.5266 -1.1472
13665SOL     OW42282   6.663   0.514   3.329 -0.4649  0.3455 -0.2035
13665SOL    HW142283   6.666   0.437   3.273 -0.1839 -0.4379  0.8670
13665SOL    HW242284   6.742   0.564   3.306 -1.2321  0.9300 -1.7152
13666SOL     OW42285   2.750   1.822   7.557 -0.0119 -0.3839 -0.5989
13666SOL    HW142286   2.824   1.882   7.559 -0.8371  0.6992 -1.4254
13666SOL    HW242287   2.782   1.746   7.508  1.4391 -1.2278  1.5436
13667SOL     OW42288   8.203   8.121   7.344  0.1896 -0.0816 -0.0857
13667SOL    HW142289   8.114   8.154   7.327  0.1799  0.7556  1.4194
13667SOL    HW242290   8.239   8.106   7.257 -0.5921  1.8981 -0.8307
13668SOL     OW42291   8.584   3.092   5.697  0.1257 -0.4048  0.1292
13668SOL    HW142292   8.543   3.179   5.697 -0.5370 -0.6922  1.5229
13668SOL    HW242293   8.564   3.056   5.611  0.6064  0.8926 -0.5661
13669SOL     OW42294   6.621   6.332   2.321 -0.0156 -0.1529  0.0312
13669SOL    HW142295   6.583   6.361   2.403  1.2573 -0.0750  0.6148
13669SOL    HW242296   6.712   6.362   2.324  0.6004 -1.8240 -0.5453
13670SOL     OW42297   0.265   1.615   3.662 -0.0789 -0.1193  0.7821
13670SOL    HW142298   0.247   1.673   3.736  2.2092  0.8131  0.6849
13670SOL    HW242299   0.337   1.657   3.615 -2.0147 -0.1803 -2.5739
13671SOL     OW42300   1.011   7.065   5.485 -0.1867 -0.2883 -0.0497
13671SOL    HW142301   1.070   6.997   5.452 -0.5397 -0.5913 -0.0628
13671SOL    HW242302   0.977   7.107   5.406 -0.3114 -0.3949 -0.0537
13672SOL     OW42303   7.051   0.825   8.044  0.0814 -0.1705  0.2747
13672SOL    HW142304   6.961   0.795   8.051 -0.7789  1.9138 -0.9290
13672SOL    HW242305   7.081   0.790   7.960 -0.6317  1.4363 -0.7093
13673SOL     OW42306   0.448   4.003   3.632 -0.2035  0.0858  0.3876
13673SOL    HW142307   0.385   3.997   3.560 -1.1479  1.6891  1.0291
13673SOL    HW242308   0.404   3.961   3.706  0.8198 -1.6832  0.0634
13674SOL     OW42309   4.499   0.398   4.741  0.8082  0.0349 -0.1599
13674SOL    HW142310   4.407   0.376   4.751  0.3879  2.0154  0.8708
13674SOL    HW242311   4.499   0.476   4.685  1.9102 -0.3894 -0.7729
13675SOL     OW42312   0.767   4.760   3.160  0.0584  0.0313 -0.4343
13675SOL    HW142313   0.742   4.746   3.069  0.8307 -2.2348 -0.3649
13675SOL    HW242314   0.859   4.784   3.157 -0.0115  0.3338 -0.2480
13676SOL     OW42315   2.795   0.025   8.060  0.1262 -0.4449  0.2279
13676SOL    HW142316   2.714  -0.006   8.101  0.1976 -0.1619  0.5867
13676SOL    HW242317   2.768   0.052   7.972 -0.2225 -0.1008  0.4370
13677SOL     OW42318   7.950   3.266   4.395  0.5446  0.1156  0.0725
13677SOL    HW142319   8.017   3.202   4.420  0.7584  0.2418 -0.1770
13677SOL    HW242320   7.945   3.260   4.300 -0.7681 -0.8680  0.1724
13678SOL     OW42321   5.386   7.479   0.865  0.0296  0.5460 -0.2478
13678SOL    HW142322   5.447   7.423   0.817 -0.0850 -0.2697  0.5444
13678SOL    HW242323   5.433   7.503   0.945 -1.3435 -1.7288  1.3530
13679SOL     OW42324   0.220   6.178   6.960 -0.3015 -0.1452 -0.1606
13679SOL    HW142325   0.163   6.104   6.936  0.6735 -1.2560  0.8725
13679SOL    HW242326   0.159   6.248   6.984 -1.2394 -0.9754 -0.0680
13680SOL     OW42327   6.882   3.565   4.184 -0.4489  0.5531 -0.1128
13680SOL    HW142328   6.964   3.611   4.201 -0.7227  0.5812  1.2915
13680SOL    HW242329   6.834   3.621   4.122 -0.1596  1.4269  0.4381
13681SOL     OW42330   3.706   0.565   4.951  0.5595 -0.1712 -0.2297
13681SOL    HW142331   3.717   0.528   5.038 -1.3914 -2.9981 -1.0316
13681SOL    HW242332   3.612   0.580   4.943  0.7080  0.1130 -1.8262
13682SOL     OW42333   3.572   1.374   3.846 -0.0237  0.2556  0.2476
13682SOL    HW142334   3.601   1.354   3.935  0.1867  0.3037  0.1907
13682SOL    HW242335   3.476   1.370   3.850 -0.0026 -2.3830 -0.1134
13683SOL     OW42336   7.558   5.493   1.916  0.0287  0.0234  0.1369
13683SOL    HW142337   7.496   5.563   1.934  1.2985  1.0171  0.7702
13683SOL    HW242338   7.632   5.510   1.975  0.8203 -1.2303 -0.4552
13684SOL     OW42339   2.580   7.923   8.375 -0.3137  0.0258 -0.2812
13684SOL    HW142340   2.519   7.881   8.315  1.3976 -2.2145 -0.5480
13684SOL    HW242341   2.622   7.991   8.323 -1.1923  0.3318 -0.6170
13685SOL     OW42342   4.989   7.813   1.509 -0.1639  0.1072 -0.1916
13685SOL    HW142343   4.902   7.822   1.548  0.0593  0.6818  0.1851
13685SOL    HW242344   4.973   7.817   1.415 -0.3794  1.9158 -0.1095
13686SOL     OW42345   4.235   2.036   4.336 -0.2167  0.3525  0.1714
13686SOL    HW142346   4.189   2.077   4.263  0.2059 -1.3003 -1.0925
13686SOL    HW242347   4.181   2.056   4.413 -1.3796  1.0332 -0.7943
13687SOL     OW42348   0.286   7.509   7.116 -0.0667 -0.2471 -0.1061
13687SOL    HW142349   0.223   7.437   7.122  1.0326 -1.3530 -1.4116
13687SOL    HW242350   0.321   7.504   7.027  0.7203  1.3451  0.0721
13688SOL     OW42351   2.025   0.521   6.074  0.3215 -0.1523 -0.2383
13688SOL    HW142352   1.986   0.600   6.111  0.4356  0.3703 -1.2334
13688SOL    HW242353   2.052   0.545   5.986 -0.6799 -1.6024 -0.9996
13689SOL     OW42354   5.678   1.074   6.147 -0.0764  0.2757  0.1073
13689SOL    HW142355   5.629   1.056   6.066  0.2181 -3.2924  0.5317
13689SOL    HW242356   5.618   1.048   6.217 -0.3014  3.2392  1.1656
13690SOL     OW42357   6.740   7.375   2.598 -0.0684 -0.1726 -0.5927
13690SOL    HW142358   6.796   7.319   2.653 -0.2643  0.0497 -0.1598
13690SOL    HW242359   6.743   7.461   2.640 -0.6304 -0.1275 -0.6372
13691SOL     OW42360   8.436   8.670   7.322  0.1892  0.1540  0.3364
13691SOL    HW142361   8.480   8.586   7.308 -3.0615 -1.4974 -1.2749
13691SOL    HW242362   8.441   8.715   7.238  0.3897  0.7617  0.6715
13692SOL     OW42363   1.629   3.856   0.725 -0.1389 -0.4664 -0.2175
13692SOL    HW142364   1.593   3.911   0.655 -0.0191  0.5981  0.5268
13692SOL    HW242365   1.561   3.855   0.792 -0.0880 -1.1440 -0.1693
13693SOL     OW42366   5.427   1.988   7.544  0.4049  0.0226 -0.1713
13693SOL    HW142367   5.458   1.916   7.600  0.9839  0.4539  0.0702
13693SOL    HW242368   5.339   1.961   7.518  1.0252 -1.3044 -1.0015
13694SOL     OW42369   0.940   4.567   7.878 -0.2827 -0.3033  0.3447
13694SOL    HW142370   0.920   4.474   7.895 -3.0195  0.1514  0.1471
13694SOL    HW242371   1.013   4.565   7.817  1.1981 -2.2439  2.0273
13695SOL     OW42372   7.099   1.377   1.063  0.4586  0.0703  0.1907
13695SOL    HW142373   7.069   1.306   1.006  0.5073  2.0460 -2.5211
13695SOL    HW242374   7.188   1.396   1.032  2.2470 -1.4265  3.7792
13696SOL     OW42375   7.616   5.619   5.822 -0.1124  0.0189  0.2160
13696SOL    HW142376   7.558   5.617   5.746 -0.8441 -0.0137  0.7641
13696SOL    HW242377   7.636   5.711   5.835 -1.4401  0.2139  1.0496
13697SOL     OW42378   4.631   4.956   7.134  0.2453  0.0907  0.7033
13697SOL    HW142379   4.547   5.001   7.122  1.1690  1.7455  0.0001
13697SOL    HW242380   4.610   4.863   7.128 -1.1673  0.4855 -2.3129
13698SOL     OW42381   7.335   4.475   3.725 -0.2721 -0.0359  0.0163
13698SOL    HW142382   7.314   4.517   3.641 -2.7638 -0.3598  0.4176
13698SOL    HW242383   7.401   4.533   3.764  0.3474  0.5533 -1.7711
13699SOL     OW42384   5.256   7.009   3.108 -0.1371  0.1146 -0.3568
13699SOL    HW142385   5.289   7.092   3.074  0.8181  0.7598  1.9231
13699SOL    HW242386   5.200   7.034   3.182 -4.2638 -1.0618 -2.7373
13700SOL     OW42387   1.575   3.846   1.802 -0.1549  0.2075  0.6321
13700SOL    HW142388   1.555   3.813   1.890 -1.9795 -0.2620  0.0948
13700SOL    HW242389   1.543   3.777   1.743  0.8184  0.6197 -0.4115
13701SOL     OW42390   5.021   6.975   0.461  0.7223 -0.2226  0.4803
13701SOL    HW142391   4.946   6.934   0.419  2.6999 -1.2874 -2.2808
13701SOL    HW242392   4.994   7.065   0.476 -1.0667 -0.5584 -0.4812
13702SOL     OW42393   5.958   4.576   0.498 -0.7178  0.2853  0.2655
13702SOL    HW142394   5.932   4.509   0.435  0.1640 -0.6640  0.8772
13702SOL    HW242395   6.008   4.639   0.446 -2.3120  0.9801 -0.4853
13703SOL     OW42396   2.880   0.423   4.362 -0.5732 -0.8130  0.2742
13703SOL    HW142397   2.811   0.395   4.422 -0.3826 -1.4587  0.1996
13703SOL    HW242398   2.946   0.464   4.419  0.4578 -3.0153  0.7870
13704SOL     OW42399   2.153   8.324   7.241  0.2432  0.0317 -0.5582
13704SOL    HW142400   2.149   8.319   7.337  0.5095  0.2818 -0.5328
13704SOL    HW242401   2.071   8.366   7.216  0.7164  1.1077 -0.3512
13705SOL     OW42402   0.842   4.321   4.547 -0.2187 -0.0593  0.5400
13705SOL    HW142403   0.908   4.329   4.616  0.0784  0.6472  0.1913
13705SOL    HW242404   0.882   4.364   4.471 -0.8802 -0.0710  0.1791
13706SOL     OW42405   0.150   5.561   8.596 -0.0318  0.1893 -0.2463
13706SOL    HW142406   0.216   5.630   8.590 -0.1617  0.4388  0.9017
13706SOL    HW242407   0.198   5.485   8.630 -0.0446 -0.0619 -0.7855
13707SOL     OW42408   6.275   0.198   1.098  0.3233 -0.5298 -0.6571
13707SOL    HW142409   6.294   0.285   1.132  1.6906 -0.6823 -0.9410
13707SOL    HW242410   6.194   0.207   1.048  0.4678  0.5810 -0.6983
13708SOL     OW42411   2.666   7.425   6.251  0.2581 -0.0128 -0.0132
13708SOL    HW142412   2.590   7.428   6.193  0.3126  0.6587 -0.0576
13708SOL    HW242413   2.676   7.515   6.282  1.7847  0.1988 -0.9937
13709SOL     OW42414   8.546   3.473   1.635 -0.4625  0.6513  0.1549
13709SOL    HW142415   8.570   3.398   1.581  0.6349  0.5986  0.6815
13709SOL    HW242416   8.609   3.472   1.708 -0.8472  1.6843  0.5312
13710SOL     OW42417   5.246   4.175   0.124  0.6254  0.1049 -0.4720
13710SOL    HW142418   5.207   4.218   0.200  0.8349 -0.1646 -0.2049
13710SOL    HW242419   5.208   4.219   0.049 -1.4489 -1.2186 -0.2692
13711SOL     OW42420   0.600   7.893   4.671  0.1748 -0.4716 -0.4443
13711SOL    HW142421   0.548   7.893   4.591 -0.7378  0.2106  0.1212
13711SOL    HW242422   0.617   7.985   4.689  0.9882 -0.6517 -0.2286
13712SOL     OW42423   7.190   2.556   1.327 -0.3415  0.1554 -0.0166
13712SOL    HW142424   7.146   2.626   1.279 -0.3073 -0.2391 -0.6300
13712SOL    HW242425   7.171   2.477   1.277  1.7053  0.0717 -0.7764
13713SOL     OW42426   7.822   3.537   2.495 -0.1180 -0.6033 -0.1570
13713SOL    HW142427   7.843   3.451   2.532 -1.6254 -0.9540 -0.0738
13713SOL    HW242428   7.727   3.546   2.506 -0.0402  0.9129 -0.5101
13714SOL     OW42429   7.715   0.655   5.503 -0.4256 -0.9453 -0.0936
13714SOL    HW142430   7.648   0.588   5.490 -1.4065  0.2191 -1.2608
13714SOL    HW242431   7.791   0.606   5.536 -1.0107 -2.6659 -1.1558
13715SOL     OW42432   6.144   7.149   2.624 -0.1137  0.2661 -0.4518
13715SOL    HW142433   6.177   7.061   2.644 -0.5292  0.4458  1.1596
13715SOL    HW242434   6.216   7.207   2.648 -0.0053  0.3989 -1.0886
13716SOL     OW42435   4.399   2.107   8.141  0.0444 -0.2036  0.6861
13716SOL    HW142436   4.483   2.113   8.096  0.1172  1.3865  0.9571
13716SOL    HW242437   4.419   2.064   8.225  0.7545  0.8322  1.0736
13717SOL     OW42438   6.142   1.551   2.258  0.0046  0.2416 -0.2203
13717SOL    HW142439   6.219   1.576   2.206  1.5381 -1.8643  0.8933
13717SOL    HW242440   6.084   1.508   2.195  0.7921 -0.2121 -0.6649
13718SOL     OW42441   6.079   5.980   6.837  0.0418 -0.6468 -0.2800
13718SOL    HW142442   6.021   6.046   6.875 -0.8444 -2.2177  1.2676
13718SOL    HW242443   6.099   5.921   6.910  2.4577 -0.9767 -1.1241
13719SOL     OW42444   0.395   5.420   1.704 -0.2466 -0.1644 -0.0573
13719SOL    HW142445   0.365   5.412   1.614 -0.0392 -0.8400 -0.0747
13719SOL    HW242446   0.319   5.451   1.753 -0.8171 -1.2746 -0.2052
13720SOL     OW42447   5.858   5.837   7.407  0.5849 -0.3964  0.0766
13720SOL    HW142448   5.787   5.848   7.470  0.8648 -1.5354  0.6302
13720SOL    HW242449   5.814   5.834   7.321  0.0581 -0.1899  0.3351
13721SOL     OW42450   3.505   3.426   3.100  0.3427  0.5121 -0.0422
13721SOL    HW142451   3.463   3.440   3.016 -2.7390 -1.7147  0.9610
13721SOL    HW242452   3.492   3.508   3.148  1.2682  1.4435 -1.3344
13722SOL     OW42453   6.203   4.188   5.566 -0.0533  0.0263 -0.4603
13722SOL    HW142454   6.278   4.248   5.561 -0.9338  1.0421 -2.3887
13722SOL    HW242455   6.136   4.229   5.512 -1.4991 -1.6034  0.0246
13723SOL     OW42456   6.437   1.314   6.014 -0.1392 -0.2809 -0.0630
13723SOL    HW142457   6.465   1.225   5.993 -0.8218 -0.0367 -2.2350
13723SOL    HW242458   6.344   1.316   5.994  0.0814  1.1891 -1.1517
13724SOL     OW42459   5.209   0.978   7.851 -0.1777  0.4702  0.7938
13724SOL    HW142460   5.233   0.906   7.793 -1.4576  1.3800 -0.9710
13724SOL    HW242461   5.278   1.043   7.839  0.6465 -0.1720  1.9093
13725SOL     OW42462   8.390   0.397   7.164  0.0666 -0.2127  0.1855
13725SOL    HW142463   8.359   0.405   7.254  0.0339 -1.9014  0.3555
13725SOL    HW242464   8.473   0.443   7.163 -0.5292  0.9180  0.7482
13726SOL     OW42465   4.658   6.244   2.988 -0.2757  0.2876  0.3410
13726SOL    HW142466   4.604   6.285   2.920 -1.3820 -0.2473  0.8727
13726SOL    HW242467   4.743   6.232   2.947 -0.7347  0.5915 -0.7292
13727SOL     OW42468   6.999   5.967   1.976  0.1245  0.6811  0.2359
13727SOL    HW142469   6.956   6.042   2.016  1.5859  1.7337 -0.0605
13727SOL    HW242470   7.002   5.901   2.045 -2.5393  0.2625  0.0603
13728SOL     OW42471   6.669   0.810   2.546  0.1576 -0.0392  0.2532
13728SOL    HW142472   6.716   0.827   2.627  1.0185 -0.5258 -0.1333
13728SOL    HW242473   6.710   0.732   2.509  0.2173  0.5288 -0.9608
13729SOL     OW42474   3.778   2.946   6.565 -0.3256  0.0256 -0.6770
13729SOL    HW142475   3.714   3.015   6.546  0.3742  1.5405  2.0405
13729SOL    HW242476   3.777   2.937   6.660  2.7159 -0.6592 -0.6160
13730SOL     OW42477   0.942   3.444   8.376  0.3822  0.4514  0.2807
13730SOL    HW142478   1.001   3.516   8.398 -0.5849  1.6473 -0.8932
13730SOL    HW242479   0.856   3.475   8.403  0.0621 -0.6412  0.5678
13731SOL     OW42480   6.715   3.320   7.581 -0.9111 -0.2586 -0.2484
13731SOL    HW142481   6.791   3.337   7.636  0.4215 -1.0403 -1.7464
13731SOL    HW242482   6.693   3.406   7.544 -1.1739  0.0816  0.6689
13732SOL     OW42483   7.805   1.995   3.493  0.0428 -0.2808 -0.3164
13732SOL    HW142484   7.852   1.918   3.524 -2.1169 -2.3026 -1.7545
13732SOL    HW242485   7.789   1.978   3.401  0.5099  2.4818 -0.9924
13733SOL     OW42486   0.994   6.308   0.431  0.2453 -0.1950  0.0157
13733SOL    HW142487   1.084   6.285   0.456  0.0631  0.2278  1.0827
13733SOL    HW242488   0.992   6.403   0.432 -0.3675 -0.2110  0.5421
13734SOL     OW42489   7.410   2.534   8.476 -0.2155  0.2778  0.6641
13734SOL    HW142490   7.471   2.506   8.545  1.5737 -0.5123 -1.1301
13734SOL    HW242491   7.345   2.464   8.472 -1.6849  1.3567  2.9278
13735SOL     OW42492   6.969   4.427   1.240  0.7315  0.2225 -0.0686
13735SOL    HW142493   6.991   4.340   1.207 -1.6562 -0.6811  0.4884
13735SOL    HW242494   6.969   4.484   1.163 -0.7165 -0.9651 -0.9985
13736SOL     OW42495   4.564   1.541   8.318  0.6064 -0.0356  0.2941
13736SOL    HW142496   4.596   1.480   8.384  2.2487 -0.9410 -1.2630
13736SOL    HW242497   4.559   1.489   8.238  0.1645  1.4057 -0.6566
13737SOL     OW42498   6.669   6.591   5.755 -0.3348 -0.7982 -0.2335
13737SOL    HW142499   6.685   6.590   5.850  2.5584  2.9729 -0.4067
13737SOL    HW242500   6.749   6.554   5.718 -0.8740 -0.9959 -1.2097
13738SOL     OW42501   1.765   4.853   7.066 -0.2143 -0.1242 -0.0550
13738SOL    HW142502   1.671   4.858   7.046 -0.1725 -1.2200 -0.6160
13738SOL    HW242503   1.775   4.768   7.110  0.5358 -0.0656 -0.1052
13739SOL     OW42504   7.598   3.403   3.232  0.0701 -0.3679 -0.2407
13739SOL    HW142505   7.605   3.497   3.246 -1.0746 -0.1637 -0.9401
13739SOL    HW242506   7.688   3.370   3.242  0.8719  1.0883 -2.1127
13740SOL     OW42507   3.915   6.336   3.086  0.0438  0.2304 -0.0529
13740SOL    HW142508   3.924   6.318   3.180  1.3150  2.2534  0.2724
13740SOL    HW242509   3.984   6.284   3.045  0.6543  0.7201  0.3409
13741SOL     OW42510   5.336   5.142   8.104  0.0487  0.4013  0.3879
13741SOL    HW142511   5.361   5.117   8.015  3.4360  0.1907  1.2525
13741SOL    HW242512   5.263   5.083   8.126 -0.0517 -0.3838 -1.7737
13742SOL     OW42513   5.301   1.266   4.971 -0.1563  0.2236  0.0635
13742SOL    HW142514   5.319   1.351   5.011  0.2058  0.1056  0.1663
13742SOL    HW242515   5.294   1.206   5.046 -0.2984  0.1476 -0.0117
13743SOL     OW42516   0.583   4.446   2.636 -0.3823 -0.0394  0.0106
13743SOL    HW142517   0.519   4.377   2.652  0.1793 -0.7083 -0.5490
13743SOL    HW242518   0.538   4.527   2.659 -1.4718 -0.4841 -0.4896
13744SOL     OW42519   2.604   1.819   5.612  0.3218 -0.6459 -0.2704
13744SOL    HW142520   2.683   1.800   5.562 -0.4968 -2.2312 -1.0388
13744SOL    HW242521   2.630   1.805   5.703  0.9099 -1.2246 -0.5183
13745SOL     OW42522   3.263   7.187   2.676  0.5562 -0.3456 -0.0338
13745SOL    HW142523   3.353   7.159   2.658  1.6556  1.8402  1.5161
13745SOL    HW242524   3.261   7.279   2.650 -1.3768 -0.4444 -0.3719
13746SOL     OW42525   1.123   0.795   3.403  0.5265 -0.3577 -0.5372
13746SOL    HW142526   1.147   0.713   3.445  3.9456  1.4183  1.4215
13746SOL    HW242527   1.061   0.836   3.463  2.7650  0.6288  1.2741
13747SOL     OW42528   3.204   4.899   1.670 -0.3895 -0.0668  0.3384
13747SOL    HW142529   3.160   4.934   1.593  0.4562 -0.2161 -0.2214
13747SOL    HW242530   3.268   4.966   1.694 -2.3565  1.2253  2.5173
13748SOL     OW42531   1.441   7.526   5.374  0.4455  0.1855 -0.4079
13748SOL    HW142532   1.400   7.507   5.458  0.5164 -0.2451 -0.4688
13748SOL    HW242533   1.458   7.440   5.336 -0.3843  0.3859 -1.2591
13749SOL     OW42534   6.088   1.233   4.542  0.0298  0.1539  0.3881
13749SOL    HW142535   6.132   1.175   4.480 -1.5591 -0.1692 -0.4927
13749SOL    HW242536   6.159   1.278   4.588  1.3035  0.6966 -1.9383
13750SOL     OW42537   3.225   3.614   4.307  0.4161  0.1261 -0.1129
13750SOL    HW142538   3.274   3.531   4.312  1.3231  0.6800  0.3470
13750SOL    HW242539   3.263   3.659   4.232 -0.4446 -0.0837 -0.6961
13751SOL     OW42540   1.235   1.420   4.585  0.3130  0.1182 -0.1086
13751SOL    HW142541   1.200   1.430   4.673  0.6377 -0.4355  0.0855
13751SOL    HW242542   1.312   1.476   4.583 -0.3856  1.1055 -0.4427
13752SOL     OW42543   3.809   2.401   5.744 -0.2741 -0.2201  0.9185
13752SOL    HW142544   3.899   2.401   5.710 -0.0496 -0.1978  1.5129
13752SOL    HW242545   3.755   2.406   5.665  0.1842 -2.4010  0.3655
13753SOL     OW42546   8.152   5.712   2.511  0.6518  0.0343  0.1580
13753SOL    HW142547   8.105   5.773   2.454 -2.3836 -3.1202 -1.0679
13753SOL    HW242548   8.117   5.729   2.598  0.0033  0.2286 -0.1353
13754SOL     OW42549   1.228   6.720   2.087 -0.4235  0.6013  0.3181
13754SOL    HW142550   1.228   6.815   2.075  0.3179  0.5805  0.1449
13754SOL    HW242551   1.247   6.685   2.000 -0.2891  0.3006  0.4693
13755SOL     OW42552   3.548   6.087   8.547  0.1350 -0.2167  0.0898
13755SOL    HW142553   3.476   6.132   8.592 -1.3139 -2.1937 -0.1006
13755SOL    HW242554   3.507   6.045   8.472  1.5515 -1.1501 -0.2116
13756SOL     OW42555   7.287   5.167   6.164 -0.1017 -0.4510  0.5440
13756SOL    HW142556   7.239   5.245   6.189  0.0946 -0.2514  0.3033
13756SOL    HW242557   7.342   5.195   6.091  0.8276 -0.5098  1.1958
13757SOL     OW42558   3.602   7.394   1.107  0.2908 -0.1086 -0.1587
13757SOL    HW142559   3.576   7.449   1.033 -0.7034  0.4371  0.5612
13757SOL    HW242560   3.681   7.436   1.141 -0.0925  0.5250 -0.0142
13758SOL     OW42561   7.724   1.226   2.505  0.2985 -0.1440 -0.4719
13758SOL    HW142562   7.683   1.248   2.589 -1.2539  1.0012 -1.4747
13758SOL    HW242563   7.813   1.199   2.529  0.1041  0.7041  1.4886
13759SOL     OW42564   4.715   3.537   4.132 -0.1413 -0.3837 -0.0672
13759SOL    HW142565   4.808   3.557   4.127 -0.0994 -0.7664 -0.9949
13759SOL    HW242566   4.684   3.584   4.210  1.0245 -1.0706  0.8356
13760SOL     OW42567   2.240   0.366   2.929  0.1371 -0.2348 -0.2972
13760SOL    HW142568   2.268   0.286   2.974 -1.7905 -1.4945 -1.1811
13760SOL    HW242569   2.214   0.425   3.000  1.6203 -0.3522  0.3717
13761SOL     OW42570   2.254   4.350   7.403  0.4889  0.0752  0.1718
13761SOL    HW142571   2.213   4.436   7.411 -1.2249 -0.5739 -1.0591
13761SOL    HW242572   2.314   4.359   7.329  0.7532  0.3786  0.4245
13762SOL     OW42573   0.156   8.140   4.177  0.2748 -0.4388 -0.3947
13762SOL    HW142574   0.117   8.184   4.102 -0.1963  3.1665  1.7477
13762SOL    HW242575   0.081   8.114   4.231  0.5652  1.9608  1.3205
13763SOL     OW42576   6.198   0.629   6.554  0.1961 -0.0763  0.6640
13763SOL    HW142577   6.146   0.694   6.601  0.6125 -0.6328  1.9459
13763SOL    HW242578   6.147   0.548   6.562 -0.0924 -0.0397 -0.5179
13764SOL     OW42579   4.640   1.598   6.074 -0.4640  0.3513 -0.4411
13764SOL    HW142580   4.683   1.517   6.046 -0.3283  0.3181 -0.1389
13764SOL    HW242581   4.705   1.641   6.130 -1.6238 -0.7732  1.9134
13765SOL     OW42582   6.769   6.459   6.046 -0.3605  0.0301 -0.1964
13765SOL    HW142583   6.790   6.371   6.015  2.7330 -0.1436  1.9237
13765SOL    HW242584   6.837   6.515   6.008 -1.6507  1.3277 -0.6607
13766SOL     OW42585   1.493   7.833   3.740  0.3403  0.3520 -0.3150
13766SOL    HW142586   1.473   7.922   3.767 -1.2980  0.1018 -0.5937
13766SOL    HW242587   1.408   7.788   3.739  1.2853 -1.7098  1.5258
13767SOL     OW42588   1.421   6.035   2.455  0.2670  0.1413  0.5648
13767SOL    HW142589   1.441   6.121   2.490 -1.3108  0.4323  0.8263
13767SOL    HW242590   1.336   6.012   2.494  0.0716 -0.9886 -0.4541
13768SOL     OW42591   3.052   7.503   5.931  0.2963  0.1861  0.2250
13768SOL    HW142592   2.966   7.489   5.890  0.0507 -0.8670  1.0428
13768SOL    HW242593   3.115   7.492   5.860 -0.1841 -0.2535 -0.1393
13769SOL     OW42594   6.433   0.730   0.853  0.0366 -0.0151  0.0974
13769SOL    HW142595   6.394   0.673   0.786 -0.7753  2.1559 -1.4270
13769SOL    HW242596   6.357   0.766   0.900  0.4999  0.0565  0.7986
13770SOL     OW42597   3.531   5.987   3.000 -0.1628  0.3019 -0.1011
13770SOL    HW142598   3.508   5.898   3.029 -1.5116  0.6454 -0.0408
13770SOL    HW242599   3.621   5.979   2.968 -1.1894 -1.7919 -2.9455
13771SOL     OW42600   1.387   8.293   7.031  0.4045 -0.0633 -0.2845
13771SOL    HW142601   1.443   8.295   6.953  0.7728 -0.6590 -0.0475
13771SOL    HW242602   1.299   8.275   6.997  0.4884  0.1105 -0.5961
13772SOL     OW42603   4.054   5.999   2.564 -0.1862  0.2418  0.1634
13772SOL    HW142604   4.113   6.068   2.535 -1.3389  1.5276  0.7761
13772SOL    HW242605   3.979   6.045   2.603 -1.0566 -1.3429  0.4774
13773SOL     OW42606   3.582   7.909   3.290 -0.2403 -0.0631  0.2728
13773SOL    HW142607   3.525   7.871   3.223  0.1096 -1.1036  0.5515
13773SOL    HW242608   3.617   7.834   3.337  2.1182  0.4721 -0.4941
13774SOL     OW42609   1.957   6.704   3.670 -0.3366 -0.2410 -0.7920
13774SOL    HW142610   2.030   6.687   3.611 -0.6570 -1.2064 -0.9288
13774SOL    HW242611   1.905   6.772   3.626 -1.2213 -1.7738 -2.2287
13775SOL     OW42612   7.698   3.104   7.782  0.4725  0.2401  0.7635
13775SOL    HW142613   7.710   3.025   7.729 -0.0463 -0.6648  1.9319
13775SOL    HW242614   7.690   3.071   7.871  2.4586  1.7874  1.5882
13776SOL     OW42615   7.685   1.067   6.768 -0.2246  0.6762 -0.2907
13776SOL    HW142616   7.613   1.011   6.738  0.3186  0.3064 -0.9360
13776SOL    HW242617   7.669   1.079   6.861 -1.1411  0.6206 -0.4320
13777SOL     OW42618   6.562   3.333   8.638  0.3700 -0.0841  0.6452
13777SOL    HW142619   6.538   3.333   8.545 -0.6375 -1.6868  0.8662
13777SOL    HW242620   6.614   3.254   8.650  1.7279  0.8470  1.1973
13778SOL     OW42621   3.549   6.453   8.553  0.0021 -0.5624  0.1829
13778SOL    HW142622   3.475   6.450   8.493  1.9450 -0.3512 -2.3994
13778SOL    HW242623   3.603   6.378   8.528  2.1740  1.0295 -0.1786
13779SOL     OW42624   6.998   4.653   0.244  0.0419  0.5574 -0.0056
13779SOL    HW142625   6.922   4.679   0.193 -1.1379 -2.9794 -0.2966
13779SOL    HW242626   6.972   4.666   0.335 -1.5777 -1.9923 -0.0385
13780SOL     OW42627   3.293   2.396   2.504 -0.3982 -0.4996  0.1609
13780SOL    HW142628   3.215   2.440   2.536 -0.8238 -3.0910  3.0476
13780SOL    HW242629   3.325   2.453   2.433 -3.4482  1.8923  0.5192
13781SOL     OW42630   6.859   6.328   5.024 -0.0799  0.3135  0.2616
13781SOL    HW142631   6.949   6.347   5.051 -0.1874  1.0936  0.0886
13781SOL    HW242632   6.835   6.249   5.073  1.5017 -1.3162 -1.4440
13782SOL     OW42633   3.153   5.407   0.017 -0.1620  0.4278 -0.5092
13782SOL    HW142634   3.060   5.432   0.011 -0.6827 -1.4916 -1.2343
13782SOL    HW242635   3.198   5.470  -0.040 -0.7160  2.4952  1.2037
13783SOL     OW42636   6.561   2.510   8.709 -0.1449  0.3907  0.0814
13783SOL    HW142637   6.511   2.571   8.765 -0.8003 -0.6368  0.6638
13783SOL    HW242638   6.652   2.525   8.733 -0.4681 -1.4025  3.0373
13784SOL     OW42639   1.649   6.974   2.787 -0.1596  0.3731  0.5319
13784SOL    HW142640   1.674   6.896   2.737  0.4176 -0.3636  1.8997
13784SOL    HW242641   1.732   7.006   2.824 -0.8634 -1.5636  4.3735
13785SOL     OW42642   3.353   3.352   3.390  0.1668 -0.1431 -0.0942
13785SOL    HW142643   3.375   3.440   3.360 -0.6659  0.2785  0.5052
13785SOL    HW242644   3.432   3.301   3.372  1.2284  1.0637  0.9560
13786SOL     OW42645   4.914   1.315   5.750  0.4287 -0.3488 -0.2202
13786SOL    HW142646   4.840   1.332   5.809  0.7840  1.3643 -0.2204
13786SOL    HW242647   4.969   1.254   5.799 -0.1750 -0.3692  0.4691
13787SOL     OW42648   1.894   6.410   1.836  1.0522 -0.1504 -0.1549
13787SOL    HW142649   1.928   6.476   1.897  0.2590  0.4495 -0.3427
13787SOL    HW242650   1.870   6.460   1.758 -0.2230 -0.5452 -0.0352
13788SOL     OW42651   5.007   1.992   2.309  0.2292 -0.2622  0.4014
13788SOL    HW142652   4.960   2.028   2.384  1.4320 -0.7500  1.4200
13788SOL    HW242653   5.067   2.061   2.283 -0.5957  0.1288 -0.5064
13789SOL     OW42654   5.847   4.463   4.655  0.0534  0.4948  0.4839
13789SOL    HW142655   5.905   4.399   4.614  2.1918  1.4623  1.8442
13789SOL    HW242656   5.824   4.425   4.739  0.1980  0.8853  0.7053
13790SOL     OW42657   3.300   1.623   5.359 -0.6624  1.0855 -0.1064
13790SOL    HW142658   3.321   1.715   5.372 -0.3599  0.8425  1.2143
13790SOL    HW242659   3.378   1.586   5.317  0.1129  0.9886  1.3552
13791SOL     OW42660   3.764   4.691   3.373 -0.6603 -0.5149 -0.5628
13791SOL    HW142661   3.702   4.646   3.431 -0.0382 -0.5696  0.0680
13791SOL    HW242662   3.797   4.764   3.426  1.6891 -1.9304  0.0173
13792SOL     OW42663   6.988   6.836   8.201  0.4139  0.0496 -0.4371
13792SOL    HW142664   7.020   6.902   8.139  1.8551  0.4913  0.7339
13792SOL    HW242665   6.949   6.886   8.272 -0.0081 -0.4236 -0.3282
13793SOL     OW42666   4.712   6.888   7.928 -0.0918  0.3589 -0.2948
13793SOL    HW142667   4.795   6.929   7.903 -0.5884  1.2673 -0.5126
13793SOL    HW242668   4.714   6.803   7.885  0.4944  0.5870 -0.7423
13794SOL     OW42669   3.547   5.176   5.108  0.2326  0.6248  0.6068
13794SOL    HW142670   3.500   5.219   5.036 -0.3458  0.5159  0.9067
13794SOL    HW242671   3.501   5.207   5.187  0.1660 -0.1040  0.8568
13795SOL     OW42672   1.819   8.184   0.169 -0.6937 -0.0050  0.1829
13795SOL    HW142673   1.790   8.110   0.222  0.2999 -0.9727 -0.5735
13795SOL    HW242674   1.816   8.152   0.079 -1.9894  1.4899 -0.3529
13796SOL     OW42675   6.739   8.371   5.437  0.0061 -0.4460  0.4885
13796SOL    HW142676   6.710   8.382   5.346  0.1077  0.5306  0.5637
13796SOL    HW242677   6.699   8.289   5.465 -2.8062  0.8169  0.5890
13797SOL     OW42678   3.859   8.200   8.536 -0.4706  0.3075 -0.6419
13797SOL    HW142679   3.951   8.225   8.547  0.0365 -0.1491 -3.2329
13797SOL    HW242680   3.819   8.277   8.496 -1.3092  0.5766  0.6515
13798SOL     OW42681   1.959   0.902   1.908  0.1423  0.0481 -0.1373
13798SOL    HW142682   2.011   0.875   1.831  1.0852 -0.8181  0.7682
13798SOL    HW242683   1.975   0.996   1.916  0.5392  0.0282 -0.6370
13799SOL     OW42684   2.217   2.452   3.330  0.5915  0.0150  0.3572
13799SOL    HW142685   2.255   2.379   3.379  2.3215  0.3900 -0.3558
13799SOL    HW242686   2.123   2.446   3.347  0.7859 -1.8830  0.9617
13800SOL     OW42687   3.679   4.052   4.173  0.2216  0.3645  0.6672
13800SOL    HW142688   3.757   4.085   4.129  0.6085 -0.9716  0.2935
13800SOL    HW242689   3.612   4.118   4.157  0.0699 -0.4495 -2.7401
13801SOL     OW42690   2.025   6.570   2.102 -0.5387 -0.2946 -0.1262
13801SOL    HW142691   2.103   6.573   2.046  0.4972  1.8653  1.2653
13801SOL    HW242692   1.964   6.631   2.061 -0.2865  0.2965  0.3547
13802SOL     OW42693   4.956   6.731   5.952  0.0085 -0.1492 -0.0854
13802SOL    HW142694   5.045   6.706   5.925 -0.3074 -0.7319 -0.6187
13802SOL    HW242695   4.930   6.798   5.888 -0.3597 -0.8032 -0.6320
13803SOL     OW42696   1.076   6.608   4.499  0.3733 -0.4716  0.2281
13803SOL    HW142697   1.030   6.633   4.419 -0.5630 -0.3564  0.7865
13803SOL    HW242698   1.096   6.691   4.542  2.7301 -0.4042 -0.8491
13804SOL     OW42699   7.506   8.098   0.600  0.7511  0.3916  0.0907
13804SOL    HW142700   7.549   8.015   0.578  0.6600  0.7626 -1.6872
13804SOL    HW242701   7.567   8.143   0.658  1.0241 -0.6917  0.6687
13805SOL     OW42702   5.704   5.881   3.387 -0.6065  0.4788  0.6761
13805SOL    HW142703   5.790   5.888   3.346 -2.0942  0.8219 -2.7489
13805SOL    HW242704   5.686   5.787   3.390 -0.7055  0.4672 -0.0611
13806SOL     OW42705   4.513   2.416   0.972  0.0397  0.1613 -0.5531
13806SOL    HW142706   4.421   2.442   0.966  0.1578  0.7766  0.1134
13806SOL    HW242707   4.546   2.465   1.047  0.7365 -0.5912 -0.3563
13807SOL     OW42708   7.230   4.530   3.154  0.2079  0.0202 -0.1340
13807SOL    HW142709   7.287   4.597   3.192 -1.1028  0.1193  1.8289
13807SOL    HW242710   7.260   4.448   3.193 -0.2979 -0.0700  0.0765
13808SOL     OW42711   8.457   0.710   6.375 -0.4366 -0.2110  0.2971
13808SOL    HW142712   8.424   0.686   6.461 -0.5929  0.9231  0.5670
13808SOL    HW242713   8.416   0.795   6.356  1.3014  0.6168  0.0870
13809SOL     OW42714   0.191   3.691   2.023  0.3299 -0.0590 -0.3010
13809SOL    HW142715   0.113   3.746   2.019  1.0668  1.0828  0.5885
13809SOL    HW242716   0.259   3.741   1.978  0.4250 -1.3532 -1.7102
13810SOL     OW42717   6.457   6.297   0.188 -0.2622 -0.2669 -0.6080
13810SOL    HW142718   6.445   6.207   0.217  0.2400 -0.1678 -0.0649
13810SOL    HW242719   6.393   6.309   0.119  0.8978 -1.6186 -1.9720
13811SOL     OW42720   5.258   5.080   5.211 -0.7229  0.4979  0.1132
13811SOL    HW142721   5.293   5.043   5.293 -0.7630  2.1332  0.8987
13811SOL    HW242722   5.302   5.164   5.202 -0.5355  0.2388 -1.7107
13812SOL     OW42723   5.159   4.734   6.970  0.5621 -0.0341 -0.3894
13812SOL    HW142724   5.105   4.685   6.908 -2.3380  1.7510  0.5182
13812SOL    HW242725   5.151   4.686   7.052  0.0584  0.3949 -0.1807
13813SOL     OW42726   4.609   0.278   0.714  0.3222 -0.0861 -0.0033
13813SOL    HW142727   4.596   0.269   0.620 -0.1571  0.1604  0.0364
13813SOL    HW242728   4.585   0.193   0.750 -1.1255  0.3197  0.0565
13814SOL     OW42729   7.353   7.081   2.269 -0.3287 -0.2461 -0.4378
13814SOL    HW142730   7.403   7.021   2.325 -0.5874  0.3790  0.4878
13814SOL    HW242731   7.316   7.025   2.201 -0.3835 -1.1132  0.2819
13815SOL     OW42732   1.201   5.357   2.680 -0.3357 -0.3921 -0.2750
13815SOL    HW142733   1.241   5.364   2.767  0.3715 -1.5645 -0.4841
13815SOL    HW242734   1.144   5.433   2.674  0.7317  0.5140  0.6312
13816SOL     OW42735   6.443   8.339   5.133 -0.1774 -0.3264  0.5456
13816SOL    HW142736   6.428   8.368   5.043 -1.9344  0.0681  0.9211
13816SOL    HW242737   6.503   8.404   5.170  0.7710 -0.6395 -0.3947
13817SOL     OW42738   8.140   4.332   7.175 -0.3932 -0.4834 -0.6422
13817SOL    HW142739   8.170   4.348   7.085  2.1806  0.3378  0.2742
13817SOL    HW242740   8.169   4.409   7.224 -0.0806 -1.7399  1.2433
13818SOL     OW42741   1.885   4.004   6.427 -0.2676  0.3118 -0.1696
13818SOL    HW142742   1.806   4.035   6.472  0.0505 -0.4383  0.9338
13818SOL    HW242743   1.868   3.912   6.409  0.4116  0.1077  0.2089
13819SOL     OW42744   0.959   5.294   3.622  0.0728  0.3107  0.1101
13819SOL    HW142745   1.044   5.251   3.617  0.4666  0.3453  4.0132
13819SOL    HW242746   0.895   5.223   3.611  0.5165  0.1216 -1.6673
13820SOL     OW42747   7.882   8.521   6.803  0.1110  0.4982 -0.4794
13820SOL    HW142748   7.811   8.521   6.867 -0.6254 -0.3145 -1.2614
13820SOL    HW242749   7.866   8.598   6.748 -0.2609  0.2506 -0.7305
13821SOL     OW42750   6.451   1.960   1.291 -0.4323 -0.0138 -0.4311
13821SOL    HW142751   6.545   1.943   1.294 -0.2215  1.1372 -0.0483
13821SOL    HW242752   6.424   1.934   1.203  0.1611 -0.6998 -0.4231
13822SOL     OW42753   5.246   6.566   4.583 -0.0043 -0.2143  0.2950
13822SOL    HW142754   5.298   6.646   4.575 -1.5778  0.8107 -0.3932
13822SOL    HW242755   5.232   6.556   4.677 -0.5321  0.8787  0.3544
13823SOL     OW42756   2.557   6.888   5.260  0.6350 -0.4527  0.2371
13823SOL    HW142757   2.507   6.894   5.341  2.6730 -0.5628  1.5916
13823SOL    HW242758   2.647   6.908   5.286  0.8692  3.5201 -2.7092
13824SOL     OW42759   7.600   5.637   4.927 -0.0999 -0.1565  0.4336
13824SOL    HW142760   7.681   5.587   4.922  0.3854  0.6219  0.4306
13824SOL    HW242761   7.622   5.724   4.894 -0.8029  0.2231  0.9142
13825SOL     OW42762   2.012   7.733   7.242 -0.4045 -0.0382 -0.6759
13825SOL    HW142763   2.025   7.826   7.260 -1.2215  0.0584 -0.5763
13825SOL    HW242764   1.992   7.694   7.327 -1.7184 -0.0130 -0.9573
13826SOL     OW42765   1.433   4.050   3.410  0.0324 -0.3625 -0.1746
13826SOL    HW142766   1.407   4.024   3.499 -2.3649 -0.0509 -0.7270
13826SOL    HW242767   1.507   4.109   3.423  0.7266 -1.5392  1.5153
13827SOL     OW42768   3.512   1.971   2.455  0.1409 -0.2871  0.0323
13827SOL    HW142769   3.472   1.901   2.506 -0.1176  0.3126  0.6655
13827SOL    HW242770   3.476   2.051   2.492  1.2888  0.2345  0.0486
13828SOL     OW42771   7.597   2.935   3.267  0.4926 -0.7293 -0.3904
13828SOL    HW142772   7.597   2.845   3.234 -0.0408 -0.4655 -1.1447
13828SOL    HW242773   7.525   2.938   3.330  0.1209 -0.6746 -0.8164
13829SOL     OW42774   6.077   4.170   7.297  0.8037  0.6996  0.2325
13829SOL    HW142775   6.077   4.074   7.292  2.4729  0.5832  1.4335
13829SOL    HW242776   6.029   4.189   7.377 -0.4970  0.9476 -0.5893
13830SOL     OW42777   6.023   8.043   2.173  0.2726 -0.7498 -0.0181
13830SOL    HW142778   6.105   8.002   2.147 -0.3708 -1.5435 -0.8767
13830SOL    HW242779   6.033   8.061   2.266  0.8972 -2.0868  0.1882
13831SOL     OW42780   2.186   7.939   1.866  0.1573 -0.4727 -0.5077
13831SOL    HW142781   2.136   7.922   1.786  0.7780  0.4407 -1.1059
13831SOL    HW242782   2.277   7.945   1.836  0.4270 -0.3859  0.3102
13832SOL     OW42783   8.434   4.847   7.497  0.8149  0.4309 -0.5792
13832SOL    HW142784   8.465   4.907   7.564  0.3583 -0.3098  0.3209
13832SOL    HW242785   8.444   4.895   7.415 -0.4240  2.0991  0.1802
13833SOL     OW42786   5.994   3.526   2.236  0.3179  0.6217 -0.3968
13833SOL    HW142787   5.937   3.453   2.260 -0.5713  1.8655  1.5394
13833SOL    HW242788   6.082   3.488   2.237 -0.1739 -0.5620 -0.0289
13834SOL     OW42789   2.364   1.163   7.424 -0.2378 -0.4013 -0.3760
13834SOL    HW142790   2.342   1.082   7.380 -0.6658 -0.5208  0.0409
13834SOL    HW242791   2.287   1.182   7.478  0.7754 -0.9876  1.3683
13835SOL     OW42792   1.179   3.506   2.390  0.2518  0.1016  0.0905
13835SOL    HW142793   1.102   3.504   2.448  0.0553 -0.7797 -0.1885
13835SOL    HW242794   1.152   3.559   2.315 -0.1980 -0.4627 -0.1525
13836SOL     OW42795   1.965   3.658   6.477 -0.3239 -0.0507 -0.7229
13836SOL    HW142796   1.937   3.568   6.457 -1.0547 -0.1013  0.4832
13836SOL    HW242797   1.887   3.701   6.511  0.4098  0.5857  0.1923
13837SOL     OW42798   8.651   0.512   4.980  0.6037  1.0583 -0.2720
13837SOL    HW142799   8.694   0.546   4.901  2.6008  1.8507  1.0714
13837SOL    HW242800   8.627   0.591   5.029  1.5263  0.6006  0.9687
13838SOL     OW42801   2.520   3.783   3.420 -0.1733 -0.4048 -0.3024
13838SOL    HW142802   2.486   3.818   3.338 -2.5704 -0.4328  0.6206
13838SOL    HW242803   2.444   3.775   3.477  1.3840 -0.6039  1.8752
13839SOL     OW42804   7.593   7.862   3.623  0.0361 -0.5603 -0.0126
13839SOL    HW142805   7.551   7.921   3.561  0.5762  0.3199  0.4507
13839SOL    HW242806   7.555   7.776   3.603 -2.6942  0.3070  0.9810
13840SOL     OW42807   6.067   5.616   5.387 -0.2723  0.4159 -0.7575
13840SOL    HW142808   6.130   5.613   5.314  0.7177 -0.7404  0.1103
13840SOL    HW242809   5.981   5.610   5.345  0.2139  1.1682 -1.9176
13841SOL     OW42810   5.529   2.879   0.181  0.0643  0.0141  0.0774
13841SOL    HW142811   5.442   2.893   0.144 -0.4614 -0.9493  0.9021
13841SOL    HW242812   5.588   2.923   0.120 -1.0472  1.3235 -0.0992
13842SOL     OW42813   5.630   4.267   5.262 -0.5134 -0.1082 -0.0666
13842SOL    HW142814   5.675   4.220   5.332 -0.8261 -0.8564 -0.3603
13842SOL    HW242815   5.699   4.316   5.218  0.0752 -1.4255 -0.6556
13843SOL     OW42816   2.988   5.019   5.562 -0.3030 -0.2779 -0.2747
13843SOL    HW142817   2.978   4.935   5.517 -3.2769  0.8898 -2.1989
13843SOL    HW242818   2.999   5.083   5.491 -1.5482  1.2835  0.8437
13844SOL     OW42819   5.559   4.168   8.692  0.2086 -0.2242  0.1892
13844SOL    HW142820   5.580   4.199   8.604  1.1845  1.3011  0.9184
13844SOL    HW242821   5.473   4.207   8.711  0.7336  0.8232  0.5060
13845SOL     OW42822   4.921   0.912   7.815  0.3405 -0.0202 -0.1888
13845SOL    HW142823   5.011   0.936   7.834  0.5395 -1.5454  1.0670
13845SOL    HW242824   4.927   0.854   7.739  0.5507 -0.8466  0.4401
13846SOL     OW42825   4.136   3.402   7.644 -0.3829 -0.0078  0.0806
13846SOL    HW142826   4.050   3.417   7.685 -0.7882  1.1870 -1.1540
13846SOL    HW242827   4.124   3.428   7.553  1.2472 -0.0492 -0.1700
13847SOL     OW42828   5.702   5.780   7.856  0.4907  0.2219  0.3374
13847SOL    HW142829   5.736   5.852   7.802  1.4640 -0.6210 -0.1997
13847SOL    HW242830   5.674   5.713   7.794  0.2335 -0.1531  0.8480
13848SOL     OW42831   5.095   7.955   4.208  0.4223  0.2873 -0.0627
13848SOL    HW142832   5.100   7.861   4.190 -0.5769  0.2007  0.0599
13848SOL    HW242833   5.184   7.979   4.234  1.1622 -0.2213 -1.9672
13849SOL     OW42834   3.591   7.433   2.938  0.4446 -0.7205 -0.1046
13849SOL    HW142835   3.541   7.503   2.895  0.8994 -0.4524 -0.1962
13849SOL    HW242836   3.534   7.356   2.931  0.2235 -0.5198 -0.5905
13850SOL     OW42837   6.750   6.431   5.351 -0.2662 -0.0498  0.7556
13850SOL    HW142838   6.761   6.514   5.304 -1.1278 -1.2348 -1.7570
13850SOL    HW242839   6.655   6.416   5.353 -0.0839 -1.7608 -0.4918
13851SOL     OW42840   4.543   1.750   5.856 -0.3353 -0.1427 -0.5196
13851SOL    HW142841   4.632   1.780   5.840 -0.4831  1.9454  1.9384
13851SOL    HW242842   4.549   1.699   5.937 -1.5774  1.9375  1.0085
13852SOL     OW42843   4.787   4.110   2.699  0.2902 -0.3694 -0.5002
13852SOL    HW142844   4.754   4.049   2.766  1.7139 -0.9987 -0.3209
13852SOL    HW242845   4.878   4.124   2.724  0.0136  1.8386 -0.5681
13853SOL     OW42846   4.500   8.420   4.063  0.8647  0.5657 -0.4769
13853SOL    HW142847   4.500   8.385   3.974  0.7474 -0.5192 -0.0728
13853SOL    HW242848   4.479   8.345   4.118 -1.1467  1.6404  0.3273
13854SOL     OW42849   3.011   7.748   1.389 -0.1493 -0.4202  0.0403
13854SOL    HW142850   3.094   7.730   1.433 -0.3591 -0.4268  0.4357
13854SOL    HW242851   3.034   7.757   1.296  0.5369  1.1350  0.3211
13855SOL     OW42852   3.438   4.710   0.203 -0.5275 -0.3439  0.6367
13855SOL    HW142853   3.434   4.804   0.216  0.2103 -0.2231  0.0906
13855SOL    HW242854   3.387   4.673   0.275  1.2563  0.3742  2.3842
13856SOL     OW42855   8.081   6.264   0.211 -0.0111 -0.4431 -0.5353
13856SOL    HW142856   8.153   6.250   0.272 -1.5432 -0.2657  1.4247
13856SOL    HW242857   8.062   6.357   0.217 -1.1710 -0.6913 -0.0808
13857SOL     OW42858   8.573   0.577   2.643 -0.8736 -0.3659  0.5688
13857SOL    HW142859   8.508   0.648   2.646 -1.2013 -0.4745 -1.9048
13857SOL    HW242860   8.614   0.586   2.557 -0.2052 -2.5561  0.5972
13858SOL     OW42861   0.808   1.314   6.299  0.2173  0.7170  0.0984
13858SOL    HW142862   0.750   1.337   6.371  0.2749  1.3901 -0.0632
13858SOL    HW242863   0.789   1.222   6.281 -1.2337  1.0746 -0.3430
13859SOL     OW42864   7.802   0.852   0.140  0.3940  0.0064  0.1473
13859SOL    HW142865   7.797   0.757   0.135 -0.3540  0.0762 -0.4709
13859SOL    HW242866   7.840   0.879   0.056 -1.7023  0.4063 -0.7220
13860SOL     OW42867   5.700   7.798   4.365  0.3822  0.4849 -0.3396
13860SOL    HW142868   5.648   7.759   4.294 -2.0256  0.8220  1.1321
13860SOL    HW242869   5.765   7.731   4.386 -2.0266 -1.7994  0.4214
13861SOL     OW42870   0.043   2.700   5.054  0.0213  0.0816 -0.5014
13861SOL    HW142871  -0.037   2.699   5.001 -0.9179 -1.8186  0.8334
13861SOL    HW242872   0.111   2.667   4.995 -0.5736 -0.0291 -1.1373
13862SOL     OW42873   2.806   4.279   1.724 -0.0532 -0.4329 -0.1750
13862SOL    HW142874   2.729   4.268   1.668 -1.6003 -1.9599  2.1038
13862SOL    HW242875   2.861   4.203   1.705  0.5812  0.2736 -1.2648
13863SOL     OW42876   0.549   4.468   3.285  0.3187  0.5889 -0.0874
13863SOL    HW142877   0.553   4.561   3.308  0.1615  1.0074 -1.6328
13863SOL    HW242878   0.623   4.455   3.226  0.3337 -0.2780  0.1117
13864SOL     OW42879   4.943   8.377   0.318  0.0956 -0.2097 -0.4761
13864SOL    HW142880   4.875   8.414   0.261 -0.1085 -1.2529 -0.9429
13864SOL    HW242881   4.896   8.313   0.371  0.8659 -1.6750 -1.5033
13865SOL     OW42882   2.045   7.421   6.674 -0.7882  0.3195  0.1573
13865SOL    HW142883   2.017   7.403   6.763  0.7052 -0.0651  0.5791
13865SOL    HW242884   2.092   7.343   6.646 -0.3191  0.8395 -0.5733
13866SOL     OW42885   0.641   7.651   5.745 -0.0824 -0.0639 -0.1134
13866SOL    HW142886   0.583   7.639   5.670  1.3670 -2.0121 -1.0373
13866SOL    HW242887   0.600   7.719   5.797 -1.9539  0.2627 -1.8860
13867SOL     OW42888   2.104   1.742   7.122 -0.1131  0.6664  0.2103
13867SOL    HW142889   2.085   1.829   7.157 -0.5149  0.1076  1.4561
13867SOL    HW242890   2.085   1.683   7.195  1.1992 -0.3803 -0.2691
13868SOL     OW42891   4.792   3.766   2.150  0.4234 -0.3041  0.1778
13868SOL    HW142892   4.779   3.752   2.056  1.9371 -1.4333  0.1021
13868SOL    HW242893   4.886   3.778   2.160  0.2801 -0.1722  1.5554
13869SOL     OW42894   5.598   2.396   3.599  0.5240  0.1442 -0.9039
13869SOL    HW142895   5.651   2.388   3.678 -0.3367  3.1946  0.1256
13869SOL    HW242896   5.609   2.487   3.571  0.5152 -0.7176 -4.1596
13870SOL     OW42897   1.781   5.165   6.418 -0.3157  0.5254 -0.2844
13870SOL    HW142898   1.741   5.249   6.395 -0.4875  0.1767 -1.3266
13870SOL    HW242899   1.706   5.106   6.429 -0.1630  0.3375 -0.2509
13871SOL     OW42900   2.464   0.668   1.134  0.4384  0.2798  0.4237
13871SOL    HW142901   2.396   0.736   1.141 -0.4824 -0.6096  0.3116
13871SOL    HW242902   2.546   0.715   1.150  0.3002  2.2640 -3.5382
13872SOL     OW42903   0.513   0.097   6.069 -0.5160  0.2678 -0.2683
13872SOL    HW142904   0.537   0.165   6.005  1.4667 -1.0186 -0.9760
13872SOL    HW242905   0.460   0.035   6.019 -0.3364  0.0980 -0.2497
13873SOL     OW42906   7.694   6.436   4.970 -0.1547 -0.0296  0.3147
13873SOL    HW142907   7.694   6.342   4.953 -2.0999 -0.2825  1.3194
13873SOL    HW242908   7.712   6.476   4.885  0.2260 -1.3016 -0.2313
13874SOL     OW42909   2.505   2.130   0.651  0.3015 -0.2953 -0.5289
13874SOL    HW142910   2.535   2.084   0.573  1.4966 -2.5949  1.1603
13874SOL    HW242911   2.418   2.093   0.670 -1.0144  1.8652 -1.9139
13875SOL     OW42912   8.392   0.790   2.644  0.1996  0.5083  1.0323
13875SOL    HW142913   8.321   0.775   2.581  1.3528  2.6262 -0.9121
13875SOL    HW242914   8.355   0.853   2.706  0.4871  2.1549 -0.3757
13876SOL     OW42915   8.460   1.523   5.617 -0.4358  0.0284  0.1425
13876SOL    HW142916   8.485   1.533   5.709  0.5225 -0.5179 -0.0496
13876SOL    HW242917   8.408   1.442   5.616  0.4765 -0.5764  0.0443
13877SOL     OW42918   5.131   1.557   7.313 -0.0386 -0.0292 -0.7462
13877SOL    HW142919   5.042   1.591   7.309 -1.0421 -2.4707 -0.6459
13877SOL    HW242920   5.141   1.523   7.402  0.6778 -0.5822 -1.0265
13878SOL     OW42921   3.747   1.315   4.356  0.0503  0.1789  0.5816
13878SOL    HW142922   3.828   1.360   4.378 -0.2121  0.6343  0.6386
13878SOL    HW242923   3.769   1.222   4.358  0.9439  0.3343 -0.8237
13879SOL     OW42924   6.934   8.547   6.795  0.5627  0.2782  0.3537
13879SOL    HW142925   6.996   8.602   6.843 -0.1256  0.9310  0.5198
13879SOL    HW242926   6.986   8.475   6.761  1.1392 -0.0324  1.8212
13880SOL     OW42927   3.792   4.166   6.679  0.5538 -0.6087  0.0605
13880SOL    HW142928   3.833   4.127   6.757 -0.7228  0.0988  1.1327
13880SOL    HW242929   3.813   4.259   6.686 -1.6253 -0.1278  0.9462
13881SOL     OW42930   1.591   5.710   3.991 -0.2909 -0.1004 -0.2251
13881SOL    HW142931   1.539   5.746   4.063 -0.5570  0.5612 -0.7312
13881SOL    HW242932   1.680   5.742   4.007 -0.2891 -0.2072 -0.0246
13882SOL     OW42933   7.461   6.659   3.930  0.0613 -0.1941  0.1253
13882SOL    HW142934   7.492   6.711   3.856 -0.5639 -0.0781 -0.0573
13882SOL    HW242935   7.473   6.716   4.006 -0.1536  0.0293 -0.0071
13883SOL     OW42936   3.597   3.212   3.839 -0.4359 -0.3352 -0.4184
13883SOL    HW142937   3.663   3.147   3.862  1.1741  1.1969 -0.4336
13883SOL    HW242938   3.543   3.169   3.773  0.0758 -1.9025  0.1423
13884SOL     OW42939   4.411   5.748   1.949 -0.0316  0.4962  0.0200
13884SOL    HW142940   4.345   5.689   1.914 -1.2633  1.1050  1.2240
13884SOL    HW242941   4.418   5.724   2.041  3.7097 -1.6125 -0.5985
13885SOL     OW42942   2.988   4.740   7.041 -0.7655 -0.1526  0.0790
13885SOL    HW142943   3.075   4.730   7.080 -0.8168 -0.5588  0.0885
13885SOL    HW242944   3.004   4.786   6.959 -0.6397  0.5740  0.4969
13886SOL     OW42945   0.781   2.477   1.614  0.0981 -0.2419  0.4064
13886SOL    HW142946   0.721   2.531   1.562 -1.0722 -1.5894  0.3099
13886SOL    HW242947   0.734   2.459   1.695  1.1178  0.1809  1.1165
13887SOL     OW42948   4.661   8.251   2.939  0.4742  0.0282  0.0174
13887SOL    HW142949   4.675   8.332   2.989 -0.6559  0.5608 -0.4866
13887SOL    HW242950   4.685   8.273   2.849 -0.3207 -0.0293 -0.2194
13888SOL     OW42951   2.495   8.212   7.122 -0.1602 -0.2477 -0.4569
13888SOL    HW142952   2.484   8.301   7.153 -0.5490  0.5261 -2.6268
13888SOL    HW242953   2.590   8.198   7.120 -0.0629 -1.2675  3.2746
13889SOL     OW42954   5.074   5.946   5.023 -0.0375 -0.2378  0.2249
13889SOL    HW142955   5.023   5.865   5.014  0.3514 -0.3499 -1.2768
13889SOL    HW242956   5.154   5.929   4.974  0.3793  0.7976  0.5280
13890SOL     OW42957   5.481   7.903   8.291  0.2303 -0.4667 -0.5206
13890SOL    HW142958   5.519   7.894   8.204 -1.4255  0.0493 -1.3226
13890SOL    HW242959   5.443   7.817   8.309 -2.2073  0.2766 -1.7095
13891SOL     OW42960   6.340   3.364   6.986  0.7352 -0.2598 -0.1512
13891SOL    HW142961   6.376   3.332   6.903  0.2043 -0.0543 -0.4677
13891SOL    HW242962   6.249   3.334   6.985  0.3917  0.7660 -0.1872
13892SOL     OW42963   6.737   1.514   4.696 -0.4814 -0.8225 -0.3288
13892SOL    HW142964   6.780   1.511   4.610 -0.4159 -0.9617 -0.2918
13892SOL    HW242965   6.654   1.559   4.680 -0.2687 -0.4497 -0.3795
13893SOL     OW42966   3.400   2.159   0.295 -0.6958  0.2747  0.1747
13893SOL    HW142967   3.323   2.202   0.258 -0.4765  0.7375  0.2416
13893SOL    HW242968   3.370   2.124   0.379 -0.5973  1.3005  0.6517
13894SOL     OW42969   0.747   8.237   6.630  0.3392  0.7340  0.3664
13894SOL    HW142970   0.746   8.154   6.678 -0.5238  0.7972  0.4790
13894SOL    HW242971   0.829   8.235   6.579  2.2269  1.4494  3.1569
13895SOL     OW42972   6.098   7.078   1.722 -0.5100 -0.4522 -0.5455
13895SOL    HW142973   6.141   7.162   1.738 -0.4779 -0.2543 -1.6085
13895SOL    HW242974   6.006   7.094   1.741 -0.5559 -0.0809 -1.0655
13896SOL     OW42975   3.319   6.375   3.243 -0.0971  0.1020 -0.7076
13896SOL    HW142976   3.236   6.328   3.229 -0.1548 -0.0230 -0.0057
13896SOL    HW242977   3.381   6.330   3.186 -0.1969 -0.7209 -0.1999
13897SOL     OW42978   7.954   2.989   3.125  0.7038 -0.2908 -0.7686
13897SOL    HW142979   8.045   2.964   3.112  0.4177 -1.6158 -0.3833
13897SOL    HW242980   7.937   2.970   3.217 -0.3463 -1.4320 -1.1701
13898SOL     OW42981   7.624   7.233   1.452  0.0946  0.6155  0.3323
13898SOL    HW142982   7.625   7.296   1.524 -1.0426 -0.1428  1.0419
13898SOL    HW242983   7.676   7.160   1.484 -0.0894  0.4359  0.2198
13899SOL     OW42984   6.651   8.366   3.450  0.6046 -0.2684 -0.3367
13899SOL    HW142985   6.596   8.385   3.374 -0.2801 -0.0735  0.3306
13899SOL    HW242986   6.687   8.450   3.476  0.4078 -0.2313 -0.1762
13900SOL     OW42987   7.260   8.075   3.427  0.3816 -0.9023 -0.4704
13900SOL    HW142988   7.300   8.146   3.377  0.5492 -1.2650 -0.8527
13900SOL    HW242989   7.301   7.995   3.394 -0.6003 -1.2784 -0.8282
13901SOL     OW42990   1.895   7.091   8.612 -0.2481  0.0812  0.1820
13901SOL    HW142991   1.852   7.133   8.686 -1.2300  0.3917 -0.5424
13901SOL    HW242992   1.955   7.157   8.578 -1.2156  0.6358 -0.4738
13902SOL     OW42993   7.804   1.860   5.836  0.3123  0.1063  0.3896
13902SOL    HW142994   7.749   1.867   5.758  0.9332  1.1894  0.0156
13902SOL    HW242995   7.892   1.881   5.804  1.6130 -4.4226  0.3311
13903SOL     OW42996   1.000   4.734   3.408 -0.2860 -0.0703 -0.0302
13903SOL    HW142997   1.071   4.675   3.384 -0.7129  0.3889 -2.7361
13903SOL    HW242998   0.994   4.795   3.335 -1.9434  1.3698  1.2197
13904SOL     OW42999   5.031   2.017   5.575  0.0744 -0.3402  0.1639
13904SOL    HW143000   5.122   2.036   5.598  0.5561 -3.0013  0.8075
13904SOL    HW243001   4.980   2.051   5.647  0.5603  0.9797 -0.0939
13905SOL     OW43002   1.812   7.632   8.129 -0.7320 -0.4255 -0.2117
13905SOL    HW143003   1.906   7.625   8.146 -0.8814  1.3364  1.7837
13905SOL    HW243004   1.804   7.695   8.057 -0.3794 -1.7690 -1.4754
13906SOL     OW43005   0.450   4.361   1.715 -0.3762 -0.4403  0.6885
13906SOL    HW143006   0.446   4.388   1.806  0.8788 -0.7303  0.8502
13906SOL    HW243007   0.503   4.281   1.715 -0.0219 -0.2271 -0.3292
13907SOL     OW43008   0.376   1.177   3.119  0.1550 -0.0891  0.0727
13907SOL    HW143009   0.349   1.241   3.185 -2.0641  3.3647 -3.7074
13907SOL    HW243010   0.294   1.147   3.080  1.3589 -0.9931 -1.9184
13908SOL     OW43011   7.021   1.016   3.875  0.0110  0.1206 -0.4511
13908SOL    HW143012   7.088   0.990   3.811  0.5548  0.1806  0.0826
13908SOL    HW243013   6.978   1.092   3.835  0.9142  0.6847 -0.3835
13909SOL     OW43014   3.802   5.337   3.932 -0.0946  0.4845  0.2962
13909SOL    HW143015   3.870   5.401   3.955  0.3094 -0.2937  1.3330
13909SOL    HW243016   3.772   5.302   4.016 -1.1318  0.1529 -0.2039
13910SOL     OW43017   4.578   3.006   5.873 -0.4734 -0.4921  0.0634
13910SOL    HW143018   4.588   2.913   5.894  0.5900 -0.2572  0.6474
13910SOL    HW243019   4.525   3.041   5.945  1.3170 -0.1379  1.2676
13911SOL     OW43020   2.911   8.026   5.270  0.1444 -0.4572 -0.2432
13911SOL    HW143021   3.004   8.008   5.284 -0.1955 -0.9233  1.6853
13911SOL    HW243022   2.866   7.958   5.320 -1.2312  1.1607  0.7983
13912SOL     OW43023   7.648   6.445   2.399 -0.4439  0.6622  0.0652
13912SOL    HW143024   7.555   6.434   2.377  0.0526 -0.5710 -1.6213
13912SOL    HW243025   7.692   6.447   2.314  1.0656  1.3683  0.8472
13913SOL     OW43026   3.432   3.885   0.249  0.1062  0.0648  0.1344
13913SOL    HW143027   3.488   3.886   0.327 -1.2834  0.6076  1.1767
13913SOL    HW243028   3.409   3.793   0.238  0.1259  0.0122  0.5141
13914SOL     OW43029   8.560   7.884   0.531  0.1093  0.4208  0.2285
13914SOL    HW143030   8.473   7.861   0.565 -0.7397 -1.0102 -2.6474
13914SOL    HW243031   8.618   7.818   0.570 -0.5868 -0.3509 -0.0004
13915SOL     OW43032   7.355   6.602   2.697 -0.6255  0.1599  0.3440
13915SOL    HW143033   7.340   6.513   2.729 -2.2182  0.6206  0.9610
13915SOL    HW243034   7.272   6.647   2.711 -0.0037  1.6109 -0.4379
13916SOL     OW43035   2.620   8.522   7.459  0.3924  0.0627 -0.2569
13916SOL    HW143036   2.694   8.567   7.420  1.0871  0.8499  1.8351
13916SOL    HW243037   2.593   8.577   7.532 -0.0984 -1.8435  1.0985
13917SOL     OW43038   6.103   5.352   7.990 -0.4341  0.3471 -0.2672
13917SOL    HW143039   6.012   5.325   8.000  0.0467 -1.5703 -0.6885
13917SOL    HW243040   6.137   5.357   8.080 -0.4823 -0.7962 -0.1632
13918SOL     OW43041   2.303   8.056   1.193 -0.0340  0.1667 -0.6004
13918SOL    HW143042   2.222   8.005   1.202 -0.0126  0.3566  1.0416
13918SOL    HW243043   2.320   8.089   1.281  1.6330  0.4499 -0.9920
13919SOL     OW43044   2.002   0.672   2.065  0.2042 -0.1152  0.3073
13919SOL    HW143045   1.946   0.735   2.019 -0.2832 -0.6930  0.1019
13919SOL    HW243046   2.082   0.721   2.084  0.0937  0.3780 -0.4418
13920SOL     OW43047   0.204   4.946   5.000 -0.0431 -0.0162 -0.8400
13920SOL    HW143048   0.233   4.993   5.079 -0.1641 -0.1190 -0.7332
13920SOL    HW243049   0.170   5.015   4.943 -0.3669  0.0104 -0.6181
13921SOL     OW43050   6.120   5.715   4.763 -0.7129  0.7757  0.0835
13921SOL    HW143051   6.116   5.730   4.858  0.6684 -0.3186  0.3496
13921SOL    HW243052   6.080   5.793   4.725 -1.6614  1.0505  1.5739
13922SOL     OW43053   3.490   6.885   5.218  0.4814  0.1687 -0.7315
13922SOL    HW143054   3.445   6.966   5.194 -0.2305 -0.3986 -1.3577
13922SOL    HW243055   3.566   6.881   5.160 -0.5348 -0.5587 -2.0544
13923SOL     OW43056   8.541   4.350   8.347 -0.1502  0.1452  0.2449
13923SOL    HW143057   8.625   4.379   8.312 -0.1610  1.7198  1.4312
13923SOL    HW243058   8.559   4.264   8.386  0.6953  0.0787 -0.2716
13924SOL     OW43059   1.481   7.102   5.254 -0.3854  0.0017 -0.1899
13924SOL    HW143060   1.475   7.121   5.160  1.2552 -1.1226 -0.5666
13924SOL    HW243061   1.565   7.139   5.281 -0.7052  0.0501  0.7777
13925SOL     OW43062   5.980   0.986   0.301 -0.2857 -0.2854 -0.1717
13925SOL    HW143063   6.008   1.057   0.243  2.1858  0.0056  1.2429
13925SOL    HW243064   6.047   0.918   0.289 -2.1576 -2.1088 -0.8886
13926SOL     OW43065   8.564   8.353   8.468  0.0936 -0.0529  0.2168
13926SOL    HW143066   8.658   8.354   8.485  0.0379 -1.6203  0.7892
13926SOL    HW243067   8.526   8.308   8.543 -1.2022  1.1010  0.2901
13927SOL     OW43068   4.976   6.865   7.836  0.1410  0.5194  1.3421
13927SOL    HW143069   5.025   6.783   7.828 -0.3678  0.3849 -2.2816
13927SOL    HW243070   5.044   6.932   7.847  0.8860 -0.0633  0.5127
13928SOL     OW43071   5.665   5.494   1.180 -0.4159 -0.2249 -0.4603
13928SOL    HW143072   5.616   5.576   1.189 -0.1558 -0.0965 -0.1505
13928SOL    HW243073   5.755   5.522   1.161  0.5314 -0.2494  3.2138
13929SOL     OW43074   4.893   2.331   7.413 -0.4291  0.2337  0.5895
13929SOL    HW143075   4.888   2.400   7.479  0.2873  1.4238 -0.5517
13929SOL    HW243076   4.981   2.294   7.425  0.0218  1.0086 -0.1986
13930SOL     OW43077   7.973   3.444   8.488  0.5092  0.0836  0.8971
13930SOL    HW143078   7.900   3.382   8.491 -0.1446  0.7924  0.1320
13930SOL    HW243079   7.933   3.529   8.506  1.2125  0.4269  0.8487
13931SOL     OW43080   7.523   3.281   7.959  0.0068 -0.0931 -0.4752
13931SOL    HW143081   7.563   3.197   7.982 -0.2433  0.4982  2.4916
13931SOL    HW243082   7.597   3.337   7.936  0.2823 -0.7288 -1.1972
13932SOL     OW43083   8.647   2.795   1.213  0.6929 -0.6907  0.3620
13932SOL    HW143084   8.723   2.838   1.252  0.0551 -0.1949  1.0918
13932SOL    HW243085   8.579   2.863   1.213 -0.8406 -2.0962  3.0120
13933SOL     OW43086   4.594   3.445   2.423  0.5607 -0.0748  0.2324
13933SOL    HW143087   4.670   3.413   2.471 -0.2466 -1.2469  0.7654
13933SOL    HW243088   4.630   3.497   2.352  1.8496 -0.4581  0.5900
13934SOL     OW43089   5.362   7.846   3.458  0.5610  0.5881  0.4473
13934SOL    HW143090   5.451   7.814   3.474  0.7747  1.0884  0.2525
13934SOL    HW243091   5.306   7.776   3.492  1.0259 -0.0403 -0.0449
13935SOL     OW43092   7.766   3.684   0.455  0.0182  0.8320  0.2263
13935SOL    HW143093   7.693   3.622   0.465  0.5564  0.1558 -0.0141
13935SOL    HW243094   7.755   3.745   0.528 -0.0831  0.0104  0.9046
13936SOL     OW43095   2.027   8.451   4.330 -0.0777 -0.3914  0.0041
13936SOL    HW143096   2.111   8.407   4.339  0.2473  0.5217  1.7034
13936SOL    HW243097   1.964   8.379   4.319  0.8468 -1.0905 -0.8797
13937SOL     OW43098   5.898   3.964   5.029 -0.6060  0.3894 -0.8784
13937SOL    HW143099   5.964   3.903   4.996 -2.6174 -1.6453 -1.3720
13937SOL    HW243100   5.875   4.016   4.953 -0.0314  0.7029 -0.8481
13938SOL     OW43101   8.178   8.516   5.031  0.8070 -0.1121 -0.3998
13938SOL    HW143102   8.215   8.599   5.061 -2.3682  1.0866  0.5606
13938SOL    HW243103   8.201   8.453   5.100  1.1315  0.5184  0.0744
13939SOL     OW43104   4.855   3.046   2.367 -0.5004 -0.0313 -0.0142
13939SOL    HW143105   4.762   3.039   2.344 -1.0511  0.1933  1.9876
13939SOL    HW243106   4.856   3.092   2.451  1.3180 -1.6100  0.8983
13940SOL     OW43107   2.414   4.078   7.218 -0.1988 -0.1570 -0.0494
13940SOL    HW143108   2.386   4.146   7.157  0.9917 -0.4520 -0.9539
13940SOL    HW243109   2.374   3.998   7.185 -1.5315  0.0470  0.9684
13941SOL     OW43110   1.139   4.240   2.238 -0.7074 -0.4306 -0.1243
13941SOL    HW143111   1.152   4.316   2.294  1.1619 -0.7774 -0.0265
13941SOL    HW243112   1.146   4.274   2.149 -0.8176 -0.3456 -0.1008
13942SOL     OW43113   7.136   4.273   2.274  0.1013  0.2732 -0.3778
13942SOL    HW143114   7.218   4.263   2.322 -0.6379 -0.6052  0.7153
13942SOL    HW243115   7.090   4.344   2.319  0.3387  0.9239 -1.1316
13943SOL     OW43116   8.310   1.613   8.284  0.5876 -0.0973 -0.0389
13943SOL    HW143117   8.332   1.702   8.313  1.0572  0.0377 -0.7859
13943SOL    HW243118   8.358   1.556   8.345  0.4691  0.1593  0.2990
13944SOL     OW43119   7.770   7.252   7.091  0.5659  0.0225 -0.0908
13944SOL    HW143120   7.777   7.212   7.178 -0.5298 -1.7066 -0.7396
13944SOL    HW243121   7.744   7.180   7.034  0.5298  1.2787 -1.7223
13945SOL     OW43122   7.162   0.140   1.973 -0.2984  0.0740  0.2861
13945SOL    HW143123   7.256   0.156   1.977 -0.4434  0.8010  0.9063
13945SOL    HW243124   7.149   0.097   1.888  0.4832  0.6495 -0.1390
13946SOL     OW43125   7.901   1.658   1.734  0.5890 -0.6630  0.7061
13946SOL    HW143126   7.832   1.634   1.796  0.0124  0.6783  0.6238
13946SOL    HW243127   7.863   1.639   1.648  0.4400 -0.2435  0.6757
13947SOL     OW43128   0.125   1.414   6.760 -0.6283  0.5914  0.5529
13947SOL    HW143129   0.079   1.436   6.840  0.5322  2.0343  0.8600
13947SOL    HW243130   0.171   1.494   6.735  1.7782 -0.7408  0.3210
13948SOL     OW43131   8.500   2.639   7.408  0.3582  0.2516  0.0781
13948SOL    HW143132   8.516   2.707   7.343  0.7452 -0.0380 -0.1361
13948SOL    HW243133   8.406   2.624   7.405  0.1938  1.1741  0.5269
13949SOL     OW43134   4.737   4.497   3.000  0.0290 -0.0741 -0.3304
13949SOL    HW143135   4.780   4.554   2.936 -0.0627  0.6756  0.2617
13949SOL    HW243136   4.692   4.557   3.060 -0.3643 -0.7814  0.1038
13950SOL     OW43137   0.085   1.119   2.757 -0.7149 -0.2415  0.6330
13950SOL    HW143138   0.128   1.048   2.709 -0.3430  1.9315 -2.5448
13950SOL    HW243139   0.088   1.091   2.848  2.4568 -2.7503 -0.0595
13951SOL     OW43140   2.732   3.590   3.330  0.4838  0.1145  0.3994
13951SOL    HW143141   2.812   3.626   3.367  1.4998 -0.9835 -0.6169
13951SOL    HW243142   2.662   3.648   3.361  1.6709  1.1374  1.2501
13952SOL     OW43143   6.613   3.658   0.386 -0.0806  0.0851 -0.0163
13952SOL    HW143144   6.572   3.581   0.346 -1.3315  0.5403  0.3343
13952SOL    HW243145   6.677   3.621   0.448  0.0651 -0.6463 -0.5870
13953SOL     OW43146   1.877   6.312   6.978  0.7532  0.2969  0.6364
13953SOL    HW143147   1.945   6.330   7.044 -0.0085  3.1202  0.8033
13953SOL    HW243148   1.796   6.308   7.029  0.5570 -1.0623  0.2260
13954SOL     OW43149   6.346   0.048   2.838  0.5588  0.2923  0.2535
13954SOL    HW143150   6.277   0.080   2.896  0.4935 -0.2541  0.4838
13954SOL    HW243151   6.301   0.028   2.756  0.2165 -1.1272  0.7527
13955SOL     OW43152   1.247   8.693   6.242  0.6961  0.0099 -0.4656
13955SOL    HW143153   1.160   8.696   6.203 -0.2114 -2.0751  1.1974
13955SOL    HW243154   1.246   8.761   6.310 -0.2328 -1.0447  0.6071
13956SOL     OW43155   8.362   1.720   6.977  0.0379  0.0234  0.4600
13956SOL    HW143156   8.383   1.806   6.942  0.7360  0.1591  1.1916
13956SOL    HW243157   8.366   1.731   7.072 -0.4560 -0.6732  0.5688
13957SOL     OW43158   4.766   0.401   6.924  0.2893 -0.4136 -0.4657
13957SOL    HW143159   4.673   0.399   6.948  0.5008 -0.1733  0.4068
13957SOL    HW243160   4.766   0.406   6.829 -0.5957 -0.3354 -0.4702
13958SOL     OW43161   7.943   6.500   3.314  0.3947 -0.2369 -0.1268
13958SOL    HW143162   8.034   6.516   3.340 -0.0242  1.7765  0.2630
13958SOL    HW243163   7.894   6.572   3.353 -0.8526  0.8749 -3.4170
13959SOL     OW43164   2.566   6.017   1.242 -0.3658 -0.8642 -0.1306
13959SOL    HW143165   2.624   6.085   1.206 -1.1374 -0.3163 -0.3646
13959SOL    HW243166   2.513   6.062   1.308 -0.4157 -1.3961  0.1995
13960SOL     OW43167   6.748   5.112   1.414 -0.0976  0.1267 -0.0384
13960SOL    HW143168   6.740   5.104   1.509  0.0229  0.3987 -0.0050
13960SOL    HW243169   6.658   5.101   1.382 -0.1835  0.3315  0.1295
13961SOL     OW43170   3.288   8.095   4.419 -0.5302  0.1823  0.5267
13961SOL    HW143171   3.335   8.178   4.420  3.4859 -1.8401  1.0397
13961SOL    HW243172   3.282   8.069   4.511  1.1741 -1.4450  0.2379
13962SOL     OW43173   7.972   4.916   5.545 -0.4621 -0.3572  0.0711
13962SOL    HW143174   7.919   4.977   5.597  0.0461  0.3261 -0.2071
13962SOL    HW243175   8.022   4.972   5.486  0.9221 -0.9457  0.6413
13963SOL     OW43176   8.295   1.091   3.440  0.1525  0.3604 -0.2267
13963SOL    HW143177   8.286   1.018   3.379 -2.9568 -1.5422  2.1920
13963SOL    HW243178   8.389   1.110   3.442  1.1056 -3.5103 -1.0391
13964SOL     OW43179   3.690   2.182   5.864  0.8731 -0.1053  0.2397
13964SOL    HW143180   3.754   2.243   5.828  0.0130  0.0627 -1.0546
13964SOL    HW243181   3.644   2.232   5.931  0.2445  0.6654 -0.7422
13965SOL     OW43182   7.246   7.674   3.025  0.2336  0.1387 -0.1179
13965SOL    HW143183   7.177   7.653   2.962  1.1449  1.5023 -1.6574
13965SOL    HW243184   7.210   7.746   3.077 -0.0652 -0.1773  0.1190
13966SOL     OW43185   8.335   6.086   5.115  0.2251 -0.0936 -0.3596
13966SOL    HW143186   8.335   5.997   5.078 -1.8017 -0.9947  1.5811
13966SOL    HW243187   8.410   6.087   5.174 -0.7141 -1.2082  0.9398
13967SOL     OW43188   0.523   7.171   4.661  0.0178  0.5146  0.0199
13967SOL    HW143189   0.606   7.177   4.708  0.6027 -1.1588 -0.7261
13967SOL    HW243190   0.470   7.110   4.712  0.1491 -0.2596 -0.7549
13968SOL     OW43191   8.621   7.968   7.518 -0.6461  0.2812  0.3344
13968SOL    HW143192   8.711   7.937   7.513 -0.8699 -0.2717 -0.5066
13968SOL    HW243193   8.614   8.009   7.604  0.1238 -0.5492  0.8077
13969SOL     OW43194   5.320   2.444   7.081 -0.1063  0.4064  0.4359
13969SOL    HW143195   5.355   2.453   6.993 -2.5616  0.0753 -0.6466
13969SOL    HW243196   5.386   2.484   7.137  1.6564  0.3738 -1.4879
13970SOL     OW43197   2.926   6.009   4.840  0.4475  0.3162 -0.0422
13970SOL    HW143198   2.967   5.974   4.920  1.1333  1.8396  0.3292
13970SOL    HW243199   2.939   5.941   4.774 -1.2710 -1.5511  1.4231
13971SOL     OW43200   8.098   7.219   3.617  0.1194 -0.1548 -0.1203
13971SOL    HW143201   8.034   7.238   3.548 -0.8848 -1.7672  0.3156
13971SOL    HW243202   8.148   7.144   3.584  0.4608 -0.1535  0.3745
13972SOL     OW43203   7.246   4.197   2.039  0.4010  0.4923  0.1680
13972SOL    HW143204   7.201   4.234   2.115  0.1045 -0.5947  0.5459
13972SOL    HW243205   7.213   4.107   2.034  0.4774  0.5222 -1.1999
13973SOL     OW43206   4.555   4.507   2.006  0.0819  0.4656  0.1045
13973SOL    HW143207   4.540   4.544   1.919  1.4793 -1.1588 -0.8971
13973SOL    HW243208   4.470   4.514   2.051 -1.5721 -1.3563 -2.4758
13974SOL     OW43209   6.337   2.005   7.310  0.1704 -0.0829  0.2450
13974SOL    HW143210   6.296   1.978   7.227  0.9550 -1.2175  0.2034
13974SOL    HW243211   6.402   2.070   7.284  0.8273 -0.8611 -0.1412
13975SOL     OW43212   5.722   2.145   5.547 -0.2800 -0.5298 -0.8573
13975SOL    HW143213   5.751   2.112   5.632  1.1957  1.4344 -0.5215
13975SOL    HW243214   5.651   2.086   5.521 -0.8231 -1.1572  1.7607
13976SOL     OW43215   7.521   3.048   6.300  0.1883  0.0222  0.2806
13976SOL    HW143216   7.588   2.985   6.328 -0.1561 -0.4727  0.0146
13976SOL    HW243217   7.527   3.119   6.363  1.1706  0.1263  0.0867
13977SOL     OW43218   2.340   0.777   2.429 -0.1949  0.1628  0.2992
13977SOL    HW143219   2.360   0.865   2.461  0.7786 -0.6203  2.0301
13977SOL    HW243220   2.289   0.738   2.501  1.4973 -1.4672  0.6846
13978SOL     OW43221   1.785   0.542   2.282 -0.0148 -0.0187 -0.2768
13978SOL    HW143222   1.740   0.463   2.311  1.4242 -1.3723 -1.5411
13978SOL    HW243223   1.737   0.568   2.203 -1.2645  1.1618  0.8173
13979SOL     OW43224   4.377   1.936   1.882 -0.3567  0.1649  0.2052
13979SOL    HW143225   4.306   1.998   1.870 -0.3665  0.6210  2.2337
13979SOL    HW243226   4.335   1.850   1.874 -0.9434  0.4256  0.4454
13980SOL     OW43227   1.340   1.851   6.399 -0.4169 -0.2716  0.1568
13980SOL    HW143228   1.347   1.910   6.325  2.5378 -1.0977 -0.3702
13980SOL    HW243229   1.246   1.843   6.415 -1.0366  1.8821 -1.8611
13981SOL     OW43230   5.652   3.637   5.314  0.1935  0.2003  0.2872
13981SOL    HW143231   5.580   3.658   5.374 -0.3640  0.3165 -0.4118
13981SOL    HW243232   5.690   3.557   5.349  0.0281  0.3959  0.9274
13982SOL     OW43233   0.075   6.938   7.943 -0.4906  0.2001  0.2614
13982SOL    HW143234  -0.012   6.964   7.975 -1.0062  0.9244 -1.5867
13982SOL    HW243235   0.128   7.018   7.950 -0.3991  0.1613  0.0184
13983SOL     OW43236   4.126   6.658   3.675  0.1382 -0.0703  0.2170
13983SOL    HW143237   4.062   6.728   3.663  0.6080  0.3273 -0.0024
13983SOL    HW243238   4.206   6.691   3.634  0.4198 -0.6578  0.2779
13984SOL     OW43239   3.069   2.235   2.131  0.1582  0.7207  0.1152
13984SOL    HW143240   3.044   2.327   2.142  1.5691  1.2256 -0.5974
13984SOL    HW243241   3.126   2.235   2.055 -2.6425 -1.3222 -2.1939
13985SOL     OW43242   3.729   2.342   7.983  0.2646 -0.0967  0.2432
13985SOL    HW143243   3.810   2.307   7.945  0.9479  0.2167  1.3809
13985SOL    HW243244   3.726   2.306   8.071 -0.9064 -0.1922  0.1792
13986SOL     OW43245   0.194   8.144   7.071  0.7141  0.2661 -0.1674
13986SOL    HW143246   0.161   8.155   6.982 -2.5378  1.7940  1.0698
13986SOL    HW243247   0.233   8.057   7.071 -0.8519 -0.5607 -2.6382
13987SOL     OW43248   4.547   6.156   6.148 -0.0527 -0.4371 -0.1765
13987SOL    HW143249   4.620   6.216   6.163 -0.7143  0.5031 -0.6094
13987SOL    HW243250   4.577   6.072   6.184  2.0044 -0.6032 -2.0867
13988SOL     OW43251   4.574   1.024   2.514  0.1289 -0.3848 -0.5156
13988SOL    HW143252   4.565   0.950   2.455 -0.8315 -0.4090 -0.3475
13988SOL    HW243253   4.513   1.006   2.586 -0.1027  0.5565 -0.4639
13989SOL     OW43254   0.295   0.992   8.665 -0.7401  0.3484 -0.1219
13989SOL    HW143255   0.301   0.976   8.759 -0.9417 -2.6435 -0.5070
13989SOL    HW243256   0.204   0.975   8.643 -0.5112  0.1635 -0.9814
13990SOL     OW43257   3.898   1.565   5.540 -0.9238  0.2118 -0.0417
13990SOL    HW143258   3.885   1.592   5.631 -3.1004  2.4283 -0.8953
13990SOL    HW243259   3.834   1.495   5.527 -0.6612 -0.0579  0.1220
13991SOL     OW43260   0.036   3.628   2.971  0.5951  0.5531  0.0055
13991SOL    HW143261   0.104   3.620   2.904 -0.1399  2.8162 -1.1013
13991SOL    HW243262   0.084   3.623   3.054  1.7074 -0.8133 -0.6816
13992SOL     OW43263   4.681   1.896   6.806 -0.5505  0.6127  0.3253
13992SOL    HW143264   4.701   1.847   6.886 -1.1722  1.4169  0.9926
13992SOL    HW243265   4.690   1.831   6.735  0.6191  0.0374  0.9641
13993SOL     OW43266   2.701   1.192   6.095 -0.0121 -0.5540 -0.4945
13993SOL    HW143267   2.705   1.266   6.156  1.0762 -0.8910 -0.1373
13993SOL    HW243268   2.717   1.231   6.009 -2.3507  0.0488 -0.7259
13994SOL     OW43269   8.235   6.872   4.225  0.0479  0.1558  0.4493
13994SOL    HW143270   8.237   6.926   4.304 -2.8074 -0.4682  1.0506
13994SOL    HW243271   8.199   6.788   4.254 -2.6340  0.4341 -1.7177
13995SOL     OW43272   2.442   1.511   0.255  0.0354 -0.3709  0.0194
13995SOL    HW143273   2.362   1.555   0.228  2.1700  4.4165  0.5799
13995SOL    HW243274   2.430   1.494   0.349  0.3748  2.4840  0.6658
13996SOL     OW43275   1.972   6.240   6.479  0.2377  0.0675 -0.2123
13996SOL    HW143276   1.888   6.196   6.472  1.6770 -2.5228 -2.9094
13996SOL    HW243277   1.994   6.234   6.572 -1.4317 -1.3734  0.1378
13997SOL     OW43278   4.317   1.240   2.383  0.4158 -0.2129  0.6738
13997SOL    HW143279   4.301   1.180   2.455 -2.1331  0.1158  0.4592
13997SOL    HW243280   4.350   1.185   2.312 -0.9535 -1.2367  0.7969
13998SOL     OW43281   3.909   3.564   5.671 -0.6374 -0.9830 -0.4768
13998SOL    HW143282   3.946   3.528   5.752  0.9183  0.9539 -0.2633
13998SOL    HW243283   3.857   3.639   5.699  0.4487  0.1083 -1.2846
13999SOL     OW43284   0.534   3.515   5.091 -0.1865 -0.6103  0.4717
13999SOL    HW143285   0.529   3.428   5.131 -1.8783 -1.3096 -1.1138
13999SOL    HW243286   0.515   3.500   4.999 -0.7909  1.4834  0.2050
14000SOL     OW43287   0.029   7.525   4.554  0.1124  0.3622  0.7260
14000SOL    HW143288  -0.046   7.544   4.609 -0.3943 -1.3827  0.7041
14000SOL    HW243289   0.018   7.581   4.477 -2.4260 -1.4148 -0.3296
14001SOL     OW43290   6.105   3.046   1.406 -0.0171  0.3099  0.7680
14001SOL    HW143291   6.150   2.977   1.357 -0.1313  1.0131 -0.3500
14001SOL    HW243292   6.112   3.018   1.497  1.7662 -0.1474  0.5394
14002SOL     OW43293   6.387   8.298   8.441 -0.4941  0.0678 -0.0509
14002SOL    HW143294   6.351   8.332   8.522 -2.1194 -2.5145  0.4146
14002SOL    HW243295   6.409   8.207   8.460  0.0376 -0.3189 -2.2186
14003SOL     OW43296   8.149   0.572   0.455  0.2729 -0.1231  0.5689
14003SOL    HW143297   8.114   0.567   0.366 -0.3719 -0.2150  0.8250
14003SOL    HW243298   8.121   0.658   0.487 -0.8682 -0.7100  1.2372
14004SOL     OW43299   6.945   6.890   0.079  0.2619  0.0568  0.3182
14004SOL    HW143300   7.026   6.864   0.123 -0.3624  0.6912  1.9446
14004SOL    HW243301   6.952   6.985   0.068 -0.4302  0.1881  0.8969
14005SOL     OW43302   4.226   7.052   6.489  0.7074 -0.4766 -0.4686
14005SOL    HW143303   4.176   7.100   6.423  0.2481 -0.8175 -0.3731
14005SOL    HW243304   4.168   6.981   6.516  0.8312 -0.2612  0.4050
14006SOL     OW43305   4.023   5.529   4.684  0.1644  0.1979  0.4586
14006SOL    HW143306   4.011   5.610   4.634 -0.6279 -0.9645 -1.3458
14006SOL    HW243307   3.935   5.504   4.713  0.3064 -0.3683  0.4200
14007SOL     OW43308   6.383   3.711   1.427  0.1361  0.0674  0.0527
14007SOL    HW143309   6.411   3.707   1.335  0.9565 -1.0845  0.3295
14007SOL    HW243310   6.362   3.804   1.441 -2.5667 -0.1195 -2.0123
14008SOL     OW43311   2.724   7.724   2.220 -0.8486  0.0482  0.1538
14008SOL    HW143312   2.752   7.750   2.308 -1.1085  1.0137 -0.0387
14008SOL    HW243313   2.799   7.677   2.183  0.5111  2.4532 -0.2981
14009SOL     OW43314   1.617   2.137   1.428  0.0553 -0.1872  0.2097
14009SOL    HW143315   1.686   2.126   1.363 -0.9699  0.6183 -1.0624
14009SOL    HW243316   1.646   2.209   1.484  0.7461 -0.5969  0.3813
14010SOL     OW43317   0.955   6.539   7.191  0.0123  0.3222 -0.4398
14010SOL    HW143318   0.876   6.582   7.222 -0.2943 -0.2884 -0.3593
14010SOL    HW243319   0.977   6.584   7.109 -1.3045 -0.4986 -1.2890
14011SOL     OW43320   4.297   1.677   1.844  0.2398  0.2710 -0.0779
14011SOL    HW143321   4.337   1.630   1.771 -2.7257  0.0492 -1.7023
14011SOL    HW243322   4.265   1.608   1.903  0.3319  0.3975  0.1235
14012SOL     OW43323   6.386   8.344   2.268 -0.3245 -0.6169 -0.3655
14012SOL    HW143324   6.388   8.401   2.345 -0.2025 -2.0170  0.6989
14012SOL    HW243325   6.307   8.370   2.221  0.7689  1.7839 -1.0084
14013SOL     OW43326   4.146   6.229   3.771  0.0750 -0.0875  0.1136
14013SOL    HW143327   4.143   6.198   3.862 -2.6503 -0.8074 -0.1280
14013SOL    HW243328   4.144   6.149   3.719  1.9818  0.3068 -0.6548
14014SOL     OW43329   3.183   4.840   4.370 -0.2651 -0.0199  0.4754
14014SOL    HW143330   3.242   4.822   4.296  0.4377  0.6615  0.8580
14014SOL    HW243331   3.107   4.785   4.353  0.1378 -0.3198 -0.4520
14015SOL     OW43332   4.895   0.301   6.045 -0.0874 -0.5700 -0.6790
14015SOL    HW143333   4.941   0.367   5.992  0.0946 -0.5745 -0.5256
14015SOL    HW243334   4.814   0.285   5.996 -0.0125 -0.4278 -0.8555
14016SOL     OW43335   8.711   6.849   5.157 -0.0226  0.1495  0.1626
14016SOL    HW143336   8.765   6.773   5.180  1.1470  1.2995  1.4155
14016SOL    HW243337   8.638   6.846   5.219 -0.8853 -0.8122 -0.8458
14017SOL     OW43338   6.769   3.718   4.899 -0.1657 -0.2758 -0.3509
14017SOL    HW143339   6.836   3.686   4.959 -1.1707 -0.3619  0.7767
14017SOL    HW243340   6.705   3.646   4.895 -0.5945  0.1204 -0.7710
14018SOL     OW43341   7.914   2.675   6.454  0.2667  0.0287  0.1042
14018SOL    HW143342   7.949   2.624   6.381  0.3789 -0.3025  0.3854
14018SOL    HW243343   7.930   2.620   6.531  0.0263  0.3148  0.3594
14019SOL     OW43344   3.086   7.349   1.151  0.6274 -0.0668  0.6549
14019SOL    HW143345   3.157   7.311   1.098 -0.1576 -0.8145  0.1167
14019SOL    HW243346   3.042   7.410   1.091 -1.4384 -2.2780 -0.2625
14020SOL     OW43347   0.051   0.818   7.328 -0.0175 -0.3022  0.0684
14020SOL    HW143348   0.122   0.811   7.392 -0.0406 -0.1468  0.1106
14020SOL    HW243349   0.091   0.861   7.252  0.1393 -0.9363 -0.2147
14021SOL     OW43350   7.770   6.609   0.866  0.0410 -0.3881 -0.7439
14021SOL    HW143351   7.815   6.528   0.842 -0.9816 -0.6601 -1.8290
14021SOL    HW243352   7.730   6.590   0.951 -1.0309 -1.4111 -1.4326
14022SOL     OW43353   5.949   4.585   6.430  0.2948  0.6102  0.0498
14022SOL    HW143354   5.968   4.559   6.340  0.7680 -1.9913  0.8263
14022SOL    HW243355   5.859   4.620   6.426  0.4704  0.9773 -1.4698
14023SOL     OW43356   5.489   4.313   3.154 -0.1232 -0.3263  0.2811
14023SOL    HW143357   5.427   4.377   3.117 -0.2490 -0.0533  0.9532
14023SOL    HW243358   5.434   4.250   3.200  0.0910 -0.0936  0.8659
14024SOL     OW43359   6.065   8.030   3.041  0.3766  0.0224 -0.0180
14024SOL    HW143360   6.067   8.083   2.961 -1.0540  0.5182  0.2378
14024SOL    HW243361   5.990   7.972   3.029 -0.1882  0.4690  1.1634
14025SOL     OW43362   3.499   1.902   4.751  0.3560  0.2789  0.0366
14025SOL    HW143363   3.486   1.987   4.709  0.4396  0.2048 -0.1394
14025SOL    HW243364   3.451   1.840   4.697 -1.7000  0.5327  1.4621
14026SOL     OW43365   8.010   0.042   1.482 -0.0687  0.2523 -0.3070
14026SOL    HW143366   8.077  -0.028   1.486 -0.5202 -0.2256 -0.9235
14026SOL    HW243367   8.037   0.104   1.549 -0.1064 -0.9230  0.8441
14027SOL     OW43368   1.078   1.800   6.465 -0.4106  0.3055 -0.0916
14027SOL    HW143369   1.047   1.745   6.393 -0.9123  0.4745 -0.0095
14027SOL    HW243370   1.053   1.752   6.544  0.5344 -0.0966 -0.0266
14028SOL     OW43371   8.448   2.150   8.087  0.2889 -0.0299  0.0852
14028SOL    HW143372   8.527   2.096   8.094  1.1126  1.1938  0.5345
14028SOL    HW243373   8.397   2.108   8.018  0.4138 -1.9544  1.0870
14029SOL     OW43374   8.372   0.610   1.169 -0.1198 -0.1012 -0.1611
14029SOL    HW143375   8.437   0.636   1.103 -1.6062  0.5192 -1.4309
14029SOL    HW243376   8.387   0.516   1.181 -0.3428 -0.4193 -2.0236
14030SOL     OW43377   2.220   7.125   4.269  0.1060 -0.0288  0.2873
14030SOL    HW143378   2.263   7.065   4.207  0.6291 -2.2838  2.6735
14030SOL    HW243379   2.130   7.130   4.238 -0.0104 -2.2452  0.0550
14031SOL     OW43380   0.297   8.400   1.074 -0.3331 -0.1782  0.1808
14031SOL    HW143381   0.291   8.483   1.120 -0.1920 -0.6108  0.9939
14031SOL    HW243382   0.213   8.392   1.029 -1.2389 -0.6056  1.8644
14032SOL     OW43383   4.391   5.244   2.794 -0.6509  0.9316 -0.2616
14032SOL    HW143384   4.436   5.283   2.868  1.1555 -1.5226  0.0581
14032SOL    HW243385   4.450   5.258   2.719 -0.0104 -0.9059 -0.1611
14033SOL     OW43386   3.268   6.900   1.112  0.4991 -0.0057 -0.5935
14033SOL    HW143387   3.356   6.938   1.107  0.0100  1.3557  0.4272
14033SOL    HW243388   3.226   6.945   1.185 -1.5096  0.3720 -1.8740
14034SOL     OW43389   2.890   6.075   5.961 -0.0664  0.2611 -0.2900
14034SOL    HW143390   2.942   6.050   6.038  0.2887  1.6744 -0.0478
14034SOL    HW243391   2.851   6.159   5.985  0.5475  1.0415 -1.8683
14035SOL     OW43392   5.721   2.017   3.754 -0.3475  0.1120  0.0435
14035SOL    HW143393   5.773   1.953   3.801 -1.6665  0.0689  1.5292
14035SOL    HW243394   5.753   2.102   3.785 -1.7587  0.0771  1.7212
14036SOL     OW43395   7.644   6.612   5.170  0.2847 -0.1258 -0.2454
14036SOL    HW143396   7.681   6.579   5.251  3.5876 -0.0483 -1.5726
14036SOL    HW243397   7.682   6.557   5.101  1.0662  2.4474 -2.0350
14037SOL     OW43398   3.924   5.567   0.521 -0.1269  0.8217 -0.2380
14037SOL    HW143399   3.896   5.620   0.596  1.1692 -0.4930  1.2453
14037SOL    HW243400   4.015   5.590   0.507 -0.0630  0.3022 -0.7488
14038SOL     OW43401   6.460   2.030   4.941  0.2435  0.4513  0.0822
14038SOL    HW143402   6.547   1.995   4.920  0.1656 -0.4206  1.1076
14038SOL    HW243403   6.437   1.988   5.024 -1.3323  0.3429 -0.3683
14039SOL     OW43404   5.364   1.650   2.266  0.5316  0.8676 -0.5341
14039SOL    HW143405   5.282   1.691   2.294  0.4729  0.1237  0.4445
14039SOL    HW243406   5.359   1.560   2.299  1.1708  0.4173 -1.6095
14040SOL     OW43407   6.683   6.015   1.317 -0.0112 -0.2559 -0.1245
14040SOL    HW143408   6.709   6.050   1.231 -0.7146  0.5391 -0.0296
14040SOL    HW243409   6.766   6.003   1.364  0.2723  1.5107 -0.0875
14041SOL     OW43410   7.750   0.116   5.488 -0.0382  0.3826  0.3131
14041SOL    HW143411   7.735   0.184   5.422  0.2299 -0.7278 -0.9407
14041SOL    HW243412   7.788   0.043   5.438  1.5478  0.0318  1.9488
14042SOL     OW43413   6.522   0.247   5.179  0.4412 -0.0376 -0.1029
14042SOL    HW143414   6.460   0.269   5.109  0.7902 -1.3885 -0.8572
14042SOL    HW243415   6.487   0.166   5.217  1.3446 -0.4033 -0.0384
14043SOL     OW43416   5.762   4.122   6.408 -0.1223  0.4748  0.3778
14043SOL    HW143417   5.817   4.047   6.384  0.6267  0.8148  0.9734
14043SOL    HW243418   5.698   4.128   6.337  0.5874  0.0421 -0.3269
14044SOL     OW43419   6.975   6.279   5.348 -0.4613 -0.2351 -0.6503
14044SOL    HW143420   7.036   6.306   5.279 -0.4210  0.4287 -0.3696
14044SOL    HW243421   6.904   6.343   5.343 -0.8589 -0.6710 -0.6057
14045SOL     OW43422   0.392   1.965   3.114  0.2569 -0.3297  0.2116
14045SOL    HW143423   0.381   1.916   3.032  3.4986 -0.9572  0.0069
14045SOL    HW243424   0.378   1.900   3.183 -1.9970  0.0874  0.2044
14046SOL     OW43425   2.590   1.921   6.126 -0.1423  0.2981  0.0354
14046SOL    HW143426   2.593   1.925   6.222 -0.1699  1.4031 -0.0024
14046SOL    HW243427   2.558   2.007   6.099 -1.3248 -0.4016 -0.9183
14047SOL     OW43428   0.235   6.491   1.561 -0.0066 -0.2625 -0.4375
14047SOL    HW143429   0.266   6.523   1.477  0.3002  0.8193  0.0795
14047SOL    HW243430   0.281   6.407   1.573  1.1494  0.3221 -0.6311
14048SOL     OW43431   3.914   3.266   2.209 -0.2047  0.2734 -0.1925
14048SOL    HW143432   3.873   3.248   2.124  0.9181  0.5901 -0.8161
14048SOL    HW243433   3.998   3.221   2.205 -0.2515  0.0686  0.8697
14049SOL     OW43434   4.850   7.721   6.579 -0.2483 -0.9153 -0.2635
14049SOL    HW143435   4.760   7.694   6.594 -0.4349 -1.1638 -1.7345
14049SOL    HW243436   4.848   7.817   6.587 -0.3686 -1.0010  0.9625
14050SOL     OW43437   6.918   5.486   6.052 -0.1931 -0.3748 -0.0038
14050SOL    HW143438   6.917   5.422   5.981  1.6774  1.3598 -1.7284
14050SOL    HW243439   6.831   5.526   6.049 -0.1041 -0.2449 -1.4237
14051SOL     OW43440   7.850   5.935   5.927 -0.4251  0.0891  0.2284
14051SOL    HW143441   7.911   5.873   5.968  0.2697  1.3741  1.1774
14051SOL    HW243442   7.893   5.960   5.846 -0.7074 -0.6418 -0.1608
14052SOL     OW43443   6.981   5.948   0.607 -0.6630 -0.6633  0.0306
14052SOL    HW143444   6.970   5.897   0.527 -2.1178  0.0110 -0.2406
14052SOL    HW243445   6.995   5.883   0.675 -1.2263 -1.3571 -0.4982
14053SOL     OW43446   3.844   5.780   8.115 -0.1950 -0.0299  0.5241
14053SOL    HW143447   3.866   5.706   8.059 -1.2384  0.3365 -0.4159
14053SOL    HW243448   3.836   5.854   8.054  0.4342  0.7727  1.3923
14054SOL     OW43449   1.364   1.224   4.398 -0.7702  0.7889  0.0244
14054SOL    HW143450   1.330   1.151   4.347 -0.6100  1.0308 -0.4349
14054SOL    HW243451   1.289   1.257   4.447 -0.8472  0.3329  0.2154
14055SOL     OW43452   8.695   5.271   4.959  0.0953  0.7049  0.0247
14055SOL    HW143453   8.606   5.273   4.925 -0.2128 -0.0618  0.7454
14055SOL    HW243454   8.743   5.214   4.899 -0.1604  0.2939  0.2043
14056SOL     OW43455   1.989   7.015   7.613 -0.1239 -0.1733  0.6525
14056SOL    HW143456   2.004   6.923   7.590 -1.0908 -0.8532  2.4921
14056SOL    HW243457   1.924   7.011   7.683  0.7920  1.8439  1.6894
14057SOL     OW43458   4.614   7.528   7.463 -0.6742 -0.1118  0.2473
14057SOL    HW143459   4.543   7.498   7.406  0.3684  0.6080 -1.5163
14057SOL    HW243460   4.605   7.623   7.466 -0.7327 -0.1361  1.3455
14058SOL     OW43461   0.958   5.915   6.401 -0.3630  0.1171 -0.4555
14058SOL    HW143462   0.871   5.945   6.377 -0.1296  2.2056  1.0670
14058SOL    HW243463   1.011   5.928   6.322 -0.7667  1.8327 -0.4873
14059SOL     OW43464   7.292   0.910   2.192  0.5080 -0.3130  0.0056
14059SOL    HW143465   7.313   0.959   2.271  2.5086  3.4861 -2.5519
14059SOL    HW243466   7.339   0.828   2.201 -0.6877 -0.7842  3.3525
14060SOL     OW43467   5.067   0.287   6.274  0.4190  0.2960 -0.3487
14060SOL    HW143468   4.986   0.315   6.232 -0.2310 -0.6543  0.2138
14060SOL    HW243469   5.038   0.233   6.348  1.5670 -0.5916 -0.5100
14061SOL     OW43470   8.149   7.075   2.392 -0.2239  0.4198  0.3708
14061SOL    HW143471   8.100   7.056   2.472  0.2419 -0.7258  0.4083
14061SOL    HW243472   8.241   7.071   2.419 -0.0868  1.5391  0.0931
14062SOL     OW43473   0.672   4.131   1.467 -0.2498  0.2707 -0.4109
14062SOL    HW143474   0.765   4.152   1.476 -0.8992  3.3570  0.2340
14062SOL    HW243475   0.637   4.133   1.556 -0.8417 -1.7293 -0.5447
14063SOL     OW43476   7.597   8.666   7.870  0.0496  0.5024  0.3668
14063SOL    HW143477   7.641   8.591   7.830 -0.4640  1.3528 -1.9313
14063SOL    HW243478   7.548   8.629   7.943 -0.1960 -1.4039 -0.7119
14064SOL     OW43479   1.112   0.785   2.111  0.2303 -0.4139  0.0729
14064SOL    HW143480   1.036   0.838   2.132  1.0450  0.2545  1.4730
14064SOL    HW243481   1.076   0.708   2.067 -1.2758 -0.2174  0.8813
14065SOL     OW43482   7.266   5.798   3.325 -0.1725 -0.4308 -1.1089
14065SOL    HW143483   7.353   5.756   3.325 -0.6222 -1.5556  1.6565
14065SOL    HW243484   7.278   5.880   3.372 -0.6818 -0.8417 -0.2380
14066SOL     OW43485   6.174   2.888   6.163 -0.6175 -0.2855  0.6594
14066SOL    HW143486   6.088   2.891   6.204 -0.9208  1.6140 -0.0055
14066SOL    HW243487   6.226   2.832   6.221 -1.9070 -0.3316  1.8400
14067SOL     OW43488   2.522   0.973   5.550 -0.1852  0.0421 -0.0703
14067SOL    HW143489   2.614   0.957   5.532 -0.1197  0.3573 -0.0291
14067SOL    HW243490   2.514   1.069   5.549 -0.2929  0.0544  0.9834
14068SOL     OW43491   8.469   2.695   6.050 -0.4016  0.1100 -0.2519
14068SOL    HW143492   8.419   2.679   5.970  0.8212 -1.0111 -0.8215
14068SOL    HW243493   8.431   2.635   6.115 -0.0032 -0.5185 -0.5967
14069SOL     OW43494   2.332   7.212   3.486  0.1826  0.5508  0.4128
14069SOL    HW143495   2.309   7.128   3.446 -0.4334  0.8037  0.2308
14069SOL    HW243496   2.310   7.277   3.420  0.1043  0.8986  0.7790
14070SOL     OW43497   7.274   7.345   2.350  0.2946 -0.0654  0.2137
14070SOL    HW143498   7.282   7.251   2.330  2.2486  0.1265 -0.0643
14070SOL    HW243499   7.289   7.351   2.444 -2.9930 -0.3099  0.8723
14071SOL     OW43500   1.933   6.213   5.289  0.2810 -0.6325  0.6360
14071SOL    HW143501   1.883   6.191   5.367 -0.2504 -1.8644 -0.0267
14071SOL    HW243502   1.880   6.182   5.216  0.8692  0.2888 -0.2206
14072SOL     OW43503   6.732   4.026   2.788 -0.1793  0.1898 -0.1584
14072SOL    HW143504   6.758   4.025   2.696 -2.6078  1.7161 -0.9742
14072SOL    HW243505   6.647   3.981   2.789 -0.4525  0.6835  1.2141
14073SOL     OW43506   5.489   7.511   6.061  0.1005  0.3836 -0.0128
14073SOL    HW143507   5.575   7.486   6.027 -0.2421  1.1955 -1.5410
14073SOL    HW243508   5.463   7.586   6.008 -1.4917  0.2395  0.5275
14074SOL     OW43509   4.979   2.506   4.196  0.2477 -0.0284 -0.0242
14074SOL    HW143510   4.918   2.512   4.269 -1.8827 -0.6528 -1.6386
14074SOL    HW243511   5.017   2.593   4.189 -1.6454  0.8522  0.1148
14075SOL     OW43512   8.311   0.990   1.616 -0.5612 -0.1118 -0.2554
14075SOL    HW143513   8.284   1.031   1.534 -1.8616  1.3985  0.8719
14075SOL    HW243514   8.248   1.022   1.681 -1.4886 -3.6727  0.8229
14076SOL     OW43515   8.084   5.541   5.548  0.6881 -0.1678  0.5195
14076SOL    HW143516   8.169   5.526   5.589 -0.0141 -1.1503  1.6898
14076SOL    HW243517   8.038   5.457   5.557 -0.1308  0.1039 -0.7996
14077SOL     OW43518   7.888   2.099   8.373  0.2784  0.0571  0.3671
14077SOL    HW143519   7.937   2.105   8.291  0.9999 -2.0216  0.5850
14077SOL    HW243520   7.804   2.140   8.353  0.2356 -0.8545 -1.5933
14078SOL     OW43521   4.786   8.521   5.246 -0.4758  0.1992 -0.2560
14078SOL    HW143522   4.728   8.511   5.321  0.4778  0.8453  0.5848
14078SOL    HW243523   4.727   8.520   5.170 -1.6520  1.4045  0.5930
14079SOL     OW43524   3.252   7.990   4.665  0.2296 -0.4201 -0.1298
14079SOL    HW143525   3.269   7.903   4.700  0.4908 -0.0638  0.6813
14079SOL    HW243526   3.254   8.047   4.742  0.5840  0.3718 -0.7018
14080SOL     OW43527   0.928   1.724   1.057 -0.2555 -0.0506  0.2558
14080SOL    HW143528   0.890   1.772   0.983  0.0607  0.9233  0.7032
14080SOL    HW243529   0.908   1.632   1.039  0.0386  0.1396 -1.1675
14081SOL     OW43530   5.928   4.942   1.425 -0.1749  0.2058 -0.0042
14081SOL    HW143531   5.899   4.931   1.515  0.3604  0.8636  0.2597
14081SOL    HW243532   5.881   5.020   1.394  0.6820  0.8019  0.1655
14082SOL     OW43533   5.623   7.630   1.642  0.0115  0.0194 -0.6243
14082SOL    HW143534   5.545   7.685   1.646 -1.8793 -2.3789 -1.6606
14082SOL    HW243535   5.663   7.638   1.729 -3.6784 -1.6613  1.4716
14083SOL     OW43536   0.392   7.495   7.676 -0.1017 -0.4234 -0.7378
14083SOL    HW143537   0.330   7.558   7.713 -1.0421 -1.8066  0.1570
14083SOL    HW243538   0.454   7.478   7.746 -0.5814 -1.3884 -0.5263
14084SOL     OW43539   7.210   5.325   8.398 -0.5191  0.2090  0.0590
14084SOL    HW143540   7.119   5.343   8.375 -1.1032 -2.9041 -0.4906
14084SOL    HW243541   7.205   5.274   8.479  0.4380 -2.3966 -1.4119
14085SOL     OW43542   1.506   5.408   7.764 -0.8457  0.1099 -0.3875
14085SOL    HW143543   1.543   5.365   7.841 -1.4412 -1.7210 -1.0763
14085SOL    HW243544   1.581   5.448   7.720 -0.1189 -0.9604 -0.1587
14086SOL     OW43545   8.510   4.069   0.183 -0.5618 -0.4920  0.1019
14086SOL    HW143546   8.561   4.148   0.198 -1.9098  0.3703  0.2965
14086SOL    HW243547   8.471   4.082   0.096 -0.9766 -0.8429  0.2328
14087SOL     OW43548   7.359   4.836   7.331  0.6202  0.6858  0.3678
14087SOL    HW143549   7.269   4.813   7.356 -0.4496  0.3822 -3.1200
14087SOL    HW243550   7.351   4.923   7.292  1.4643 -0.0154 -1.4922
14088SOL     OW43551   6.752   2.727   4.820  0.0413  0.3276  0.4774
14088SOL    HW143552   6.767   2.811   4.777 -0.9161  0.0286 -0.4748
14088SOL    HW243553   6.759   2.662   4.750 -0.7383 -0.2416  0.9097
14089SOL     OW43554   4.107   2.211   4.137 -0.4767  0.1180  0.5212
14089SOL    HW143555   4.087   2.284   4.078 -2.8015  0.1470  1.2698
14089SOL    HW243556   4.098   2.248   4.225  1.3471 -0.3440  0.9521
14090SOL     OW43557   4.708   2.020   7.559 -0.1235  0.1250 -0.5483
14090SOL    HW143558   4.780   1.958   7.548  0.4615  0.7850 -0.4829
14090SOL    HW243559   4.630   1.970   7.536  0.1950 -1.0121  0.6806
14091SOL     OW43560   4.687   0.557   8.052  0.1029  0.0067  0.2302
14091SOL    HW143561   4.752   0.521   8.112  1.4254 -0.6046 -1.4780
14091SOL    HW243562   4.614   0.496   8.056 -0.0350  0.2266  1.5186
14092SOL     OW43563   7.272   2.779   4.058 -0.1913  0.6790  0.2479
14092SOL    HW143564   7.261   2.842   3.987  0.7191 -1.5996 -2.0900
14092SOL    HW243565   7.203   2.801   4.120 -0.8587  2.9990 -1.1858
14093SOL     OW43566   8.473   2.736   3.265 -0.2278 -0.0203  0.0183
14093SOL    HW143567   8.525   2.807   3.227  0.7248 -1.0275 -0.6122
14093SOL    HW243568   8.426   2.698   3.191 -2.8460  1.5845  0.7256
14094SOL     OW43569   7.224   2.597   6.003 -0.1195 -0.4829  0.3044
14094SOL    HW143570   7.273   2.679   6.006  0.2168 -0.6552 -0.4191
14094SOL    HW243571   7.253   2.549   6.081 -1.1278  0.5272  1.3334
14095SOL     OW43572   6.008   4.083   8.520  0.2819 -0.2809  0.2020
14095SOL    HW143573   6.009   4.009   8.460 -0.1129 -1.2175  1.3323
14095SOL    HW243574   5.976   4.048   8.603 -0.9384  1.3623  0.4915
14096SOL     OW43575   7.496   7.566   3.051  0.4420 -0.1146 -0.3781
14096SOL    HW143576   7.493   7.601   3.140  1.5574  1.4454 -0.9124
14096SOL    HW243577   7.406   7.575   3.019  0.3819  0.8706  0.0322
14097SOL     OW43578   7.370   3.625   7.075  0.4607  0.0298 -0.7830
14097SOL    HW143579   7.436   3.589   7.016  0.0469 -1.6061 -0.2899
14097SOL    HW243580   7.289   3.625   7.024  0.2339 -0.7868 -0.4323
14098SOL     OW43581   4.772   7.823   0.910  1.3811 -0.1207  0.2301
14098SOL    HW143582   4.797   7.757   0.975  1.6737  0.2142  0.4594
14098SOL    HW243583   4.691   7.789   0.871  2.0059 -1.0642 -0.2860
14099SOL     OW43584   1.706   1.222   8.643 -0.2110 -0.2732 -0.3646
14099SOL    HW143585   1.677   1.172   8.720 -1.1581 -2.5078 -2.0719
14099SOL    HW243586   1.794   1.253   8.668 -1.1973  0.6890  2.2734
14100SOL     OW43587   6.470   4.845   8.038  0.3483  0.2307  0.8122
14100SOL    HW143588   6.440   4.760   8.005 -1.8588  1.1898  0.2140
14100SOL    HW243589   6.535   4.822   8.104 -0.7793 -1.9619  1.2791
14101SOL     OW43590   2.843   3.662   5.609  0.1394  0.2061  0.4934
14101SOL    HW143591   2.831   3.577   5.567  3.2880 -0.5864  0.9194
14101SOL    HW243592   2.817   3.726   5.544 -1.4602 -1.0492 -0.1564
14102SOL     OW43593   7.421   4.728   3.286  0.0246 -0.3474 -0.0818
14102SOL    HW143594   7.480   4.790   3.329 -1.1860 -0.5203  2.0159
14102SOL    HW243595   7.469   4.697   3.210  1.7309  1.1501  0.3171
14103SOL     OW43596   0.019   6.931   2.066 -0.3762  0.0651  0.3601
14103SOL    HW143597   0.049   6.848   2.103 -0.6736 -0.3662 -0.3492
14103SOL    HW243598   0.084   6.996   2.096  0.3087 -0.5595  0.2540
14104SOL     OW43599   8.199   6.514   2.743  0.1250 -0.5030 -0.2540
14104SOL    HW143600   8.142   6.458   2.796 -0.7224  1.1614  0.6901
14104SOL    HW243601   8.220   6.461   2.666 -0.3413 -2.2203  0.7470
14105SOL     OW43602   4.014   6.321   8.433 -0.1347 -0.2563 -0.0695
14105SOL    HW143603   3.971   6.383   8.374  0.7012  0.5152  0.1053
14105SOL    HW243604   3.949   6.302   8.500 -0.1739  0.9910  0.2649
14106SOL     OW43605   0.793   6.135   5.577 -0.2048 -0.2358 -0.1797
14106SOL    HW143606   0.784   6.173   5.489  0.1820  0.3996  0.0506
14106SOL    HW243607   0.792   6.211   5.635  3.3057 -0.2797  0.1276
14107SOL     OW43608   3.400   4.765   2.856  0.0003  0.2287 -0.3674
14107SOL    HW143609   3.460   4.839   2.840  1.0700 -0.0958  1.7516
14107SOL    HW243610   3.448   4.688   2.824  1.2468 -0.1564  2.1868
14108SOL     OW43611   4.600   0.984   4.272 -0.1768 -0.4434  0.1661
14108SOL    HW143612   4.590   1.041   4.196  2.8070  0.5263  0.3398
14108SOL    HW243613   4.582   1.041   4.347 -1.3904 -0.9161  0.2371
14109SOL     OW43614   6.706   5.630   7.485 -0.3030 -0.2672  0.1739
14109SOL    HW143615   6.757   5.595   7.412  0.0730 -0.8889  0.7211
14109SOL    HW243616   6.619   5.644   7.449 -0.0602 -0.3352 -0.4535
14110SOL     OW43617   4.411   4.757   4.047  0.0343  0.3782 -0.0134
14110SOL    HW143618   4.466   4.679   4.049 -1.1282 -0.4514  1.2199
14110SOL    HW243619   4.471   4.828   4.025  1.2481 -0.7480 -0.4512
14111SOL     OW43620   7.913   7.627   2.122  0.7093  0.1583  0.2239
14111SOL    HW143621   7.898   7.680   2.044 -0.2767  1.0891  1.0203
14111SOL    HW243622   8.002   7.594   2.112 -0.2157 -1.8668 -2.5428
14112SOL     OW43623   8.257   6.784   2.012  0.2913  0.8688  0.1038
14112SOL    HW143624   8.177   6.739   1.985  0.3658 -0.0654  1.3707
14112SOL    HW243625   8.325   6.749   1.954  0.0292  0.6471 -0.0679
14113SOL     OW43626   7.334   6.222   7.467 -0.0926  0.1030  0.3280
14113SOL    HW143627   7.262   6.207   7.405 -0.5176  0.0249  0.8279
14113SOL    HW243628   7.413   6.221   7.413 -0.6455  3.3496 -0.8151
14114SOL     OW43629   2.905   1.873   7.038  0.1549  0.3105  0.7036
14114SOL    HW143630   2.856   1.943   6.994  3.2183  2.2097  0.0483
14114SOL    HW243631   2.950   1.827   6.967  1.6352  0.5470  1.4599
14115SOL     OW43632   2.650   0.026   1.782  0.0440  1.1160 -0.6592
14115SOL    HW143633   2.566   0.019   1.827  0.6919  1.6652  0.7026
14115SOL    HW243634   2.711  -0.024   1.837  0.5119  0.2602 -1.9250
14116SOL     OW43635   6.447   3.583   7.676 -0.0921 -0.1188 -0.1175
14116SOL    HW143636   6.443   3.498   7.719  2.9110 -0.5766 -0.4950
14116SOL    HW243637   6.423   3.647   7.743  0.9814 -1.0688  1.2113
14117SOL     OW43638   4.676   1.926   5.631  0.3458 -0.6096  0.2747
14117SOL    HW143639   4.726   1.870   5.690  0.0391  0.2889  1.4125
14117SOL    HW243640   4.662   2.007   5.680 -1.3762 -0.4639 -0.3846
14118SOL     OW43641   8.048   4.961   7.470 -0.7358  0.4900 -0.8029
14118SOL    HW143642   7.959   4.987   7.447 -0.2814  2.9104 -0.0750
14118SOL    HW243643   8.040   4.870   7.498 -2.8712  0.4765 -1.3202
14119SOL     OW43644   5.540   2.430   2.498  0.4574 -0.1610  0.1663
14119SOL    HW143645   5.528   2.339   2.470 -0.2172  0.2629 -0.9581
14119SOL    HW243646   5.493   2.482   2.434 -1.8011  0.8374  2.4640
14120SOL     OW43647   2.606   6.034   6.282 -0.7632 -0.3162 -0.1614
14120SOL    HW143648   2.596   6.123   6.314 -0.9776 -0.3128 -0.2403
14120SOL    HW243649   2.616   6.043   6.187  0.5351 -0.2735 -0.0458
14121SOL     OW43650   1.422   0.522   4.710  0.0085 -0.4696 -0.2870
14121SOL    HW143651   1.479   0.599   4.708 -1.5741  0.7554 -2.2846
14121SOL    HW243652   1.477   0.450   4.679  1.1002  0.1313  0.1917
14122SOL     OW43653   2.661   2.224   3.757  0.3104 -0.3716 -0.5627
14122SOL    HW143654   2.675   2.173   3.677  0.0467  1.2222 -1.6662
14122SOL    HW243655   2.594   2.288   3.734  2.0080  1.7862  0.1237
14123SOL     OW43656   8.473   4.924   7.216  0.1459 -0.1600  0.6826
14123SOL    HW143657   8.565   4.900   7.207  0.3615  0.8175  0.0993
14123SOL    HW243658   8.432   4.896   7.134  0.0125 -0.2441  0.7789
14124SOL     OW43659   3.704   4.198   2.162  0.4808  0.0653 -0.5377
14124SOL    HW143660   3.676   4.146   2.088 -2.7912 -0.3213  0.7956
14124SOL    HW243661   3.694   4.289   2.133  2.0170 -0.0192 -1.4371
14125SOL     OW43662   7.810   8.485   0.543 -0.0526 -0.6193  0.0278
14125SOL    HW143663   7.772   8.404   0.510  0.6423 -1.0619  0.2930
14125SOL    HW243664   7.905   8.471   0.538  0.1135  0.6868 -1.1898
14126SOL     OW43665   2.712   1.162   1.650 -0.0172  0.4796 -0.3756
14126SOL    HW143666   2.641   1.159   1.587 -2.8116 -2.1744  2.5190
14126SOL    HW243667   2.709   1.077   1.693  2.7835  1.5085  2.2419
14127SOL     OW43668   6.393   8.325   6.838  0.4065 -0.1472 -0.0928
14127SOL    HW143669   6.327   8.284   6.782 -0.7958  0.1910  1.0379
14127SOL    HW243670   6.425   8.253   6.894  1.5724 -0.4738 -1.1172
14128SOL     OW43671   8.139   6.076   1.564 -0.0434  0.2259  0.3268
14128SOL    HW143672   8.062   6.027   1.536  0.6446 -0.4559 -0.4694
14128SOL    HW243673   8.114   6.115   1.648 -0.3302 -2.3204  1.5436
14129SOL     OW43674   3.884   7.967   0.029  0.3828  0.1289 -0.0805
14129SOL    HW143675   3.807   7.993  -0.021 -0.1933 -2.6729 -0.8070
14129SOL    HW243676   3.855   7.967   0.120 -0.5165 -0.9174 -0.3499
14130SOL     OW43677   0.496   5.127   2.053  0.0221  0.8740  0.1518
14130SOL    HW143678   0.582   5.088   2.065 -0.1927  0.5665  0.7904
14130SOL    HW243679   0.512   5.212   2.012  0.7626  1.4591  1.5661
14131SOL     OW43680   2.734   8.115   8.215  0.5405 -0.4772  0.0605
14131SOL    HW143681   2.795   8.094   8.144 -0.7835 -1.2450 -0.9080
14131SOL    HW243682   2.765   8.199   8.249  1.5182 -0.3376 -1.0957
14132SOL     OW43683   6.525   0.922   1.451  0.2750 -0.6279 -0.2836
14132SOL    HW143684   6.583   0.960   1.385  0.5553 -1.7836 -0.7373
14132SOL    HW243685   6.500   0.995   1.507  1.6770  0.0146 -0.4575
14133SOL     OW43686   6.273   6.491   0.044 -0.4652 -0.2717 -0.0118
14133SOL    HW143687   6.202   6.453  -0.008 -1.9656  1.1865  0.8840
14133SOL    HW243688   6.256   6.585   0.043  1.3403  0.0985  0.4405
14134SOL     OW43689   8.445   1.071   6.612  0.0224  0.2581 -0.2882
14134SOL    HW143690   8.538   1.066   6.591  0.1768 -1.0938  0.5888
14134SOL    HW243691   8.417   1.155   6.575  1.8444  1.2734  0.4928
14135SOL     OW43692   3.335   3.565   5.105  1.1097 -0.4084  0.4418
14135SOL    HW143693   3.252   3.542   5.063  2.0262  0.0359 -1.7487
14135SOL    HW243694   3.327   3.531   5.194 -1.0073 -1.2691 -0.0168
14136SOL     OW43695   7.819   7.486   4.960  0.6010 -0.2526  0.4784
14136SOL    HW143696   7.826   7.469   5.054 -3.1820  0.0228  0.9538
14136SOL    HW243697   7.727   7.472   4.940  0.9259  1.4338 -2.8746
14137SOL     OW43698   7.620   1.205   0.560 -0.3382  0.0045  0.0076
14137SOL    HW143699   7.587   1.168   0.478  0.7660  0.6465 -0.7494
14137SOL    HW243700   7.696   1.152   0.582  0.3936  0.9054 -0.3133
14138SOL     OW43701   0.079   3.560   7.913 -0.5510  0.0433  0.0985
14138SOL    HW143702   0.123   3.488   7.959 -0.7973  0.7617  1.5040
14138SOL    HW243703   0.079   3.533   7.821  0.9499 -0.9357  0.3509
14139SOL     OW43704   1.836   7.144   2.604 -0.5632 -0.4011 -0.4697
14139SOL    HW143705   1.930   7.143   2.623 -0.5229 -0.8678 -0.6691
14139SOL    HW243706   1.794   7.152   2.689 -0.3533 -0.9290 -0.3109
14140SOL     OW43707   3.255   7.872   0.845  0.1623 -0.1039  0.6954
14140SOL    HW143708   3.267   7.820   0.766 -1.1714 -0.2659  0.5837
14140SOL    HW243709   3.265   7.963   0.815 -0.5381 -0.1547  0.2993
14141SOL     OW43710   3.452   7.221   3.277 -0.0271 -0.0034  0.0462
14141SOL    HW143711   3.376   7.164   3.291 -0.0004  0.1168  0.7172
14141SOL    HW243712   3.527   7.162   3.280 -0.0436 -0.0215  0.1083
14142SOL     OW43713   7.785   6.761   3.889  0.5316  0.5939  0.2102
14142SOL    HW143714   7.825   6.802   3.966  0.0463  2.0872 -0.2927
14142SOL    HW243715   7.707   6.814   3.872  1.0365  0.7683 -1.7432
14143SOL     OW43716   6.880   1.644   3.648 -0.1246 -0.0684 -0.0159
14143SOL    HW143717   6.867   1.577   3.716 -0.2956 -1.9423 -1.8077
14143SOL    HW243718   6.942   1.604   3.587  1.4232  2.2851 -0.1055
14144SOL     OW43719   6.618   2.042   6.694 -0.0294 -0.3826  0.0495
14144SOL    HW143720   6.709   2.019   6.716  0.0594 -0.9436 -0.8317
14144SOL    HW243721   6.626   2.101   6.619 -0.3779  0.0916  0.3824
14145SOL     OW43722   1.378   3.472   8.124 -0.3631  0.1095  0.4557
14145SOL    HW143723   1.310   3.455   8.059  0.1930 -0.5850  0.0455
14145SOL    HW243724   1.330   3.484   8.206 -0.9643 -0.5994  0.2176
14146SOL     OW43725   4.961   4.107   0.254  0.3805  0.1148 -0.1158
14146SOL    HW143726   4.866   4.094   0.249  0.3961 -1.3657  2.0596
14146SOL    HW243727   4.994   4.073   0.171 -0.9172  0.1038 -0.6647
14147SOL     OW43728   8.660   8.125   5.272 -0.0930 -0.1855  0.5585
14147SOL    HW143729   8.743   8.165   5.249  0.1112 -0.9124 -0.0016
14147SOL    HW243730   8.618   8.188   5.331  0.3006  0.7383 -0.1376
14148SOL     OW43731   2.922   6.765   6.055  0.4839 -0.1390 -0.2135
14148SOL    HW143732   2.859   6.822   6.099 -0.8595 -0.2526 -1.9172
14148SOL    HW243733   2.901   6.772   5.962  2.8278 -0.4171 -0.8218
14149SOL     OW43734   2.351   8.062   1.692 -0.4110  0.3694  0.5684
14149SOL    HW143735   2.270   8.103   1.723 -1.2851 -0.6739 -0.2843
14149SOL    HW243736   2.365   8.099   1.605 -0.7706 -0.5156  0.1216
14150SOL     OW43737   2.517   4.833   8.575  0.0621 -0.4870  0.7317
14150SOL    HW143738   2.528   4.899   8.644  1.6075 -0.0313  0.0955
14150SOL    HW243739   2.550   4.752   8.614  2.0121  0.0077  0.2010
14151SOL     OW43740   3.622   1.608   7.915  0.4643  0.4640  0.4233
14151SOL    HW143741   3.636   1.700   7.938  0.6773  0.9876 -1.5678
14151SOL    HW243742   3.542   1.609   7.862  1.0718 -0.3001 -0.5526
14152SOL     OW43743   0.599   4.188   2.045  0.5705 -0.4825  0.1533
14152SOL    HW143744   0.667   4.255   2.046  0.3635 -0.0652 -3.0478
14152SOL    HW243745   0.519   4.234   2.019  0.0222 -1.6227 -0.2848
14153SOL     OW43746   1.127   6.808   7.571 -0.0019  1.2229 -0.2139
14153SOL    HW143747   1.126   6.780   7.479 -0.3488  1.6122 -0.3329
14153SOL    HW243748   1.208   6.857   7.580  0.9432 -0.3365  0.1655
14154SOL     OW43749   8.482   1.189   2.743  0.0253  0.4558  0.4378
14154SOL    HW143750   8.558   1.148   2.702 -0.4674 -0.3197  0.2783
14154SOL    HW243751   8.506   1.281   2.753  0.5619  0.4390 -0.6122
14155SOL     OW43752   0.756   1.531   1.820 -0.0325 -0.7714  0.4190
14155SOL    HW143753   0.780   1.614   1.861  1.1315  0.4928 -2.5375
14155SOL    HW243754   0.837   1.480   1.819  0.4157 -0.1350 -1.5251
14156SOL     OW43755   3.347   4.184   0.153  0.5879  0.3190 -0.2665
14156SOL    HW143756   3.429   4.147   0.121  0.0826 -0.1406 -1.0668
14156SOL    HW243757   3.311   4.116   0.211  0.4413  0.2372 -0.4541
14157SOL     OW43758   7.338   4.781   5.830 -0.2832 -0.0151 -0.4518
14157SOL    HW143759   7.371   4.849   5.771 -2.3421  2.0072  0.5701
14157SOL    HW243760   7.367   4.809   5.917 -3.4077  1.2056  0.3368
14158SOL     OW43761   7.307   4.217   7.542 -0.4692  0.0864  0.3592
14158SOL    HW143762   7.302   4.246   7.633  1.1800  0.3923  0.3870
14158SOL    HW243763   7.374   4.273   7.503  1.2756 -2.1785 -0.1377
14159SOL     OW43764   0.290   6.135   5.935  0.2507 -0.2931 -0.2039
14159SOL    HW143765   0.209   6.184   5.950 -0.3449 -1.1642 -0.4697
14159SOL    HW243766   0.311   6.152   5.843  0.0573 -0.5206 -0.2899
14160SOL     OW43767   2.706   2.065   5.299  0.8749 -0.6724 -0.2169
14160SOL    HW143768   2.791   2.036   5.331 -0.2545 -2.9186  1.0183
14160SOL    HW243769   2.675   2.127   5.365  1.6598  0.4297 -0.8538
14161SOL     OW43770   6.639   4.263   4.508  0.0120 -0.0565 -0.3999
14161SOL    HW143771   6.733   4.277   4.496  0.1764  0.4474  1.2611
14161SOL    HW243772   6.632   4.202   4.581 -0.9549 -0.2951 -0.6691
14162SOL     OW43773   3.193   8.189   0.249 -0.6938  0.4583 -0.8073
14162SOL    HW143774   3.165   8.272   0.211  0.5505  1.3961  0.2157
14162SOL    HW243775   3.202   8.207   0.343  1.3106 -0.3035 -0.7981
14163SOL     OW43776   6.368   3.610   7.023  0.2762 -0.2178 -0.6314
14163SOL    HW143777   6.379   3.515   7.029  0.1087 -0.2374 -0.6278
14163SOL    HW243778   6.371   3.628   6.929  1.7827 -0.0442 -0.5784
14164SOL     OW43779   4.406   8.672   1.945  0.1102 -0.0509  0.3852
14164SOL    HW143780   4.340   8.738   1.964  0.2248 -0.4706  2.4288
14164SOL    HW243781   4.430   8.688   1.853 -0.7018  1.9735  0.4762
14165SOL     OW43782   1.796   8.605   1.493 -0.2702  0.5780  0.9567
14165SOL    HW143783   1.833   8.662   1.561  0.6450 -0.9921  1.8334
14165SOL    HW243784   1.863   8.602   1.425 -0.9110  1.6210  0.2446
14166SOL     OW43785   3.439   7.218   3.644 -0.1777  0.2877 -0.3875
14166SOL    HW143786   3.425   7.294   3.588 -0.6588 -1.4374 -2.7591
14166SOL    HW243787   3.534   7.211   3.651 -0.1162  0.5980 -0.8771
14167SOL     OW43788   5.387   2.463   5.327 -0.2406  0.3884 -0.0950
14167SOL    HW143789   5.442   2.425   5.396  0.6866  0.2936 -0.8746
14167SOL    HW243790   5.331   2.391   5.299 -0.4715  0.3692  0.3946
14168SOL     OW43791   6.811   7.551   5.816 -0.2838  0.0183 -0.0015
14168SOL    HW143792   6.726   7.574   5.852 -1.1121  0.3252 -2.0237
14168SOL    HW243793   6.874   7.602   5.867 -1.2146 -0.6539  1.9076
14169SOL     OW43794   0.893   5.587   1.438 -0.6581 -0.0396  0.0539
14169SOL    HW143795   0.845   5.595   1.355 -0.4514 -0.0126 -0.0627
14169SOL    HW243796   0.956   5.659   1.436 -0.2457 -0.3964 -0.0340
14170SOL     OW43797   8.656   3.760   8.117  0.3388  0.4410 -0.0829
14170SOL    HW143798   8.623   3.813   8.045 -0.7784 -0.9531 -0.6603
14170SOL    HW243799   8.642   3.670   8.088  1.6603 -0.1740  1.0760
14171SOL     OW43800   7.405   4.004   0.881 -0.0992  0.1672 -0.1772
14171SOL    HW143801   7.483   3.989   0.828  0.1529 -1.3362  0.5564
14171SOL    HW243802   7.333   4.008   0.818  0.5824  2.0605 -0.9004
14172SOL     OW43803   1.987   8.218   3.677 -0.0887  0.3378  0.4464
14172SOL    HW143804   2.021   8.128   3.674 -1.0566 -0.0313  0.1510
14172SOL    HW243805   2.014   8.250   3.763  0.9666  0.0594  0.2383
14173SOL     OW43806   7.458   4.417   8.105 -0.2440 -0.3322  0.3109
14173SOL    HW143807   7.368   4.449   8.115  0.1560  0.8454  0.2895
14173SOL    HW243808   7.448   4.322   8.095 -1.4843 -0.2238  0.2709
14174SOL     OW43809   7.178   0.292   6.902  0.2175  0.5260  0.3395
14174SOL    HW143810   7.170   0.375   6.855  1.3726  0.7774  0.5409
14174SOL    HW243811   7.092   0.277   6.940 -0.6774  0.4426 -1.6239
14175SOL     OW43812   6.381   6.927   5.585 -0.1085  0.5881  0.4614
14175SOL    HW143813   6.386   6.887   5.672  1.1489  2.0645  1.1089
14175SOL    HW243814   6.307   6.988   5.590 -1.1565 -0.5808 -0.1003
14176SOL     OW43815   5.632   5.747   2.258  0.0520  0.0087 -0.0887
14176SOL    HW143816   5.662   5.658   2.238  0.0289  0.1588 -0.8133
14176SOL    HW243817   5.537   5.740   2.261  0.1060 -0.6450  3.0548
14177SOL     OW43818   4.552   7.530   4.888 -0.0910  0.1786  0.6781
14177SOL    HW143819   4.628   7.526   4.830  0.3743  0.8071  1.2258
14177SOL    HW243820   4.533   7.623   4.897 -1.7602 -0.0117 -0.4817
14178SOL     OW43821   1.209   7.450   5.660 -0.8079  0.1205 -0.3545
14178SOL    HW143822   1.116   7.430   5.670 -0.8712 -0.0389 -1.1584
14178SOL    HW243823   1.237   7.396   5.585  0.2894 -0.9573  0.7941
14179SOL     OW43824   6.301   0.065   2.524  0.1733 -0.1837  0.1785
14179SOL    HW143825   6.284   0.159   2.530 -0.3925 -0.1426 -1.5524
14179SOL    HW243826   6.385   0.059   2.479  1.1746 -0.5166  1.9953
14180SOL     OW43827   6.670   7.919   0.914 -0.3001 -0.0395 -0.2981
14180SOL    HW143828   6.734   7.866   0.866 -0.1534  0.7850 -1.0321
14180SOL    HW243829   6.722   7.967   0.979 -0.3102 -0.0947 -0.2486
14181SOL     OW43830   7.214   0.195   2.463 -0.3708  0.1290 -0.2455
14181SOL    HW143831   7.174   0.274   2.427 -0.2486  0.7477  0.9252
14181SOL    HW243832   7.297   0.225   2.501 -0.6794 -0.3984  0.9006
14182SOL     OW43833   2.233   2.947   2.161 -0.1844 -0.1459  0.6401
14182SOL    HW143834   2.289   2.873   2.139  0.5959  0.9364 -1.2481
14182SOL    HW243835   2.292   3.021   2.170 -1.0035  0.3830  1.9573
14183SOL     OW43836   8.340   0.517   8.009  0.4072  0.2303 -0.4333
14183SOL    HW143837   8.282   0.499   8.083  0.3256 -0.4477 -0.6507
14183SOL    HW243838   8.281   0.529   7.935  0.5175  0.0358 -0.5554
14184SOL     OW43839   4.566   2.809   2.116 -0.2469  0.3967 -0.9574
14184SOL    HW143840   4.472   2.811   2.133 -0.3038 -1.5530 -0.7938
14184SOL    HW243841   4.602   2.881   2.168 -1.4799  0.2695  0.1117
14185SOL     OW43842   7.134   1.324   3.810 -0.5141 -0.5109  0.2508
14185SOL    HW143843   7.049   1.291   3.782  0.0084 -1.2279 -0.5471
14185SOL    HW243844   7.119   1.416   3.832 -1.1599 -0.1783 -1.4443
14186SOL     OW43845   7.750   6.448   0.358 -0.0509  0.0546 -0.0593
14186SOL    HW143846   7.785   6.434   0.270 -0.2806 -0.0112 -0.1413
14186SOL    HW243847   7.751   6.543   0.370 -0.2808  0.0807 -0.2418
14187SOL     OW43848   6.152   4.540   4.864 -0.2918  0.4708  0.1460
14187SOL    HW143849   6.193   4.454   4.869  0.5538  0.8966  0.9760
14187SOL    HW243850   6.146   4.558   4.771  1.1327  0.2305 -0.0249
14188SOL     OW43851   6.330   4.827   3.014 -0.1950  0.0397 -0.2507
14188SOL    HW143852   6.424   4.844   3.008 -0.3814  1.8528  1.0851
14188SOL    HW243853   6.320   4.772   3.092 -0.2649 -0.0050 -0.2910
14189SOL     OW43854   7.500   4.609   4.357 -0.2340 -0.4051  0.7380
14189SOL    HW143855   7.537   4.615   4.445 -1.1753 -1.2476  1.2205
14189SOL    HW243856   7.432   4.675   4.355  2.2993  2.3849 -0.7490
14190SOL     OW43857   0.856   6.170   4.445 -0.5681  0.1648 -0.8726
14190SOL    HW143858   0.897   6.224   4.512  0.2563  0.0198 -1.2361
14190SOL    HW243859   0.830   6.232   4.377 -1.1471  0.2809 -0.5486
14191SOL     OW43860   2.303   1.841   3.911  0.4571  0.0156 -0.2063
14191SOL    HW143861   2.284   1.749   3.932 -1.4517  0.3180 -0.4510
14191SOL    HW243862   2.282   1.889   3.991 -2.4880  0.6500 -1.2351
14192SOL     OW43863   2.824   8.633   7.774  0.4249 -0.4132  0.0401
14192SOL    HW143864   2.781   8.718   7.760  0.7101 -0.4166 -0.9270
14192SOL    HW243865   2.758   8.580   7.818  0.0528  0.1317  0.1554
14193SOL     OW43866   7.777   8.036   4.126  0.2600 -0.0684  0.3519
14193SOL    HW143867   7.869   8.033   4.100  1.0462 -2.1099  2.8756
14193SOL    HW243868   7.730   8.002   4.050  1.2826  2.6958 -1.6831
14194SOL     OW43869   5.265   6.714   5.062 -0.3691 -0.5458  0.1472
14194SOL    HW143870   5.187   6.758   5.093 -0.6113 -0.4991 -0.5117
14194SOL    HW243871   5.331   6.783   5.055 -0.1468 -0.6520  1.0770
14195SOL     OW43872   4.171   2.885   2.102  0.5097 -0.0639 -0.3934
14195SOL    HW143873   4.110   2.820   2.137 -1.0991  0.4839 -1.9989
14195SOL    HW243874   4.206   2.845   2.023  0.4668  0.5316 -0.7172
14196SOL     OW43875   5.259   6.977   8.318 -0.2396 -0.0859  0.5491
14196SOL    HW143876   5.197   6.951   8.250 -0.5759 -0.2217  0.9018
14196SOL    HW243877   5.206   6.983   8.398  0.2631 -0.5377  0.9273
14197SOL     OW43878   2.603   2.447   6.812  0.3110 -0.0452 -0.0610
14197SOL    HW143879   2.566   2.388   6.878 -1.7561 -0.9236 -1.8906
14197SOL    HW243880   2.642   2.518   6.864 -2.3914  0.0197  2.1580
14198SOL     OW43881   4.402   3.999   1.377  0.1161  0.0501 -0.0451
14198SOL    HW143882   4.345   4.073   1.400 -2.4861 -2.1763  1.2354
14198SOL    HW243883   4.348   3.922   1.392  3.3289 -2.2627  0.7161
14199SOL     OW43884   7.984   0.519   6.447 -0.3215  0.5347  0.3151
14199SOL    HW143885   7.906   0.477   6.412 -0.6410  0.2204  1.3763
14199SOL    HW243886   8.057   0.465   6.416 -0.5634  0.4921 -0.1860
14200SOL     OW43887   2.350   8.533   7.779  0.4711  0.1916  0.1981
14200SOL    HW143888   2.282   8.468   7.797  0.1406  0.3086 -0.6128
14200SOL    HW243889   2.426   8.501   7.828 -0.0591 -0.1223  0.8338
14201SOL     OW43890   0.697   8.285   6.015 -0.2104  0.5831  0.2993
14201SOL    HW143891   0.767   8.302   5.953 -0.9730  2.3057 -0.1329
14201SOL    HW243892   0.717   8.197   6.049 -0.2778 -0.9167 -3.0717
14202SOL     OW43893   1.708   5.189   1.933 -0.1184  0.0001  0.1738
14202SOL    HW143894   1.683   5.281   1.940  0.8311  0.3551 -0.8523
14202SOL    HW243895   1.786   5.181   1.988 -0.4896 -0.3217  0.6638
14203SOL     OW43896   0.726   4.792   1.402 -0.4087  0.7083  0.6770
14203SOL    HW143897   0.648   4.847   1.396 -1.4974 -0.7603  0.9483
14203SOL    HW243898   0.744   4.767   1.312 -1.8625 -1.0785  0.8308
14204SOL     OW43899   8.364   6.667   1.795  0.0692  0.0320  0.3157
14204SOL    HW143900   8.456   6.672   1.822  0.6487  1.9557 -1.6380
14204SOL    HW243901   8.358   6.729   1.722 -2.1877 -2.0056 -1.3695
14205SOL     OW43902   3.094   8.142   5.672  0.4052  0.0819 -0.6960
14205SOL    HW143903   3.078   8.054   5.706 -0.8532  0.4580 -0.2344
14205SOL    HW243904   3.024   8.156   5.608 -0.7833  1.5401  0.8285
14206SOL     OW43905   4.062   6.064   6.057 -0.1773  0.1544  0.2206
14206SOL    HW143906   4.032   6.084   6.146  0.8134 -2.3299  1.2003
14206SOL    HW243907   4.158   6.069   6.063 -0.0878 -0.4830 -0.5762
14207SOL     OW43908   2.545   3.642   1.800  0.2036 -0.6417  0.5645
14207SOL    HW143909   2.469   3.649   1.857 -1.6426 -0.9097 -1.7268
14207SOL    HW243910   2.568   3.549   1.802  0.5352 -0.5461  1.3274
14208SOL     OW43911   7.347   5.807   6.001 -0.2223  0.1814 -0.2203
14208SOL    HW143912   7.384   5.747   5.937  0.8449 -1.5883  1.9262
14208SOL    HW243913   7.369   5.894   5.968  2.1346 -0.7097 -1.2042
14209SOL     OW43914   4.988   1.054   7.207 -0.2993 -0.0943 -0.0109
14209SOL    HW143915   4.982   1.029   7.115 -0.4884 -3.0986  0.7075
14209SOL    HW243916   5.073   1.097   7.215  0.0413 -0.4524 -1.4673
14210SOL     OW43917   0.952   1.097   1.780  0.3817  0.4999 -0.4633
14210SOL    HW143918   0.975   1.189   1.787 -1.1372  0.8209  0.8902
14210SOL    HW243919   1.015   1.052   1.836 -0.6815  1.0869  1.2705
14211SOL     OW43920   6.603   0.903   0.578 -0.2297 -0.2361 -0.1648
14211SOL    HW143921   6.581   0.885   0.669 -0.8286  0.1934 -0.2228
14211SOL    HW243922   6.580   0.995   0.565  1.1191  0.1008 -0.3744
14212SOL     OW43923   3.580   4.289   4.854  0.3782  0.0251  0.8562
14212SOL    HW143924   3.616   4.378   4.858  0.1486  0.1247  0.7635
14212SOL    HW243925   3.501   4.298   4.800  0.0584 -0.1344  1.2965
14213SOL     OW43926   4.768   4.695   2.028  0.4883 -0.4719  0.0054
14213SOL    HW143927   4.794   4.755   2.097  1.0215 -0.3604 -0.2835
14213SOL    HW243928   4.677   4.673   2.048 -0.2192  1.5775 -0.6838
14214SOL     OW43929   7.654   3.339   1.578  0.7524 -0.0283  0.5454
14214SOL    HW143930   7.623   3.430   1.587 -0.5545 -0.3001 -0.7542
14214SOL    HW243931   7.745   3.348   1.550 -0.0391  1.0171 -2.0688
14215SOL     OW43932   5.725   4.365   7.258  0.5297 -0.2090  0.4714
14215SOL    HW143933   5.655   4.408   7.306  0.0725 -0.9640  0.4918
14215SOL    HW243934   5.761   4.434   7.201 -1.9264 -0.3990 -1.4859
14216SOL     OW43935   6.493   3.533   3.285  0.1342  0.0819  0.0211
14216SOL    HW143936   6.475   3.623   3.311  1.8260  1.1039 -2.0669
14216SOL    HW243937   6.422   3.482   3.324 -1.3956  2.4214  0.4853
14217SOL     OW43938   2.615   8.355   5.281  0.0921  0.3534 -0.1072
14217SOL    HW143939   2.644   8.276   5.237 -0.6610  0.4163 -0.7399
14217SOL    HW243940   2.610   8.421   5.211  0.7709  0.9720  0.4212
14218SOL     OW43941   3.440   5.541   0.948 -0.1863 -0.2467  0.0616
14218SOL    HW143942   3.435   5.489   1.028  0.7294  0.3698  0.5349
14218SOL    HW243943   3.413   5.481   0.879  2.4875 -1.9505  0.3566
14219SOL     OW43944   8.134   0.106   2.755 -0.2896 -0.1622 -0.0181
14219SOL    HW143945   8.055   0.113   2.701 -0.9485 -2.6077  0.4841
14219SOL    HW243946   8.112   0.154   2.835 -1.2131 -0.5900  0.0072
14220SOL     OW43947   7.319   7.808   2.420 -0.0723  0.0793  0.2346
14220SOL    HW143948   7.359   7.885   2.379 -1.0860  0.9986  0.9156
14220SOL    HW243949   7.367   7.797   2.502 -0.9056  0.9539  0.8710
14221SOL     OW43950   5.512   1.885   2.309 -0.2236  0.2367  0.5463
14221SOL    HW143951   5.451   1.812   2.297 -0.6446  0.5592  0.7000
14221SOL    HW243952   5.499   1.940   2.232 -0.7040  0.7165  0.9671
14222SOL     OW43953   2.541   5.263   8.102  0.0989 -0.6780  0.8045
14222SOL    HW143954   2.509   5.209   8.030 -0.3331 -1.9235  1.8813
14222SOL    HW243955   2.568   5.344   8.061 -0.6011 -1.1630 -0.6962
14223SOL     OW43956   2.003   0.283   0.663 -0.1674  0.3714  0.2020
14223SOL    HW143957   1.927   0.237   0.700 -0.2049  0.4943  0.2777
14223SOL    HW243958   1.983   0.290   0.570 -0.7196  1.3060  0.3797
14224SOL     OW43959   4.866   6.402   5.078  0.7672  0.6851  0.4908
14224SOL    HW143960   4.929   6.440   5.139  1.8046 -1.1145  0.6243
14224SOL    HW243961   4.877   6.452   4.997  0.5203  2.0465  1.2738
14225SOL     OW43962   6.207   6.200   4.845  0.1114 -0.4144 -0.5530
14225SOL    HW143963   6.141   6.136   4.870 -0.0540 -0.2850 -0.6624
14225SOL    HW243964   6.276   6.148   4.803  0.7754 -0.7526  0.8854
14226SOL     OW43965   6.844   3.267   0.693  0.0539 -0.4098 -0.1517
14226SOL    HW143966   6.786   3.242   0.621 -1.6689 -1.0516  1.3824
14226SOL    HW243967   6.846   3.190   0.750  0.0826  0.5991  1.2807
14227SOL     OW43968   6.778   3.353   4.328 -0.4206 -0.6595 -0.1348
14227SOL    HW143969   6.697   3.319   4.290  0.2230 -1.6933 -0.6306
14227SOL    HW243970   6.811   3.414   4.262 -0.9356 -0.0136  0.1979
14228SOL     OW43971   5.740   5.622   5.774 -0.2167  0.3246 -0.1553
14228SOL    HW143972   5.800   5.554   5.805 -2.3863 -1.1226  1.2350
14228SOL    HW243973   5.796   5.695   5.748  2.0931 -0.8528  1.2165
14229SOL     OW43974   2.920   4.841   5.989  0.4492  0.2458 -0.3472
14229SOL    HW143975   2.904   4.930   6.020  1.3163  0.6190 -0.9177
14229SOL    HW243976   2.834   4.808   5.966  0.1046  0.9069 -0.0449
14230SOL     OW43977   6.156   5.298   6.620  0.5842  0.1401  0.0736
14230SOL    HW143978   6.187   5.235   6.685  1.0361  1.3405  1.0818
14230SOL    HW243979   6.170   5.383   6.662  2.4077  1.0770 -2.2108
14231SOL     OW43980   7.005   6.229   5.692 -0.4990  0.0970  0.4870
14231SOL    HW143981   6.964   6.151   5.729  0.0400  0.1990  1.3224
14231SOL    HW243982   7.061   6.262   5.762  0.1671  0.5770 -0.2617
14232SOL     OW43983   5.196   6.689   7.301  0.0283  0.1347 -0.0586
14232SOL    HW143984   5.214   6.644   7.383 -0.2564  1.3529  0.7054
14232SOL    HW243985   5.240   6.636   7.234  1.9949  0.1807  1.1028
14233SOL     OW43986   3.294   1.790   8.382 -0.5387 -0.0716  0.5059
14233SOL    HW143987   3.270   1.704   8.414  2.5584 -0.7044  1.5146
14233SOL    HW243988   3.326   1.836   8.460  0.8314  0.8026 -0.5229
14234SOL     OW43989   1.886   0.755   6.034  0.3679  0.4718 -0.1899
14234SOL    HW143990   1.825   0.754   5.960  0.3306  0.4792 -0.1590
14234SOL    HW243991   1.948   0.824   6.012  0.4656  0.3483 -0.3033
14235SOL     OW43992   2.086   0.744   3.120  0.8991 -0.6811 -0.2029
14235SOL    HW143993   2.116   0.660   3.155  0.2886 -0.5438  0.6961
14235SOL    HW243994   2.041   0.785   3.194 -0.9208 -0.6167 -1.2945
14236SOL     OW43995   6.362   7.278   4.583  0.0391  0.3180 -0.1422
14236SOL    HW143996   6.356   7.202   4.641 -0.4069  0.1925 -0.3492
14236SOL    HW243997   6.300   7.341   4.620  0.7721  0.7878  0.3239
14237SOL     OW43998   6.530   0.165   0.292  0.1204 -0.1025 -0.2303
14237SOL    HW143999   6.509   0.073   0.277 -1.5724  0.5739 -2.6534
14237SOL    HW244000   6.476   0.190   0.367 -0.2931 -0.8048 -0.2829
14238SOL     OW44001   1.834   6.874   5.314  0.8049  0.4866  0.4071
14238SOL    HW144002   1.783   6.840   5.387  1.8473  1.3042  1.5702
14238SOL    HW244003   1.920   6.832   5.323  0.8447  0.3503 -0.5489
14239SOL     OW44004   6.897   4.741   5.554  0.0300  0.4245 -0.1048
14239SOL    HW144005   6.892   4.656   5.510 -1.4280 -0.4137  1.5263
14239SOL    HW244006   6.979   4.738   5.602 -1.0682 -1.1203  1.8215
14240SOL     OW44007   4.630   6.568   3.903 -0.3353 -0.3451 -1.1481
14240SOL    HW144008   4.688   6.573   3.828 -0.9835  0.4470 -1.6056
14240SOL    HW244009   4.568   6.640   3.891  0.1865  0.4785  0.6781
14241SOL     OW44010   2.900   6.435   7.431  0.3077 -0.5270  0.1735
14241SOL    HW144011   2.917   6.527   7.450 -0.9278 -0.7174  2.5672
14241SOL    HW244012   2.961   6.413   7.361  0.5567  2.1224 -0.5381
14242SOL     OW44013   5.183   4.879   6.261  0.0269 -0.6194  0.3752
14242SOL    HW144014   5.141   4.862   6.346 -1.6528  1.9608  0.2059
14242SOL    HW244015   5.273   4.903   6.283 -1.0110  2.5405  1.8825
14243SOL     OW44016   8.594   8.115   1.326  0.7820 -0.2946  0.1629
14243SOL    HW144017   8.617   8.053   1.257 -1.0351 -2.1377  1.1064
14243SOL    HW244018   8.589   8.200   1.281  2.0661 -1.0164 -1.4330
14244SOL     OW44019   6.118   8.463   7.863  0.2621  0.2743 -0.0883
14244SOL    HW144020   6.120   8.550   7.904 -0.9109 -0.4095  1.5441
14244SOL    HW244021   6.072   8.477   7.780 -1.1176  1.0157  0.7544
14245SOL     OW44022   0.567   1.027   1.381  0.3112  0.4301  0.2304
14245SOL    HW144023   0.485   1.073   1.361  1.2657  1.4220 -1.6498
14245SOL    HW244024   0.606   1.078   1.452 -1.2364 -0.7786  2.0371
14246SOL     OW44025   4.763   7.619   0.484 -0.1937 -0.1295 -0.2200
14246SOL    HW144026   4.808   7.703   0.470 -0.2969 -0.2621 -1.5169
14246SOL    HW244027   4.829   7.564   0.527  0.0664  0.4336  0.1218
14247SOL     OW44028   7.064   5.553   1.798 -0.2316  1.0330  0.1710
14247SOL    HW144029   7.155   5.575   1.782 -0.3223  0.8180 -0.7172
14247SOL    HW244030   7.019   5.638   1.799 -0.1877  1.0766 -0.5817
14248SOL     OW44031   1.377   0.977   7.395 -0.7000 -0.0792  0.0909
14248SOL    HW144032   1.378   0.912   7.464  0.1432 -0.1564  0.0248
14248SOL    HW244033   1.285   0.998   7.382 -0.9060 -0.5138  0.8080
14249SOL     OW44034   0.738   1.714   6.099 -0.3782 -0.1435  0.0688
14249SOL    HW144035   0.721   1.773   6.026  2.8238 -1.3012 -1.8485
14249SOL    HW244036   0.698   1.631   6.073  0.0946 -0.3468 -0.0260
14250SOL     OW44037   1.183   6.074   7.310 -0.0442  0.0269 -0.5253
14250SOL    HW144038   1.109   6.023   7.277  0.2281  0.2202 -1.4575
14250SOL    HW244039   1.181   6.155   7.259  0.2308  0.4476  0.1215
14251SOL     OW44040   2.387   0.795   3.007  0.1475 -0.0163  0.0095
14251SOL    HW144041   2.313   0.840   2.967  0.9996  0.8116 -0.6711
14251SOL    HW244042   2.352   0.760   3.089 -0.9406  0.5164 -0.2063
14252SOL     OW44043   1.065   2.608   1.531  0.2753  0.3808 -0.7837
14252SOL    HW144044   1.089   2.539   1.469 -0.9894  0.5067 -1.4590
14252SOL    HW244045   0.973   2.590   1.551  1.0166 -0.5260  2.2394
14253SOL     OW44046   5.222   6.314   3.270  0.6048  0.4428  0.1466
14253SOL    HW144047   5.217   6.379   3.340  1.7173  1.9068 -1.0697
14253SOL    HW244048   5.131   6.303   3.241  0.3726  1.3285  0.4975
14254SOL     OW44049   6.016   5.960   2.205  0.0624  0.0272 -0.5485
14254SOL    HW144050   5.927   5.995   2.207  0.5283  1.1928  1.5075
14254SOL    HW244051   6.071   6.028   2.243  1.5842 -1.3858 -0.0786
14255SOL     OW44052   2.219   7.177   3.082  0.1118 -0.1368 -0.0884
14255SOL    HW144053   2.310   7.148   3.080 -0.3875 -1.8453  0.1213
14255SOL    HW244054   2.214   7.239   3.155  1.0662 -0.1818  0.0202
14256SOL     OW44055   6.214   3.244   0.947 -0.3702 -0.1445 -0.0321
14256SOL    HW144056   6.267   3.313   0.907  1.2404 -0.7156  1.0273
14256SOL    HW244057   6.204   3.272   1.038 -1.0218 -0.5548  0.0222
14257SOL     OW44058   4.778   5.765   1.708  0.1880  0.1661  0.0906
14257SOL    HW144059   4.717   5.700   1.672  0.3774 -0.8180  1.4501
14257SOL    HW244060   4.726   5.815   1.771  0.3093  0.6508 -0.1856
14258SOL     OW44061   5.433   0.861   5.385  0.0859  0.7201 -0.1099
14258SOL    HW144062   5.497   0.796   5.414 -0.9544 -0.2163  0.2028
14258SOL    HW244063   5.349   0.826   5.415 -0.3954  2.9738  1.4191
14259SOL     OW44064   0.527   6.651   5.777 -0.1523  0.2497  0.1848
14259SOL    HW144065   0.540   6.556   5.773 -1.3669  0.0782  0.0316
14259SOL    HW244066   0.491   6.666   5.864  1.6710  0.8099  0.8945
14260SOL     OW44067   0.420   0.754   0.405  0.1753 -0.5824  0.6940
14260SOL    HW144068   0.460   0.768   0.319 -0.1732 -1.0931  0.4396
14260SOL    HW244069   0.397   0.661   0.405  2.1968 -1.1574  2.2136
14261SOL     OW44070   2.801   6.365   8.423  0.0185  0.8189  0.7039
14261SOL    HW144071   2.764   6.327   8.343  0.6554  0.9336  0.3433
14261SOL    HW244072   2.863   6.431   8.392  0.8906  0.2900  1.2685
14262SOL     OW44073   7.035   3.262   0.970 -0.8773  0.2259 -0.4252
14262SOL    HW144074   7.089   3.270   0.891  0.0627  0.7161  0.2406
14262SOL    HW244075   7.051   3.173   1.001 -0.7203  0.2553 -0.4212
14263SOL     OW44076   0.024   8.480   7.226  0.2846  0.5317 -0.5767
14263SOL    HW144077   0.067   8.504   7.308  0.9397 -1.5884 -0.2547
14263SOL    HW244078   0.064   8.537   7.160  1.3026  0.7905  0.2392
14264SOL     OW44079   6.464   4.999   2.680 -0.1578  0.0036  0.1240
14264SOL    HW144080   6.464   5.016   2.586  0.7979 -0.1833  0.0805
14264SOL    HW244081   6.403   4.927   2.692  0.3062 -0.4994 -0.4640
14265SOL     OW44082   6.236   4.677   8.681 -0.6144  0.1533 -0.3662
14265SOL    HW144083   6.265   4.750   8.626  3.0005 -1.4445 -0.8690
14265SOL    HW244084   6.227   4.603   8.621  2.8033 -1.4710  0.8717
14266SOL     OW44085   3.797   1.172   6.022  0.3732 -0.2974 -0.5563
14266SOL    HW144086   3.743   1.251   6.015  1.3431  0.4261  0.0520
14266SOL    HW244087   3.782   1.140   6.111 -0.2137 -0.9645 -0.8794
14267SOL     OW44088   2.479   1.854   0.666  0.3501  0.1176  0.2311
14267SOL    HW144089   2.413   1.916   0.697 -0.0996  1.4957 -3.0679
14267SOL    HW244090   2.433   1.770   0.660 -0.6718  0.7009 -0.4364
14268SOL     OW44091   4.776   0.093   2.309  0.6042 -0.1462  0.3233
14268SOL    HW144092   4.767   0.188   2.314  0.3705 -0.1432 -0.1564
14268SOL    HW244093   4.758   0.071   2.218  1.9867 -0.5029  0.0985
14269SOL     OW44094   0.768   7.206   2.314 -0.1316  0.4995  0.6508
14269SOL    HW144095   0.828   7.170   2.247 -1.8932 -0.2516 -0.5968
14269SOL    HW244096   0.773   7.301   2.302  0.3437  0.4183  0.1443
14270SOL     OW44097   5.305   1.895   1.058  0.0821 -0.0330  0.4447
14270SOL    HW144098   5.218   1.917   1.026  0.0572  1.2207  1.3200
14270SOL    HW244099   5.357   1.879   0.978 -0.4104  1.3171 -0.1724
14271SOL     OW44100   6.285   2.463   5.882  0.5410  0.5207 -1.0186
14271SOL    HW144101   6.282   2.557   5.899  0.1151  0.4248 -0.5338
14271SOL    HW244102   6.361   2.451   5.826  1.9103  0.8797  0.6696
14272SOL     OW44103   8.345   1.638   4.248 -0.4918  0.0591 -0.3498
14272SOL    HW144104   8.360   1.578   4.322  0.1201  0.6938  0.0620
14272SOL    HW244105   8.318   1.581   4.176 -1.0429 -0.5856  0.3425
14273SOL     OW44106   6.620   2.096   4.377 -0.4305 -0.2964  0.2749
14273SOL    HW144107   6.676   2.035   4.425 -2.9493 -1.5355  1.8314
14273SOL    HW244108   6.637   2.075   4.285  1.8044 -0.4214  0.6547
14274SOL     OW44109   4.323   2.413   3.983  0.0709 -0.0897 -0.1299
14274SOL    HW144110   4.342   2.374   4.068 -1.1415 -2.4231 -0.8427
14274SOL    HW244111   4.237   2.453   3.993 -0.0616 -0.3441 -0.2572
14275SOL     OW44112   4.927   7.738   1.964 -0.0324 -0.2218 -0.5892
14275SOL    HW144113   4.954   7.662   1.914  1.1049  1.0428 -2.0080
14275SOL    HW244114   4.958   7.721   2.053  1.1256 -0.9799 -1.1117
14276SOL     OW44115   1.715   3.330   3.955 -0.3659 -0.2587  0.2653
14276SOL    HW144116   1.775   3.345   3.881 -0.0488  0.7921  0.7135
14276SOL    HW244117   1.735   3.401   4.016 -1.1781 -0.6571  1.0087
14277SOL     OW44118   0.270   0.561   8.241 -0.4734  0.2944 -0.3243
14277SOL    HW144119   0.354   0.520   8.262 -0.6519 -1.8200 -3.1520
14277SOL    HW244120   0.206   0.508   8.288 -0.4433 -0.5353 -1.1799
14278SOL     OW44121   5.663   7.163   7.678  0.3484  0.4094 -0.2124
14278SOL    HW144122   5.574   7.138   7.652  0.3566  2.3358 -2.4399
14278SOL    HW244123   5.653   7.248   7.722  1.0046  0.2228  0.3192
14279SOL     OW44124   8.251   1.349   5.622 -0.2515  0.2917  0.3641
14279SOL    HW144125   8.263   1.288   5.549  1.9859  1.4900 -0.3996
14279SOL    HW244126   8.158   1.370   5.621 -1.2954 -3.5298  1.1179
14280SOL     OW44127   3.918   1.661   0.359  0.2960  0.0163  0.2412
14280SOL    HW144128   3.948   1.696   0.443 -0.3200  0.7289  0.1742
14280SOL    HW244129   3.996   1.663   0.304  0.3552  1.0455  0.3279
14281SOL     OW44130   2.898   5.576   2.268  0.2729  0.2320 -0.3896
14281SOL    HW144131   2.911   5.669   2.247 -1.5630  0.4644 -0.6761
14281SOL    HW244132   2.928   5.568   2.359 -0.2983  1.3200 -0.0791
14282SOL     OW44133   1.329   4.625   5.162  0.1026  0.2873 -0.2693
14282SOL    HW144134   1.311   4.719   5.152  0.3282  0.3438 -0.1399
14282SOL    HW244135   1.319   4.590   5.073 -3.3484 -0.1686  0.1520
14283SOL     OW44136   2.847   1.439   7.774 -0.6741  0.3479  0.5861
14283SOL    HW144137   2.781   1.507   7.788  0.2706  1.2429  0.8254
14283SOL    HW244138   2.914   1.456   7.841  1.0509  1.0828 -1.2070
14284SOL     OW44139   7.713   8.450   5.616 -0.1286 -0.3457  0.0929
14284SOL    HW144140   7.780   8.382   5.627  1.4841  1.1914  0.1505
14284SOL    HW244141   7.728   8.484   5.528 -1.9606 -1.0843 -0.5452
14285SOL     OW44142   8.481   5.685   4.440  0.2807 -0.0286  0.7468
14285SOL    HW144143   8.404   5.741   4.436  0.5021  0.2329 -0.1898
14285SOL    HW244144   8.537   5.725   4.506  0.1333  0.4624  0.5723
14286SOL     OW44145   1.606   2.620   4.830 -0.0027  0.0885  0.4177
14286SOL    HW144146   1.587   2.531   4.859 -0.2665 -0.3076 -0.8884
14286SOL    HW244147   1.640   2.609   4.741 -0.0914  1.2895  0.2197
14287SOL     OW44148   7.178   0.556   3.512 -0.8082 -0.4508 -0.0007
14287SOL    HW144149   7.100   0.505   3.492  0.1279 -2.2494  0.6890
14287SOL    HW244150   7.192   0.542   3.606  1.3788 -1.7863 -0.4419
14288SOL     OW44151   8.531   3.414   4.775 -0.0000  0.3793  0.6232
14288SOL    HW144152   8.554   3.395   4.684 -0.8284 -0.7287  0.6259
14288SOL    HW244153   8.592   3.483   4.801  0.7087  0.2273 -0.5532
14289SOL     OW44154   1.386   0.629   3.689 -0.6928 -0.0797 -0.3289
14289SOL    HW144155   1.325   0.608   3.759 -0.6542 -2.8377 -1.0069
14289SOL    HW244156   1.357   0.714   3.656 -1.2691  0.8532  2.3367
14290SOL     OW44157   6.229   1.446   2.817  0.0152  0.9788 -0.4704
14290SOL    HW144158   6.229   1.486   2.730  1.1268  0.8555 -0.5455
14290SOL    HW244159   6.274   1.362   2.805 -2.3178 -0.3871 -0.3301
14291SOL     OW44160   8.100   5.022   8.128  0.6075  0.1497  0.6314
14291SOL    HW144161   8.111   4.956   8.197  0.8831 -1.0015 -0.4667
14291SOL    HW244162   8.185   5.065   8.122  0.4747  0.5079  1.2485
14292SOL     OW44163   3.692   7.522   0.326  0.0144  0.8517 -0.3433
14292SOL    HW144164   3.637   7.475   0.263  1.1110 -0.2716 -0.5151
14292SOL    HW244165   3.701   7.610   0.289 -0.3523  0.5660 -1.1344
14293SOL     OW44166   4.468   8.114   4.738  0.6059 -0.7623 -0.5308
14293SOL    HW144167   4.547   8.140   4.691 -0.1381 -1.1478 -2.0637
14293SOL    HW244168   4.440   8.194   4.783  1.0946 -0.2332 -1.1355
14294SOL     OW44169   5.673   7.143   5.034 -0.1348  0.0697 -0.1211
14294SOL    HW144170   5.722   7.226   5.038  0.3382 -0.2421  0.8231
14294SOL    HW244171   5.630   7.145   4.949  0.1382  1.1415 -0.2508
14295SOL     OW44172   2.759   7.834   4.807 -0.2550 -0.4815 -0.2536
14295SOL    HW144173   2.746   7.927   4.825  0.6343 -0.6786  1.6924
14295SOL    HW244174   2.818   7.832   4.731 -0.2762  0.5257 -0.3108
14296SOL     OW44175   7.261   2.748   7.790  0.0819 -0.8103 -0.0539
14296SOL    HW144176   7.181   2.695   7.791  0.0056 -0.7179  2.0194
14296SOL    HW244177   7.257   2.800   7.870  0.9531  1.1852 -1.2242
14297SOL     OW44178   5.539   5.026   3.431 -0.2522 -0.2229  0.7170
14297SOL    HW144179   5.513   4.960   3.368 -1.1501 -0.2569  1.1197
14297SOL    HW244180   5.524   5.109   3.386 -0.6350 -0.2533  0.7910
14298SOL     OW44181   6.754   1.224   5.474  0.3589 -0.3744  0.6101
14298SOL    HW144182   6.684   1.282   5.505 -0.1380 -1.5129  1.7157
14298SOL    HW244183   6.833   1.259   5.514  0.2141  0.0783  0.5134
14299SOL     OW44184   8.005   4.738   3.144  0.5778 -0.2936  0.0341
14299SOL    HW144185   7.956   4.677   3.090 -0.5838  1.8572 -1.5020
14299SOL    HW244186   8.079   4.687   3.176 -0.8269 -2.7302 -0.3435
14300SOL     OW44187   4.438   4.555   7.278 -0.0955  0.0611 -0.2400
14300SOL    HW144188   4.370   4.567   7.344  0.4156  0.9405  0.1583
14300SOL    HW244189   4.394   4.574   7.195 -0.0913  1.8320  0.1109
14301SOL     OW44190   2.642   4.177   2.827  0.0153  0.0261 -0.1278
14301SOL    HW144191   2.598   4.098   2.796 -0.3887 -0.6915  2.1174
14301SOL    HW244192   2.640   4.236   2.752 -1.5380 -1.3177 -1.2199
14302SOL     OW44193   4.109   2.568   2.141  0.3349  0.3489  0.1730
14302SOL    HW144194   4.050   2.571   2.066  1.7093  3.3652 -0.9456
14302SOL    HW244195   4.053   2.582   2.217 -0.6469  1.2280 -0.6850
14303SOL     OW44196   7.662   8.669   4.022  0.7001 -0.4012  0.2304
14303SOL    HW144197   7.616   8.600   3.974  0.7705  0.1236 -0.6245
14303SOL    HW244198   7.747   8.675   3.978  0.1664  1.2078 -0.6828
14304SOL     OW44199   2.654   1.500   8.649  0.0300  0.0327  0.1384
14304SOL    HW144200   2.653   1.545   8.733 -2.1268  0.5064 -0.0782
14304SOL    HW244201   2.609   1.417   8.664  0.8719 -0.5089 -0.2500
14305SOL     OW44202   7.867   0.530   8.501  0.7494 -0.2000 -0.3004
14305SOL    HW144203   7.858   0.604   8.440 -0.5038  1.5749  1.8606
14305SOL    HW244204   7.822   0.457   8.457  1.1357  0.5778 -2.0774
14306SOL     OW44205   0.087   4.742   2.433  0.1117  0.2604  0.2640
14306SOL    HW144206   0.095   4.819   2.377 -1.2999  0.1210 -0.1660
14306SOL    HW244207   0.154   4.682   2.401 -0.1074  0.5237 -0.7309
14307SOL     OW44208   2.138   0.285   5.462  0.1789 -0.4557  0.2936
14307SOL    HW144209   2.221   0.242   5.441 -0.3358 -1.0946 -0.5097
14307SOL    HW244210   2.136   0.362   5.405  2.0933  2.0031  3.2285
14308SOL     OW44211   7.622   3.412   2.225 -0.3219 -0.0115  0.1502
14308SOL    HW144212   7.552   3.472   2.199  0.8398  1.6070  0.5985
14308SOL    HW244213   7.601   3.390   2.316  0.0096  0.8721  0.4453
14309SOL     OW44214   4.300   7.426   5.600 -0.1936  0.0903 -0.0795
14309SOL    HW144215   4.229   7.428   5.663  0.1884  1.6863  0.3482
14309SOL    HW244216   4.260   7.394   5.519 -1.1048 -0.1768  0.4695
14310SOL     OW44217   6.885   3.911   1.189 -0.3012 -0.3057 -0.2106
14310SOL    HW144218   6.829   3.886   1.262  2.0452  1.5801  2.4406
14310SOL    HW244219   6.938   3.834   1.171 -2.0722 -1.3574 -1.2298
14311SOL     OW44220   3.368   2.844   0.536  0.2968  0.8388 -0.3094
14311SOL    HW144221   3.327   2.768   0.576  0.1793  1.2521  0.3676
14311SOL    HW244222   3.426   2.879   0.604  1.4186  0.5414 -1.0890
14312SOL     OW44223   6.352   0.865   4.426 -0.3389 -0.3540  0.2008
14312SOL    HW144224   6.290   0.897   4.492 -0.4921 -2.0562  0.9273
14312SOL    HW244225   6.437   0.899   4.454 -0.5030 -0.5122  0.9007
14313SOL     OW44226   4.890   0.072   1.904  0.0837 -0.1041 -0.4039
14313SOL    HW144227   4.802   0.107   1.917 -0.0533 -0.3979 -0.5248
14313SOL    HW244228   4.880  -0.022   1.915 -0.1896 -0.5055 -3.1606
14314SOL     OW44229   4.163   3.511   6.512 -0.1602 -0.5313  0.2732
14314SOL    HW144230   4.201   3.436   6.465  1.4167 -0.2345  1.0031
14314SOL    HW244231   4.104   3.473   6.576  1.5392 -1.2749  1.4647
14315SOL     OW44232   0.044   7.505   2.228 -0.3854 -0.0297  0.2743
14315SOL    HW144233  -0.014   7.481   2.155 -1.2123  0.0981  0.8758
14315SOL    HW244234  -0.016   7.535   2.297  0.4413  0.8582  0.6282
14316SOL     OW44235   0.320   0.306   2.132 -0.4489  0.8829  0.0550
14316SOL    HW144236   0.278   0.385   2.097 -1.0253  0.5682  0.0134
14316SOL    HW244237   0.313   0.242   2.061 -0.9518  0.4718  0.4580
14317SOL     OW44238   1.446   3.913   1.435 -0.3487  0.0885  0.4946
14317SOL    HW144239   1.376   3.869   1.386 -0.6387 -0.1927  1.1583
14317SOL    HW244240   1.501   3.842   1.467 -0.0333  0.2866  0.3990
14318SOL     OW44241   3.397   4.194   6.457  0.0144  0.4041  0.6297
14318SOL    HW144242   3.458   4.156   6.393  1.1765 -2.9486  3.4587
14318SOL    HW244243   3.310   4.169   6.425  0.5143 -0.5357 -0.0504
14319SOL     OW44244   1.661   2.576   0.532 -0.5518  0.3108 -0.4637
14319SOL    HW144245   1.722   2.622   0.474 -1.0876  1.3408 -0.2273
14319SOL    HW244246   1.616   2.646   0.580 -0.5835 -0.4883  0.7293
14320SOL     OW44247   5.445   4.430   6.025  0.2480 -0.2201  0.1796
14320SOL    HW144248   5.393   4.410   5.947 -1.2345  0.7454  0.8799
14320SOL    HW244249   5.409   4.512   6.059  2.0979  0.3840  0.8507
14321SOL     OW44250   8.402   0.578   1.908  0.3150 -0.4426 -0.2130
14321SOL    HW144251   8.435   0.491   1.931  2.8346  0.2650 -0.8327
14321SOL    HW244252   8.471   0.616   1.853 -1.2353  1.5243 -0.9320
14322SOL     OW44253   4.913   5.181   7.797  0.3805  0.2401  0.5466
14322SOL    HW144254   4.833   5.130   7.806  0.2505  0.6355  1.7636
14322SOL    HW244255   4.883   5.270   7.775  0.6023 -0.1428 -1.5086
14323SOL     OW44256   6.641   1.524   8.686 -0.1875 -0.1438  0.2110
14323SOL    HW144257   6.697   1.451   8.712 -1.9309 -1.9736 -0.8486
14323SOL    HW244258   6.695   1.576   8.627  0.8397 -1.0158  0.3442
14324SOL     OW44259   7.259   2.069   8.570  0.5391 -1.0080  0.0356
14324SOL    HW144260   7.355   2.073   8.573  0.6046 -2.0903 -0.0305
14324SOL    HW244261   7.233   2.063   8.662  0.3721  1.4308  0.2216
14325SOL     OW44262   4.332   7.711   2.022 -0.1686  0.3752  0.3309
14325SOL    HW144263   4.425   7.698   2.001 -0.1945  1.2532 -0.4114
14325SOL    HW244264   4.286   7.656   1.958 -0.1708  0.6921  0.0529
14326SOL     OW44265   4.547   2.715   0.647  0.1160  0.2504  0.4156
14326SOL    HW144266   4.463   2.735   0.607  0.2365  0.0871  0.0788
14326SOL    HW244267   4.580   2.640   0.597  1.5131  1.7160 -0.9284
14327SOL     OW44268   5.375   6.096   0.629 -0.1560 -0.4589 -0.5106
14327SOL    HW144269   5.335   6.024   0.581 -1.0533  0.5395 -1.3025
14327SOL    HW244270   5.342   6.086   0.718  1.9139 -2.6166  0.1047
14328SOL     OW44271   2.362   3.380   0.516 -0.0714 -0.2295  0.4775
14328SOL    HW144272   2.314   3.460   0.495  1.6267  0.0762 -2.9447
14328SOL    HW244273   2.299   3.310   0.502 -0.5855  0.3447 -0.1415
14329SOL     OW44274   7.864   4.687   3.912  0.6516  0.3716 -0.1509
14329SOL    HW144275   7.890   4.728   3.830  0.6546  0.7811  0.0560
14329SOL    HW244276   7.833   4.759   3.966  0.5793  0.0907  0.1820
14330SOL     OW44277   1.447   5.978   0.068  0.0258  0.3396  0.1298
14330SOL    HW144278   1.368   5.926   0.082  0.0643  0.5238  1.0730
14330SOL    HW244279   1.423   6.067   0.093  0.9752  0.1123  2.0128
14331SOL     OW44280   2.620   1.820   3.748 -0.0512  0.3447  0.0809
14331SOL    HW144281   2.704   1.821   3.793 -0.7067  0.4739  1.3503
14331SOL    HW244282   2.587   1.731   3.759 -0.8200  0.7280  1.0539
14332SOL     OW44283   2.937   6.878   0.167 -0.1734  0.0499 -0.3440
14332SOL    HW144284   2.981   6.799   0.136  0.2980  0.9509 -2.0937
14332SOL    HW244285   3.001   6.920   0.224 -0.2194 -0.5297  0.1489
14333SOL     OW44286   3.673   7.841   5.873  0.1581  0.2592 -0.0467
14333SOL    HW144287   3.614   7.805   5.807 -0.2495  2.4713 -0.9744
14333SOL    HW244288   3.721   7.910   5.827  0.7340  1.0712  1.6744
14334SOL     OW44289   8.185   1.971   0.981  0.4611 -0.0185  0.4367
14334SOL    HW144290   8.136   1.894   1.009 -0.6787  1.2428  2.1191
14334SOL    HW244291   8.121   2.043   0.984  0.9939  0.7556 -2.8527
14335SOL     OW44292   7.214   2.033   5.118 -0.3427 -0.2983  0.2325
14335SOL    HW144293   7.295   1.983   5.103 -0.9122 -0.9703 -0.7754
14335SOL    HW244294   7.154   2.001   5.050 -1.5707 -0.0629  1.1775
14336SOL     OW44295   2.658   6.086   0.098  0.0127 -0.0235 -0.0153
14336SOL    HW144296   2.599   6.050   0.165  0.2500  0.1871  0.3104
14336SOL    HW244297   2.611   6.074   0.016 -1.3783  1.9808  0.4261
14337SOL     OW44298   7.908   2.627   4.612  0.3214  0.0915 -0.0464
14337SOL    HW144299   7.966   2.692   4.651  0.6173 -1.6042  2.6035
14337SOL    HW244300   7.956   2.594   4.536  0.5075  2.2934 -0.9625
14338SOL     OW44301   1.922   5.373   4.856  0.0761  0.4240 -0.3913
14338SOL    HW144302   1.877   5.328   4.928  0.0619 -0.0428 -0.6849
14338SOL    HW244303   1.893   5.327   4.777  0.5590  0.5454 -0.6461
14339SOL     OW44304   6.998   3.415   3.041  0.2783  0.4237 -0.6431
14339SOL    HW144305   7.025   3.500   3.076  0.3399  1.0205 -2.0808
14339SOL    HW244306   6.999   3.426   2.946 -0.8144 -0.8507 -0.8393
14340SOL     OW44307   2.367   2.330   4.050 -0.1336 -0.5918 -0.1477
14340SOL    HW144308   2.347   2.298   4.138 -0.9006  0.6533  0.1571
14340SOL    HW244309   2.401   2.418   4.063  0.2520 -0.5875 -1.0687
14341SOL     OW44310   3.218   3.339   0.926 -0.0037  0.2742  0.0855
14341SOL    HW144311   3.124   3.341   0.906  0.0708  1.0533 -0.2343
14341SOL    HW244312   3.228   3.265   0.986 -0.8024  0.1083  0.0330
14342SOL     OW44313   5.997   2.611   7.665 -0.0046  0.2185 -0.2812
14342SOL    HW144314   5.961   2.567   7.588  0.3867 -0.2206 -0.2148
14342SOL    HW244315   6.055   2.677   7.628  1.3233 -0.9564 -0.3616
14343SOL     OW44316   0.671   0.087   4.436 -0.3759  0.1582 -0.0634
14343SOL    HW144317   0.716   0.046   4.510  1.0897  1.2831 -0.2915
14343SOL    HW244318   0.666   0.018   4.370 -1.0305 -0.6378  0.7891
14344SOL     OW44319   5.826   3.070   0.720  0.2529  0.2581 -0.4908
14344SOL    HW144320   5.785   3.056   0.635 -1.3440 -2.6004  0.6122
14344SOL    HW244321   5.896   3.004   0.724 -0.1938 -0.1629  0.6829
14345SOL     OW44322   2.803   8.401   2.709 -0.6589  0.0077  0.4301
14345SOL    HW144323   2.721   8.417   2.661 -0.4507  0.0703  0.0973
14345SOL    HW244324   2.860   8.474   2.684 -0.0842 -0.6731 -0.2592
14346SOL     OW44325   0.595   3.124   2.213 -0.5507 -0.6544 -0.0391
14346SOL    HW144326   0.633   3.044   2.176 -0.7352 -1.0268  0.5548
14346SOL    HW244327   0.579   3.180   2.137 -0.1577 -1.0701 -0.4380
14347SOL     OW44328   7.605   6.405   2.717 -0.0861  0.1278  0.1737
14347SOL    HW144329   7.572   6.489   2.685  0.9798  0.5747  0.2290
14347SOL    HW244330   7.697   6.421   2.736 -0.0423 -0.8702  0.8571
14348SOL     OW44331   2.395   5.165   4.462 -0.2085 -0.2429 -0.7269
14348SOL    HW144332   2.442   5.110   4.399  0.1336 -0.7341 -0.0559
14348SOL    HW244333   2.428   5.253   4.446  2.1144 -0.7672  0.7212
14349SOL     OW44334   4.927   0.960   6.345  0.2412 -0.3178  0.3240
14349SOL    HW144335   4.898   0.871   6.366  0.8556 -0.9814 -1.4369
14349SOL    HW244336   4.899   0.974   6.254  2.0737  0.4209 -0.1764
14350SOL     OW44337   3.737   5.332   7.623  0.1936 -0.5955 -0.2319
14350SOL    HW144338   3.751   5.422   7.651 -0.2879 -0.2561 -1.0669
14350SOL    HW244339   3.692   5.290   7.696  1.9597 -0.6481  0.8897
14351SOL     OW44340   0.232   1.830   4.471 -0.7722 -0.4823 -0.4554
14351SOL    HW144341   0.282   1.836   4.552 -2.0360 -0.3725  0.3534
14351SOL    HW244342   0.154   1.780   4.495 -1.3334 -0.1596 -1.5217
14352SOL     OW44343   4.815   7.996   2.956 -0.3333  0.2416  0.0139
14352SOL    HW144344   4.832   7.957   3.041  0.5196  1.5399  0.4735
14352SOL    HW244345   4.747   8.062   2.973 -0.5018  0.1744 -0.3946
14353SOL     OW44346   2.173   6.033   6.058  0.1553  0.1049 -0.1867
14353SOL    HW144347   2.198   6.096   5.991  1.4599 -0.0339  0.1450
14353SOL    HW244348   2.161   6.085   6.137  1.7271 -0.0978  0.2078
14354SOL     OW44349   5.654   1.715   4.905 -0.5677  0.2957 -0.2186
14354SOL    HW144350   5.614   1.631   4.929 -0.5649  0.3193 -0.1323
14354SOL    HW244351   5.691   1.700   4.818  2.1764 -0.7426  1.0228
14355SOL     OW44352   3.505   1.063   4.969  0.0569  0.6380 -0.6494
14355SOL    HW144353   3.495   1.052   4.874 -2.5016  0.3500 -0.4243
14355SOL    HW244354   3.485   0.977   5.005 -0.1376  1.0306  0.1966
14356SOL     OW44355   2.791   5.712   7.483  0.1853  0.2536  0.0401
14356SOL    HW144356   2.819   5.794   7.524 -0.1002  0.9208 -1.0508
14356SOL    HW244357   2.706   5.733   7.444 -0.2007 -0.7518  0.2936
14357SOL     OW44358   1.102   0.897   4.778  0.4818 -0.6204 -0.0967
14357SOL    HW144359   1.008   0.882   4.787 -0.0760  1.7001 -1.1161
14357SOL    HW244360   1.142   0.814   4.801 -1.8916 -2.2254 -1.3551
14358SOL     OW44361   3.156   7.006   5.952  0.5134 -0.1996  0.2692
14358SOL    HW144362   3.089   7.071   5.975 -1.9763 -2.1528 -0.9914
14358SOL    HW244363   3.179   6.966   6.036  2.3044  2.3231  1.1195
14359SOL     OW44364   8.190   4.831   0.054  0.0829  0.1848  0.1139
14359SOL    HW144365   8.184   4.882  -0.026 -0.0376 -0.3363 -0.2120
14359SOL    HW244366   8.283   4.806   0.060 -0.2514 -1.3772 -0.8745
14360SOL     OW44367   1.628   1.619   3.899 -0.5183  0.0332 -0.0401
14360SOL    HW144368   1.644   1.525   3.901  0.1433  0.1505  0.6194
14360SOL    HW244369   1.703   1.656   3.853  0.2626  0.4177  1.4836
14361SOL     OW44370   6.428   4.715   4.258 -0.0054  0.1726  0.1126
14361SOL    HW144371   6.340   4.688   4.284 -1.0900  0.5877 -2.7165
14361SOL    HW244372   6.470   4.635   4.226 -0.2377  0.3562 -0.6834
14362SOL     OW44373   7.648   2.418   4.755 -0.0879 -0.1551  0.1228
14362SOL    HW144374   7.628   2.474   4.680  0.3541  1.6618  1.3117
14362SOL    HW244375   7.627   2.330   4.725  1.5227  0.2938 -2.6638
14363SOL     OW44376   4.828   2.844   5.571  0.0257 -0.0393  0.1777
14363SOL    HW144377   4.835   2.748   5.566  0.7888 -0.2212  3.0026
14363SOL    HW244378   4.735   2.860   5.587  0.1347 -0.4550  1.3055
14364SOL     OW44379   8.001   1.215   6.378  0.1819 -0.2320 -0.2089
14364SOL    HW144380   8.019   1.128   6.342  2.8072 -0.7728  2.1311
14364SOL    HW244381   7.971   1.199   6.467 -1.4255  1.2456 -0.4220
14365SOL     OW44382   4.852   4.058   7.460 -0.0487  0.4263 -0.5025
14365SOL    HW144383   4.890   3.972   7.479 -0.3989  0.5514  0.8515
14365SOL    HW244384   4.847   4.061   7.364  1.2881 -0.4806 -0.6404
14366SOL     OW44385   7.333   8.648   8.016  0.3985  0.2900  0.6096
14366SOL    HW144386   7.257   8.687   7.974  0.4740  2.0140  1.9438
14366SOL    HW244387   7.316   8.554   8.015  0.3338  0.1991 -2.9915
14367SOL     OW44388   1.501   7.639   3.209  0.8877  0.3199  0.0113
14367SOL    HW144389   1.458   7.565   3.253  1.2140 -0.9099 -1.6817
14367SOL    HW244390   1.452   7.716   3.241 -0.2287 -0.7036  0.8929
14368SOL     OW44391   6.501   4.990   1.362 -0.1500 -0.1788 -1.0035
14368SOL    HW144392   6.458   4.923   1.414  0.2240 -0.3586 -0.9262
14368SOL    HW244393   6.429   5.041   1.325 -0.4305  0.6310  0.5566
14369SOL     OW44394   7.661   4.786   2.534 -0.4398 -0.1327 -0.0810
14369SOL    HW144395   7.568   4.762   2.536 -0.0868 -1.5906  0.5013
14369SOL    HW244396   7.701   4.729   2.600  0.6733  1.3812  0.5946
14370SOL     OW44397   8.682   5.170   1.398  0.8230 -0.1164  0.2661
14370SOL    HW144398   8.640   5.252   1.373 -0.4053 -0.9005 -0.3290
14370SOL    HW244399   8.637   5.143   1.478 -1.0693 -1.8279 -1.3050
14371SOL     OW44400   5.942   0.469   1.900  0.0399  0.1152 -0.2714
14371SOL    HW144401   5.984   0.429   1.975 -0.8900 -1.0542 -0.3390
14371SOL    HW244402   5.849   0.449   1.911 -0.4282  1.9363 -0.5302
14372SOL     OW44403   3.226   1.701   5.002 -0.0771  0.3152  0.5868
14372SOL    HW144404   3.241   1.779   5.057 -1.4174  1.5417 -0.6801
14372SOL    HW244405   3.309   1.654   5.003  0.6485  1.5563  1.7258
14373SOL     OW44406   1.125   3.463   8.023  0.1478 -0.1971  0.5490
14373SOL    HW144407   1.090   3.473   7.935 -1.2967  1.7540  1.2510
14373SOL    HW244408   1.061   3.409   8.069 -0.3799  0.8029  1.0171
14374SOL     OW44409   8.594   7.548   2.457 -0.7852 -0.4244 -0.1364
14374SOL    HW144410   8.660   7.551   2.526 -2.1344 -0.4968  1.2047
14374SOL    HW244411   8.530   7.484   2.488 -0.5840 -1.7351 -2.2583
14375SOL     OW44412   6.175   5.855   7.385  0.0842  1.0445  0.3947
14375SOL    HW144413   6.200   5.828   7.296  0.2481  0.4993  0.6024
14375SOL    HW244414   6.081   5.871   7.379 -0.5259 -1.8191  0.7640
14376SOL     OW44415   3.252   4.031   6.866 -0.0888  0.0381 -0.7017
14376SOL    HW144416   3.286   4.021   6.955 -0.6192  1.5182 -0.2969
14376SOL    HW244417   3.294   3.961   6.816  0.6131 -0.5028  0.5967
14377SOL     OW44418   7.035   2.548   1.060  0.0036 -0.3656 -0.6578
14377SOL    HW144419   7.014   2.638   1.084  1.3278  0.3169 -1.8691
14377SOL    HW244420   6.950   2.503   1.056 -0.6366  0.7074  0.3471
14378SOL     OW44421   7.675   4.802   6.295 -0.4429 -0.0479 -0.1675
14378SOL    HW144422   7.767   4.782   6.278 -0.5248 -0.4801 -0.1120
14378SOL    HW244423   7.677   4.884   6.343  0.0303 -0.9781  1.4786
14379SOL     OW44424   4.106   2.157   8.124 -0.3673 -0.5539 -0.5908
14379SOL    HW144425   4.136   2.081   8.175  0.0289 -1.0847 -1.5885
14379SOL    HW244426   4.137   2.233   8.173  0.2241 -1.0596 -0.1677
14380SOL     OW44427   7.086   3.833   3.137 -0.2947 -0.3669  0.2047
14380SOL    HW144428   7.049   3.805   3.054 -0.6171  1.2388 -0.2203
14380SOL    HW244429   7.180   3.840   3.121 -0.3906  0.2283 -0.1278
14381SOL     OW44430   3.440   3.857   2.908 -0.1658 -0.3240 -0.3618
14381SOL    HW144431   3.469   3.879   2.997 -0.8000 -0.3570 -0.1403
14381SOL    HW244432   3.355   3.900   2.899  0.0984  0.0529 -1.1212
14382SOL     OW44433   2.079   0.215   6.896 -0.2069  0.2159  0.4581
14382SOL    HW144434   2.076   0.184   6.987  0.0065  1.0414  0.7519
14382SOL    HW244435   2.000   0.267   6.885  1.0305  2.3128  0.9956
14383SOL     OW44436   5.953   1.475   4.680 -0.3666  0.6104 -0.1438
14383SOL    HW144437   5.976   1.411   4.613 -0.6285  0.0449  0.2916
14383SOL    HW244438   6.005   1.552   4.660  0.8788 -0.1655  0.0425
14384SOL     OW44439   0.882   6.039   2.216 -0.4575  0.2278  0.5641
14384SOL    HW144440   0.882   6.110   2.281  0.6883  1.3161 -0.5673
14384SOL    HW244441   0.798   6.049   2.170 -0.1800  1.0762  0.2152
14385SOL     OW44442   2.504   6.851   6.571  0.0401 -0.0843 -0.8134
14385SOL    HW144443   2.486   6.814   6.658 -1.3357 -0.2672 -1.1410
14385SOL    HW244444   2.579   6.801   6.538  1.8871  1.3121  1.0259
14386SOL     OW44445   6.667   2.960   5.337 -0.1339 -0.2322 -0.6364
14386SOL    HW144446   6.608   3.007   5.396  2.0049 -0.3224  1.7129
14386SOL    HW244447   6.687   3.024   5.268 -1.0224  0.6153 -0.1385
14387SOL     OW44448   2.283   2.444   3.021  0.0672 -0.2060 -0.3062
14387SOL    HW144449   2.275   2.519   3.079  1.2841 -0.3887  0.1298
14387SOL    HW244450   2.305   2.482   2.936  2.0411 -0.0766  0.2016
14388SOL     OW44451   5.826   1.710   0.639  0.0565 -0.6144 -0.2431
14388SOL    HW144452   5.840   1.763   0.717 -1.0447 -0.7207  0.0415
14388SOL    HW244453   5.913   1.705   0.598  0.0449  2.3109 -0.8810
14389SOL     OW44454   5.338   7.102   2.862 -0.1841 -0.0109  0.2053
14389SOL    HW144455   5.380   7.186   2.882 -2.7997  1.3647  0.2873
14389SOL    HW244456   5.305   7.113   2.773  0.9010 -1.6308 -0.4320
14390SOL     OW44457   7.210   3.349   4.861 -0.2041 -0.1068  0.0265
14390SOL    HW144458   7.129   3.331   4.813  0.2139 -1.7700 -0.1025
14390SOL    HW244459   7.249   3.423   4.814 -0.7044 -0.5240 -1.0751
14391SOL     OW44460   7.454   6.647   4.590 -0.3983  0.0397  0.1776
14391SOL    HW144461   7.528   6.703   4.567  0.0821  0.3628  2.3551
14391SOL    HW244462   7.376   6.701   4.573 -0.0329  0.5662  0.1661
14392SOL     OW44463   1.638   8.701   5.042 -0.0506  0.3434  0.5397
14392SOL    HW144464   1.570   8.720   5.106  1.3130  0.5830  1.9828
14392SOL    HW244465   1.701   8.646   5.090  1.2244  0.8972 -0.4508
14393SOL     OW44466   5.104   7.632   6.172  0.5705  0.0240 -0.3475
14393SOL    HW144467   5.015   7.607   6.194  0.3437 -1.3942 -2.5607
14393SOL    HW244468   5.135   7.681   6.248 -1.3265 -1.3002  1.3810
14394SOL     OW44469   1.792   5.984   8.342  0.0800 -0.4133 -0.3286
14394SOL    HW144470   1.728   6.004   8.409 -1.4142 -1.3544 -1.4046
14394SOL    HW244471   1.817   5.892   8.358 -0.2294 -0.6199 -0.9869
14395SOL     OW44472   6.229   6.023   1.444  0.2436 -0.0128  0.1132
14395SOL    HW144473   6.324   6.009   1.445  0.1129 -1.1173  2.0722
14395SOL    HW244474   6.214   6.084   1.517 -0.6354 -0.5374  0.3763
14396SOL     OW44475   8.287   6.647   3.522 -0.7770  0.0576  0.0368
14396SOL    HW144476   8.324   6.659   3.609  0.8197  2.0852 -0.8383
14396SOL    HW244477   8.295   6.733   3.480 -2.1123 -0.6784 -1.8966
14397SOL     OW44478   7.233   6.945   1.523 -0.0701 -0.5001  0.2157
14397SOL    HW144479   7.198   6.967   1.437 -0.1266 -1.3028  0.0182
14397SOL    HW244480   7.304   6.883   1.505  1.1324  0.7119  0.6470
14398SOL     OW44481   1.518   0.331   6.387 -0.0069  0.0734  0.2873
14398SOL    HW144482   1.524   0.395   6.458 -1.0115 -0.3929  0.8169
14398SOL    HW244483   1.537   0.381   6.307  0.7799  0.6809  0.8386
14399SOL     OW44484   4.978   2.886   1.513 -0.0725 -0.3399 -0.1471
14399SOL    HW144485   5.033   2.869   1.589 -0.4017 -1.1259 -0.0814
14399SOL    HW244486   5.040   2.911   1.444  0.3039 -0.5026  0.1293
14400SOL     OW44487   5.874   2.336   6.538 -0.0090 -0.1332  0.3918
14400SOL    HW144488   5.782   2.313   6.521 -0.5841  1.5846  0.9511
14400SOL    HW244489   5.878   2.352   6.632  1.1970 -1.4075  0.5924
14401SOL     OW44490   7.954   1.731   3.528 -0.3913  0.0396  0.0448
14401SOL    HW144491   8.036   1.768   3.561 -1.1695  0.5541  1.4742
14401SOL    HW244492   7.936   1.657   3.585 -1.2426  0.3075  0.1341
14402SOL     OW44493   3.229   2.698   8.529 -0.8507 -0.0402 -0.4261
14402SOL    HW144494   3.163   2.663   8.470 -1.4534  0.5059 -0.0821
14402SOL    HW244495   3.227   2.793   8.514 -0.0804 -0.0218 -0.4752
14403SOL     OW44496   1.968   6.902   5.971  0.3600 -0.6979 -0.2918
14403SOL    HW144497   1.873   6.904   5.973  0.3684 -0.6756  0.8456
14403SOL    HW244498   1.992   6.827   6.026  1.0227  0.8876  1.7159
14404SOL     OW44499   5.091   6.375   1.876 -0.2213  0.1243 -0.1949
14404SOL    HW144500   5.169   6.404   1.830  1.1010 -0.5591  1.4895
14404SOL    HW244501   5.086   6.281   1.859  0.2802 -0.1370  0.9498
14405SOL     OW44502   7.104   3.543   1.906  0.1591  0.1489  0.4396
14405SOL    HW144503   7.111   3.523   1.813  1.2458  1.8068  0.1288
14405SOL    HW244504   7.169   3.611   1.922  0.0140 -0.1010  2.4260
14406SOL     OW44505   2.120   8.183   0.077 -0.1673  0.1151 -0.1878
14406SOL    HW144506   2.065   8.119   0.122 -0.9652  0.7370 -0.2530
14406SOL    HW244507   2.142   8.248   0.144 -0.0355  0.1987 -0.3110
14407SOL     OW44508   3.341   4.194   1.462  0.0793  0.1078  0.0332
14407SOL    HW144509   3.280   4.123   1.484  0.1266 -1.1766 -3.3708
14407SOL    HW244510   3.294   4.246   1.396  2.2918 -0.5420 -2.2153
14408SOL     OW44511   5.373   6.902   0.466  0.1191 -0.4257 -0.2912
14408SOL    HW144512   5.437   6.845   0.508 -0.1360 -0.3688  0.1830
14408SOL    HW244513   5.288   6.867   0.492 -0.0553 -0.9051 -1.4763
14409SOL     OW44514   1.775   7.220   5.594 -0.3392  0.0107 -0.2952
14409SOL    HW144515   1.866   7.251   5.589 -0.1361 -0.5424 -0.1199
14409SOL    HW244516   1.765   7.165   5.516 -0.9417  1.1258 -1.0304
14410SOL     OW44517   1.595   6.241   3.247 -0.0098  0.7079 -0.2924
14410SOL    HW144518   1.683   6.217   3.275 -0.0042  0.6392 -0.3677
14410SOL    HW244519   1.603   6.259   3.153 -0.1118  0.5246 -0.3374
14411SOL     OW44520   2.160   0.018   7.784  0.6741 -0.2747  0.4221
14411SOL    HW144521   2.211  -0.043   7.838  3.9136  1.6993 -0.0952
14411SOL    HW244522   2.200   0.013   7.697 -0.2579  1.1364 -0.1236
14412SOL     OW44523   6.756   2.858   6.135 -0.1974  0.4909  0.4596
14412SOL    HW144524   6.792   2.774   6.164 -0.4496  0.0114 -0.5735
14412SOL    HW244525   6.833   2.913   6.122  0.1801 -0.3853 -1.2791
14413SOL     OW44526   0.394   1.610   7.952  0.2624  0.7866  0.0084
14413SOL    HW144527   0.302   1.588   7.963  0.5122 -0.5372 -0.3765
14413SOL    HW244528   0.395   1.679   7.886 -0.4769  1.1352  0.3528
14414SOL     OW44529   2.963   8.601   2.520 -0.0709  0.1139  0.2442
14414SOL    HW144530   2.908   8.650   2.459 -0.5932 -0.6362  0.0930
14414SOL    HW244531   3.009   8.538   2.465 -1.7547 -1.6707  0.7673
14415SOL     OW44532   3.219   8.634   6.854 -0.2281 -0.0600 -0.3732
14415SOL    HW144533   3.238   8.658   6.944 -0.6889  0.8911 -0.5101
14415SOL    HW244534   3.223   8.539   6.852 -1.8725 -0.1969  1.0450
14416SOL     OW44535   0.138   1.061   3.722 -0.2010 -0.3444  0.4420
14416SOL    HW144536   0.070   0.995   3.734 -1.5531  1.2484  2.1066
14416SOL    HW244537   0.146   1.102   3.808  2.4013 -0.0014  0.1111
14417SOL     OW44538   2.353   5.394   2.113 -0.3144  0.4088 -0.0546
14417SOL    HW144539   2.438   5.420   2.078 -0.4961  0.6361 -0.3324
14417SOL    HW244540   2.373   5.324   2.174 -0.0016 -0.0987 -0.7212
14418SOL     OW44541   3.285   1.765   6.928  0.0182 -0.4303  0.2055
14418SOL    HW144542   3.197   1.773   6.892  0.0977 -0.1563  0.0695
14418SOL    HW244543   3.306   1.672   6.921  0.0908 -0.3591 -0.5952
14419SOL     OW44544   8.078   0.254   2.959  0.5030  0.6636  0.5548
14419SOL    HW144545   8.103   0.289   3.044  2.1274  0.9108  0.0098
14419SOL    HW244546   8.080   0.329   2.900  1.1967  0.1865 -0.0497
14420SOL     OW44547   6.821   1.551   5.986 -0.1782  1.0903 -0.2481
14420SOL    HW144548   6.791   1.642   5.985  0.1098  1.1918 -1.4381
14420SOL    HW244549   6.754   1.503   5.938 -1.3962  0.2742  2.1473
14421SOL     OW44550   7.823   0.699   1.682  0.7745 -0.1092 -0.6656
14421SOL    HW144551   7.864   0.612   1.684  2.3169  0.5877  0.7962
14421SOL    HW244552   7.806   0.716   1.590  0.9942 -1.7005 -1.0350
14422SOL     OW44553   1.423   6.862   1.700 -0.5086 -0.0535  0.2590
14422SOL    HW144554   1.425   6.920   1.775  1.0584  0.9171 -0.4769
14422SOL    HW244555   1.382   6.913   1.630  3.3854  1.4157 -1.2303
14423SOL     OW44556   8.109   6.329   3.598  0.2401 -0.2435  0.0304
14423SOL    HW144557   8.172   6.327   3.670  0.3725  1.6976  0.0234
14423SOL    HW244558   8.161   6.355   3.522 -0.6500  2.5939  0.2504
14424SOL     OW44559   6.686   1.198   2.128 -0.4505  0.8253 -0.0390
14424SOL    HW144560   6.600   1.192   2.170 -1.1441  1.5832 -1.3066
14424SOL    HW244561   6.715   1.107   2.121 -0.9679  0.5889  0.7439
14425SOL     OW44562   1.675   2.323   7.341 -0.0227  0.2437 -0.6093
14425SOL    HW144563   1.761   2.281   7.331 -0.3580 -0.5861 -0.1343
14425SOL    HW244564   1.686   2.382   7.416 -0.4937 -1.6911  1.0973
14426SOL     OW44565   5.400   8.419   8.419 -0.3829 -0.2125  0.1000
14426SOL    HW144566   5.415   8.325   8.430  1.0905  0.0348  0.4675
14426SOL    HW244567   5.349   8.426   8.339 -0.8243 -1.3461  0.2579
14427SOL     OW44568   1.266   0.197   6.399 -0.0914 -0.2094  0.3802
14427SOL    HW144569   1.326   0.260   6.359 -0.9022 -0.7449 -1.8222
14427SOL    HW244570   1.189   0.249   6.421  0.0053 -0.0686  0.3875
14428SOL     OW44571   0.343   1.613   0.733  0.3646  0.1164 -0.5543
14428SOL    HW144572   0.283   1.600   0.807 -1.0829  1.8394 -1.3686
14428SOL    HW244573   0.397   1.687   0.758  2.0831 -1.2721  0.0655
14429SOL     OW44574   6.457   5.169   2.153 -0.3476 -0.0438 -0.3418
14429SOL    HW144575   6.462   5.083   2.112 -1.9488  0.2976 -1.3428
14429SOL    HW244576   6.382   5.212   2.112 -0.0075  1.5898  0.6087
14430SOL     OW44577   0.418   3.982   8.252  0.3754 -0.6025 -0.2593
14430SOL    HW144578   0.412   3.905   8.196  0.9496 -1.5464  0.9192
14430SOL    HW244579   0.503   3.974   8.295  1.1642  1.5188 -1.2382
14431SOL     OW44580   7.407   4.696   2.503 -0.5317  0.5097  0.0934
14431SOL    HW144581   7.381   4.769   2.446  0.1567 -0.8195 -2.0494
14431SOL    HW244582   7.393   4.618   2.449  0.7991 -0.7859  1.5394
14432SOL     OW44583   2.353   2.127   7.814 -0.6085  0.0702  0.2936
14432SOL    HW144584   2.333   2.193   7.748 -1.4328  0.3125  0.7724
14432SOL    HW244585   2.438   2.154   7.849 -0.9407  0.9033  0.4982
14433SOL     OW44586   6.143   0.084   0.446 -0.5373 -0.6126  0.8624
14433SOL    HW144587   6.057   0.124   0.441 -0.2056 -0.0404 -1.9427
14433SOL    HW244588   6.202   0.156   0.470 -0.4892 -0.2708 -0.1979
14434SOL     OW44589   8.414   0.193   3.767  0.7898 -0.2250  0.6118
14434SOL    HW144590   8.328   0.202   3.724  1.6407  0.6944 -0.9888
14434SOL    HW244591   8.422   0.099   3.784 -0.2311 -0.4151  0.1543
14435SOL     OW44592   8.491   6.309   5.354 -0.0859  0.1646 -0.2273
14435SOL    HW144593   8.493   6.215   5.335 -1.5381  0.0021  0.3101
14435SOL    HW244594   8.435   6.317   5.431  0.0527  1.4713 -0.2391
14436SOL     OW44595   4.439   6.119   4.303 -0.1963  1.3672  0.4266
14436SOL    HW144596   4.504   6.055   4.331 -1.4281 -0.0844  0.1047
14436SOL    HW244597   4.485   6.176   4.242  0.4497 -0.4324 -0.8169
14437SOL     OW44598   5.746   1.343   5.139 -0.4596 -0.3860  0.8175
14437SOL    HW144599   5.788   1.396   5.071 -1.0950 -0.3727  0.4300
14437SOL    HW244600   5.729   1.405   5.210  0.6410 -0.4952  1.2095
14438SOL     OW44601   2.847   6.122   1.571  0.6054  0.3105  0.6878
14438SOL    HW144602   2.940   6.125   1.592  1.5661 -2.0037 -2.4391
14438SOL    HW244603   2.824   6.213   1.551  2.6584  0.7417  0.0205
14439SOL     OW44604   2.869   2.633   1.939 -0.3507 -0.3882  0.2393
14439SOL    HW144605   2.835   2.556   1.894 -1.6250  0.3316 -0.0705
14439SOL    HW244606   2.824   2.707   1.898  0.9199  0.5392  0.4673
14440SOL     OW44607   8.424   6.749   6.867 -0.0217  0.1963  0.1237
14440SOL    HW144608   8.433   6.750   6.771 -1.6881 -1.6211 -0.1086
14440SOL    HW244609   8.499   6.698   6.897  0.4972  0.7546 -0.1959
14441SOL     OW44610   6.728   2.280   0.715 -0.0834  0.0356  0.1768
14441SOL    HW144611   6.714   2.210   0.653 -0.4164 -1.3658  1.7656
14441SOL    HW244612   6.694   2.247   0.798  0.4134  1.7897  1.1502
14442SOL     OW44613   5.948   6.533   4.937  0.1063 -0.1508  0.1262
14442SOL    HW144614   5.996   6.478   5.000 -1.3515 -2.5563 -0.7221
14442SOL    HW244615   5.999   6.526   4.856 -0.2248 -0.5000 -0.0550
14443SOL     OW44616   5.748   2.112   3.299 -0.2401  0.6122  0.1865
14443SOL    HW144617   5.662   2.154   3.291  0.4540  2.3421  1.2175
14443SOL    HW244618   5.733   2.036   3.355 -1.5158 -0.5936 -1.6489
14444SOL     OW44619   8.319   5.057   2.322  0.2059  0.4246  0.2153
14444SOL    HW144620   8.326   5.005   2.242  0.7530  1.8414 -0.6889
14444SOL    HW244621   8.227   5.085   2.324 -0.2451 -1.0140  1.0234
14445SOL     OW44622   3.325   5.952   7.877  0.9600  0.2077 -0.6356
14445SOL    HW144623   3.366   5.961   7.791 -0.2490  0.7664 -1.1778
14445SOL    HW244624   3.232   5.937   7.859  0.7520 -0.1112  0.5635
14446SOL     OW44625   4.723   0.178   8.640 -0.7913 -0.3829  0.1134
14446SOL    HW144626   4.714   0.102   8.698  0.0762  0.2182  1.0716
14446SOL    HW244627   4.789   0.233   8.683 -1.2750  0.8311 -0.6502
14447SOL     OW44628   3.805   5.864   6.824  0.2667 -0.2092  0.1230
14447SOL    HW144629   3.753   5.940   6.849  1.0603  1.0317 -1.7157
14447SOL    HW244630   3.742   5.792   6.819 -0.7978  0.6720  0.4112
14448SOL     OW44631   5.277   2.317   4.471  0.0110 -0.8065 -0.0212
14448SOL    HW144632   5.265   2.248   4.406  1.0514  0.0340 -1.1819
14448SOL    HW244633   5.357   2.361   4.443 -0.5577  0.7841  0.7395
14449SOL     OW44634   4.045   6.611   1.573  0.1194 -0.3495 -0.6817
14449SOL    HW144635   4.045   6.705   1.594  0.3284 -0.6327  0.6863
14449SOL    HW244636   4.020   6.607   1.481 -1.0807  0.9976 -0.4573
14450SOL     OW44637   1.250   2.247   1.184  0.1068 -0.1572  0.1805
14450SOL    HW144638   1.282   2.279   1.100 -0.5588  2.4521  0.8288
14450SOL    HW244639   1.317   2.186   1.213  1.1122  0.0641 -1.5424
14451SOL     OW44640   5.731   0.568   0.697  0.2407 -1.6062  0.1593
14451SOL    HW144641   5.811   0.616   0.720 -0.5175  0.3098 -0.8913
14451SOL    HW244642   5.702   0.528   0.778  1.2800 -0.7833  0.9620
14452SOL     OW44643   5.407   5.433   5.651  0.3218 -0.3029  0.1559
14452SOL    HW144644   5.425   5.473   5.566  1.1395  1.4893  1.1031
14452SOL    HW244645   5.335   5.372   5.635  1.9286 -1.7158 -2.2338
14453SOL     OW44646   2.486   5.285   5.559  0.1583 -0.4064  0.0285
14453SOL    HW144647   2.446   5.220   5.617 -1.8864  0.7984  0.0345
14453SOL    HW244648   2.446   5.368   5.585  0.2791  0.3760 -2.1527
14454SOL     OW44649   0.813   3.857   3.893 -0.2555 -0.3245 -0.0976
14454SOL    HW144650   0.787   3.879   3.804 -0.0224  1.4552  0.2329
14454SOL    HW244651   0.871   3.782   3.883  0.4135  0.3409 -1.5375
14455SOL     OW44652   7.000   1.114   3.128 -0.1128 -0.6360 -0.0475
14455SOL    HW144653   7.078   1.152   3.085 -1.3028 -0.6440 -2.3803
14455SOL    HW244654   6.980   1.176   3.199  1.2967  0.0163 -0.1751
14456SOL     OW44655   0.163   7.701   6.894 -0.5599 -0.2515 -0.2904
14456SOL    HW144656   0.080   7.697   6.848 -1.4112  0.4201  1.1257
14456SOL    HW244657   0.139   7.705   6.987  1.0417  0.1055  0.1391
14457SOL     OW44658   6.919   7.299   1.543  0.1471 -0.4321  0.3260
14457SOL    HW144659   6.976   7.348   1.602 -1.1534  0.3875  0.9450
14457SOL    HW244660   6.930   7.208   1.569  1.9520 -0.4227 -0.2727
14458SOL     OW44661   7.359   6.470   4.984 -0.3137 -0.0246 -0.3402
14458SOL    HW144662   7.279   6.499   4.941 -0.4150  0.4585  0.1673
14458SOL    HW244663   7.392   6.548   5.029 -0.9150 -0.8283  1.5612
14459SOL     OW44664   8.480   0.447   0.789 -0.0052  0.2422 -0.2111
14459SOL    HW144665   8.510   0.356   0.789  1.0228  0.5713 -0.3275
14459SOL    HW244666   8.387   0.442   0.766 -0.1706 -0.8434  0.6312
14460SOL     OW44667   4.820   2.552   2.296 -0.3017  1.3426  0.0605
14460SOL    HW144668   4.875   2.609   2.243  2.6247 -1.3104 -0.0180
14460SOL    HW244669   4.737   2.547   2.247  0.4146  3.0884 -1.4442
14461SOL     OW44670   4.252   3.018   0.481  0.0488  0.0842  0.2455
14461SOL    HW144671   4.169   3.048   0.443 -1.3207 -0.3111  2.7460
14461SOL    HW244672   4.247   2.923   0.476  0.3940  0.0626  0.3571
14462SOL     OW44673   2.233   6.928   6.553  0.3191 -0.2044  0.0409
14462SOL    HW144674   2.325   6.903   6.540  0.6336  0.8476  0.1373
14462SOL    HW244675   2.183   6.850   6.528  1.0930  0.0934 -2.8478
14463SOL     OW44676   7.486   8.037   2.282 -0.2108  0.1385 -0.4008
14463SOL    HW144677   7.498   8.105   2.216 -2.7005  0.9672 -0.1025
14463SOL    HW244678   7.571   8.032   2.327  1.6687 -0.6240 -3.6873
14464SOL     OW44679   7.110   2.181   1.615 -0.2145 -0.5813  1.1194
14464SOL    HW144680   7.163   2.200   1.692  0.3062  0.5647  0.5048
14464SOL    HW244681   7.022   2.168   1.650 -0.1054  0.5254  1.8544
14465SOL     OW44682   0.835   3.861   1.513  0.0275 -0.8060  0.2999
14465SOL    HW144683   0.865   3.952   1.516 -0.9186 -0.4362 -0.6622
14465SOL    HW244684   0.870   3.821   1.592  0.9306  0.2462  0.4559
14466SOL     OW44685   8.051   5.585   0.752  0.4338 -0.5626  0.8207
14466SOL    HW144686   8.067   5.665   0.801  0.6815  0.0822 -0.2853
14466SOL    HW244687   7.957   5.571   0.759 -0.5064  2.4323 -2.7508
14467SOL     OW44688   3.229   4.664   8.711  0.0804 -0.0598 -0.1801
14467SOL    HW144689   3.278   4.620   8.641 -0.0094 -1.2441  0.4667
14467SOL    HW244690   3.277   4.642   8.791 -0.3887  0.4293  0.2420
14468SOL     OW44691   2.366   0.230   6.825  0.3686  0.1755  0.2352
14468SOL    HW144692   2.271   0.229   6.816  0.4344  1.4042 -0.9386
14468SOL    HW244693   2.390   0.322   6.815  1.7635 -0.2586 -0.7252
14469SOL     OW44694   1.497   6.986   1.295 -0.1055 -0.2924  0.4243
14469SOL    HW144695   1.431   7.050   1.321 -0.6857 -0.2557 -1.0054
14469SOL    HW244696   1.485   6.912   1.354 -0.0945  0.5100  1.4482
14470SOL     OW44697   0.897   7.185   6.413 -0.2057  0.1797 -0.2156
14470SOL    HW144698   0.982   7.201   6.371  0.8757 -0.3236  1.6650
14470SOL    HW244699   0.902   7.096   6.445 -0.8162  0.6696  1.3112
14471SOL     OW44700   1.860   8.439   7.166 -0.7644  0.5926 -0.3238
14471SOL    HW144701   1.877   8.423   7.073 -1.1975 -0.3141 -0.2512
14471SOL    HW244702   1.795   8.373   7.191 -3.0082  2.7344 -0.1178
14472SOL     OW44703   6.478   0.963   4.930 -0.4714  0.5060  0.3619
14472SOL    HW144704   6.473   1.011   4.847  0.3942  0.7720  0.4489
14472SOL    HW244705   6.508   1.028   4.993 -0.9521  0.2578  0.8448
14473SOL     OW44706   7.216   3.726   4.567  0.3058  0.3856 -0.2166
14473SOL    HW144707   7.226   3.819   4.551 -1.1907  0.3346 -1.6906
14473SOL    HW244708   7.165   3.721   4.648 -1.5921  0.9535 -1.3068
14474SOL     OW44709   3.421   8.530   4.992 -0.2886  0.0058  0.0743
14474SOL    HW144710   3.384   8.493   5.071  1.6931 -0.0251  1.0451
14474SOL    HW244711   3.505   8.566   5.019  0.1120  0.6736 -1.8674
14475SOL     OW44712   5.532   2.871   6.087  0.3757 -0.1330 -0.1995
14475SOL    HW144713   5.565   2.908   6.169 -1.4597 -0.6144  0.8098
14475SOL    HW244714   5.478   2.940   6.049  0.0293 -0.4344 -0.2573
14476SOL     OW44715   3.991   1.428   3.035  0.5744 -0.0139  0.2625
14476SOL    HW144716   3.929   1.381   2.979  1.5472 -0.8047 -0.1778
14476SOL    HW244717   4.045   1.360   3.074  0.5871  0.6019  1.3604
14477SOL     OW44718   3.153   7.156   6.779 -0.6839 -0.1008  0.3064
14477SOL    HW144719   3.142   7.216   6.853 -1.0006 -0.0395  0.2131
14477SOL    HW244720   3.205   7.084   6.813  0.5120  0.6802  0.1744
14478SOL     OW44721   5.421   4.017   8.302  0.2249 -0.1516 -0.3593
14478SOL    HW144722   5.402   3.930   8.265 -0.8628  0.2133 -0.6937
14478SOL    HW244723   5.477   4.059   8.237  1.1937 -0.7774  0.0424
14479SOL     OW44724   0.936   7.390   6.095 -0.0911 -0.3155  0.1052
14479SOL    HW144725   0.971   7.478   6.082  1.2820 -1.0576 -1.6441
14479SOL    HW244726   0.947   7.347   6.010 -0.9251 -2.1131  0.8563
14480SOL     OW44727   7.587   0.346   6.461  0.0420  0.3219 -0.4341
14480SOL    HW144728   7.654   0.363   6.395  0.4300  2.0892  0.3466
14480SOL    HW244729   7.634   0.345   6.544 -0.8597  1.4665  0.1169
14481SOL     OW44730   6.696   0.053   6.465  0.2995 -0.2265  0.1628
14481SOL    HW144731   6.757   0.105   6.412 -0.6000 -0.1874 -0.8649
14481SOL    HW244732   6.747  -0.024   6.491  0.6454 -0.4709 -1.1438
14482SOL     OW44733   3.555   3.154   1.264  0.1492 -0.3878 -0.3619
14482SOL    HW144734   3.497   3.227   1.289  1.2746  0.3307  0.2697
14482SOL    HW244735   3.571   3.167   1.171 -2.1678 -1.6910 -1.0228
14483SOL     OW44736   7.490   7.135   3.141 -0.3026  0.0295 -0.5063
14483SOL    HW144737   7.453   7.148   3.054  0.4094 -0.4197 -0.8790
14483SOL    HW244738   7.503   7.224   3.175 -1.7387  0.2014 -0.3440
14484SOL     OW44739   8.106   6.252   8.235  0.1719  0.3841 -0.3630
14484SOL    HW144740   8.181   6.303   8.265  0.8914 -0.6803 -0.3060
14484SOL    HW244741   8.087   6.284   8.147 -0.8596  2.3392  0.5077
14485SOL     OW44742   3.224   2.274   8.575  0.3240 -0.7013 -0.3075
14485SOL    HW144743   3.303   2.219   8.567  0.5860 -0.4455  0.4477
14485SOL    HW244744   3.169   2.227   8.638  0.5605 -0.0887  0.3632
14486SOL     OW44745   2.088   7.903   0.792  0.1845 -0.2755  0.4368
14486SOL    HW144746   2.176   7.894   0.756  1.0759  1.2027  2.0679
14486SOL    HW244747   2.100   7.958   0.870 -2.4034  1.4320 -0.2472
14487SOL     OW44748   4.534   6.382   0.898 -0.1280 -0.1592  0.7857
14487SOL    HW144749   4.515   6.347   0.985  1.1404 -0.9680  0.7599
14487SOL    HW244750   4.603   6.325   0.864  0.1468  0.8066 -0.3193
14488SOL     OW44751   1.214   8.309   3.194 -0.2752  0.2253  0.1754
14488SOL    HW144752   1.196   8.336   3.105 -0.8028 -0.4234  0.0784
14488SOL    HW244753   1.307   8.329   3.207 -0.4802  1.4211 -0.1069
14489SOL     OW44754   5.260   7.866   4.532 -0.4455 -0.1909  0.2601
14489SOL    HW144755   5.310   7.903   4.459  1.1540 -1.1079  0.8348
14489SOL    HW244756   5.231   7.942   4.582  1.0554  0.3628  0.3225
14490SOL     OW44757   1.422   5.394   7.359 -0.2124  0.2250  0.7248
14490SOL    HW144758   1.431   5.389   7.264 -1.7436  2.4328  0.3882
14490SOL    HW244759   1.511   5.380   7.392  0.5562  0.4650 -1.0968
14491SOL     OW44760   1.446   7.738   4.084  0.0017 -0.3693 -0.0682
14491SOL    HW144761   1.488   7.740   3.998  2.1455 -0.7170  0.9157
14491SOL    HW244762   1.418   7.828   4.099  0.6890 -0.0558 -0.6262
14492SOL     OW44763   7.690   5.991   0.338 -0.3597  0.1528 -0.1693
14492SOL    HW144764   7.650   5.988   0.424  0.2005 -0.7137  0.0741
14492SOL    HW244765   7.702   5.900   0.314  1.2575  0.3804 -0.3213
14493SOL     OW44766   1.288   1.681   3.785  0.1068 -0.6364  0.3208
14493SOL    HW144767   1.356   1.746   3.769 -1.9611  1.7582  0.6729
14493SOL    HW244768   1.314   1.606   3.731  0.5409  1.9707 -3.5617
14494SOL     OW44769   2.349   0.310   4.996 -0.2083  0.0367  0.1707
14494SOL    HW144770   2.265   0.282   5.032 -0.4216 -0.7227 -0.8717
14494SOL    HW244771   2.363   0.397   5.034 -1.0532 -0.1714  1.0096
14495SOL     OW44772   3.027   6.826   5.762  0.1363 -0.2480  0.1549
14495SOL    HW144773   3.093   6.875   5.811 -1.9028 -0.0893  3.0000
14495SOL    HW244774   2.959   6.891   5.742 -0.5181 -0.9913 -0.0652
14496SOL     OW44775   8.131   2.601   5.351 -0.2135  0.0771 -0.0970
14496SOL    HW144776   8.194   2.663   5.388 -1.9332  2.0527 -0.2627
14496SOL    HW244777   8.125   2.531   5.416 -0.3922  1.5928  1.6050
14497SOL     OW44778   6.275   0.250   1.717 -0.3172  0.1517 -0.4345
14497SOL    HW144779   6.318   0.245   1.802 -0.5955 -0.1336 -0.3080
14497SOL    HW244780   6.199   0.192   1.725  0.3019 -0.7979 -1.2616
14498SOL     OW44781   5.983   4.898   8.566  0.1613  0.7079 -0.2052
14498SOL    HW144782   5.979   4.876   8.473  1.4291 -0.7771  0.0520
14498SOL    HW244783   5.896   4.877   8.599 -0.1533  0.7910 -0.9647
14499SOL     OW44784   1.141   0.442   2.910 -0.2611 -0.1284  0.1860
14499SOL    HW144785   1.094   0.459   2.828 -0.0721 -1.8219 -0.3019
14499SOL    HW244786   1.150   0.529   2.950 -2.8623  0.4289 -0.2032
14500SOL     OW44787   7.917   3.377   1.054  0.2210 -0.2030  0.1456
14500SOL    HW144788   7.849   3.312   1.034 -0.2263 -0.3079  1.8839
14500SOL    HW244789   7.868   3.455   1.080  0.7660  0.0547  0.4015
14501SOL     OW44790   3.195   0.489   4.073  0.2727  0.0757 -0.1685
14501SOL    HW144791   3.290   0.501   4.065  0.0385  1.6886 -0.7975
14501SOL    HW244792   3.162   0.575   4.100 -1.0328 -0.4312 -0.0816
14502SOL     OW44793   8.664   4.801   6.367  0.2131  0.1639 -0.0034
14502SOL    HW144794   8.666   4.744   6.444 -1.3688 -0.6241 -0.5003
14502SOL    HW244795   8.594   4.863   6.386  0.0914  0.2195 -0.6409
14503SOL     OW44796   4.066   6.801   1.200  1.2552  0.3160  0.1366
14503SOL    HW144797   4.015   6.722   1.218  2.1693 -0.1686  0.6587
14503SOL    HW244798   4.042   6.861   1.270  1.1195  0.2285  0.1669
14504SOL     OW44799   2.059   3.368   4.535 -0.7222 -0.0006  0.1305
14504SOL    HW144800   2.114   3.424   4.591 -1.0763  0.7707 -0.2684
14504SOL    HW244801   1.984   3.345   4.589 -0.9264  0.5128  0.0727
14505SOL     OW44802   2.318   8.531   5.031  0.1755 -0.0426 -0.1991
14505SOL    HW144803   2.257   8.577   4.973 -0.3481 -0.4306  0.0340
14505SOL    HW244804   2.264   8.466   5.076  0.5064  0.4835  0.9874
14506SOL     OW44805   5.550   1.075   5.900 -0.5659  0.4347  0.6970
14506SOL    HW144806   5.467   1.055   5.942 -1.8193  1.9819 -0.8861
14506SOL    HW244807   5.573   0.995   5.853 -0.7778 -0.2345  1.7167
14507SOL     OW44808   0.109   3.086   1.335  0.3298 -0.6798  0.1419
14507SOL    HW144809   0.197   3.093   1.373  0.2641  0.5411  0.1102
14507SOL    HW244810   0.069   3.013   1.382  0.7033 -0.0273  1.5184
14508SOL     OW44811   1.966   2.895   5.789  0.6060  0.2546  0.5281
14508SOL    HW144812   1.944   2.946   5.867  0.7222  1.5447 -0.2512
14508SOL    HW244813   1.977   2.806   5.821 -1.2594  0.3944  1.6606
14509SOL     OW44814   5.309   6.237   6.420  0.3782 -0.1596  0.1288
14509SOL    HW144815   5.326   6.193   6.337 -1.7162 -0.7686 -0.0433
14509SOL    HW244816   5.224   6.279   6.408 -0.4430 -1.0479  2.2225
14510SOL     OW44817   1.088   4.408   6.099  0.4684 -0.3906 -0.3666
14510SOL    HW144818   1.139   4.438   6.023 -1.6554  2.9072 -0.7200
14510SOL    HW244819   1.035   4.336   6.065  2.5112 -1.7279 -0.8324
14511SOL     OW44820   2.707   3.308   8.543  0.2754  0.2484  0.3088
14511SOL    HW144821   2.743   3.393   8.570  0.4387 -0.2828  1.8102
14511SOL    HW244822   2.612   3.321   8.546  0.2728  0.9017 -1.2694
14512SOL     OW44823   7.496   3.020   2.965 -0.4955  0.2399  0.1793
14512SOL    HW144824   7.419   3.043   3.017 -0.1208  0.9587  0.4347
14512SOL    HW244825   7.537   3.104   2.945  1.2681 -0.2095  1.6475
14513SOL     OW44826   3.868   6.410   7.234  0.3299  0.1456  0.1330
14513SOL    HW144827   3.799   6.472   7.211  1.4875  1.2678 -0.4033
14513SOL    HW244828   3.937   6.463   7.273  1.1207 -0.8704  0.1743
14514SOL     OW44829   0.561   0.427   6.482 -0.1909  0.0587  0.0854
14514SOL    HW144830   0.609   0.494   6.434  1.0803 -0.7950  0.1303
14514SOL    HW244831   0.558   0.352   6.423 -1.8079  0.1936 -0.0563
14515SOL     OW44832   1.725   7.855   1.050 -0.0489 -0.4947  0.2826
14515SOL    HW144833   1.672   7.869   1.128 -0.8188 -0.2228 -0.2760
14515SOL    HW244834   1.675   7.792   0.998 -0.4605  0.6933 -0.8244
14516SOL     OW44835   1.943   0.274   4.615 -0.0616 -0.2930 -0.5834
14516SOL    HW144836   1.867   0.247   4.564 -1.1810 -0.5045  1.0978
14516SOL    HW244837   1.956   0.203   4.678  0.7770  0.3063 -0.0478
14517SOL     OW44838   7.721   7.983   5.746  0.1632 -0.4130  0.0519
14517SOL    HW144839   7.651   8.016   5.802 -0.7405 -0.9684 -0.7168
14517SOL    HW244840   7.710   8.031   5.664 -0.9621 -2.3031 -0.9670
14518SOL     OW44841   3.581   7.967   2.526 -0.1637 -0.3800  0.0017
14518SOL    HW144842   3.566   7.990   2.435  0.4442 -0.0726 -0.0285
14518SOL    HW244843   3.617   8.046   2.565  0.0538 -0.6643  0.3858
14519SOL     OW44844   3.757   6.640   4.346 -0.1125 -0.6819 -0.2636
14519SOL    HW144845   3.796   6.579   4.409  0.1472 -2.0009 -1.6349
14519SOL    HW244846   3.700   6.585   4.292 -0.2806  0.3980 -1.2212
14520SOL     OW44847   6.649   5.993   4.367  0.3424  0.2023 -0.1818
14520SOL    HW144848   6.570   5.940   4.378  0.9667 -0.9619 -1.0620
14520SOL    HW244849   6.696   5.985   4.450  1.1877 -1.9717 -0.8012
14521SOL     OW44850   0.770   5.115   1.145  0.5620  0.2297 -0.4435
14521SOL    HW144851   0.789   5.157   1.229 -1.3594  0.2478  0.0232
14521SOL    HW244852   0.821   5.033   1.147  0.4910  0.1942  0.7763
14522SOL     OW44853   5.474   5.299   0.617  0.2889  0.1869  0.1459
14522SOL    HW144854   5.395   5.272   0.570  0.1594 -0.9438  0.9529
14522SOL    HW244855   5.536   5.322   0.549 -0.2320 -0.4241 -0.5582
14523SOL     OW44856   4.940   4.147   1.214 -0.1215 -0.2183 -0.2147
14523SOL    HW144857   4.940   4.165   1.308 -0.2737  0.6868 -0.3797
14523SOL    HW244858   4.959   4.232   1.173 -0.5916 -0.4891 -1.0143
14524SOL     OW44859   6.684   3.879   4.528 -0.7374  0.0182  0.0259
14524SOL    HW144860   6.708   3.901   4.438 -1.2603 -0.5772 -0.2663
14524SOL    HW244861   6.761   3.831   4.562 -0.5082  0.3128 -0.0755
14525SOL     OW44862   8.362   3.006   0.112 -0.0840 -0.3591  0.3088
14525SOL    HW144863   8.277   2.966   0.092 -1.1332  1.8990 -0.0653
14525SOL    HW244864   8.359   3.092   0.069  1.3849  0.7985  2.3426
14526SOL     OW44865   7.543   0.670   7.068  0.1317  0.2417 -0.1423
14526SOL    HW144866   7.615   0.707   7.017  0.8554  1.3632  1.6077
14526SOL    HW244867   7.467   0.676   7.010  1.0633  0.7882 -1.3456
14527SOL     OW44868   0.262   0.824   3.233  0.7781  0.0130  0.5338
14527SOL    HW144869   0.306   0.756   3.183  1.4848  0.3910  0.6284
14527SOL    HW244870   0.271   0.797   3.325  0.6545 -0.0021  0.5417
14528SOL     OW44871   5.958   6.715   3.774  0.3686  0.1670  0.3409
14528SOL    HW144872   5.981   6.662   3.850 -1.0098 -1.6458 -0.4227
14528SOL    HW244873   5.995   6.667   3.700 -0.9649  0.2103 -0.3804
14529SOL     OW44874   4.599   8.124   5.493  0.0695 -0.0035  0.2776
14529SOL    HW144875   4.567   8.124   5.583 -0.5634 -2.2148  0.1154
14529SOL    HW244876   4.521   8.138   5.440  0.1844 -0.3046  0.0289
14530SOL     OW44877   2.537   3.003   5.741  0.7848  0.3286  0.1734
14530SOL    HW144878   2.472   3.029   5.807  0.9567 -0.0496  0.4985
14530SOL    HW244879   2.618   3.046   5.769  1.5272 -1.8529  1.7243
14531SOL     OW44880   8.156   3.455   6.691 -0.4348  0.3005  0.4464
14531SOL    HW144881   8.164   3.515   6.765 -0.1080  0.1046  0.5704
14531SOL    HW244882   8.173   3.510   6.614  0.6948  0.2088  0.6083
14532SOL     OW44883   5.339   8.009   5.349  0.1984  0.2797  0.5963
14532SOL    HW144884   5.283   8.040   5.420 -0.9444  1.2410 -0.6677
14532SOL    HW244885   5.304   7.923   5.327 -1.0792  1.0270 -0.4316
14533SOL     OW44886   7.307   1.136   7.000 -0.2067  0.5728 -0.1852
14533SOL    HW144887   7.400   1.148   7.016  0.2148 -0.3626 -1.6712
14533SOL    HW244888   7.294   1.168   6.910 -1.2796  0.5001 -0.0747
14534SOL     OW44889   0.687   1.205   7.158  0.6467  0.2645 -0.4919
14534SOL    HW144890   0.782   1.208   7.174  0.3221  1.2747  1.6203
14534SOL    HW244891   0.649   1.208   7.245 -1.3445 -2.6131 -1.1302
14535SOL     OW44892   6.822   2.550   6.426  0.2093  0.1840 -0.6820
14535SOL    HW144893   6.858   2.558   6.338 -2.5471  1.2281 -1.8096
14535SOL    HW244894   6.730   2.527   6.414 -0.2791  0.4008  1.9230
14536SOL     OW44895   4.711   4.304   4.600  0.4105 -0.0780 -0.4054
14536SOL    HW144896   4.759   4.292   4.682 -0.8016  0.2184  0.3702
14536SOL    HW244897   4.779   4.312   4.534  1.4001 -1.3181  0.4156
14537SOL     OW44898   1.727   0.609   0.256 -0.1915 -0.6125 -0.0277
14537SOL    HW144899   1.694   0.656   0.333  0.4427 -0.0715 -0.0713
14537SOL    HW244900   1.764   0.678   0.201 -1.8302 -0.8084 -1.4699
14538SOL     OW44901   8.588   2.993   0.652 -0.1024 -0.9304  0.0592
14538SOL    HW144902   8.642   2.965   0.579 -1.0490  0.7117 -1.3371
14538SOL    HW244903   8.514   2.932   0.651  0.9260 -2.2480  1.0446
14539SOL     OW44904   2.561   8.342   0.983  0.2845 -0.1371  0.3046
14539SOL    HW144905   2.549   8.265   1.039  2.6252 -0.1401  0.9033
14539SOL    HW244906   2.650   8.333   0.948 -0.4239  0.8434 -1.9645
14540SOL     OW44907   3.879   0.422   7.722 -0.0082 -0.6339  0.0714
14540SOL    HW144908   3.790   0.435   7.689 -0.3124 -2.1939  0.1633
14540SOL    HW244909   3.866   0.374   7.805  0.9087 -1.0434 -0.0101
14541SOL     OW44910   1.176   6.255   2.421  0.0462 -0.2072 -0.1490
14541SOL    HW144911   1.207   6.341   2.451 -0.9835 -0.5490  2.0848
14541SOL    HW244912   1.208   6.194   2.487 -0.2217 -1.4041 -1.0947
14542SOL     OW44913   4.292   4.041   3.188 -0.0005  0.0940 -0.3703
14542SOL    HW144914   4.335   4.107   3.242  0.4116 -0.7894  0.3997
14542SOL    HW244915   4.345   4.037   3.108 -0.0877  0.7534 -0.4683
14543SOL     OW44916   3.204   6.763   4.432 -0.0234  0.1848  0.1835
14543SOL    HW144917   3.135   6.787   4.370 -0.5677 -0.0600  0.6881
14543SOL    HW244918   3.220   6.670   4.415  1.2950  0.5954 -1.0000
14544SOL     OW44919   6.365   7.187   5.248  0.1783  0.0044  0.3058
14544SOL    HW144920   6.321   7.224   5.325  0.7648 -1.3725  1.3506
14544SOL    HW244921   6.294   7.172   5.185 -0.3243  1.0943  0.5971
14545SOL     OW44922   2.945   3.110   4.780 -0.1394  0.7034 -0.0873
14545SOL    HW144923   2.865   3.137   4.824 -1.1295  0.7079 -1.7988
14545SOL    HW244924   2.975   3.034   4.831 -0.8266  1.1252  0.9910
14546SOL     OW44925   8.401   7.893   7.321 -0.8287  0.1885  0.6713
14546SOL    HW144926   8.344   7.963   7.286 -2.3978 -0.4320  1.8547
14546SOL    HW244927   8.462   7.939   7.379 -0.1048  0.8609 -0.5640
14547SOL     OW44928   0.870   5.132   1.794  0.0441  0.2376  0.3245
14547SOL    HW144929   0.802   5.065   1.790  0.4059 -0.0824 -1.4768
14547SOL    HW244930   0.913   5.117   1.878  1.0654 -2.8005 -0.6066
14548SOL     OW44931   0.054   5.733   6.255  0.0798 -0.0435  0.5005
14548SOL    HW144932   0.093   5.783   6.327 -0.7279  1.2878  0.0369
14548SOL    HW244933   0.105   5.758   6.178 -1.4901  1.5358 -0.0690
14549SOL     OW44934   4.248   8.309   2.809 -0.1019  0.0018 -0.7698
14549SOL    HW144935   4.180   8.283   2.748  0.2814  0.1123 -1.2464
14549SOL    HW244936   4.330   8.300   2.760  0.6628 -3.6930  0.8503
14550SOL     OW44937   2.129   4.250   0.155 -0.7050 -0.0428  0.4033
14550SOL    HW144938   2.178   4.314   0.105 -0.7676  0.3474  0.8400
14550SOL    HW244939   2.193   4.210   0.214 -0.6821 -0.3300  0.1893
14551SOL     OW44940   5.056   2.610   8.175  0.3277  0.3232  0.5404
14551SOL    HW144941   5.110   2.661   8.115 -0.5088  0.7280  0.1096
14551SOL    HW244942   4.971   2.655   8.174  0.1449  0.0380  1.6277
14552SOL     OW44943   2.278   8.691   4.767  0.2048 -0.1649 -0.2058
14552SOL    HW144944   2.304   8.649   4.685  0.7163  0.9333 -0.6241
14552SOL    HW244945   2.327   8.772   4.769  0.2193 -0.1856  1.2240
14553SOL     OW44946   3.850   0.577   1.211  0.5496  0.1960  0.4805
14553SOL    HW144947   3.778   0.532   1.255  0.4076 -0.3387 -0.2899
14553SOL    HW244948   3.914   0.594   1.281  0.1365 -0.2519  0.9756
14554SOL     OW44949   4.241   5.266   2.103  0.4802  0.3624  0.1794
14554SOL    HW144950   4.291   5.184   2.107  0.7218  0.5206  0.4498
14554SOL    HW244951   4.161   5.243   2.056  0.1605 -0.2331  0.9867
14555SOL     OW44952   3.471   4.760   0.731 -0.2307  0.0827  0.0088
14555SOL    HW144953   3.401   4.713   0.686 -0.2371  0.8856 -0.8663
14555SOL    HW244954   3.465   4.850   0.697  1.2795  0.1402 -0.1790
14556SOL     OW44955   0.845   1.652   8.388 -0.0477 -0.5364  0.1078
14556SOL    HW144956   0.820   1.565   8.357 -3.1830  0.2347  0.1570
14556SOL    HW244957   0.928   1.671   8.344 -0.3659 -2.6812 -1.5482
14557SOL     OW44958   7.760   2.908   6.328 -0.1239 -0.1612  0.0193
14557SOL    HW144959   7.840   2.863   6.354 -0.8982 -0.3874  2.2618
14557SOL    HW244960   7.769   2.996   6.365 -0.9516 -0.2371  0.4182
14558SOL     OW44961   1.607   6.077   3.961  0.0544  0.5721 -0.2767
14558SOL    HW144962   1.644   6.135   4.028 -0.5998  0.6500  0.0287
14558SOL    HW244963   1.546   6.021   4.009 -1.9314  1.9435 -1.0963
14559SOL     OW44964   0.541   5.750   1.894 -0.1844  0.5099 -0.1506
14559SOL    HW144965   0.493   5.676   1.930 -0.9611  0.8264 -0.5286
14559SOL    HW244966   0.630   5.716   1.879 -0.4203 -0.2149  0.0805
14560SOL     OW44967   6.793   1.875   6.360 -0.1727  0.4136  0.3049
14560SOL    HW144968   6.750   1.847   6.441 -1.3843 -2.2225 -1.1303
14560SOL    HW244969   6.733   1.938   6.321 -1.5846 -1.3274 -0.4331
14561SOL     OW44970   8.277   8.679   6.954 -0.2639  0.1529 -0.5110
14561SOL    HW144971   8.225   8.744   6.907  0.1057 -0.1663 -1.3634
14561SOL    HW244972   8.241   8.680   7.043 -1.5490  0.1248 -1.0168
14562SOL     OW44973   1.948   7.682   2.119 -0.3543 -0.1484 -0.3126
14562SOL    HW144974   2.028   7.689   2.067 -1.0396  1.8824 -1.1677
14562SOL    HW244975   1.882   7.652   2.057 -0.4134 -1.3156  0.2787
14563SOL     OW44976   2.451   5.470   5.946 -0.1471  0.1792 -0.5804
14563SOL    HW144977   2.426   5.507   6.031  2.0112  2.5056 -0.8214
14563SOL    HW244978   2.458   5.376   5.962  1.7511  0.6726  2.3557
14564SOL     OW44979   1.776   7.141   5.321  0.0835  0.5871 -0.4183
14564SOL    HW144980   1.784   7.049   5.296  0.3816  0.4507  0.1637
14564SOL    HW244981   1.858   7.181   5.291  1.3415  0.0136  2.0278
14565SOL     OW44982   1.048   1.929   0.555 -0.0677  0.4824 -0.2209
14565SOL    HW144983   0.969   1.949   0.605 -0.1116  1.8643 -0.7961
14565SOL    HW244984   1.081   2.014   0.527  1.1139 -0.1326 -0.7763
14566SOL     OW44985   6.224   5.647   5.155  0.1905  0.1236  0.8737
14566SOL    HW144986   6.145   5.663   5.104 -0.5504 -2.3081  1.1052
14566SOL    HW244987   6.284   5.717   5.129 -1.0711  0.4796 -1.3620
14567SOL     OW44988   1.342   1.023   5.791  0.5763  0.2960  0.4056
14567SOL    HW144989   1.257   1.053   5.759  0.4430 -1.4727 -1.0423
14567SOL    HW244990   1.377   0.970   5.720  3.1881  1.4505  0.7185
14568SOL     OW44991   3.213   3.161   4.789 -0.1927 -0.4954  0.7190
14568SOL    HW144992   3.219   3.252   4.820 -1.6632 -0.0375 -0.2383
14568SOL    HW244993   3.119   3.143   4.785  0.0776 -2.5642  2.2055
14569SOL     OW44994   8.467   0.087   5.657 -0.1111 -0.6635  0.2857
14569SOL    HW144995   8.378   0.090   5.694 -0.3118  0.5234 -0.2384
14569SOL    HW244996   8.476   0.170   5.611  1.1658 -0.9145  0.0523
14570SOL     OW44997   8.629   6.828   5.890  0.1759  0.3801  0.0333
14570SOL    HW144998   8.576   6.907   5.877  0.6546  0.4034 -2.1362
14570SOL    HW244999   8.716   6.851   5.856  0.1331 -1.2487 -1.3562
14571SOL     OW45000   8.267   1.662   5.888 -0.4221  0.0904 -0.0062
14571SOL    HW145001   8.350   1.619   5.868 -0.1966  1.0003 -1.1368
14571SOL    HW245002   8.291   1.737   5.942 -0.4581  0.5200 -0.5730
14572SOL     OW45003   3.660   5.557   2.108 -0.0200 -0.0474 -0.0129
14572SOL    HW145004   3.747   5.553   2.070  1.0856 -0.7524  2.4273
14572SOL    HW245005   3.620   5.635   2.069  1.4228 -0.0771 -1.6461
14573SOL     OW45006   0.292   6.144   2.608 -0.5977 -0.6201  0.0781
14573SOL    HW145007   0.234   6.219   2.601 -0.4061 -0.6048 -2.1326
14573SOL    HW245008   0.248   6.085   2.669 -1.7980  0.3673  0.2027
14574SOL     OW45009   0.068   2.019   3.125  0.2507 -0.3473  0.9302
14574SOL    HW145010   0.138   2.019   3.191 -1.0569  0.9950  2.4250
14574SOL    HW245011   0.062   2.111   3.098  0.4938 -0.8214 -0.8115
14575SOL     OW45012   3.727   4.910   7.799  0.9128 -0.1539 -0.4804
14575SOL    HW145013   3.754   4.884   7.888  2.1373  1.7199 -0.2462
14575SOL    HW245014   3.636   4.879   7.792  0.5807  0.1450  1.6555
14576SOL     OW45015   7.356   2.754   7.508 -0.3459  0.8729  0.3648
14576SOL    HW145016   7.308   2.770   7.589 -1.4113  0.3573 -0.1394
14576SOL    HW245017   7.368   2.659   7.506 -0.1285  0.9060  0.0312
14577SOL     OW45018   0.839   4.798   5.726  0.0702  0.1344 -0.6042
14577SOL    HW145019   0.913   4.739   5.712  0.4295  0.4210  0.0699
14577SOL    HW245020   0.762   4.747   5.698 -0.0190 -1.8439  2.7457
14578SOL     OW45021   5.411   7.471   0.476  0.1333 -0.0482  0.6108
14578SOL    HW145022   5.337   7.523   0.445 -0.6436 -1.6818 -0.4201
14578SOL    HW245023   5.374   7.384   0.493  1.3595 -0.2839  2.3578
14579SOL     OW45024   4.609   3.723   1.624  0.5555 -1.1367 -0.8796
14579SOL    HW145025   4.603   3.810   1.586 -0.9383 -1.0029 -0.4139
14579SOL    HW245026   4.686   3.684   1.584  1.6902  0.6549 -0.5295
14580SOL     OW45027   4.588   4.924   8.514 -0.2679  0.5286  0.2105
14580SOL    HW145028   4.537   4.902   8.592  1.2028 -1.4892  0.7060
14580SOL    HW245029   4.674   4.951   8.549  1.0214 -2.1252 -0.6469
14581SOL     OW45030   1.264   5.431   4.915  0.5054 -0.0072  0.4392
14581SOL    HW145031   1.299   5.353   4.958 -1.0500 -1.2334 -0.4438
14581SOL    HW245032   1.318   5.442   4.837  0.4558 -0.4422  0.3445
14582SOL     OW45033   8.181   5.203   7.607  0.2988 -0.2312  0.4727
14582SOL    HW145034   8.126   5.129   7.581  1.0797 -0.6490 -0.0439
14582SOL    HW245035   8.152   5.274   7.550  2.1919 -1.2161 -1.9071
14583SOL     OW45036   0.908   8.136   3.036  0.6026  0.7078  0.1317
14583SOL    HW145037   0.960   8.193   2.979 -0.2033  0.0905 -1.2751
14583SOL    HW245038   0.818   8.146   3.003  0.4261 -1.2578 -0.0667
14584SOL     OW45039   0.814   2.669   1.916 -0.4209  0.3358  0.4812
14584SOL    HW145040   0.866   2.597   1.880 -0.0736  0.3017  1.0394
14584SOL    HW245041   0.873   2.744   1.915 -1.2947  1.0678 -1.6848
14585SOL     OW45042   7.804   2.303   5.911  0.2309 -0.2189 -0.4223
14585SOL    HW145043   7.717   2.262   5.918  0.3423 -0.5026 -0.6874
14585SOL    HW245044   7.788   2.384   5.862 -0.0667  0.3053  0.5197
14586SOL     OW45045   8.329   0.809   6.641  0.0379  0.2597  0.2861
14586SOL    HW145046   8.249   0.806   6.588 -0.1634  0.2059  0.5866
14586SOL    HW245047   8.362   0.898   6.629  0.6818 -0.1248 -0.9134
14587SOL     OW45048   1.830   0.571   3.563  0.6479 -0.5862  0.2199
14587SOL    HW145049   1.815   0.639   3.497 -0.4350  0.1018  1.1287
14587SOL    HW245050   1.754   0.578   3.622  1.6425 -1.0795  1.6101
14588SOL     OW45051   1.052   4.761   5.078 -0.2048  0.3672  0.3972
14588SOL    HW145052   1.129   4.795   5.123 -0.1253  0.3497  0.2756
14588SOL    HW245053   1.078   4.758   4.986 -0.3152  0.2607  0.3700
14589SOL     OW45054   4.098   5.506   1.667  0.3743  0.6975  0.0776
14589SOL    HW145055   4.167   5.468   1.721  1.3784  0.7868 -1.0968
14589SOL    HW245056   4.084   5.593   1.704 -0.5616 -0.0540  1.5708
14590SOL     OW45057   6.644   6.676   3.220  0.2649 -0.3657  0.0502
14590SOL    HW145058   6.669   6.608   3.282  1.7196 -0.8079 -0.9837
14590SOL    HW245059   6.715   6.740   3.224 -0.8229  0.8636  0.6058
14591SOL     OW45060   1.629   7.919   8.108 -0.0181  0.2377  0.2638
14591SOL    HW145061   1.715   7.934   8.146 -0.4518  0.4715  1.1625
14591SOL    HW245062   1.578   7.997   8.131 -1.2280 -0.9718  1.9100
14592SOL     OW45063   6.934   3.975   8.213 -0.1785  0.2053  0.4715
14592SOL    HW145064   6.951   3.929   8.131  0.7009  0.4912  0.4853
14592SOL    HW245065   6.959   3.912   8.281  0.1234  0.3671  0.5070
14593SOL     OW45066   4.598   5.209   2.443 -0.2779 -0.6339 -0.7628
14593SOL    HW145067   4.645   5.267   2.503  1.2143 -1.3179 -1.2152
14593SOL    HW245068   4.590   5.260   2.362 -1.5476 -0.0222 -0.2763
14594SOL     OW45069   0.252   3.213   3.996  0.0114  0.5169  0.2417
14594SOL    HW145070   0.184   3.203   4.062 -2.3756  2.0028 -1.8130
14594SOL    HW245071   0.240   3.137   3.939  2.1030 -0.7974  1.4371
14595SOL     OW45072   3.150   4.351   3.867 -0.2575 -0.1447  0.2820
14595SOL    HW145073   3.058   4.375   3.857 -0.1253 -0.0028 -0.6286
14595SOL    HW245074   3.178   4.397   3.946 -1.0306 -0.4015  0.7263
14596SOL     OW45075   2.125   6.030   5.150 -0.2724  0.2337 -0.6223
14596SOL    HW145076   2.185   6.104   5.143  0.4780 -0.1885  0.8073
14596SOL    HW245077   2.067   6.052   5.223  1.2264 -1.3417  1.1891
14597SOL     OW45078   7.069   6.589   7.005 -0.0861 -0.0818 -0.3285
14597SOL    HW145079   7.080   6.622   7.094  1.4102 -0.6212 -0.2822
14597SOL    HW245080   7.034   6.663   6.956  1.0817  0.8947  0.2491
14598SOL     OW45081   1.251   2.609   6.810 -0.3500 -0.0092 -0.6405
14598SOL    HW145082   1.330   2.660   6.794  1.4586 -2.4804 -0.1913
14598SOL    HW245083   1.259   2.533   6.751 -2.8628  0.0794 -1.2242
14599SOL     OW45084   2.891   2.825   6.424 -0.2854  0.3639  0.0945
14599SOL    HW145085   2.919   2.733   6.415  1.1030  0.7815 -0.0738
14599SOL    HW245086   2.828   2.838   6.354 -2.1464 -1.0441  1.4136
14600SOL     OW45087   8.482   1.709   0.138 -0.3060  0.1269  0.3525
14600SOL    HW145088   8.512   1.800   0.148 -0.7196  0.1600  1.3775
14600SOL    HW245089   8.417   1.698   0.206  0.3924 -1.2236  0.8301
14601SOL     OW45090   4.714   4.261   6.931  0.2027  0.4500  0.1504
14601SOL    HW145091   4.671   4.278   6.847 -1.1869  0.4856  0.8486
14601SOL    HW245092   4.643   4.238   6.991  1.1222  0.8162  1.4294
14602SOL     OW45093   6.023   3.517   6.822 -0.4761 -0.0183 -0.2553
14602SOL    HW145094   6.048   3.450   6.885  0.8593 -0.1404 -0.8782
14602SOL    HW245095   5.999   3.468   6.743 -0.8799  0.1897 -0.2687
14603SOL     OW45096   5.940   8.221   0.633  0.4424 -0.3064 -0.2084
14603SOL    HW145097   5.996   8.221   0.710  0.5346 -1.0789 -0.2675
14603SOL    HW245098   5.986   8.276   0.569  0.9998 -0.7151 -0.1629
14604SOL     OW45099   3.839   1.637   6.478 -0.1819 -0.6746 -0.2984
14604SOL    HW145100   3.868   1.678   6.560 -1.3800 -1.6740  0.6754
14604SOL    HW245101   3.892   1.557   6.472 -0.3811 -0.8080 -0.2795
14605SOL     OW45102   4.965   6.792   3.250 -0.0891 -0.0062 -0.2288
14605SOL    HW145103   4.903   6.747   3.306  1.2332 -2.0508 -0.2864
14605SOL    HW245104   5.025   6.724   3.221  3.4434  2.0688  1.4454
14606SOL     OW45105   5.652   5.938   1.905  0.3989  0.5535 -0.2162
14606SOL    HW145106   5.653   5.962   1.998  1.1800  0.2146 -0.1303
14606SOL    HW245107   5.589   5.867   1.898  1.0060 -0.0407  0.2239
14607SOL     OW45108   7.348   4.940   6.790  0.2159  0.1950 -0.1221
14607SOL    HW145109   7.323   4.893   6.869 -1.1465  0.2682 -0.4828
14607SOL    HW245110   7.412   5.004   6.820 -0.5002  0.4286  0.9886
14608SOL     OW45111   0.731   6.005   8.200 -0.0545 -0.1758  0.2307
14608SOL    HW145112   0.676   5.941   8.157  0.6180 -1.1496  0.7894
14608SOL    HW245113   0.683   6.088   8.191 -0.0285 -0.3601 -2.1679
14609SOL     OW45114   2.012   1.177   4.826 -0.2340 -0.2586  0.1920
14609SOL    HW145115   1.982   1.160   4.916  0.2169 -0.8617  0.2361
14609SOL    HW245116   2.082   1.113   4.812 -1.7364 -1.6776 -1.3275
14610SOL     OW45117   4.242   2.490   2.660  0.2413  0.1953 -0.0052
14610SOL    HW145118   4.320   2.545   2.654 -0.4197  1.1560 -0.1561
14610SOL    HW245119   4.248   2.449   2.746  0.5694  0.8044  0.2735
14611SOL     OW45120   0.416   2.777   4.688  0.6208 -0.1006 -0.1045
14611SOL    HW145121   0.419   2.747   4.596  1.1257 -2.8499  0.7069
14611SOL    HW245122   0.504   2.807   4.706  0.5074  0.5019 -0.5173
14612SOL     OW45123   1.764   3.065   6.592 -0.1666  0.3170  0.3137
14612SOL    HW145124   1.700   3.037   6.658 -0.0366 -0.7243  0.0106
14612SOL    HW245125   1.715   3.122   6.533 -0.5149  0.4935  0.7653
14613SOL     OW45126   6.646   8.256   7.071  0.9177  0.0943  0.0583
14613SOL    HW145127   6.671   8.320   7.004 -1.0373  0.1033 -0.7237
14613SOL    HW245128   6.692   8.284   7.150  3.0773  0.2438 -1.1791
14614SOL     OW45129   5.313   2.761   7.439 -0.3905 -0.3938 -0.1125
14614SOL    HW145130   5.288   2.677   7.400 -1.4391 -0.4728  0.6981
14614SOL    HW245131   5.231   2.796   7.476 -0.2341  1.5047 -1.3853
14615SOL     OW45132   6.467   3.961   8.514  0.3110 -0.2362  0.2156
14615SOL    HW145133   6.405   4.030   8.538  0.1564 -0.4399  0.4151
14615SOL    HW245134   6.480   3.972   8.420  1.3680  0.9391  0.4807
14616SOL     OW45135   4.383   8.078   5.110  0.1818 -0.6387 -0.0803
14616SOL    HW145136   4.300   8.066   5.062  1.2772 -1.5632 -1.8807
14616SOL    HW245137   4.448   8.036   5.054  1.8753  0.0202  1.3266
14617SOL     OW45138   7.583   2.286   0.700 -0.1478 -0.0604  0.3414
14617SOL    HW145139   7.584   2.362   0.641  0.4778 -0.6660 -0.4628
14617SOL    HW245140   7.493   2.253   0.696 -0.6164  1.0409  1.2593
14618SOL     OW45141   3.395   5.242   3.923 -0.7693  0.6390 -0.1712
14618SOL    HW145142   3.437   5.269   3.842  1.8596  0.5317  1.0449
14618SOL    HW245143   3.381   5.148   3.912 -0.0454  0.5471 -0.3473
14619SOL     OW45144   1.835   5.231   0.992 -0.5251 -0.5377  0.4244
14619SOL    HW145145   1.776   5.307   0.993 -0.6360 -0.6237  0.4750
14619SOL    HW245146   1.912   5.261   1.040 -0.8683 -0.6869  1.0958
14620SOL     OW45147   5.337   2.859   3.854  0.0778 -0.0490  0.8483
14620SOL    HW145148   5.361   2.776   3.814 -1.2447  0.5556 -1.3895
14620SOL    HW245149   5.395   2.923   3.812 -1.5464  0.6444 -0.4461
14621SOL     OW45150   6.966   0.886   4.991 -0.1189  0.9110 -0.1407
14621SOL    HW145151   6.998   0.796   4.991  1.1771  1.3529  0.5167
14621SOL    HW245152   6.917   0.893   4.909  0.8300 -0.0320 -0.8266
14622SOL     OW45153   0.846   3.240   5.017  0.0605 -0.2864 -0.4457
14622SOL    HW145154   0.888   3.327   5.013 -0.6966  0.0624 -1.3109
14622SOL    HW245155   0.899   3.186   4.957 -0.5011  0.0679 -1.2870
14623SOL     OW45156   2.492   0.542   2.135 -0.1258 -0.3272 -0.0635
14623SOL    HW145157   2.467   0.526   2.226 -1.4637 -0.7502 -0.4769
14623SOL    HW245158   2.540   0.464   2.108  1.8949  0.5576  0.7915
14624SOL     OW45159   0.301   7.269   3.019  0.3570  0.2404 -0.3266
14624SOL    HW145160   0.291   7.306   2.931  3.9243  0.1378 -0.9372
14624SOL    HW245161   0.262   7.182   3.014 -1.9134  1.2125 -0.9076
14625SOL     OW45162   8.455   6.392   3.122 -0.2386  0.0127 -0.3306
14625SOL    HW145163   8.363   6.378   3.097  0.3042 -2.2314 -1.3536
14625SOL    HW245164   8.504   6.339   3.060  1.7482  0.8121  0.4926
14626SOL     OW45165   6.736   3.844   1.396  0.5187 -1.0705  0.0605
14626SOL    HW145166   6.648   3.878   1.386 -0.7303 -4.2951 -1.6164
14626SOL    HW245167   6.773   3.892   1.470 -2.0720  1.4073 -0.0955
14627SOL     OW45168   0.403   7.826   4.036 -0.4446  0.7046  0.3885
14627SOL    HW145169   0.493   7.803   4.017 -0.3184  1.1099  0.4789
14627SOL    HW245170   0.365   7.748   4.077 -0.4954  0.0873 -0.7817
14628SOL     OW45171   7.528   2.623   7.854  0.0225 -0.1929  0.3166
14628SOL    HW145172   7.443   2.668   7.855  0.6645  1.1820 -1.5685
14628SOL    HW245173   7.577   2.663   7.926  0.1026  1.2287 -0.4892
14629SOL     OW45174   3.707   5.085   4.441  0.9893 -0.5637 -0.1988
14629SOL    HW145175   3.642   5.021   4.412  0.4523  0.5188 -1.5351
14629SOL    HW245176   3.791   5.052   4.407  0.8246 -0.9216 -0.2551
14630SOL     OW45177   7.500   3.254   5.737  0.3801  0.1220  0.8234
14630SOL    HW145178   7.569   3.222   5.678 -0.7642  0.6983 -0.9335
14630SOL    HW245179   7.431   3.283   5.677 -1.4845 -0.6662  2.5088
14631SOL     OW45180   6.261   7.677   2.135 -0.2920  0.5483 -0.0005
14631SOL    HW145181   6.251   7.586   2.107 -0.1853  0.0570  1.4643
14631SOL    HW245182   6.322   7.673   2.208  1.3058  2.0650 -1.1638
14632SOL     OW45183   5.919   5.688   7.985  0.8136  0.1238  0.0565
14632SOL    HW145184   5.832   5.717   7.961  1.4704  0.8850 -1.5259
14632SOL    HW245185   5.968   5.686   7.903  2.1288 -0.8528  0.8174
14633SOL     OW45186   5.097   4.521   4.844 -0.4083  0.1468 -0.1434
14633SOL    HW145187   5.032   4.588   4.821 -0.2641  0.5435  0.5881
14633SOL    HW245188   5.088   4.455   4.775 -2.3743 -0.3676  0.5569
14634SOL     OW45189   0.443   6.244   3.911  0.3981 -0.0847  0.2386
14634SOL    HW145190   0.398   6.211   3.833  1.1190 -1.3281  0.3093
14634SOL    HW245191   0.436   6.172   3.974  0.9920  0.3768  0.8488
14635SOL     OW45192   3.229   8.637   5.830  0.4136  0.0956 -0.2481
14635SOL    HW145193   3.314   8.628   5.785  0.9186  0.1764  0.6736
14635SOL    HW245194   3.219   8.555   5.878  0.3051  0.3781  0.2152
14636SOL     OW45195   4.263   4.543   6.449 -0.1869 -0.5340 -0.3394
14636SOL    HW145196   4.304   4.488   6.516 -1.9494 -0.2977  0.9966
14636SOL    HW245197   4.332   4.605   6.424 -0.0871  0.8762  2.9511
14637SOL     OW45198   5.469   6.318   1.174 -0.3177 -0.1291  0.1198
14637SOL    HW145199   5.513   6.283   1.252 -0.0312 -0.0197  0.0072
14637SOL    HW245200   5.376   6.304   1.191 -0.3279  0.8146  0.9334
14638SOL     OW45201   2.220   8.153   5.973  0.1168  0.1446 -0.1032
14638SOL    HW145202   2.152   8.195   5.920  0.6619  0.9777 -0.1588
14638SOL    HW245203   2.172   8.111   6.045 -0.9151 -3.1093 -2.4579
14639SOL     OW45204   4.418   0.266   5.893  0.2252 -0.2075  0.2844
14639SOL    HW145205   4.351   0.330   5.870  1.1359  0.4956 -0.5343
14639SOL    HW245206   4.370   0.193   5.932 -0.7326  1.5876  2.7187
14640SOL     OW45207   3.158   0.196   8.324 -0.2010 -0.0925  0.2050
14640SOL    HW145208   3.193   0.258   8.260 -2.3925  3.3147  1.9720
14640SOL    HW245209   3.066   0.184   8.298 -0.3336 -1.0415  1.0541
14641SOL     OW45210   7.892   0.642   7.598  0.0251  0.4071  0.6797
14641SOL    HW145211   7.955   0.664   7.530  0.6308 -0.3053  0.9874
14641SOL    HW245212   7.905   0.708   7.666  1.7310 -0.7554  1.5410
14642SOL     OW45213   2.351   4.161   4.758 -0.0618  0.3030  0.1264
14642SOL    HW145214   2.397   4.194   4.835  1.2309 -0.8049 -0.1271
14642SOL    HW245215   2.375   4.068   4.755 -0.4609  0.2308 -1.3563
14643SOL     OW45216   1.001   4.486   5.039  0.4831  0.3130  0.4213
14643SOL    HW145217   0.951   4.462   5.117 -2.3131  1.2667 -0.9493
14643SOL    HW245218   1.006   4.582   5.042  0.0100  0.3877 -0.7419
14644SOL     OW45219   0.715   7.557   0.113 -0.1298 -0.1677  0.0191
14644SOL    HW145220   0.790   7.536   0.168 -0.0209  0.5434  0.1437
14644SOL    HW245221   0.724   7.499   0.037  0.7584  0.1854 -0.1584
14645SOL     OW45222   6.212   0.687   4.180  0.1100 -0.3209 -0.1430
14645SOL    HW145223   6.244   0.743   4.251 -1.7892 -0.6025  1.0211
14645SOL    HW245224   6.271   0.612   4.181  0.9416  0.3276  0.2191
14646SOL     OW45225   8.670   6.143   2.522 -0.2603  0.3059 -0.6412
14646SOL    HW145226   8.630   6.198   2.589  0.9918  0.5151 -0.0366
14646SOL    HW245227   8.662   6.194   2.441 -0.5292  0.6633 -0.3949
14647SOL     OW45228   8.574   4.973   3.870 -0.2979  0.4554  0.0288
14647SOL    HW145229   8.596   4.973   3.777  0.7041 -2.5331  0.1644
14647SOL    HW245230   8.583   5.065   3.897  0.3564  1.2293 -2.5760
14648SOL     OW45231   0.000   2.618   3.798 -0.1605  0.3336 -0.4911
14648SOL    HW145232  -0.002   2.672   3.719 -2.6578  1.5307  0.3017
14648SOL    HW245233   0.042   2.674   3.864  0.1140  0.0910 -0.4582
14649SOL     OW45234   4.773   1.129   7.952 -0.2684 -0.5063 -0.1215
14649SOL    HW145235   4.769   1.115   8.047 -0.5696  0.2930 -0.0127
14649SOL    HW245236   4.831   1.059   7.920 -0.2574 -0.8535  0.6308
14650SOL     OW45237   0.381   8.621   5.903 -0.3872 -0.0295  0.4693
14650SOL    HW145238   0.364   8.573   5.823 -2.0670 -1.5141  1.6433
14650SOL    HW245239   0.401   8.554   5.968 -1.1156  0.9533  1.7656
14651SOL     OW45240   8.371   0.968   6.286  0.3313  0.5345 -0.4349
14651SOL    HW145241   8.343   1.013   6.207 -0.6747  0.5355 -0.0957
14651SOL    HW245242   8.455   1.007   6.308  0.9009  0.1336 -1.8151
14652SOL     OW45243   5.991   5.312   2.519  0.6230  0.0287  0.2816
14652SOL    HW145244   5.987   5.388   2.577  1.0212  0.5584 -0.3719
14652SOL    HW245245   6.072   5.268   2.544  0.4890 -0.0779  0.5327
14653SOL     OW45246   0.601   0.584   1.939 -0.0245  0.2806  0.4710
14653SOL    HW145247   0.518   0.567   1.896 -0.3189 -0.9299  1.4756
14653SOL    HW245248   0.605   0.680   1.945 -2.0251  0.3581  1.6539
14654SOL     OW45249   8.657   5.143   1.821  0.7850  0.7527  0.2367
14654SOL    HW145250   8.643   5.133   1.915  1.9526  1.4283  0.5020
14654SOL    HW245251   8.582   5.193   1.790  0.5685  0.8150  0.8649
14655SOL     OW45252   1.304   2.795   7.320 -0.2445 -0.3275 -0.1391
14655SOL    HW145253   1.331   2.718   7.369  1.1985  0.9506  1.1696
14655SOL    HW245254   1.268   2.760   7.238  0.8715 -2.3447  0.1727
14656SOL     OW45255   3.931   3.109   3.109  0.0549 -0.2051  0.3093
14656SOL    HW145256   3.865   3.056   3.152  0.1042 -1.1543 -0.7396
14656SOL    HW245257   3.950   3.180   3.171 -1.2764 -0.4259  0.9905
14657SOL     OW45258   4.322   7.748   5.541  0.0519  0.5435 -0.2086
14657SOL    HW145259   4.380   7.684   5.582  1.1136  1.2224 -0.6102
14657SOL    HW245260   4.235   7.709   5.547  0.6207 -0.7552 -0.0860
14658SOL     OW45261   6.788   4.007   4.923  0.0770 -0.0200  0.2188
14658SOL    HW145262   6.784   3.914   4.901 -0.4819 -0.0253  0.3295
14658SOL    HW245263   6.818   4.009   5.014 -1.2883 -0.1625  0.6926
14659SOL     OW45264   0.913   8.039   4.916  0.2979 -0.2779 -0.1611
14659SOL    HW145265   0.928   7.999   5.002 -2.4475 -0.4831  0.3092
14659SOL    HW245266   0.921   7.967   4.854 -4.4614 -1.8679  0.6604
14660SOL     OW45267   2.810   4.184   7.900  0.0300 -0.4651  0.5721
14660SOL    HW145268   2.859   4.230   7.968  0.3527 -1.2229  0.8607
14660SOL    HW245269   2.753   4.252   7.861  0.4937  0.1679  0.9821
14661SOL     OW45270   0.507   3.211   5.861 -0.3755  0.2618  0.5859
14661SOL    HW145271   0.418   3.177   5.865 -0.7153  0.9012 -0.8418
14661SOL    HW245272   0.502   3.296   5.903 -1.2539  1.7721 -2.2984
14662SOL     OW45273   8.598   6.190   3.710  0.6615 -0.2917 -0.1655
14662SOL    HW145274   8.589   6.102   3.747 -1.9466 -0.3149 -0.6442
14662SOL    HW245275   8.594   6.249   3.785 -0.7728 -0.4939 -0.0570
14663SOL     OW45276   0.305   4.928   6.302  0.4367 -0.0285 -0.4376
14663SOL    HW145277   0.211   4.913   6.317  0.4376 -0.2769 -0.6735
14663SOL    HW245278   0.339   4.843   6.274  0.4014  0.4395 -2.0055
14664SOL     OW45279   6.248   2.295   3.621  0.3655  0.2021 -0.1715
14664SOL    HW145280   6.260   2.320   3.713 -1.5450  0.0754  0.1684
14664SOL    HW245281   6.312   2.225   3.606 -0.8038 -1.4304  1.8040
14665SOL     OW45282   0.424   4.750   2.216 -0.6498  0.1371 -0.6685
14665SOL    HW145283   0.351   4.783   2.164  0.7055  0.0321 -2.7127
14665SOL    HW245284   0.392   4.666   2.250 -2.3931  1.2764  0.6964
14666SOL     OW45285   6.306   0.301   4.985  0.2961  0.0982 -0.0604
14666SOL    HW145286   6.354   0.318   4.904  1.3773 -2.1378  0.0363
14666SOL    HW245287   6.282   0.388   5.017  1.9417  1.1633 -1.5178
14667SOL     OW45288   3.439   5.324   8.027  0.2062  0.0466  0.0140
14667SOL    HW145289   3.496   5.286   8.093  0.5378  1.6006  0.6567
14667SOL    HW245290   3.461   5.417   8.026 -0.0772  0.1363 -2.0014
14668SOL     OW45291   6.456   3.332   7.838 -0.0199 -0.5567  0.6637
14668SOL    HW145292   6.542   3.318   7.878  1.2468  1.9654 -0.9804
14668SOL    HW245293   6.445   3.258   7.778  0.9427 -0.9754  0.9840
14669SOL     OW45294   1.626   4.351   2.365 -0.3823  0.1959 -0.0141
14669SOL    HW145295   1.658   4.441   2.371  0.2611 -0.0240 -0.0471
14669SOL    HW245296   1.546   4.350   2.417  0.8375  0.2361  1.9723
14670SOL     OW45297   1.972   6.498   6.333  0.0129 -0.3338  0.7113
14670SOL    HW145298   1.976   6.426   6.270 -1.3359  0.1033  0.0858
14670SOL    HW245299   1.946   6.456   6.415  0.8287 -0.7747  0.7513
14671SOL     OW45300   3.760   1.650   1.095  0.2697  0.0954  0.2713
14671SOL    HW145301   3.704   1.623   1.168  1.5811 -0.7142  1.0159
14671SOL    HW245302   3.728   1.737   1.072 -0.3706  0.2488  1.6207
14672SOL     OW45303   1.180   4.265   6.808  0.7465  0.1379  0.4785
14672SOL    HW145304   1.154   4.184   6.853  0.6506 -1.8419 -2.7892
14672SOL    HW245305   1.136   4.334   6.858 -0.8747 -1.9822  2.2635
14673SOL     OW45306   6.215   1.534   2.527 -0.1658 -0.0116 -0.0139
14673SOL    HW145307   6.299   1.489   2.525  0.9909  2.0187 -1.9339
14673SOL    HW245308   6.187   1.539   2.436 -1.5967  0.7224  0.4212
14674SOL     OW45309   5.352   6.372   3.714  0.5632  0.0322  0.3607
14674SOL    HW145310   5.406   6.358   3.636 -0.2701 -2.6236  0.1752
14674SOL    HW245311   5.304   6.452   3.695  2.2622  0.8623 -0.7026
14675SOL     OW45312   3.855   7.476   5.794  0.1039  0.3297  0.2987
14675SOL    HW145313   3.882   7.517   5.712 -0.2791  1.6874  0.8300
14675SOL    HW245314   3.839   7.384   5.771 -0.5160  0.8043 -1.2565
14676SOL     OW45315   7.677   2.415   7.308  0.1909  0.0215  0.1643
14676SOL    HW145316   7.758   2.464   7.297 -0.6048  1.0633 -1.3281
14676SOL    HW245317   7.675   2.353   7.236 -0.8671  0.7976 -0.5035
14677SOL     OW45318   4.251   8.706   6.559  0.3133  0.0483  0.3628
14677SOL    HW145319   4.335   8.749   6.548  0.9934 -1.6584 -1.6970
14677SOL    HW245320   4.273   8.620   6.595 -0.3577 -0.9202 -1.4220
14678SOL     OW45321   2.163   7.677   2.927  0.4908  0.3663 -0.5931
14678SOL    HW145322   2.089   7.619   2.914 -1.6062  2.5088  0.9350
14678SOL    HW245323   2.168   7.729   2.846  0.2284  0.3299 -0.6314
14679SOL     OW45324   0.824   7.204   2.875  0.1531 -0.1503  0.2304
14679SOL    HW145325   0.877   7.282   2.863 -0.3938  0.4417  1.4407
14679SOL    HW245326   0.737   7.237   2.898 -0.0408 -1.1037  0.9406
14680SOL     OW45327   0.943   4.182   0.141 -0.0283 -0.2625  0.1819
14680SOL    HW145328   1.002   4.220   0.207 -0.8867  0.7837  0.3679
14680SOL    HW245329   0.886   4.124   0.191 -0.8832  0.7673  0.4389
14681SOL     OW45330   6.059   1.650   3.640  0.2041 -0.3274  0.2740
14681SOL    HW145331   6.121   1.591   3.597  1.3302  0.1920  1.1453
14681SOL    HW245332   5.975   1.630   3.599  1.0933 -0.3695 -1.6440
14682SOL     OW45333   7.137   2.746   2.279 -0.2014  0.4462  0.1111
14682SOL    HW145334   7.123   2.692   2.201 -1.1973  1.4389 -0.4254
14682SOL    HW245335   7.216   2.710   2.319 -0.8967 -1.5039 -0.1409
14683SOL     OW45336   8.358   4.626   2.404  0.0602  0.5560 -0.7928
14683SOL    HW145337   8.429   4.667   2.355 -0.1188  0.6191 -0.9980
14683SOL    HW245338   8.313   4.570   2.341  0.6996 -0.4680 -0.3673
14684SOL     OW45339   6.408   0.529   6.843  0.6016  0.1372  0.0423
14684SOL    HW145340   6.350   0.475   6.788  0.1902  0.6371 -0.0256
14684SOL    HW245341   6.349   0.572   6.905  0.9069  0.6256 -0.0014
14685SOL     OW45342   3.999   3.726   4.982  0.5684 -0.0222 -0.1476
14685SOL    HW145343   3.993   3.634   5.009 -2.0036 -0.1076 -0.7385
14685SOL    HW245344   3.938   3.771   5.040 -1.6169  0.5271 -2.6719
14686SOL     OW45345   5.284   7.353   5.241 -0.6896 -0.2209  0.2399
14686SOL    HW145346   5.197   7.384   5.269 -0.2573  1.2444  0.0041
14686SOL    HW245347   5.265   7.285   5.176 -1.6660  0.7104 -0.4791
14687SOL     OW45348   0.680   8.367   1.773 -0.1826  0.3119  0.2140
14687SOL    HW145349   0.637   8.361   1.688 -0.6725  0.1964  0.4654
14687SOL    HW245350   0.666   8.458   1.801  0.8512  0.6270 -0.2795
14688SOL     OW45351   2.913   4.001   3.867  0.3912 -0.1934 -0.5199
14688SOL    HW145352   2.919   3.978   3.959  1.2086 -0.3231 -0.5943
14688SOL    HW245353   2.825   4.037   3.856  0.5288  0.4626  0.4523
14689SOL     OW45354   0.957   7.271   5.856 -0.5023 -0.0247  0.4717
14689SOL    HW145355   1.018   7.207   5.821  0.9598  1.6281 -0.1694
14689SOL    HW245356   0.872   7.227   5.854  0.2729 -1.5585 -0.9255
14690SOL     OW45357   6.480   5.459   3.020  0.1178 -0.0797 -0.5102
14690SOL    HW145358   6.391   5.451   3.053  0.2607 -0.4369 -0.2100
14690SOL    HW245359   6.534   5.470   3.098  0.2336  1.1563 -0.7491
14691SOL     OW45360   0.411   7.442   6.845  0.7313  0.4276 -0.1854
14691SOL    HW145361   0.475   7.406   6.783 -0.6162 -0.4917 -1.0964
14691SOL    HW245362   0.355   7.498   6.792 -0.7738 -0.7843  0.0632
14692SOL     OW45363   2.073   4.838   1.597  0.6878  0.0611  0.1862
14692SOL    HW145364   2.004   4.870   1.539 -0.4888 -2.5761 -0.0148
14692SOL    HW245365   2.127   4.915   1.615 -0.2614  1.4816 -2.4867
14693SOL     OW45366   7.987   4.456   4.343  0.5944  0.8858  0.2637
14693SOL    HW145367   7.914   4.517   4.343  0.5344  0.8895  2.3873
14693SOL    HW245368   7.960   4.385   4.401  0.9593 -0.8390 -1.5597
14694SOL     OW45369   6.518   1.337   5.578 -0.2734  0.4478  0.3257
14694SOL    HW145370   6.478   1.349   5.492  0.2002 -0.4098 -0.0239
14694SOL    HW245371   6.486   1.251   5.607  1.4963 -0.4026 -0.0827
14695SOL     OW45372   0.969   3.658   7.277 -0.5693 -0.1325 -0.5658
14695SOL    HW145373   0.874   3.673   7.277 -1.0252 -2.3068 -2.8293
14695SOL    HW245374   0.985   3.610   7.359 -0.9396  2.2332  0.9985
14696SOL     OW45375   6.351   4.780   1.847  0.3300  0.6583 -0.3580
14696SOL    HW145376   6.258   4.791   1.829  0.1738 -0.0105 -0.0231
14696SOL    HW245377   6.354   4.715   1.918  1.0086  1.4864  0.3899
14697SOL     OW45378   4.154   8.271   4.461  0.3465  0.4791  0.1923
14697SOL    HW145379   4.145   8.276   4.366 -0.5485  0.1005  0.2512
14697SOL    HW245380   4.119   8.186   4.484  0.4001  0.6398  0.8887
14698SOL     OW45381   8.262   0.495   5.800  0.5084  0.9116  0.0238
14698SOL    HW145382   8.324   0.499   5.727 -1.1275  0.3677 -1.4654
14698SOL    HW245383   8.259   0.585   5.834  1.2941  1.1768 -0.5704
14699SOL     OW45384   3.469   6.233   2.185 -0.0088  0.1437 -0.1862
14699SOL    HW145385   3.411   6.309   2.199 -1.1703 -1.1810  3.3742
14699SOL    HW245386   3.410   6.158   2.188  1.5503 -1.0929  0.6464
14700SOL     OW45387   3.197   5.519   4.404  0.2083 -0.3432  0.2106
14700SOL    HW145388   3.284   5.561   4.405  0.5349 -1.0190  0.7473
14700SOL    HW245389   3.136   5.592   4.416  0.8030 -0.0481  1.8471
14701SOL     OW45390   1.929   0.663   7.410 -0.3362 -0.7697 -0.6229
14701SOL    HW145391   1.847   0.645   7.365 -0.6375 -0.4460 -0.2238
14701SOL    HW245392   1.980   0.714   7.347 -0.6085 -0.6242 -0.7308
14702SOL     OW45393   3.929   0.963   2.311  0.2270 -0.0774  0.3914
14702SOL    HW145394   3.867   0.942   2.242  0.7940 -3.4268  0.7065
14702SOL    HW245395   4.013   0.976   2.266  0.1326  0.1021  0.2708
14703SOL     OW45396   0.610   5.204   4.223 -0.1200  0.4521  0.1383
14703SOL    HW145397   0.542   5.156   4.271 -0.3761  0.3626 -0.3068
14703SOL    HW245398   0.622   5.153   4.142  0.2362  0.6524  0.0654
14704SOL     OW45399   3.506   4.957   6.988  0.1237  0.6580 -0.2125
14704SOL    HW145400   3.495   4.862   6.993  0.7203  0.5931  0.0443
14704SOL    HW245401   3.451   4.991   7.059  0.0437  0.4918 -0.1940
14705SOL     OW45402   0.425   3.925   4.998  0.7188  0.6502  0.4351
14705SOL    HW145403   0.434   3.851   5.058 -1.3996  0.7949  1.0184
14705SOL    HW245404   0.330   3.935   4.986  0.9368  3.1548  0.2630
14706SOL     OW45405   4.532   5.659   6.449 -0.9976 -0.5076 -0.4269
14706SOL    HW145406   4.453   5.713   6.456 -1.8311 -1.6527 -0.6243
14706SOL    HW245407   4.602   5.721   6.428 -1.7403  0.6026  0.2658
14707SOL     OW45408   3.891   1.223   0.447 -0.1233  0.6312 -0.4541
14707SOL    HW145409   3.846   1.302   0.418 -1.2273 -0.1104 -0.8642
14707SOL    HW245410   3.932   1.189   0.367  1.1072  1.2474 -0.1011
14708SOL     OW45411   7.055   6.814   2.888  0.2025  0.5663 -0.3515
14708SOL    HW145412   6.962   6.797   2.879 -0.5102  1.4464  3.4660
14708SOL    HW245413   7.096   6.728   2.894 -0.0971  0.1464 -3.2054
14709SOL     OW45414   0.307   3.802   2.646 -0.2778 -0.0447  0.3125
14709SOL    HW145415   0.287   3.895   2.657  0.3636  0.5241 -2.5115
14709SOL    HW245416   0.393   3.791   2.685 -0.5349  0.4227  1.0379
14710SOL     OW45417   0.177   5.402   2.187  0.5100 -0.3694  0.0499
14710SOL    HW145418   0.227   5.347   2.247  2.0745  0.5159 -0.3688
14710SOL    HW245419   0.193   5.363   2.101 -0.3792 -0.6806  0.0220
14711SOL     OW45420   6.119   5.864   5.518 -0.4756 -0.0624 -0.3004
14711SOL    HW145421   6.108   5.774   5.488  1.4031 -0.8645  1.1583
14711SOL    HW245422   6.066   5.916   5.458 -2.2758 -2.1974 -0.6889
14712SOL     OW45423   3.843   1.137   4.918 -0.3258 -0.3464  0.2336
14712SOL    HW145424   3.781   1.065   4.909  0.6181 -1.3924  1.5371
14712SOL    HW245425   3.881   1.148   4.831 -1.5882 -0.3561 -0.3432
14713SOL     OW45426   2.503   2.990   4.605 -0.0020  0.4545 -0.3171
14713SOL    HW145427   2.586   2.991   4.558  1.8289  0.0663  2.6784
14713SOL    HW245428   2.497   3.078   4.643 -1.6225  0.8832 -1.4645
14714SOL     OW45429   2.051   1.268   3.531 -0.0971 -0.1984 -0.3943
14714SOL    HW145430   2.019   1.334   3.469  0.7941  0.6331  0.0111
14714SOL    HW245431   2.033   1.305   3.617 -0.9733 -1.1773 -0.1395
14715SOL     OW45432   6.244   1.423   0.348  0.0572 -0.2141  0.3945
14715SOL    HW145433   6.169   1.481   0.354  1.7147  2.3801 -1.6163
14715SOL    HW245434   6.263   1.418   0.254  1.8403 -1.5745  0.7657
14716SOL     OW45435   7.268   6.850   0.125  0.2461  0.6055  0.0294
14716SOL    HW145436   7.251   6.766   0.082  0.6915  0.4387  0.1804
14716SOL    HW245437   7.359   6.845   0.153  0.2020  1.0447  0.2557
14717SOL     OW45438   0.607   8.616   0.332  0.1695  0.2968  0.4045
14717SOL    HW145439   0.608   8.658   0.246  0.1588 -0.2184  0.1475
14717SOL    HW245440   0.517   8.630   0.364 -0.5587 -1.5022 -0.6907
14718SOL     OW45441   7.030   6.483   8.028  0.2386  0.0428 -0.0214
14718SOL    HW145442   6.943   6.522   8.036 -0.0095 -0.5180  0.1258
14718SOL    HW245443   7.020   6.397   8.070  1.2908  0.6240  1.4886
14719SOL     OW45444   0.037   5.691   4.844  0.0899  0.6474 -0.1567
14719SOL    HW145445   0.129   5.687   4.815 -0.3393 -1.0550 -1.4468
14719SOL    HW245446   0.042   5.697   4.939  1.5352  1.2153 -0.2398
14720SOL     OW45447   0.521   6.280   6.148 -0.3681  0.2355 -0.0909
14720SOL    HW145448   0.524   6.246   6.238 -1.1745 -0.2171 -0.2231
14720SOL    HW245449   0.439   6.329   6.144 -0.2899  0.3340 -0.5560
14721SOL     OW45450   8.336   8.689   4.002  0.1954  0.4039 -0.1216
14721SOL    HW145451   8.254   8.646   3.977 -0.1224  0.8600  0.1136
14721SOL    HW245452   8.402   8.652   3.944 -0.1545 -0.0789 -0.2115
14722SOL     OW45453   7.093   3.172   7.363 -0.1448 -0.5999  0.1761
14722SOL    HW145454   7.133   3.085   7.354  2.3506  0.4058  0.6519
14722SOL    HW245455   7.118   3.217   7.283 -0.5054  0.0298  0.4142
14723SOL     OW45456   2.358   1.315   5.384 -0.4970  0.0428 -0.0240
14723SOL    HW145457   2.415   1.342   5.313 -1.4345  1.6300 -0.2224
14723SOL    HW245458   2.417   1.292   5.456  0.4444 -1.2265 -1.1517
14724SOL     OW45459   0.487   6.880   1.088 -0.2160 -0.0579  0.2939
14724SOL    HW145460   0.536   6.872   1.170  0.9387  0.6515 -0.2903
14724SOL    HW245461   0.545   6.932   1.031 -1.2538 -0.0188 -0.7582
14725SOL     OW45462   5.881   3.240   2.058  0.5540  0.1964  0.2547
14725SOL    HW145463   5.925   3.297   1.994 -0.5706 -0.2488 -0.9675
14725SOL    HW245464   5.920   3.154   2.044 -2.5754 -0.9270 -2.9725
14726SOL     OW45465   4.338   3.919   0.165 -0.0395  0.4327 -0.2618
14726SOL    HW145466   4.428   3.944   0.143 -0.9629  2.7582 -1.9522
14726SOL    HW245467   4.330   3.828   0.138  2.0996 -0.1993  1.0650
14727SOL     OW45468   2.565   0.553   6.950 -0.7248  0.5360  0.4332
14727SOL    HW145469   2.651   0.514   6.934  0.0971  2.6985 -0.8560
14727SOL    HW245470   2.554   0.549   7.045  1.2835  1.1111  0.7334
14728SOL     OW45471   3.951   5.623   6.695  0.1284 -0.4303 -0.1255
14728SOL    HW145472   3.861   5.655   6.690 -0.3777 -1.5594  1.0160
14728SOL    HW245473   4.000   5.679   6.635 -1.7601 -1.3829 -2.7567
14729SOL     OW45474   6.620   2.650   7.477 -0.0872  0.2626 -0.0720
14729SOL    HW145475   6.608   2.561   7.444 -0.9170 -0.3270  1.6931
14729SOL    HW245476   6.711   2.672   7.454 -0.2791 -0.4688 -1.7330
14730SOL     OW45477   7.433   5.017   8.130 -0.0658 -0.0269  0.4695
14730SOL    HW145478   7.500   5.003   8.063  2.2072  0.0905  2.5743
14730SOL    HW245479   7.350   5.018   8.081  1.5058  0.9076 -2.4066
14731SOL     OW45480   4.834   3.943   4.753 -0.1815 -0.3828 -0.3890
14731SOL    HW145481   4.822   3.932   4.847  0.9008  0.2097 -0.1655
14731SOL    HW245482   4.758   3.994   4.724 -0.1121  0.1244  0.3066
14732SOL     OW45483   7.590   4.517   8.318 -0.1018 -0.6188 -0.2980
14732SOL    HW145484   7.543   4.481   8.243 -2.3023 -0.1939  0.8001
14732SOL    HW245485   7.646   4.585   8.281  0.2625 -1.6684 -1.7527
14733SOL     OW45486   6.445   4.372   3.357  0.1662  0.3303 -0.0630
14733SOL    HW145487   6.360   4.328   3.361  0.4997 -0.2578  1.3922
14733SOL    HW245488   6.445   4.429   3.434  0.7322  0.9965 -0.5573
14734SOL     OW45489   0.840   3.099   7.608 -0.3754  0.3970 -0.1093
14734SOL    HW145490   0.844   3.029   7.543  1.8538 -0.4034  0.8069
14734SOL    HW245491   0.829   3.179   7.556 -0.1569 -0.3625 -1.3580
14735SOL     OW45492   3.749   5.995   7.951  0.3345  0.0803  0.0229
14735SOL    HW145493   3.720   6.061   8.014  0.7128  0.3351 -0.0624
14735SOL    HW245494   3.708   6.021   7.868  0.6569  0.3388 -0.0591
14736SOL     OW45495   4.542   7.348   3.177 -0.2427 -0.0169 -0.0412
14736SOL    HW145496   4.499   7.418   3.129 -0.3466  1.2582  1.8311
14736SOL    HW245497   4.626   7.385   3.205  0.2437 -1.0573 -0.0600
14737SOL     OW45498   3.907   1.848   3.984 -0.1184  0.2619 -0.1422
14737SOL    HW145499   3.883   1.800   3.905  0.3736 -3.0946  1.5856
14737SOL    HW245500   3.988   1.894   3.960  0.4512 -1.3065 -1.3824
14738SOL     OW45501   0.159   4.509   0.156  0.3081  0.1149 -0.3711
14738SOL    HW145502   0.251   4.483   0.163  0.7884  1.6634 -0.4333
14738SOL    HW245503   0.134   4.533   0.246  0.0386 -0.0893 -0.3915
14739SOL     OW45504   8.453   7.181   6.159  0.3747  0.2087  0.1121
14739SOL    HW145505   8.518   7.114   6.135 -0.3867  0.3893 -2.9137
14739SOL    HW245506   8.375   7.157   6.109 -0.0391  3.0743 -0.7960
14740SOL     OW45507   3.874   4.242   0.043  0.2038  0.2734  0.6010
14740SOL    HW145508   3.959   4.209   0.072  0.5750 -0.4218 -1.1486
14740SOL    HW245509   3.813   4.169   0.058  0.4918 -0.2629 -0.7762
14741SOL     OW45510   2.418   2.766   0.493  0.2135  0.4047  0.0887
14741SOL    HW145511   2.507   2.800   0.494  0.3566  0.0485 -0.2620
14741SOL    HW245512   2.428   2.674   0.468 -0.4041  0.8265 -1.8771
14742SOL     OW45513   2.344   4.528   2.250  0.0641 -0.2495 -0.6776
14742SOL    HW145514   2.390   4.488   2.324 -0.9338 -1.1724 -0.5330
14742SOL    HW245515   2.397   4.605   2.228  1.5751 -1.1856 -0.4316
14743SOL     OW45516   7.557   0.366   2.370 -0.3890 -0.7589  0.4431
14743SOL    HW145517   7.561   0.353   2.465  0.1447 -1.1367  0.3719
14743SOL    HW245518   7.582   0.458   2.358 -1.2406 -0.4800  0.7230
14744SOL     OW45519   5.581   6.449   0.164  0.6044  0.3232 -0.2198
14744SOL    HW145520   5.528   6.370   0.153  0.3994 -0.0074  2.4665
14744SOL    HW245521   5.553   6.485   0.249  2.6340  1.7569 -0.0918
14745SOL     OW45522   4.348   8.583   8.499  0.5724 -0.3578 -0.6677
14745SOL    HW145523   4.279   8.539   8.450  0.0693 -0.5280  0.1784
14745SOL    HW245524   4.397   8.511   8.540  0.8296 -0.2070 -0.7096
14746SOL     OW45525   2.937   6.073   0.510  0.0886  0.2239 -0.2107
14746SOL    HW145526   2.890   6.021   0.445  0.5752  0.8206 -1.0546
14746SOL    HW245527   2.884   6.151   0.523 -0.8802 -0.6514  1.4060
14747SOL     OW45528   3.003   7.717   6.430 -0.2174 -0.0314 -0.3696
14747SOL    HW145529   2.910   7.720   6.406 -0.5673 -1.2370  0.7018
14747SOL    HW245530   3.049   7.715   6.346 -1.1499  0.4809 -0.9199
14748SOL     OW45531   8.014   5.068   6.216  0.2553  0.3063  0.1057
14748SOL    HW145532   8.031   5.039   6.306 -0.2601 -0.0980  0.0826
14748SOL    HW245533   8.095   5.051   6.169  0.8896  1.5189  0.7362
14749SOL     OW45534   4.458   7.993   8.428  0.2035 -0.0913  0.0946
14749SOL    HW145535   4.387   7.962   8.372 -0.7768  0.0887  1.1992
14749SOL    HW245536   4.535   7.943   8.399 -0.7639 -1.6541  0.0909
14750SOL     OW45537   2.519   4.185   7.893  0.2978 -0.0608 -0.0969
14750SOL    HW145538   2.572   4.263   7.875 -1.8167  1.3285 -0.7904
14750SOL    HW245539   2.519   4.178   7.988  2.2712 -0.5521 -0.0999
14751SOL     OW45540   2.184   3.436   1.947  0.0958 -0.7281 -0.1374
14751SOL    HW145541   2.196   3.402   1.859  1.7685  0.5677 -0.4534
14751SOL    HW245542   2.187   3.359   2.003 -2.1224 -1.7112 -1.2255
14752SOL     OW45543   7.199   6.563   2.966  0.3970 -0.0194 -0.2249
14752SOL    HW145544   7.295   6.563   2.974  0.3604 -0.2894  0.2441
14752SOL    HW245545   7.177   6.475   2.936  0.3679  0.3596 -1.3469
14753SOL     OW45546   3.184   5.234   8.522  0.0268  0.4264  0.4422
14753SOL    HW145547   3.185   5.274   8.609  3.6838 -0.5297  1.0365
14753SOL    HW245548   3.213   5.144   8.537  0.6290  0.2112 -1.7248
14754SOL     OW45549   4.320   2.724   0.453  0.2681 -0.0657 -0.7784
14754SOL    HW145550   4.290   2.741   0.364  0.9870 -1.4589 -1.3064
14754SOL    HW245551   4.300   2.631   0.468  1.8590 -0.3428 -0.1937
14755SOL     OW45552   5.813   2.263   0.658  0.0336 -0.0673 -0.4762
14755SOL    HW145553   5.847   2.308   0.735 -1.5059  1.1892 -0.4722
14755SOL    HW245554   5.863   2.298   0.585  0.3577 -0.0154 -0.2333
14756SOL     OW45555   0.053   5.996   1.116  0.4860 -0.7659  0.0474
14756SOL    HW145556   0.113   5.926   1.139  1.3824 -0.6019 -1.6361
14756SOL    HW245557   0.030   5.980   1.024 -0.8814  0.0171  0.2088
14757SOL     OW45558   6.031   8.295   8.251 -0.3918 -0.1008 -0.0476
14757SOL    HW145559   5.984   8.378   8.262 -0.5591 -0.2733  0.5682
14757SOL    HW245560   5.988   8.235   8.312  1.0054 -0.0997  0.9893
14758SOL     OW45561   5.421   3.325   4.803 -0.0295  0.6284  0.0455
14758SOL    HW145562   5.497   3.352   4.752  1.4886 -1.3109  1.1337
14758SOL    HW245563   5.418   3.230   4.792 -2.7448  0.7024 -0.5115
14759SOL     OW45564   2.239   4.388   6.002 -0.1639 -0.4906 -0.3260
14759SOL    HW145565   2.214   4.384   6.094 -0.8007 -0.5640 -0.5013
14759SOL    HW245566   2.283   4.304   5.986 -0.7961 -0.8368 -0.2969
14760SOL     OW45567   4.885   3.776   3.489 -0.1709 -0.7337  0.4785
14760SOL    HW145568   4.895   3.681   3.481 -1.0740 -0.7067 -1.6452
14760SOL    HW245569   4.825   3.787   3.563  0.4796 -1.7704  1.1840
14761SOL     OW45570   3.018   1.585   3.775 -0.2210 -0.1193  0.6108
14761SOL    HW145571   3.002   1.633   3.856  0.1938 -0.2825  0.7913
14761SOL    HW245572   3.010   1.651   3.706  0.8732  0.3352  0.8949
14762SOL     OW45573   5.699   6.850   3.972  0.1482  0.3153 -0.1819
14762SOL    HW145574   5.763   6.804   4.028  1.2661 -0.1738 -1.7886
14762SOL    HW245575   5.735   6.843   3.884 -3.3349 -2.2434 -1.6392
14763SOL     OW45576   1.677   0.023   3.529 -1.0558  0.8065  0.1751
14763SOL    HW145577   1.610  -0.020   3.475 -0.6757  0.9137 -0.3946
14763SOL    HW245578   1.729   0.074   3.466  0.7362 -0.7452  0.2968
14764SOL     OW45579   4.081   5.127   8.271 -0.0564 -0.1336 -0.4893
14764SOL    HW145580   4.029   5.141   8.350  1.7211  3.4185  0.2207
14764SOL    HW245581   4.151   5.068   8.299  0.4120  0.8912  0.5804
14765SOL     OW45582   5.353   5.205   2.573  0.3399 -0.6526  0.3756
14765SOL    HW145583   5.352   5.199   2.669 -0.4023  0.2627  0.4339
14765SOL    HW245584   5.313   5.289   2.554 -1.0158 -1.5224 -0.8070
14766SOL     OW45585   3.175   4.460   4.127 -0.1134  0.2204 -0.0205
14766SOL    HW145586   3.255   4.513   4.118 -0.4630  0.4263 -2.7514
14766SOL    HW245587   3.112   4.519   4.168  1.1319 -0.0309  2.4442
14767SOL     OW45588   7.483   8.148   7.026  0.0174  0.4515  0.1183
14767SOL    HW145589   7.479   8.232   7.070  1.0928 -0.0285  1.1884
14767SOL    HW245590   7.572   8.143   6.990  0.5154 -0.8418  1.4194
14768SOL     OW45591   5.292   0.354   1.989 -0.0025  0.2530 -0.0245
14768SOL    HW145592   5.373   0.311   2.016  0.7552  1.9093  0.5190
14768SOL    HW245593   5.223   0.291   2.007  1.0825 -0.8559  0.3590
14769SOL     OW45594   7.771   4.340   0.400 -0.0346 -0.0031  0.5051
14769SOL    HW145595   7.721   4.258   0.400 -1.0572  0.6012 -0.2309
14769SOL    HW245596   7.853   4.318   0.444 -0.2629 -1.4375  0.2582
14770SOL     OW45597   1.093   2.655   4.441  0.1575  0.5277  0.5714
14770SOL    HW145598   1.132   2.663   4.354 -1.2483  0.5038 -0.0906
14770SOL    HW245599   1.040   2.575   4.435  0.8162 -0.0171  1.7721
14771SOL     OW45600   1.622   4.086   4.488  0.2756 -0.0306  0.5718
14771SOL    HW145601   1.620   4.017   4.422 -0.6653 -0.1061  0.6689
14771SOL    HW245602   1.667   4.046   4.563 -0.5173 -0.6387  0.7319
14772SOL     OW45603   8.542   7.146   4.955 -0.0566  0.4638 -0.2653
14772SOL    HW145604   8.608   7.116   4.893  0.4257  1.3341 -0.2002
14772SOL    HW245605   8.543   7.242   4.946  0.1439  0.6270  1.1796
14773SOL     OW45606   6.319   3.106   4.517 -0.2133  0.1313 -0.1673
14773SOL    HW145607   6.264   3.117   4.594 -1.4245  1.6202 -1.1886
14773SOL    HW245608   6.282   3.166   4.452  1.6667  0.0161 -1.4246
14774SOL     OW45609   8.274   2.899   2.409  0.3210 -0.6557 -0.3518
14774SOL    HW145610   8.186   2.926   2.385  0.6908 -0.0580 -1.0881
14774SOL    HW245611   8.279   2.914   2.503 -0.3753 -0.7612 -0.2918
14775SOL     OW45612   7.742   4.756   2.007  0.1474 -0.1782  0.0725
14775SOL    HW145613   7.697   4.773   2.090  2.4103  1.6110  1.0252
14775SOL    HW245614   7.772   4.842   1.978  0.2271 -0.8989 -2.1483
14776SOL     OW45615   7.027   1.134   5.628  0.3133  0.2774  0.2463
14776SOL    HW145616   7.015   1.042   5.651 -1.0463  0.6478  1.1092
14776SOL    HW245617   6.982   1.183   5.697 -0.9664  1.5202 -1.3873
14777SOL     OW45618   4.146   4.729   5.826  0.0602 -0.2726  0.5644
14777SOL    HW145619   4.168   4.761   5.738  1.7325 -0.8014  0.7585
14777SOL    HW245620   4.057   4.762   5.842  0.0543  0.5460 -0.9804
14778SOL     OW45621   4.344   1.042   3.335 -0.5108 -0.1667 -0.1379
14778SOL    HW145622   4.311   1.090   3.259  1.2284  0.8231 -0.3177
14778SOL    HW245623   4.344   1.107   3.406  1.6422  0.1151 -0.3220
14779SOL     OW45624   2.947   2.562   4.060  0.0087 -0.1895  0.1637
14779SOL    HW145625   2.901   2.646   4.050  1.7902  1.0362  1.5526
14779SOL    HW245626   2.880   2.501   4.091 -0.6650  1.6666  2.6746
14780SOL     OW45627   0.035   7.515   7.674  0.4679  0.3724 -0.3787
14780SOL    HW145628   0.029   7.611   7.677 -0.4096  0.3088  0.0563
14780SOL    HW245629   0.077   7.491   7.756 -0.3800  0.3137  0.0451
14781SOL     OW45630   5.848   7.328   6.546 -0.2129 -0.1822 -0.2357
14781SOL    HW145631   5.866   7.363   6.633 -0.6621  1.3073 -0.7179
14781SOL    HW245632   5.754   7.309   6.547 -0.4861  1.0415 -0.7796
14782SOL     OW45633   2.204   1.705   0.538 -0.3040  0.2270  0.0123
14782SOL    HW145634   2.194   1.750   0.454 -2.2875  0.4944  0.3278
14782SOL    HW245635   2.144   1.752   0.597  0.8263 -0.1312  1.5109
14783SOL     OW45636   1.811   7.013   8.301 -0.4037 -0.4740 -0.7108
14783SOL    HW145637   1.823   6.924   8.267 -1.6102 -0.3565 -1.5126
14783SOL    HW245638   1.749   7.003   8.373  1.6959 -0.6399  1.1473
14784SOL     OW45639   2.880   2.615   7.243  0.1061  0.4686  0.1341
14784SOL    HW145640   2.904   2.682   7.308  0.5200  0.4353  0.0147
14784SOL    HW245641   2.921   2.644   7.162  1.0661 -0.4092  0.2882
14785SOL     OW45642   3.583   8.244   8.201 -0.4331 -0.3159  0.1545
14785SOL    HW145643   3.576   8.272   8.292  0.6996  1.0405 -0.1272
14785SOL    HW245644   3.589   8.149   8.204 -2.1106 -0.4303  1.3532
14786SOL     OW45645   7.663   1.875   5.604 -0.2906  0.3214  0.1752
14786SOL    HW145646   7.602   1.817   5.560 -0.5079  0.6519  0.0320
14786SOL    HW245647   7.718   1.910   5.534 -0.9632  1.2385  0.0785
14787SOL     OW45648   0.096   2.533   1.362 -0.2205  0.4681 -1.0050
14787SOL    HW145649   0.057   2.565   1.443  0.4697 -0.5756 -0.2310
14787SOL    HW245650   0.030   2.476   1.324 -0.5914  1.0518 -1.2583
14788SOL     OW45651   5.101   7.558   5.745  0.6317 -0.0348  0.6524
14788SOL    HW145652   5.083   7.554   5.651 -1.2612 -0.9567  0.9890
14788SOL    HW245653   5.130   7.470   5.768  1.4617  0.2906  0.8826
14789SOL     OW45654   2.724   4.775   0.355 -0.6230  0.0704 -0.6016
14789SOL    HW145655   2.633   4.796   0.378 -0.7446 -0.2705 -0.7623
14789SOL    HW245656   2.773   4.855   0.376 -0.5976 -0.4363  1.5092
14790SOL     OW45657   6.121   1.870   8.159 -0.1508 -0.1582  0.0872
14790SOL    HW145658   6.119   1.782   8.123 -0.6411 -0.3152  0.4789
14790SOL    HW245659   6.057   1.868   8.231 -1.5920  1.0298 -1.0856
14791SOL     OW45660   5.474   8.552   2.037 -0.0889 -0.1783  0.0541
14791SOL    HW145661   5.539   8.552   1.967  0.0384 -0.0687  0.1705
14791SOL    HW245662   5.401   8.604   2.003 -0.6697 -1.3599 -0.5790
14792SOL     OW45663   1.298   4.274   3.276 -0.2071  0.1471  0.1026
14792SOL    HW145664   1.376   4.224   3.296 -0.3659  0.4848  1.6648
14792SOL    HW245665   1.226   4.213   3.287 -0.2510  0.1497 -0.1582
14793SOL     OW45666   3.644   7.081   6.113 -0.2181 -0.3869 -0.0021
14793SOL    HW145667   3.697   7.001   6.122 -1.0794 -1.0075 -0.3401
14793SOL    HW245668   3.651   7.124   6.198  0.9923 -0.3394 -0.1015
14794SOL     OW45669   1.050   0.567   8.175  0.3006  0.1047 -0.6271
14794SOL    HW145670   1.081   0.616   8.251  1.2293  0.2325 -1.0711
14794SOL    HW245671   1.129   0.546   8.126 -0.2525 -0.2611 -1.3933
14795SOL     OW45672   4.132   7.777   8.157  0.0487 -0.1358  0.9593
14795SOL    HW145673   4.080   7.841   8.207  0.4111  0.5632  0.4633
14795SOL    HW245674   4.088   7.693   8.173 -0.7631  0.3141  1.1847
14796SOL     OW45675   4.524   0.765   0.120 -0.6871 -0.0286 -0.7836
14796SOL    HW145676   4.481   0.838   0.165 -0.3390 -0.3337  0.0533
14796SOL    HW245677   4.499   0.688   0.171  0.5140 -0.2598 -0.5201
14797SOL     OW45678   6.214   1.170   8.576  0.0585  0.0805 -0.2777
14797SOL    HW145679   6.305   1.192   8.598 -0.1066  0.8442 -0.3172
14797SOL    HW245680   6.176   1.145   8.660 -0.1725  1.5541  0.0901
14798SOL     OW45681   2.969   3.239   3.940 -0.2427  0.0855  0.1949
14798SOL    HW145682   2.909   3.282   4.001 -0.5637  2.3296 -1.5979
14798SOL    HW245683   2.917   3.168   3.902 -1.5563  1.4689 -0.7090
14799SOL     OW45684   7.433   0.846   1.417  0.6183  0.2013  0.2760
14799SOL    HW145685   7.488   0.894   1.479  0.9359  0.7270 -0.4026
14799SOL    HW245686   7.447   0.890   1.333 -0.6041  0.1557  0.0323
14800SOL     OW45687   1.381   1.369   2.027 -0.0657 -0.1079  0.4979
14800SOL    HW145688   1.378   1.459   1.994 -0.0070  0.4902  2.0365
14800SOL    HW245689   1.430   1.320   1.961 -0.6672  0.8519 -0.6744
14801SOL     OW45690   7.263   8.163   0.674  0.3932 -0.3147  0.3087
14801SOL    HW145691   7.347   8.137   0.636  0.4767  0.3920 -0.0183
14801SOL    HW245692   7.218   8.081   0.693  1.2660 -0.7054  0.7282
14802SOL     OW45693   6.917   2.312   6.591  0.3478  0.3506  0.2903
14802SOL    HW145694   6.899   2.219   6.580  0.5743  0.4364 -0.8898
14802SOL    HW245695   6.834   2.355   6.570 -0.0012  0.3922  1.6464
14803SOL     OW45696   7.294   3.300   2.199 -0.6756  0.6226 -0.1754
14803SOL    HW145697   7.359   3.230   2.203  1.3780  2.4868  0.7786
14803SOL    HW245698   7.306   3.339   2.112 -0.0596  1.3565  0.2290
14804SOL     OW45699   4.957   1.697   3.873  0.8942  0.3047 -0.4054
14804SOL    HW145700   4.884   1.759   3.865 -0.0680 -0.3842  2.1052
14804SOL    HW245701   5.034   1.747   3.846 -0.0631  2.1019  0.0120
14805SOL     OW45702   5.246   5.845   5.254  0.1876 -0.0246 -0.0195
14805SOL    HW145703   5.229   5.859   5.347  0.0332  1.1252 -0.2018
14805SOL    HW245704   5.166   5.806   5.220 -0.8415  2.1208 -0.1874
14806SOL     OW45705   1.435   7.924   5.327  0.3499  0.3785 -0.5937
14806SOL    HW145706   1.386   7.854   5.285  0.5307 -0.7757  1.0138
14806SOL    HW245707   1.416   8.002   5.275 -1.5527 -0.4316 -1.1841
14807SOL     OW45708   1.573   5.964   8.536 -0.6796  0.0514 -0.6048
14807SOL    HW145709   1.602   5.874   8.524 -1.1279 -0.0338 -1.0868
14807SOL    HW245710   1.546   5.968   8.628  1.3435  0.2931  0.0294
14808SOL     OW45711   2.665   5.013   3.933  0.1017  0.3841  0.5412
14808SOL    HW145712   2.623   5.015   3.847  0.5571  0.7075  0.3218
14808SOL    HW245713   2.612   4.953   3.984 -0.7755  0.9872  0.3450
14809SOL     OW45714   0.208   2.225   2.315  0.7121  0.4699 -0.1067
14809SOL    HW145715   0.193   2.314   2.348 -1.3521  0.5635 -1.1781
14809SOL    HW245716   0.183   2.168   2.387  0.2822  0.7418 -0.0375
14810SOL     OW45717   8.604   6.740   1.908  0.0746  0.4358  0.0206
14810SOL    HW145718   8.679   6.682   1.897 -0.5311 -0.3741  0.0884
14810SOL    HW245719   8.638   6.813   1.959  0.4976 -0.5834  1.2459
14811SOL     OW45720   8.456   6.872   8.674  0.0188  0.3225 -0.5485
14811SOL    HW145721   8.486   6.856   8.584 -1.2861  1.7478 -1.2765
14811SOL    HW245722   8.370   6.832   8.678  0.0102  0.3930  0.0358
14812SOL     OW45723   6.774   6.653   7.000 -0.7015  0.3361 -0.4627
14812SOL    HW145724   6.834   6.693   7.063 -0.9939  1.8168 -1.0708
14812SOL    HW245725   6.740   6.575   7.045 -0.1055  0.7679  0.7895
14813SOL     OW45726   7.980   7.141   5.518  0.1829 -0.0883  0.3674
14813SOL    HW145727   7.994   7.120   5.611  0.0148  1.4713  0.7681
14813SOL    HW245728   8.064   7.176   5.489 -0.7406  2.9083  0.9676
14814SOL     OW45729   4.189   2.456   5.177 -0.5323 -0.5104 -0.2809
14814SOL    HW145730   4.155   2.396   5.110 -0.6632 -2.7193  1.6243
14814SOL    HW245731   4.112   2.505   5.207 -0.9397 -1.2318 -0.1167
14815SOL     OW45732   6.974   0.362   5.900 -0.0507 -0.0300 -0.3703
14815SOL    HW145733   7.028   0.398   5.829  1.9465 -0.3271  0.9329
14815SOL    HW245734   6.968   0.268   5.879 -1.1620  0.1953 -1.1700
14816SOL     OW45735   6.574   2.588   6.978 -0.2906 -0.2114 -0.0121
14816SOL    HW145736   6.497   2.600   6.922  0.4314  1.5163 -0.7281
14816SOL    HW245737   6.648   2.597   6.918  0.4847  0.3219  1.0065
14817SOL     OW45738   4.396   7.448   6.059 -0.0362  0.0322 -0.4581
14817SOL    HW145739   4.368   7.447   6.151 -0.8800 -0.1602 -0.7141
14817SOL    HW245740   4.397   7.541   6.036  1.0136  0.1487 -0.0148
14818SOL     OW45741   6.348   5.042   0.219  0.1677  0.2139 -0.6291
14818SOL    HW145742   6.258   5.050   0.188 -0.0457  2.2762  0.3573
14818SOL    HW245743   6.369   4.950   0.208 -2.1146 -0.3504 -0.7598
14819SOL     OW45744   0.742   8.648   5.112 -0.3065 -0.1418 -0.2758
14819SOL    HW145745   0.810   8.580   5.112 -0.1507 -0.0120 -1.9189
14819SOL    HW245746   0.662   8.602   5.086 -0.2731  0.2396 -1.0570
14820SOL     OW45747   3.065   5.864   5.058 -0.2432 -0.2153 -0.1275
14820SOL    HW145748   3.042   5.772   5.073  0.3685 -0.8146 -2.4622
14820SOL    HW245749   3.157   5.862   5.031 -0.4562  0.9923 -1.0280
14821SOL     OW45750   5.117   5.004   8.133 -0.1457  0.0899  0.5054
14821SOL    HW145751   5.140   4.957   8.213  1.7122 -0.5729 -0.3573
14821SOL    HW245752   5.040   4.958   8.100 -0.8187  0.2629  1.8055
14822SOL     OW45753   2.184   1.192   1.536 -0.2986  0.6020 -0.6827
14822SOL    HW145754   2.128   1.125   1.497 -0.5833  0.5317 -0.1643
14822SOL    HW245755   2.203   1.159   1.624  1.2713  0.2173 -1.1404
14823SOL     OW45756   6.708   3.794   8.271 -0.0203  0.1918 -0.8958
14823SOL    HW145757   6.800   3.769   8.264 -0.1602 -0.3761 -0.7098
14823SOL    HW245758   6.710   3.889   8.283  0.6512 -0.0216  1.2017
14824SOL     OW45759   7.089   5.974   1.007  0.6191  0.2846  0.2569
14824SOL    HW145760   7.060   6.063   0.986 -1.2645 -0.2386  0.4621
14824SOL    HW245761   7.095   5.973   1.102 -3.0680 -0.7347  0.6648
14825SOL     OW45762   0.311   1.394   1.998  0.0924  0.3017 -0.0019
14825SOL    HW145763   0.260   1.447   2.060  0.3625  0.2594  0.2630
14825SOL    HW245764   0.252   1.325   1.971 -0.3672  0.9068 -0.5872
14826SOL     OW45765   3.583   8.262   4.738  0.1829 -0.1364  0.0748
14826SOL    HW145766   3.606   8.221   4.821  2.7012  0.8436 -0.0630
14826SOL    HW245767   3.658   8.245   4.681 -0.0428  1.9679 -0.9461
14827SOL     OW45768   2.633   2.984   5.173  0.4632  0.2300  0.3360
14827SOL    HW145769   2.616   2.980   5.267  0.8240 -1.7330  0.3607
14827SOL    HW245770   2.569   3.047   5.140  0.7564  1.4600  1.9566
14828SOL     OW45771   0.989   4.476   2.429 -0.1008 -0.4455 -0.8326
14828SOL    HW145772   1.033   4.561   2.424 -2.2041  0.7290 -0.6487
14828SOL    HW245773   1.023   4.436   2.509  0.8159  0.2637 -0.8467
14829SOL     OW45774   0.158   4.811   7.864  0.2769 -0.0942 -0.1398
14829SOL    HW145775   0.174   4.889   7.916  0.3127  0.2782 -0.6973
14829SOL    HW245776   0.077   4.830   7.817 -0.4987 -0.9707  0.7900
14830SOL     OW45777   1.775   0.099   6.214  0.2597 -0.2561 -0.8727
14830SOL    HW145778   1.825   0.180   6.224  0.2398 -0.4776  1.5060
14830SOL    HW245779   1.683   0.127   6.216  0.2106 -0.3600  1.2674
14831SOL     OW45780   0.194   2.232   6.663  0.2516  0.1434 -0.3970
14831SOL    HW145781   0.185   2.294   6.735  1.4369 -1.4179  1.1794
14831SOL    HW245782   0.213   2.148   6.705  0.9731 -0.8419 -2.5171
14832SOL     OW45783   5.896   8.141   7.656 -0.0699  0.3481  0.5519
14832SOL    HW145784   5.801   8.135   7.662  0.0335 -1.3631  0.9315
14832SOL    HW245785   5.922   8.065   7.605  1.1581  0.2881  1.2159
14833SOL     OW45786   5.672   6.540   5.009  0.4438  0.2187  0.1314
14833SOL    HW145787   5.767   6.537   4.998  0.4757 -1.3103  0.5706
14833SOL    HW245788   5.637   6.527   4.921  0.6693 -1.3756  0.2524
14834SOL     OW45789   4.088   5.432   8.681 -0.2583 -0.1466 -0.1100
14834SOL    HW145790   4.032   5.508   8.696 -1.1211 -0.8575  0.3942
14834SOL    HW245791   4.033   5.371   8.632  0.6269 -0.2126 -1.0576
14835SOL     OW45792   4.471   3.254   5.575 -0.3779  0.5235  0.5043
14835SOL    HW145793   4.422   3.275   5.496 -0.1712  0.0202  0.2371
14835SOL    HW245794   4.438   3.315   5.641 -0.9429  0.5834  0.1735
14836SOL     OW45795   5.373   1.084   2.658 -0.6771  0.1013 -0.1742
14836SOL    HW145796   5.322   1.151   2.703  0.7629  0.2474  1.3542
14836SOL    HW245797   5.414   1.034   2.729 -0.6227 -1.5311 -1.3062
14837SOL     OW45798   6.478   0.888   1.987  0.0016  0.7095 -0.0236
14837SOL    HW145799   6.540   0.821   2.015  0.3752  0.6606 -0.9371
14837SOL    HW245800   6.404   0.880   2.048  0.2267 -0.2478  0.1335
14838SOL     OW45801   2.768   2.864   1.814 -0.4478  0.4505  1.0606
14838SOL    HW145802   2.696   2.877   1.752 -0.0204 -0.8668  0.2397
14838SOL    HW245803   2.803   2.951   1.829  0.8692  0.6754 -2.3736
14839SOL     OW45804   1.937   1.401   2.333  0.1359  0.2274 -0.3675
14839SOL    HW145805   1.983   1.471   2.379  3.0190 -2.3577  1.0428
14839SOL    HW245806   1.919   1.437   2.246 -0.2476  3.2650  0.8403
14840SOL     OW45807   5.269   5.935   6.774 -0.0872  0.2621 -0.4906
14840SOL    HW145808   5.350   5.919   6.822 -1.6249 -1.2927  1.8102
14840SOL    HW245809   5.281   5.891   6.690  1.6404  0.5726 -0.4363
14841SOL     OW45810   4.606   5.773   3.191  0.2068  0.5254 -0.2638
14841SOL    HW145811   4.556   5.852   3.171  2.0123  1.5719 -0.8400
14841SOL    HW245812   4.641   5.787   3.279  0.5988  0.4105 -0.3978
14842SOL     OW45813   5.288   2.863   5.584 -0.0860 -0.4342  0.6467
14842SOL    HW145814   5.371   2.839   5.625  0.7956 -0.3993 -1.0083
14842SOL    HW245815   5.252   2.780   5.551 -0.5982 -0.4149  1.1377
14843SOL     OW45816   4.835   8.594   2.789 -0.0739  0.0146  0.5273
14843SOL    HW145817   4.796   8.634   2.712  0.2842 -1.6275 -0.5441
14843SOL    HW245818   4.927   8.622   2.788  0.5465 -1.8613 -1.0255
14844SOL     OW45819   4.845   8.216   2.114  0.3838  0.4840  0.8781
14844SOL    HW145820   4.755   8.238   2.136 -0.5598 -1.4033 -0.7556
14844SOL    HW245821   4.879   8.172   2.192 -1.0027 -1.0699  0.6644
14845SOL     OW45822   0.336   0.719   7.354 -0.4363 -0.0908 -0.5023
14845SOL    HW145823   0.383   0.796   7.321  1.3916 -0.9191  0.0304
14845SOL    HW245824   0.347   0.653   7.286  0.8054 -0.8622  0.3902
14846SOL     OW45825   1.777   1.742   6.747 -0.4994  0.3370 -0.0881
14846SOL    HW145826   1.817   1.748   6.661 -2.1707 -1.8733 -1.1028
14846SOL    HW245827   1.849   1.719   6.806  0.4763  0.8640 -1.0526
14847SOL     OW45828   3.231   2.012   1.362 -0.2292 -0.3859  0.0788
14847SOL    HW145829   3.277   2.037   1.442  0.4742 -2.3278  0.3452
14847SOL    HW245830   3.225   2.093   1.312  0.6890  0.5661  1.4291
14848SOL     OW45831   8.643   1.290   0.407  0.2770 -0.0580 -0.2833
14848SOL    HW145832   8.602   1.219   0.357  1.7409 -0.3281 -1.1626
14848SOL    HW245833   8.661   1.252   0.493 -0.2180 -0.3009 -0.2819
14849SOL     OW45834   2.024   1.760   7.774  0.1452  0.5615 -0.3697
14849SOL    HW145835   2.117   1.779   7.761  0.0549 -0.2070 -2.4394
14849SOL    HW245836   2.018   1.665   7.772 -1.0689  0.5687 -4.1293
14850SOL     OW45837   8.507   1.990   3.232 -0.8008  0.1419 -0.5303
14850SOL    HW145838   8.577   1.994   3.167 -2.0664 -0.9536 -2.0471
14850SOL    HW245839   8.506   1.898   3.261 -2.7525 -0.3401 -1.9314
14851SOL     OW45840   6.426   0.171   3.278  0.3417  0.2387  0.8939
14851SOL    HW145841   6.371   0.101   3.243  1.9966 -0.3386 -0.7572
14851SOL    HW245842   6.430   0.154   3.372  0.7962 -2.0030  0.5196
14852SOL     OW45843   7.427   1.349   1.189 -0.3301  0.8799  0.6164
14852SOL    HW145844   7.381   1.322   1.268  0.2973  3.2220  1.8882
14852SOL    HW245845   7.471   1.270   1.158 -0.3393 -0.0258  2.7757
14853SOL     OW45846   6.780   5.730   0.862 -0.0905  0.3283  0.0310
14853SOL    HW145847   6.734   5.647   0.843 -2.3476  1.2347  1.2074
14853SOL    HW245848   6.722   5.776   0.923  1.4032  2.5266 -0.1141
14854SOL     OW45849   4.240   8.269   7.362 -0.2897  0.0015  0.2490
14854SOL    HW145850   4.238   8.328   7.438 -0.3566  0.3317 -0.0089
14854SOL    HW245851   4.229   8.182   7.399 -0.5501  0.1821  0.5971
14855SOL     OW45852   2.098   5.687   4.138 -0.2470 -0.5437 -0.8736
14855SOL    HW145853   2.164   5.755   4.150 -0.7030  0.5851 -3.8877
14855SOL    HW245854   2.146   5.605   4.149  0.5823  0.1856  1.5572
14856SOL     OW45855   1.460   5.791   5.457 -0.7628 -0.3342  0.2507
14856SOL    HW145856   1.413   5.865   5.420 -0.1110 -0.9413 -1.8866
14856SOL    HW245857   1.542   5.828   5.490 -1.4631  0.2524  1.3993
14857SOL     OW45858   5.797   4.679   3.063  0.3856 -0.4308  0.6191
14857SOL    HW145859   5.762   4.769   3.068  0.2327 -0.4941  0.6992
14857SOL    HW245860   5.879   4.688   3.016 -0.7705 -0.5624 -1.5668
14858SOL     OW45861   4.057   5.182   7.980 -0.0837 -0.4833  0.1394
14858SOL    HW145862   3.990   5.235   8.024  0.1631  1.4110 -1.5907
14858SOL    HW245863   4.117   5.156   8.049 -0.7428  0.7544  1.2193
14859SOL     OW45864   3.226   0.343   4.447  0.0180  0.6116  0.4984
14859SOL    HW145865   3.141   0.303   4.426  0.7306 -0.8848  0.3151
14859SOL    HW245866   3.255   0.296   4.525  0.4315  1.5140  0.8967
14860SOL     OW45867   5.028   2.722   7.877  0.3246 -0.2978  0.5812
14860SOL    HW145868   4.958   2.772   7.920  0.5613 -0.8403  1.6085
14860SOL    HW245869   4.988   2.638   7.855 -0.2912  0.5270 -1.8011
14861SOL     OW45870   1.146   6.542   7.688  0.2085  0.4384 -0.0165
14861SOL    HW145871   1.235   6.507   7.681  0.4493  0.3539  2.4371
14861SOL    HW245872   1.147   6.623   7.637  1.7374  0.5122  0.1042
14862SOL     OW45873   5.680   6.994   2.619 -0.0607 -0.7528 -0.0631
14862SOL    HW145874   5.637   6.915   2.584 -1.2195 -1.2214  2.2138
14862SOL    HW245875   5.705   7.043   2.542  1.5887 -3.7716 -1.6386
14863SOL     OW45876   4.884   4.304   4.845  0.6270 -0.0771  0.5166
14863SOL    HW145877   4.895   4.233   4.908 -1.6766 -0.6030  0.3838
14863SOL    HW245878   4.847   4.376   4.896 -2.5248 -0.9373 -0.3438
14864SOL     OW45879   3.896   3.053   0.417  0.1298 -0.4228  0.2008
14864SOL    HW145880   3.853   2.986   0.363 -1.7513 -0.2378  1.3859
14864SOL    HW245881   3.887   3.134   0.367  0.1217 -0.5877 -0.0684
14865SOL     OW45882   1.174   1.458   4.890  0.1928 -0.2085  0.6316
14865SOL    HW145883   1.092   1.413   4.909  0.9829 -1.7219  0.6222
14865SOL    HW245884   1.231   1.437   4.965  1.2180 -0.8688 -0.2992
14866SOL     OW45885   6.437   7.271   0.762 -0.0054  0.1491 -0.0358
14866SOL    HW145886   6.414   7.300   0.851 -0.7590 -0.4144 -0.0362
14866SOL    HW245887   6.437   7.352   0.710  0.3579  0.4715  0.4527
14867SOL     OW45888   6.488   7.488   2.979 -0.4897 -0.4883  0.4647
14867SOL    HW145889   6.419   7.513   2.917  2.3029  0.0145 -2.7051
14867SOL    HW245890   6.509   7.570   3.025  0.6457  0.3871 -1.4828
14868SOL     OW45891   1.124   1.331   5.414 -0.2454 -0.1357 -0.3844
14868SOL    HW145892   1.217   1.333   5.437 -0.1089  1.0682 -0.9614
14868SOL    HW245893   1.113   1.248   5.367  0.3959 -0.5792  0.2347
14869SOL     OW45894   8.695   6.976   6.511  0.7465 -0.6014  0.5445
14869SOL    HW145895   8.769   7.004   6.458  0.2060 -0.4274 -0.1314
14869SOL    HW245896   8.625   7.037   6.490 -0.8138 -2.9668 -1.7950
14870SOL     OW45897   5.321   4.462   0.218  0.7367  0.0866  0.7687
14870SOL    HW145898   5.264   4.415   0.278  0.0550  1.9314  1.6371
14870SOL    HW245899   5.407   4.421   0.229 -0.1737 -2.2250  0.0028
14871SOL     OW45900   3.151   1.114   5.965 -0.5693 -0.1688  0.1934
14871SOL    HW145901   3.212   1.143   5.897  2.9240  0.7204  3.3837
14871SOL    HW245902   3.141   1.190   6.022 -3.2820 -0.9092  0.8237
14872SOL     OW45903   7.504   5.074   6.974 -0.0161 -0.5993 -0.4591
14872SOL    HW145904   7.590   5.088   7.015 -0.2718 -0.1082 -0.0717
14872SOL    HW245905   7.450   5.036   7.044 -0.4903  0.3534 -0.2856
14873SOL     OW45906   1.450   4.207   0.852  0.2135 -0.1017  0.3083
14873SOL    HW145907   1.371   4.244   0.813 -0.1538 -1.0319  0.1617
14873SOL    HW245908   1.436   4.214   0.946 -0.4043 -0.9898  0.2936
14874SOL     OW45909   6.980   4.581   6.330 -0.3182  0.6705  0.2240
14874SOL    HW145910   7.003   4.516   6.264  2.7866  0.2718  1.4942
14874SOL    HW245911   7.065   4.613   6.362 -1.7133  3.5991  1.3492
14875SOL     OW45912   2.636   2.192   3.289 -0.5576 -0.0244  0.4966
14875SOL    HW145913   2.681   2.275   3.298 -0.8874  0.2502 -0.2855
14875SOL    HW245914   2.572   2.206   3.219  2.6486 -2.2944 -3.3038
14876SOL     OW45915   7.276   6.273   2.186  0.1526 -0.7086 -0.5963
14876SOL    HW145916   7.248   6.182   2.190 -1.2353 -0.3714 -2.0154
14876SOL    HW245917   7.356   6.275   2.240 -0.4744 -2.4750  0.4999
14877SOL     OW45918   8.041   6.331   2.890  0.1531  0.1633  0.1616
14877SOL    HW145919   8.006   6.369   2.970  0.1393 -0.8617  0.6544
14877SOL    HW245920   7.966   6.287   2.850  0.0326  1.1148 -0.7008
14878SOL     OW45921   4.400   0.384   3.218  0.4011 -0.1367 -0.2442
14878SOL    HW145922   4.427   0.395   3.310  1.5778 -0.2775 -0.5561
14878SOL    HW245923   4.462   0.320   3.183 -0.3207 -0.4175 -1.0265
14879SOL     OW45924   5.051   7.063   3.581  0.2414 -0.1574 -0.4921
14879SOL    HW145925   4.971   7.114   3.593  1.2629  1.7737 -1.3953
14879SOL    HW245926   5.121   7.129   3.580  2.0403 -1.8732  1.7276
14880SOL     OW45927   3.016   8.460   3.568  0.3985  0.3194 -0.2890
14880SOL    HW145928   3.108   8.480   3.551  0.8786  0.4535  2.1331
14880SOL    HW245929   2.978   8.542   3.598 -0.2001 -0.0465 -0.0150
14881SOL     OW45930   6.145   0.136   6.391 -0.4238  0.0560 -0.4890
14881SOL    HW145931   6.199   0.148   6.313 -0.5234 -0.3715 -0.6262
14881SOL    HW245932   6.198   0.081   6.449 -0.1346  0.8041 -0.0335
14882SOL     OW45933   5.722   7.510   2.843 -0.2883 -0.1355 -0.3152
14882SOL    HW145934   5.760   7.576   2.785 -0.6982  0.7223  0.3553
14882SOL    HW245935   5.797   7.477   2.893 -0.0683 -0.2125 -0.6974
14883SOL     OW45936   6.426   3.571   4.430 -0.4404 -0.2047  0.3061
14883SOL    HW145937   6.477   3.494   4.453 -0.8532 -0.3297  0.8186
14883SOL    HW245938   6.403   3.611   4.513 -0.7550  0.1292  0.0645
14884SOL     OW45939   0.098   3.212   0.766 -0.2321 -0.1940  0.0217
14884SOL    HW145940   0.075   3.203   0.858 -0.9831 -1.8342 -0.2868
14884SOL    HW245941   0.014   3.228   0.722  0.1152  0.5508 -0.3994
14885SOL     OW45942   4.262   6.079   0.043  0.7625 -0.4064  0.3703
14885SOL    HW145943   4.291   6.053  -0.044 -0.9118 -0.7008 -0.1194
14885SOL    HW245944   4.263   6.175   0.041  1.8815 -0.3959  0.4583
14886SOL     OW45945   8.126   0.367   7.061  0.2995  0.2213  0.3316
14886SOL    HW145946   8.091   0.363   7.150 -0.3102  0.3909  0.1051
14886SOL    HW245947   8.219   0.386   7.072  0.6427 -1.6041  0.9981
14887SOL     OW45948   7.711   1.340   8.353  0.3266  0.0110  0.1966
14887SOL    HW145949   7.655   1.291   8.293 -1.0030  1.6164  0.0551
14887SOL    HW245950   7.747   1.273   8.412 -2.0324 -1.0719  0.5285
14888SOL     OW45951   0.651   5.007   4.722  0.6050 -0.3520 -0.2880
14888SOL    HW145952   0.626   4.916   4.708 -2.6503  0.5019 -0.9818
14888SOL    HW245953   0.590   5.039   4.789  0.1260  1.8406 -1.6458
14889SOL     OW45954   4.205   3.566   2.382  0.6972  0.1449  0.2709
14889SOL    HW145955   4.242   3.535   2.299 -0.4376 -2.2225  0.5513
14889SOL    HW245956   4.254   3.519   2.449 -0.2419 -0.1551  0.7784
14890SOL     OW45957   8.687   3.717   1.015  0.1938  0.4457 -0.1771
14890SOL    HW145958   8.640   3.731   1.097  0.3314 -1.7284  0.3439
14890SOL    HW245959   8.779   3.724   1.038  0.2535 -0.7753  0.0274
14891SOL     OW45960   3.106   5.894   4.275 -0.1761 -0.5354  0.2967
14891SOL    HW145961   3.112   5.872   4.182 -1.0219 -0.0899  0.1275
14891SOL    HW245962   3.111   5.990   4.277 -1.1975 -0.4847  0.6136
14892SOL     OW45963   8.211   0.997   0.163 -0.7917 -0.1513 -0.0904
14892SOL    HW145964   8.193   0.912   0.124 -1.4196 -0.4573  0.8556
14892SOL    HW245965   8.132   1.018   0.213 -0.1652  0.4283  0.6746
14893SOL     OW45966   0.299   1.010   3.486 -0.1406 -0.1806  0.1402
14893SOL    HW145967   0.232   1.042   3.547  0.0594 -1.1357  0.8758
14893SOL    HW245968   0.305   0.916   3.503  1.2117 -0.1524 -0.0839
14894SOL     OW45969   1.346   2.597   2.370 -0.1699  0.1016 -0.1351
14894SOL    HW145970   1.315   2.575   2.458  1.0952 -0.7762  0.1226
14894SOL    HW245971   1.347   2.693   2.368 -4.4135  0.2838 -0.7779
14895SOL     OW45972   3.914   7.568   8.223 -0.3814 -0.6323 -0.0897
14895SOL    HW145973   3.962   7.486   8.231  1.0163  0.1801  0.0832
14895SOL    HW245974   3.825   7.547   8.252 -0.0184 -2.0460  0.0476
14896SOL     OW45975   5.945   0.604   7.482  0.0070 -0.8373  0.4053
14896SOL    HW145976   5.894   0.522   7.480 -0.1831 -0.7186  0.3477
14896SOL    HW245977   6.036   0.575   7.478 -0.0312 -1.0862  1.0858
14897SOL     OW45978   0.106   5.106   4.793  0.6581  0.1578  0.0903
14897SOL    HW145979   0.051   5.069   4.724  0.9437 -1.2573  0.5808
14897SOL    HW245980   0.178   5.147   4.747 -0.1225  0.8927 -0.5089
14898SOL     OW45981   7.870   4.402   2.307  0.2365  0.3105  0.2935
14898SOL    HW145982   7.920   4.321   2.316 -1.3377 -0.8791 -1.1052
14898SOL    HW245983   7.823   4.410   2.391  0.2889 -0.2904  0.3816
14899SOL     OW45984   2.965   8.567   0.063 -0.0992  0.0396 -0.1509
14899SOL    HW145985   2.958   8.660   0.081  0.1907  0.5310 -2.2964
14899SOL    HW245986   3.057   8.546   0.084  0.9811  1.1785 -3.2255
14900SOL     OW45987   3.896   2.795   7.664 -0.2584 -0.0063  0.3072
14900SOL    HW145988   3.907   2.766   7.574 -0.4355 -1.1459  0.6399
14900SOL    HW245989   3.879   2.715   7.714 -0.8870  0.6764  1.2404
14901SOL     OW45990   5.595   1.783   0.895 -0.0683 -0.0334 -0.1634
14901SOL    HW145991   5.621   1.842   0.824 -1.7984  3.1768  1.6584
14901SOL    HW245992   5.525   1.730   0.857 -1.1059  1.7616 -0.9121
14902SOL     OW45993   2.409   3.971   0.685 -0.4288 -0.4977  0.3281
14902SOL    HW145994   2.415   3.952   0.779 -2.0467 -3.3542 -0.0237
14902SOL    HW245995   2.334   4.030   0.678 -0.1530 -0.0696  0.8076
14903SOL     OW45996   3.530   2.817   1.031  0.2830  0.2218 -0.1785
14903SOL    HW145997   3.514   2.903   0.991  1.7072 -0.2000 -1.7803
14903SOL    HW245998   3.519   2.755   0.960  2.1015 -0.6423  0.2319
14904SOL     OW45999   2.440   0.039   2.027  0.0479 -0.0680 -0.5906
14904SOL    HW146000   2.348   0.066   2.035  0.6333  2.3145 -0.9294
14904SOL    HW246001   2.448  -0.036   2.085 -2.4054 -1.2107 -1.5714
14905SOL     OW46002   1.698   3.389   2.759  0.0014 -0.0069 -0.0093
14905SOL    HW146003   1.681   3.296   2.772 -0.4507  0.1032  0.2029
14905SOL    HW246004   1.624   3.420   2.707 -0.0065  0.2962  0.1802
14906SOL     OW46005   1.364   8.333   3.713 -0.0608  0.2909 -0.8042
14906SOL    HW146006   1.320   8.412   3.744 -0.0696 -0.2095  0.5486
14906SOL    HW246007   1.354   8.335   3.618  0.3011  2.1293 -0.8440
14907SOL     OW46008   4.402   4.078   0.394  0.0981 -0.2223 -0.3192
14907SOL    HW146009   4.337   4.148   0.401 -1.4469 -1.5925 -0.4773
14907SOL    HW246010   4.358   4.010   0.343  1.1713 -1.7367  0.7273
14908SOL     OW46011   4.755   8.611   6.756 -0.0821 -0.6773  0.3194
14908SOL    HW146012   4.806   8.656   6.822  1.5242 -2.0162  0.0594
14908SOL    HW246013   4.799   8.631   6.673  0.3550 -2.2207  0.1429
14909SOL     OW46014   1.267   7.169   0.542  0.2731 -0.2589 -0.1189
14909SOL    HW146015   1.310   7.084   0.533  0.8402 -0.0414  0.4087
14909SOL    HW246016   1.337   7.232   0.526  0.2131  0.1072  0.9756
14910SOL     OW46017   3.999   1.996   6.794 -0.6774 -0.3353 -0.2002
14910SOL    HW146018   4.092   1.979   6.781 -0.7479  0.0249 -1.2106
14910SOL    HW246019   3.996   2.079   6.841 -0.5180  1.4396 -3.0931
14911SOL     OW46020   5.956   3.523   0.614  0.3261 -0.3964  0.6785
14911SOL    HW146021   5.868   3.537   0.580  0.0832 -1.5949  0.7666
14911SOL    HW246022   5.977   3.433   0.588  1.9926  0.2579 -0.3876
14912SOL     OW46023   7.341   6.427   4.480  0.4882  0.3622 -0.0947
14912SOL    HW146024   7.323   6.373   4.557 -0.4381 -0.4657 -0.8618
14912SOL    HW246025   7.376   6.509   4.515 -1.7455  0.7675  1.3459
14913SOL     OW46026   2.389   0.096   3.688 -0.5229 -0.2733 -0.2934
14913SOL    HW146027   2.376   0.191   3.693  2.6566  0.4316 -2.3562
14913SOL    HW246028   2.365   0.073   3.598 -1.7902 -1.6263  0.3325
14914SOL     OW46029   5.824   7.858   2.042 -0.1243  0.3563 -0.4031
14914SOL    HW146030   5.870   7.930   2.086  2.0639  0.6890 -2.9553
14914SOL    HW246031   5.817   7.887   1.951 -1.5718 -1.6058 -0.9846
14915SOL     OW46032   2.333   8.687   0.294  0.5633  0.5557 -0.0091
14915SOL    HW146033   2.333   8.782   0.293 -0.7443  0.5920 -1.9422
14915SOL    HW246034   2.247   8.662   0.326  0.9785 -0.0081  0.7246
14916SOL     OW46035   7.657   5.845   0.999 -0.1346 -0.1401 -0.2397
14916SOL    HW146036   7.593   5.795   0.949 -0.7253  1.1181 -0.7909
14916SOL    HW246037   7.706   5.894   0.933  0.6960 -0.2915  0.2561
14917SOL     OW46038   1.814   7.733   3.123 -0.1764 -0.1387 -0.3528
14917SOL    HW146039   1.758   7.717   3.199 -1.1675  0.3907 -0.9537
14917SOL    HW246040   1.761   7.706   3.048  0.5213  0.0058 -0.9101
14918SOL     OW46041   1.125   8.193   4.552 -0.6025  0.6729 -0.3021
14918SOL    HW146042   1.123   8.285   4.578  0.3728  0.7252 -0.3680
14918SOL    HW246043   1.038   8.177   4.516 -1.6784  0.8731  2.0033
14919SOL     OW46044   0.852   7.225   6.736 -0.2452 -0.9134 -0.6833
14919SOL    HW146045   0.944   7.211   6.759 -0.7441 -1.8528  0.9321
14919SOL    HW246046   0.855   7.267   6.650  1.6762 -1.2229 -0.8222
14920SOL     OW46047   3.391   3.116   2.570  0.0381  0.3620 -0.2093
14920SOL    HW146048   3.373   3.189   2.511 -1.4866 -0.0838 -0.3419
14920SOL    HW246049   3.433   3.156   2.646  2.2406  0.9302 -1.6189
14921SOL     OW46050   1.199   6.546   0.643 -0.2115 -0.5764  0.1439
14921SOL    HW146051   1.263   6.610   0.677  0.0664 -1.3865  1.2203
14921SOL    HW246052   1.217   6.542   0.549 -1.2458  2.0309 -0.2733
14922SOL     OW46053   1.388   8.157   0.743  0.1845 -0.2327  0.4127
14922SOL    HW146054   1.370   8.249   0.722  0.4872 -0.3836 -0.5803
14922SOL    HW246055   1.303   8.122   0.769 -0.1539  0.0627 -0.2716
14923SOL     OW46056   7.524   3.995   4.743  0.5639  0.1855 -0.3412
14923SOL    HW146057   7.528   4.074   4.797  0.9934  0.6269 -0.9979
14923SOL    HW246058   7.444   3.951   4.771  0.3351  0.8371  0.0598
14924SOL     OW46059   2.245   2.333   7.661 -0.1249  0.1189 -0.4210
14924SOL    HW146060   2.328   2.379   7.670  0.0535 -0.0771 -1.0041
14924SOL    HW246061   2.182   2.400   7.634 -0.1822  0.2870  0.1231
14925SOL     OW46062   6.069   5.273   6.272 -0.1884 -0.4077 -0.3739
14925SOL    HW146063   6.006   5.308   6.335  0.7464  0.5395  0.0611
14925SOL    HW246064   6.129   5.220   6.325 -0.6718 -1.3992 -0.8031
14926SOL     OW46065   0.235   4.420   8.426 -0.2135  0.1130  0.1311
14926SOL    HW146066   0.314   4.389   8.382 -1.2710 -1.3714 -0.8285
14926SOL    HW246067   0.176   4.444   8.355 -0.8179  0.7380  0.8232
14927SOL     OW46068   1.050   0.220   1.575 -0.0745  0.0509 -0.0868
14927SOL    HW146069   1.099   0.276   1.635 -1.1016  0.9764 -0.0833
14927SOL    HW246070   1.076   0.249   1.488 -2.0351  1.9582 -0.1356
14928SOL     OW46071   6.075   3.304   0.267  0.0457 -0.4642 -0.1511
14928SOL    HW146072   6.043   3.272   0.183 -1.3403 -1.1063  0.5973
14928SOL    HW246073   6.021   3.261   0.332 -0.4287  1.7298  1.0068
14929SOL     OW46074   1.667   1.850   7.207 -0.5379  0.2584  0.7645
14929SOL    HW146075   1.571   1.849   7.210 -0.5849 -0.1366 -0.3534
14929SOL    HW246076   1.687   1.847   7.114  0.5862 -3.6554  0.9486
14930SOL     OW46077   4.743   7.279   2.502  0.2319  0.6027  0.3538
14930SOL    HW146078   4.760   7.189   2.474 -1.7376 -0.2612  1.7437
14930SOL    HW246079   4.724   7.326   2.421 -1.6263 -0.9546 -0.1997
14931SOL     OW46080   2.693   7.226   4.798  0.0109  0.0909 -0.3647
14931SOL    HW146081   2.622   7.177   4.757 -0.7602 -1.0678  2.1590
14931SOL    HW246082   2.688   7.314   4.759 -1.0126 -0.7506 -2.2294
14932SOL     OW46083   4.271   2.793   0.197 -0.3386 -0.4084  0.6091
14932SOL    HW146084   4.358   2.761   0.172  0.1816  0.6458  0.9911
14932SOL    HW246085   4.215   2.769   0.123  0.1090 -1.7444  0.6727
14933SOL     OW46086   3.061   3.910   3.153 -0.4491  0.4020  0.6364
14933SOL    HW146087   2.974   3.945   3.173 -0.4757  0.4296  0.4675
14933SOL    HW246088   3.113   3.931   3.230 -0.3248  1.2702  0.3207
14934SOL     OW46089   6.076   4.965   5.565  0.2781  0.1218  0.1979
14934SOL    HW146090   6.016   4.998   5.497  0.7579  1.3893  0.3684
14934SOL    HW246091   6.118   5.043   5.600  0.2245 -0.5394  1.8090
14935SOL     OW46092   6.540   2.505   6.388  0.5113 -0.1846 -0.0793
14935SOL    HW146093   6.472   2.500   6.321 -0.0200 -0.7330  0.4848
14935SOL    HW246094   6.521   2.586   6.435 -0.1530 -0.6501  0.4794
14936SOL     OW46095   1.243   1.804   5.709 -0.2905 -0.2426  0.2315
14936SOL    HW146096   1.331   1.826   5.740 -0.7945 -0.1370  1.6316
14936SOL    HW246097   1.203   1.889   5.687 -0.6777 -0.1153  1.3753
14937SOL     OW46098   2.207   7.524   7.226  0.6629  0.1233  0.4700
14937SOL    HW146099   2.142   7.587   7.259  0.7736  0.0388  0.8607
14937SOL    HW246100   2.200   7.529   7.131 -0.0590 -0.0239  0.5097
14938SOL     OW46101   8.494   8.004   5.897 -0.4035  0.2470 -0.3282
14938SOL    HW146102   8.405   8.017   5.930  0.0424  1.5935  0.3940
14938SOL    HW246103   8.498   7.910   5.877 -2.7313  0.5381 -2.6398
14939SOL     OW46104   0.904   3.754   8.427 -0.9552 -0.7870  0.2563
14939SOL    HW146105   0.919   3.830   8.483 -2.4570 -0.1914 -0.0860
14939SOL    HW246106   0.946   3.777   8.344  0.0658 -1.0804  0.6732
14940SOL     OW46107   6.958   3.503   5.498  0.2228  0.5175  0.1571
14940SOL    HW146108   6.911   3.519   5.416  0.9232  0.6137 -0.2352
14940SOL    HW246109   7.047   3.537   5.482  0.1422  1.2986  1.2338
14941SOL     OW46110   0.568   1.982   1.532 -0.1104  0.1083 -0.2901
14941SOL    HW146111   0.591   2.069   1.499  0.0822  0.1616 -0.0146
14941SOL    HW246112   0.608   1.977   1.619 -0.0704 -0.2776 -0.3274
14942SOL     OW46113   2.357   3.754   5.463 -0.1589 -0.0644  0.3638
14942SOL    HW146114   2.347   3.679   5.521 -0.1213  1.0805  1.9216
14942SOL    HW246115   2.440   3.738   5.417  0.8261 -0.1108  2.0620
14943SOL     OW46116   7.960   5.048   8.696 -0.2838 -0.6289  0.4149
14943SOL    HW146117   8.031   5.016   8.639 -0.6314  0.2821 -0.5624
14943SOL    HW246118   7.917   4.969   8.727 -0.0510 -1.1589 -0.5686
14944SOL     OW46119   2.307   0.666   7.785 -0.3218  0.4437 -0.0092
14944SOL    HW146120   2.249   0.645   7.859  0.4202  0.2074  0.5129
14944SOL    HW246121   2.290   0.596   7.722 -2.1625  1.5203 -0.8048
14945SOL     OW46122   3.408   1.217   2.004 -0.2073 -0.0369  0.4284
14945SOL    HW146123   3.384   1.227   1.912 -0.2439 -0.2425  0.4154
14945SOL    HW246124   3.457   1.135   2.008 -0.5121 -0.2098  0.6492
14946SOL     OW46125   6.153   6.312   1.703  0.2766 -0.1335  0.1448
14946SOL    HW146126   6.232   6.260   1.710  0.2517 -0.2288 -0.2678
14946SOL    HW246127   6.166   6.365   1.624  0.2654  0.4167  0.5095
14947SOL     OW46128   2.951   0.252   8.169  0.0454 -0.0011  0.3021
14947SOL    HW146129   2.900   0.180   8.132 -0.1024 -0.0083  0.5146
14947SOL    HW246130   2.895   0.287   8.239  0.6662 -0.5171  1.0747
14948SOL     OW46131   2.068   5.426   1.810  0.6537  0.6712  0.3136
14948SOL    HW146132   1.975   5.436   1.833  0.9686  1.6953  1.2590
14948SOL    HW246133   2.080   5.332   1.796 -0.4302  0.4733  0.6375
14949SOL     OW46134   3.187   3.029   2.934  0.2228 -0.4338  0.1579
14949SOL    HW146135   3.274   2.992   2.916 -0.4789 -1.6912 -0.7992
14949SOL    HW246136   3.202   3.089   3.007  1.3092 -3.2217  2.4202
14950SOL     OW46137   1.247   0.273   8.512  0.0569  0.4052 -0.1940
14950SOL    HW146138   1.161   0.304   8.485 -0.3655 -0.8968 -0.4426
14950SOL    HW246139   1.269   0.205   8.448  0.5748 -0.3434  0.7515
14951SOL     OW46140   1.575   6.522   8.556  0.0464  0.0744 -0.7737
14951SOL    HW146141   1.487   6.534   8.521 -0.8361 -1.5667  0.7267
14951SOL    HW246142   1.607   6.442   8.513  0.5985  0.3626 -0.9100
14952SOL     OW46143   3.367   3.677   3.490 -0.3468 -0.4107  0.4266
14952SOL    HW146144   3.334   3.596   3.527 -2.6128  0.1792 -0.1339
14952SOL    HW246145   3.353   3.742   3.558  0.5838 -0.3164  0.5311
14953SOL     OW46146   2.234   4.639   1.551 -0.6489  0.3851 -0.0394
14953SOL    HW146147   2.178   4.565   1.572 -0.8734 -0.3481 -2.8724
14953SOL    HW246148   2.189   4.715   1.587  0.8341 -0.8480  5.3338
14954SOL     OW46149   0.157   4.152   6.585  0.6038 -0.5049  0.1051
14954SOL    HW146150   0.207   4.116   6.658  0.3411 -0.2541  0.4104
14954SOL    HW246151   0.076   4.183   6.624  0.4174 -0.4651 -0.3121
14955SOL     OW46152   6.540   6.776   4.748  0.1511  0.4735  0.0374
14955SOL    HW146153   6.479   6.825   4.692  0.0431 -0.0929 -0.3466
14955SOL    HW246154   6.484   6.735   4.814  0.0812 -0.2266 -0.4468
14956SOL     OW46155   5.144   5.653   6.864  0.1203  0.5031  0.0397
14956SOL    HW146156   5.073   5.592   6.846  0.2199 -0.1538  1.7431
14956SOL    HW246157   5.105   5.740   6.852 -1.4613  0.2061  2.4462
14957SOL     OW46158   0.073   7.326   4.982 -0.7889  0.4719  0.1713
14957SOL    HW146159   0.079   7.380   5.061 -1.5433  0.4820  0.2312
14957SOL    HW246160   0.018   7.377   4.922  0.0980  0.6375 -0.5151
14958SOL     OW46161   4.130   4.097   0.131 -0.1777  0.0244 -0.4971
14958SOL    HW146162   4.189   4.023   0.144 -0.1589  0.0687 -0.3210
14958SOL    HW246163   4.076   4.099   0.210  0.1633  0.5043 -0.2669
14959SOL     OW46164   5.028   3.716   7.966  0.0881  0.2268  0.3127
14959SOL    HW146165   5.034   3.775   7.891 -1.6105  1.0491  0.7614
14959SOL    HW246166   5.099   3.654   7.954  0.3253  0.8024 -1.5613
14960SOL     OW46167   4.785   8.078   3.411 -0.3621  0.0186 -0.1753
14960SOL    HW146168   4.786   8.173   3.421  0.1274  0.4253 -3.1388
14960SOL    HW246169   4.864   8.048   3.456 -0.3735  1.0259  0.5442
14961SOL     OW46170   2.084   4.802   0.307 -0.1757  0.2284  0.1975
14961SOL    HW146171   2.140   4.727   0.326 -0.7395  0.1674  1.8391
14961SOL    HW246172   2.132   4.877   0.343  0.2905  0.6516 -1.2464
14962SOL     OW46173   1.302   2.476   6.570 -0.0788  0.1940 -0.2424
14962SOL    HW146174   1.326   2.550   6.514 -1.0370 -0.5631 -1.7108
14962SOL    HW246175   1.287   2.403   6.510 -0.2110 -0.9268  1.0801
14963SOL     OW46176   2.573   0.941   1.878  0.0636  0.0934 -0.6732
14963SOL    HW146177   2.580   0.869   1.941 -1.6618  0.2757 -0.2197
14963SOL    HW246178   2.515   1.005   1.920 -0.1892  0.7515 -1.9563
14964SOL     OW46179   4.497   0.811   8.543  0.3519 -0.5003  0.0484
14964SOL    HW146180   4.509   0.784   8.634  2.8131 -1.2281 -0.4101
14964SOL    HW246181   4.569   0.871   8.526 -1.1765  1.1665 -0.9238
14965SOL     OW46182   0.089   3.618   0.063  0.1096 -0.2852  0.0580
14965SOL    HW146183   0.046   3.676   0.125 -1.0146  0.0228 -0.9595
14965SOL    HW246184   0.061   3.650  -0.023  1.4237 -0.8415 -0.6176
14966SOL     OW46185   1.461   6.739   8.286 -0.5515  0.7880  0.1502
14966SOL    HW146186   1.544   6.750   8.333 -1.1896  2.6653  0.9484
14966SOL    HW246187   1.402   6.703   8.352 -0.2368 -1.2151 -0.6074
14967SOL     OW46188   3.461   3.678   3.238  0.2319  0.4865 -0.2143
14967SOL    HW146189   3.411   3.675   3.320  1.0726  2.6632  0.4352
14967SOL    HW246190   3.437   3.762   3.199  0.5343 -0.1280 -1.7971
14968SOL     OW46191   6.189   8.032   5.909  0.1000  0.7218 -0.4094
14968SOL    HW146192   6.239   8.112   5.898  0.1602  0.6600 -0.6007
14968SOL    HW246193   6.130   8.030   5.833  0.4027  0.3695 -0.6397
14969SOL     OW46194   6.801   0.773   8.106 -0.1385 -0.1756  0.7247
14969SOL    HW146195   6.752   0.693   8.084  0.1811  0.0635 -1.0393
14969SOL    HW246196   6.740   0.844   8.084 -0.4088  0.0845  2.2569
14970SOL     OW46197   3.755   6.408   1.532 -0.6538  0.1713 -0.2506
14970SOL    HW146198   3.693   6.398   1.460  0.4498  1.0667 -1.3788
14970SOL    HW246199   3.745   6.498   1.560  0.8148  0.6587 -1.1541
14971SOL     OW46200   0.114   3.402   1.534  0.0584  0.6063 -0.7424
14971SOL    HW146201   0.109   3.414   1.629  0.0829  2.1758 -0.9086
14971SOL    HW246202   0.205   3.423   1.512  0.1538 -0.1215 -1.0832
14972SOL     OW46203   4.565   7.675   1.852  0.0202  0.5059  0.0911
14972SOL    HW146204   4.528   7.737   1.789 -0.5985  0.1110  0.0608
14972SOL    HW246205   4.651   7.712   1.875  0.2394  0.6689 -0.9492
14973SOL     OW46206   7.201   5.163   8.622  0.0078  0.2438 -0.0682
14973SOL    HW146207   7.178   5.126   8.707  0.7900  1.7269  0.8209
14973SOL    HW246208   7.288   5.129   8.603 -0.4741 -0.7156 -0.6908
14974SOL     OW46209   4.806   3.316   6.176 -0.5215 -0.3650 -0.2501
14974SOL    HW146210   4.744   3.354   6.113  0.9690  2.0124 -0.4040
14974SOL    HW246211   4.850   3.246   6.127 -1.6301 -0.7149 -0.7807
14975SOL     OW46212   4.325   5.042   4.990  0.3991 -0.1607  0.1917
14975SOL    HW146213   4.370   5.047   4.905  1.3976  0.6758  0.7500
14975SOL    HW246214   4.277   4.959   4.986  1.1537 -0.5747 -0.8425
14976SOL     OW46215   0.222   5.602   3.064  0.1818 -0.3231 -0.2458
14976SOL    HW146216   0.183   5.584   2.978 -0.1822  0.4550 -0.2504
14976SOL    HW246217   0.230   5.515   3.104  2.2048 -0.9449 -1.8206
14977SOL     OW46218   8.028   1.828   7.405  0.6574  0.3182  0.9135
14977SOL    HW146219   7.996   1.740   7.385 -0.0346  1.1695 -2.3727
14977SOL    HW246220   8.095   1.815   7.472 -1.3253 -2.3505  2.5996
14978SOL     OW46221   5.402   1.427   8.369  0.0909 -0.6997  0.7305
14978SOL    HW146222   5.346   1.420   8.292  0.4171  1.3667  0.2561
14978SOL    HW246223   5.362   1.496   8.422  0.7366 -1.0240  1.6669
14979SOL     OW46224   4.373   5.670   3.075 -0.4148  0.6246  0.1250
14979SOL    HW146225   4.367   5.668   2.980 -0.1108 -2.3167  0.0733
14979SOL    HW246226   4.453   5.718   3.093 -0.0610  0.5407 -1.1546
14980SOL     OW46227   6.671   4.275   2.039 -0.0617 -0.3828 -0.1510
14980SOL    HW146228   6.588   4.229   2.030 -0.3205  0.4283 -2.4464
14980SOL    HW246229   6.660   4.355   1.987  1.2683  1.0371  1.6010
14981SOL     OW46230   0.254   0.092   2.614  0.1128 -0.0517 -0.0702
14981SOL    HW146231   0.318   0.041   2.664 -0.4514  0.6749  1.4655
14981SOL    HW246232   0.278   0.183   2.628 -1.5362  0.2699  1.0177
14982SOL     OW46233   2.454   2.344   8.436  0.6114  0.2394 -0.1938
14982SOL    HW146234   2.521   2.277   8.452 -0.0688 -0.6732 -0.9988
14982SOL    HW246235   2.484   2.389   8.357 -0.0998 -0.7277 -1.0510
14983SOL     OW46236   8.439   6.136   4.013 -0.0498 -0.2556 -0.5540
14983SOL    HW146237   8.356   6.174   4.040 -0.1105 -1.2125  0.7276
14983SOL    HW246238   8.449   6.058   4.069  2.5277  0.7971  0.6417
14984SOL     OW46239   1.547   8.415   1.894  0.4982  0.1578  0.0309
14984SOL    HW146240   1.507   8.447   1.975 -3.5299  1.8161 -2.3229
14984SOL    HW246241   1.486   8.349   1.860  1.6987 -0.0245 -1.9731
14985SOL     OW46242   4.600   5.783   7.654 -0.1285  0.2232 -0.3924
14985SOL    HW146243   4.614   5.862   7.707 -2.4898 -0.7481  1.9180
14985SOL    HW246244   4.514   5.751   7.682 -0.0576 -2.1778 -2.5818
14986SOL     OW46245   3.376   4.755   5.842 -0.5076  0.2957  0.7665
14986SOL    HW146246   3.296   4.715   5.876 -0.3308  0.3198  1.2171
14986SOL    HW246247   3.399   4.702   5.765 -0.6635 -0.0306  0.9460
14987SOL     OW46248   6.096   1.719   4.685 -0.6047 -0.1072  0.1929
14987SOL    HW146249   6.173   1.774   4.671 -0.0973 -1.1203 -1.1208
14987SOL    HW246250   6.095   1.705   4.780  1.0906 -0.4274  0.2052
14988SOL     OW46251   6.478   2.845   2.355 -0.1167 -0.0829 -0.1571
14988SOL    HW146252   6.476   2.913   2.288 -0.0402  1.0182  0.9301
14988SOL    HW246253   6.500   2.765   2.307 -1.0972  0.4661 -1.6000
14989SOL     OW46254   4.765   4.702   4.492  0.4371  0.6919  0.2105
14989SOL    HW146255   4.725   4.757   4.426  0.4045  2.8257  1.9129
14989SOL    HW246256   4.691   4.662   4.539  0.4367  0.4028 -0.0299
14990SOL     OW46257   6.391   7.256   4.137  0.4295 -0.1042 -0.5992
14990SOL    HW146258   6.403   7.212   4.053  1.2876  0.0254 -0.5527
14990SOL    HW246259   6.450   7.331   4.134  0.7895 -0.3380  0.2914
14991SOL     OW46260   2.392   6.597   2.592  0.1635  0.4116  0.0657
14991SOL    HW146261   2.458   6.632   2.653 -0.3720  0.0833  0.8593
14991SOL    HW246262   2.443   6.565   2.518  0.8047  1.1968  0.1505
14992SOL     OW46263   6.844   1.865   5.191  0.2161  0.2858  0.2284
14992SOL    HW146264   6.801   1.930   5.136 -1.4171 -1.5310 -0.7576
14992SOL    HW246265   6.794   1.864   5.272 -0.8277 -0.8214 -0.3824
14993SOL     OW46266   1.333   7.979   4.076 -0.0648  0.0809 -0.4591
14993SOL    HW146267   1.359   7.998   3.985  1.7664  0.3547  0.0893
14993SOL    HW246268   1.282   8.055   4.102  2.2344  1.6432 -0.2169
14994SOL     OW46269   7.448   6.490   3.314  0.0211 -0.2329  0.3818
14994SOL    HW146270   7.396   6.558   3.270 -1.3326  0.0051  2.2209
14994SOL    HW246271   7.411   6.408   3.282  1.0846 -0.1265 -1.1918
14995SOL     OW46272   0.973   2.046   0.212  0.2423 -0.3433 -0.7326
14995SOL    HW146273   1.029   2.077   0.284  0.3771 -0.5048 -0.7658
14995SOL    HW246274   1.014   1.964   0.184 -0.0453 -0.4946 -0.7177
14996SOL     OW46275   2.167   8.305   6.508 -0.0296 -0.0144  0.4253
14996SOL    HW146276   2.114   8.380   6.533  0.6090  0.7792 -0.5095
14996SOL    HW246277   2.200   8.327   6.421  1.4197 -0.6953  0.7700
14997SOL     OW46278   6.096   4.193   1.248  0.0670 -0.0875 -0.5823
14997SOL    HW146279   6.026   4.137   1.213  0.1447 -0.0585 -0.7881
14997SOL    HW246280   6.176   4.152   1.216  0.2240 -0.8911  0.7504
14998SOL     OW46281   7.324   5.110   2.841  0.1789  0.3481  0.2301
14998SOL    HW146282   7.357   5.059   2.915 -0.4398 -0.2018  0.1340
14998SOL    HW246283   7.248   5.156   2.876 -0.3189 -0.1750 -0.1446
14999SOL     OW46284   2.520   3.772   7.575  0.0155 -0.2615 -0.1665
14999SOL    HW146285   2.452   3.832   7.546  1.2366  1.0357 -0.4425
14999SOL    HW246286   2.587   3.828   7.613  0.4131 -1.5960  1.1984
15000SOL     OW46287   1.728   5.867   7.911 -0.1370 -0.0935  0.0913
15000SOL    HW146288   1.634   5.869   7.929 -0.5679 -0.5405 -1.8693
15000SOL    HW246289   1.749   5.774   7.900  0.3588  0.0641 -0.3343
15001SOL     OW46290   2.859   7.883   0.598 -0.5029 -0.3321  0.0019
15001SOL    HW146291   2.913   7.804   0.603 -0.7529 -0.6563 -1.6727
15001SOL    HW246292   2.769   7.850   0.612 -0.3769  0.1512  2.4173
15002SOL     OW46293   7.620   1.220   3.006 -0.1871  0.2898 -0.0327
15002SOL    HW146294   7.708   1.183   2.998 -0.3284  0.0085 -0.2856
15002SOL    HW246295   7.561   1.144   3.002 -0.4891  0.5562 -0.7794
15003SOL     OW46296   0.911   5.447   3.825 -0.1804 -0.3991  0.6681
15003SOL    HW146297   0.908   5.389   3.749 -0.1891  0.3184  0.1063
15003SOL    HW246298   0.828   5.495   3.821  0.1274  0.1387  0.7326
15004SOL     OW46299   5.091   3.454   8.435  0.3148 -0.2133  0.0816
15004SOL    HW146300   5.026   3.510   8.476  1.0641 -0.9554  2.4493
15004SOL    HW246301   5.102   3.381   8.497  1.7131 -1.2805 -1.3468
15005SOL     OW46302   5.435   7.257   2.578  0.3221 -0.0057  0.1392
15005SOL    HW146303   5.453   7.281   2.669  0.8421  0.7194 -0.1482
15005SOL    HW246304   5.504   7.300   2.528 -2.1590  2.8800 -1.0570
15006SOL     OW46305   8.263   7.583   7.767 -0.1880  0.7287  0.5462
15006SOL    HW146306   8.315   7.580   7.847 -0.0489  0.8715  0.4618
15006SOL    HW246307   8.316   7.635   7.706 -0.0865  0.2364  0.2145
15007SOL     OW46308   1.324   3.243   1.186 -0.5837  0.5845  0.7407
15007SOL    HW146309   1.260   3.178   1.159  1.1122 -0.9452  0.2346
15007SOL    HW246310   1.317   3.312   1.121 -0.2829 -0.5489 -0.5324
15008SOL     OW46311   8.604   7.248   3.886 -0.2644  0.1100  0.4104
15008SOL    HW146312   8.643   7.168   3.922  0.6394  0.1665 -0.4168
15008SOL    HW246313   8.510   7.228   3.881 -0.1541 -0.6162  0.9136
15009SOL     OW46314   4.710   3.746   0.613 -0.1153 -0.0707  0.0630
15009SOL    HW146315   4.768   3.779   0.681 -0.2715 -0.9438  0.6345
15009SOL    HW246316   4.746   3.782   0.532  0.7790  0.0064  0.4768
15010SOL     OW46317   6.295   5.919   8.675 -0.1715  0.7964 -0.0245
15010SOL    HW146318   6.358   5.851   8.699 -0.7384  0.3136  0.1223
15010SOL    HW246319   6.226   5.872   8.629 -1.0875  1.0952  0.9947
15011SOL     OW46320   0.178   1.991   5.879 -0.1003 -0.0234  0.3971
15011SOL    HW146321   0.155   1.921   5.817  1.0357  0.5933 -0.7710
15011SOL    HW246322   0.146   2.071   5.837  1.7281  0.5440 -0.0306
15012SOL     OW46323   1.921   1.747   3.353 -0.3684  0.0972  0.0331
15012SOL    HW146324   1.949   1.831   3.390  1.8174 -1.4653  2.2616
15012SOL    HW246325   1.972   1.738   3.273  1.1685 -0.0699  0.9919
15013SOL     OW46326   3.620   3.507   1.537 -0.0401 -0.8168  0.1544
15013SOL    HW146327   3.584   3.506   1.626 -1.2975  0.0720 -0.3219
15013SOL    HW246328   3.605   3.597   1.506 -0.2489 -1.2919 -1.1904
15014SOL     OW46329   2.112   4.297   4.489  0.0801 -0.4693 -0.4107
15014SOL    HW146330   2.099   4.290   4.395  2.1981  0.7349 -0.8774
15014SOL    HW246331   2.207   4.294   4.500 -0.0593  0.5977  1.5615
15015SOL     OW46332   0.698   6.735   0.465 -0.4013 -0.1233 -0.2607
15015SOL    HW146333   0.641   6.665   0.432 -2.8881  1.5758  0.1705
15015SOL    HW246334   0.645   6.815   0.457  0.5290  1.0711  3.5144
15016SOL     OW46335   7.529   7.409   0.245  0.0905  0.0671 -0.1057
15016SOL    HW146336   7.496   7.473   0.308 -0.2537  0.7174 -0.9217
15016SOL    HW246337   7.547   7.461   0.166 -0.8380 -0.9343 -1.0105
15017SOL     OW46338   2.081   4.912   7.015  0.3660  0.3522  0.8567
15017SOL    HW146339   1.990   4.886   7.027  0.5181 -0.6312  0.0366
15017SOL    HW246340   2.101   4.888   6.924  0.8406  2.4284  0.3578
15018SOL     OW46341   8.303   2.767   5.497 -0.2937  0.2104  0.3044
15018SOL    HW146342   8.344   2.853   5.487  0.3206 -0.0137  0.8058
15018SOL    HW246343   8.237   2.779   5.565  0.6010  0.0358  1.2459
15019SOL     OW46344   1.898   4.396   5.484  0.1197 -0.4920 -0.3439
15019SOL    HW146345   1.970   4.333   5.491  0.1834 -0.5922 -1.6026
15019SOL    HW246346   1.839   4.373   5.556  0.8318 -1.0711  0.0743
15020SOL     OW46347   4.452   6.494   1.642 -0.0529  0.2305  0.1989
15020SOL    HW146348   4.388   6.548   1.688 -1.4487 -1.5192  0.3996
15020SOL    HW246349   4.453   6.411   1.689 -0.2679 -1.0295 -1.8589
15021SOL     OW46350   2.943   6.050   7.034  0.2636  0.8260 -0.1422
15021SOL    HW146351   2.904   6.109   6.969  0.6681  1.7978  0.4948
15021SOL    HW246352   2.885   5.973   7.032  0.6165  0.5395 -2.1059
15022SOL     OW46353   3.112   4.516   1.728 -0.1550 -0.2513 -0.3823
15022SOL    HW146354   3.072   4.589   1.775 -1.0129 -0.0636 -1.3714
15022SOL    HW246355   3.044   4.449   1.725  0.3787 -0.8120 -0.1189
15023SOL     OW46356   8.522   4.253   3.145 -0.0244 -0.1916  0.1845
15023SOL    HW146357   8.566   4.240   3.229  0.2944 -0.1985  0.0182
15023SOL    HW246358   8.554   4.338   3.114  2.1622 -1.4857 -1.3229
15024SOL     OW46359   6.728   6.539   3.440  0.0709 -0.2139 -0.1672
15024SOL    HW146360   6.773   6.459   3.468 -2.0270 -2.4313 -2.5325
15024SOL    HW246361   6.663   6.555   3.508 -0.1535 -1.1640 -0.1386
15025SOL     OW46362   2.899   1.162   2.325 -0.6693 -0.5938 -0.2010
15025SOL    HW146363   2.826   1.144   2.266  0.7117  1.2032 -2.6851
15025SOL    HW246364   2.973   1.115   2.287  0.7057  2.1321 -1.1999
15026SOL     OW46365   6.024   5.445   2.758  0.1961 -0.3766 -0.2763
15026SOL    HW146366   6.003   5.417   2.847 -0.8258  2.0813  0.3385
15026SOL    HW246367   6.045   5.538   2.766 -1.6915  0.3836 -2.8164
15027SOL     OW46368   5.747   2.782   8.462  0.3580  0.0343 -0.1309
15027SOL    HW146369   5.831   2.827   8.458  0.0033  0.9441  1.6966
15027SOL    HW246370   5.756   2.721   8.535  0.1330 -1.4336 -1.2875
15028SOL     OW46371   3.792   2.291   8.593  0.4067 -0.5240 -0.0366
15028SOL    HW146372   3.730   2.250   8.653  0.6183 -0.4001  0.2677
15028SOL    HW246373   3.764   2.383   8.588 -1.9805 -1.2455 -3.0919
15029SOL     OW46374   1.116   6.099   0.259  0.2174 -0.1801 -0.9189
15029SOL    HW146375   1.035   6.137   0.226  0.1202 -0.5247 -1.0895
15029SOL    HW246376   1.155   6.167   0.313  0.3714  0.3924 -1.7362
15030SOL     OW46377   3.314   0.812   0.804  0.2390  0.2297 -0.3916
15030SOL    HW146378   3.322   0.810   0.899  1.1015 -1.4608 -0.4587
15030SOL    HW246379   3.355   0.731   0.775 -0.2180  0.6007 -2.1998
15031SOL     OW46380   5.385   8.091   7.629  0.3425  0.0294  0.0910
15031SOL    HW146381   5.405   8.050   7.713  1.6092  1.3793  0.4941
15031SOL    HW246382   5.290   8.082   7.619  0.6358 -4.1823 -0.5456
15032SOL     OW46383   6.264   6.496   6.346 -0.0464  0.3541 -0.1451
15032SOL    HW146384   6.265   6.478   6.252  1.5283 -0.3288 -0.0204
15032SOL    HW246385   6.219   6.421   6.385  1.0377 -0.3321 -0.1892
15033SOL     OW46386   4.784   2.027   0.910 -0.5674  0.2333 -0.2794
15033SOL    HW146387   4.778   1.932   0.897  0.7120 -0.1575  1.5760
15033SOL    HW246388   4.787   2.064   0.822  1.1053 -1.6214 -1.0613
15034SOL     OW46389   3.887   5.799   0.305 -0.0210 -0.0935  0.0451
15034SOL    HW146390   3.902   5.893   0.317 -1.5437  0.1078  0.5644
15034SOL    HW246391   3.974   5.763   0.286  0.3136  1.6959 -2.2202
15035SOL     OW46392   2.315   1.184   2.253 -0.3927  0.5239 -0.0148
15035SOL    HW146393   2.326   1.276   2.275  0.8011  0.0291  1.7162
15035SOL    HW246394   2.221   1.170   2.253 -0.5613  1.5178  0.7764
15036SOL     OW46395   1.172   2.435   6.244 -0.6237 -0.2332  0.4194
15036SOL    HW146396   1.124   2.490   6.306 -1.3640  0.2373 -0.5506
15036SOL    HW246397   1.197   2.358   6.296 -1.9204 -0.2298  1.1055
15037SOL     OW46398   2.799   5.160   2.042 -0.7803 -0.0603  0.2374
15037SOL    HW146399   2.828   5.186   1.954  0.9737 -1.6289  0.2859
15037SOL    HW246400   2.852   5.212   2.101  0.2982 -1.2065  0.3256
15038SOL     OW46401   1.354   8.707   3.184  0.4688  0.2368 -0.3950
15038SOL    HW146402   1.259   8.702   3.184  0.5155 -1.0108 -1.0967
15038SOL    HW246403   1.375   8.779   3.244 -0.8784  0.0567  0.3152
15039SOL     OW46404   1.135   3.034   3.974 -0.4408  0.0358  0.2042
15039SOL    HW146405   1.048   3.045   4.012 -1.6481 -0.6026 -2.2001
15039SOL    HW246406   1.182   3.114   3.998 -2.3269  1.2856 -0.0551
15040SOL     OW46407   1.461   7.140   4.978  0.1482  0.6569 -0.3625
15040SOL    HW146408   1.452   7.063   4.922 -1.9118  1.1104 -0.7566
15040SOL    HW246409   1.495   7.208   4.921 -1.6235  1.0231 -1.0597
15041SOL     OW46410   6.361   3.843   4.893  0.5806  0.4233 -0.3098
15041SOL    HW146411   6.380   3.778   4.961  0.3179  0.2933 -0.3616
15041SOL    HW246412   6.285   3.890   4.925 -1.3159 -1.4573 -1.7491
15042SOL     OW46413   4.653   6.668   1.144 -0.1140  0.7825 -0.2797
15042SOL    HW146414   4.673   6.576   1.128 -2.1032  0.2618 -0.0352
15042SOL    HW246415   4.664   6.710   1.059 -0.4590  0.0649 -0.6849
15043SOL     OW46416   4.916   1.860   7.491 -0.1708  0.2275  0.0890
15043SOL    HW146417   4.989   1.820   7.539 -0.6242 -0.6073  0.0897
15043SOL    HW246418   4.864   1.786   7.460  0.0533  0.7594 -1.6106
15044SOL     OW46419   8.499   4.792   3.481  0.2435  0.1199 -0.1310
15044SOL    HW146420   8.509   4.728   3.552 -0.2094  0.4021  0.1901
15044SOL    HW246421   8.444   4.748   3.417 -0.4579  0.3536  0.3008
15045SOL     OW46422   1.562   3.790   6.067  0.0660  0.2500  0.0651
15045SOL    HW146423   1.570   3.706   6.022  0.4899 -0.2158  0.9894
15045SOL    HW246424   1.484   3.830   6.030 -0.5232 -0.8417  0.0906
15046SOL     OW46425   7.331   7.266   6.041 -0.3008 -0.2680 -0.3067
15046SOL    HW146426   7.405   7.229   5.993 -0.1268 -0.2211 -0.0774
15046SOL    HW246427   7.331   7.219   6.125 -1.9637 -1.9648 -1.1825
15047SOL     OW46428   4.264   6.270   2.942  0.0972 -0.0392 -0.0234
15047SOL    HW146429   4.353   6.238   2.956  0.9135  1.7035 -0.9327
15047SOL    HW246430   4.215   6.192   2.917  1.3852 -1.0099  0.3356
15048SOL     OW46431   7.644   6.921   5.111 -0.1897  0.1920 -0.4376
15048SOL    HW146432   7.629   6.926   5.017 -0.0054 -0.6410 -0.5174
15048SOL    HW246433   7.637   6.828   5.132 -0.6975  0.4143  0.4511
15049SOL     OW46434   6.935   2.137   8.254  0.5164 -0.1023 -0.2743
15049SOL    HW146435   6.900   2.144   8.165  1.9692  0.1972 -0.8541
15049SOL    HW246436   6.913   2.049   8.282 -0.6712  0.0705 -0.6055
15050SOL     OW46437   4.010   2.334   7.471  0.0348  0.2155 -0.7775
15050SOL    HW146438   4.034   2.243   7.452  1.0270  0.5569 -1.1934
15050SOL    HW246439   3.917   2.329   7.492 -0.0091 -0.8496 -1.1267
15051SOL     OW46440   5.678   3.591   0.579  0.3959  0.0550  0.2803
15051SOL    HW146441   5.702   3.683   0.589 -1.0410  0.3565  1.2664
15051SOL    HW246442   5.590   3.593   0.542 -0.2490 -0.8698  1.6824
15052SOL     OW46443   3.103   7.059   4.943 -0.4086 -0.6636  0.4767
15052SOL    HW146444   3.080   7.127   4.879  1.1458  0.5203  1.1311
15052SOL    HW246445   3.022   7.007   4.952 -0.9630 -0.2960 -1.7071
15053SOL     OW46446   4.241   7.785   6.273  0.0007 -0.1441  0.0302
15053SOL    HW146447   4.146   7.790   6.262 -0.0745  1.9394  0.9895
15053SOL    HW246448   4.276   7.823   6.192 -0.1797  2.6904  1.1414
15054SOL     OW46449   7.833   7.396   7.745  0.4176  0.0315  0.3183
15054SOL    HW146450   7.805   7.321   7.693  0.4235 -1.4236  2.3125
15054SOL    HW246451   7.901   7.438   7.691 -1.5315  0.3401 -2.0885
15055SOL     OW46452   5.043   7.514   1.863  0.2873  0.2536 -0.4912
15055SOL    HW146453   5.066   7.505   1.770  0.6745 -0.5234 -0.3326
15055SOL    HW246454   5.113   7.468   1.909  0.0095  0.4920  0.1821
15056SOL     OW46455   1.489   2.022   6.596  0.7824  0.0816  0.3275
15056SOL    HW146456   1.403   2.053   6.624  0.6902 -0.8734  1.1880
15056SOL    HW246457   1.470   1.947   6.539  1.0237  0.6047 -0.4453
15057SOL     OW46458   2.413   1.475   6.391  0.0692  0.0058 -0.5961
15057SOL    HW146459   2.347   1.525   6.344 -0.0444  1.5115  1.0779
15057SOL    HW246460   2.396   1.384   6.366 -3.4567  0.1709  0.6553
15058SOL     OW46461   2.102   4.250   8.320  0.2262  0.3392  0.2029
15058SOL    HW146462   2.018   4.211   8.294  0.5612 -0.4410  0.2691
15058SOL    HW246463   2.081   4.300   8.400 -0.2826  0.6047 -0.0906
15059SOL     OW46464   2.614   4.219   1.454 -0.0396 -0.5829 -0.2720
15059SOL    HW146465   2.693   4.165   1.449  0.2076 -0.2273 -0.2732
15059SOL    HW246466   2.550   4.165   1.500  0.4903 -0.5356  0.5337
15060SOL     OW46467   1.454   1.639   0.911  0.0921 -0.2869 -0.2478
15060SOL    HW146468   1.372   1.610   0.871  0.7074 -1.5008 -0.6764
15060SOL    HW246469   1.521   1.620   0.846  0.5654  2.2479 -0.6082
15061SOL     OW46470   8.345   7.818   3.572 -0.3280 -0.2506  0.4389
15061SOL    HW146471   8.292   7.772   3.637 -0.5086  1.2068  1.3885
15061SOL    HW246472   8.430   7.776   3.576 -0.6857 -0.9569  0.7513
15062SOL     OW46473   4.913   5.465   2.992 -0.8571  0.0348 -0.1688
15062SOL    HW146474   4.894   5.376   2.961 -0.4774 -0.1645  0.1672
15062SOL    HW246475   4.867   5.471   3.076  0.4846 -0.4295  0.6235
15063SOL     OW46476   3.489   7.921   1.033  0.5032  0.3110 -0.3469
15063SOL    HW146477   3.529   7.851   1.086 -2.1596  0.3277  1.9434
15063SOL    HW246478   3.447   7.875   0.961  0.2258 -0.2731  0.1781
15064SOL     OW46479   3.110   8.299   5.059 -0.0423 -0.1289 -0.1286
15064SOL    HW146480   3.124   8.269   5.148 -0.5683 -1.6015 -0.5183
15064SOL    HW246481   3.027   8.346   5.061 -1.3515 -2.3191 -0.2964
15065SOL     OW46482   5.967   2.082   7.663  0.3885  0.1108 -0.0317
15065SOL    HW146483   6.017   2.118   7.590  3.7453 -1.3462  1.3413
15065SOL    HW246484   5.951   2.158   7.719 -0.3135  0.8645 -1.2028
15066SOL     OW46485   2.269   4.406   3.679 -0.0403  0.1518 -0.2700
15066SOL    HW146486   2.312   4.351   3.744 -1.4819  1.4670  1.9630
15066SOL    HW246487   2.338   4.462   3.644  0.5425  0.5054  1.3662
15067SOL     OW46488   1.532   0.281   7.840  0.2188  0.0878  0.1565
15067SOL    HW146489   1.442   0.298   7.813 -0.1570 -1.0821  0.5898
15067SOL    HW246490   1.557   0.201   7.793  1.1155  0.5162 -0.1231
15068SOL     OW46491   0.669   7.763   8.169  0.0411  0.0830  0.5721
15068SOL    HW146492   0.718   7.681   8.175 -0.4240 -0.2587 -0.1332
15068SOL    HW246493   0.677   7.788   8.077 -0.5198  0.3885  0.6052
15069SOL     OW46494   7.087   5.495   2.079 -0.4392  0.6176 -0.3581
15069SOL    HW146495   7.144   5.422   2.104 -0.2727  0.9063  0.1084
15069SOL    HW246496   7.080   5.487   1.984  0.9576  0.9870 -0.5188
15070SOL     OW46497   0.492   5.391   7.053 -0.0939  0.8784 -0.7170
15070SOL    HW146498   0.450   5.437   7.126  1.2511  0.5922  0.2708
15070SOL    HW246499   0.426   5.328   7.024 -0.1058 -0.1253  1.3123
15071SOL     OW46500   5.687   6.931   7.834 -0.4856  0.6052  0.4946
15071SOL    HW146501   5.689   7.018   7.794  1.7384  0.6397  0.5549
15071SOL    HW246502   5.633   6.879   7.775  1.6426  0.9744 -1.9184
15072SOL     OW46503   6.216   0.830   1.034 -0.1010  0.0651 -0.3937
15072SOL    HW146504   6.122   0.815   1.043  0.2254 -1.0723  1.4565
15072SOL    HW246505   6.243   0.869   1.117  1.2950 -0.9679 -0.3166
15073SOL     OW46506   2.500   3.343   5.759  0.0548  0.2766 -0.0014
15073SOL    HW146507   2.450   3.265   5.782  0.3457  0.3333  0.8437
15073SOL    HW246508   2.563   3.354   5.830 -0.7335  1.9174  0.4957
15074SOL     OW46509   7.911   1.132   2.971 -1.0298 -0.1362 -0.3708
15074SOL    HW146510   7.933   1.135   2.878 -0.8766  0.5472 -0.3126
15074SOL    HW246511   7.996   1.125   3.016 -0.9991  1.1709 -0.2093
15075SOL     OW46512   4.262   0.027   4.118  0.0096  0.0833  0.4208
15075SOL    HW146513   4.221  -0.029   4.052  0.8502  1.8121 -1.6923
15075SOL    HW246514   4.196   0.036   4.186 -1.8006  0.0587 -1.2566
15076SOL     OW46515   5.043   6.826   3.983  0.0084  0.1787 -0.2552
15076SOL    HW146516   5.108   6.796   4.046 -1.3908  3.0372  2.8692
15076SOL    HW246517   5.091   6.885   3.925  0.6319  0.6356  0.6976
15077SOL     OW46518   5.705   4.785   7.739  0.5895 -0.1751 -0.0728
15077SOL    HW146519   5.737   4.840   7.811  0.9396  2.2605 -1.9378
15077SOL    HW246520   5.610   4.781   7.753  0.6057  0.6003  0.3477
15078SOL     OW46521   4.876   1.190   1.932 -0.3819 -0.3609  0.1466
15078SOL    HW146522   4.870   1.148   1.847 -0.9104 -0.6907  0.3406
15078SOL    HW246523   4.786   1.214   1.954 -0.0889  0.9992 -0.0095
15079SOL     OW46524   7.182   5.460   5.900  0.4975  0.9127  0.0819
15079SOL    HW146525   7.126   5.396   5.943  0.8265  1.7808  1.9190
15079SOL    HW246526   7.136   5.544   5.912  0.2205  1.1039 -1.9955
15080SOL     OW46527   7.153   5.674   7.729 -0.3487  0.3072  0.3524
15080SOL    HW146528   7.219   5.717   7.784 -1.2866  0.2910  1.5046
15080SOL    HW246529   7.199   5.598   7.693  0.6180  0.9553  0.1642
15081SOL     OW46530   7.775   3.834   4.773 -0.1999  0.4336  0.1318
15081SOL    HW146531   7.763   3.749   4.729 -0.5334  0.0976  0.8584
15081SOL    HW246532   7.687   3.872   4.774  0.3411  1.9653 -2.4912
15082SOL     OW46533   5.463   5.195   6.051  0.7710 -0.1503 -0.4394
15082SOL    HW146534   5.542   5.170   6.002 -0.2643 -0.5359 -2.0048
15082SOL    HW246535   5.391   5.163   5.997 -0.4567 -1.5218  1.8863
15083SOL     OW46536   1.180   5.465   3.731 -0.5615  1.1997  0.2036
15083SOL    HW146537   1.107   5.462   3.793 -0.6046  1.6290  0.1747
15083SOL    HW246538   1.256   5.441   3.783 -0.6540  1.1843  0.3339
15084SOL     OW46539   3.098   2.208   4.864 -0.1059  0.4020  0.2261
15084SOL    HW146540   3.061   2.185   4.949  0.3355 -0.3119  0.2317
15084SOL    HW246541   3.069   2.298   4.849  0.4764  0.8268  1.4996
15085SOL     OW46542   3.420   4.370   7.293  0.2317  0.5067  0.3776
15085SOL    HW146543   3.358   4.354   7.222  2.1607  1.0564 -1.5132
15085SOL    HW246544   3.444   4.282   7.324 -0.3942  0.2589  0.1803
15086SOL     OW46545   4.160   3.866   4.484 -0.5456 -0.2418  0.3549
15086SOL    HW146546   4.086   3.816   4.450 -2.2465  2.3858 -0.1061
15086SOL    HW246547   4.140   3.881   4.576  0.7968 -1.7534  0.9362
15087SOL     OW46548   3.312   4.401   2.000 -0.0794  0.1485 -0.1783
15087SOL    HW146549   3.406   4.420   1.988  0.1260  1.0974  2.3643
15087SOL    HW246550   3.275   4.411   1.912  2.5271 -2.7546 -1.8270
15088SOL     OW46551   7.848   4.833   0.466  0.3721  0.1433  0.1240
15088SOL    HW146552   7.866   4.800   0.554  0.5413  1.4942  0.6136
15088SOL    HW246553   7.814   4.757   0.419  1.8281 -1.0304  0.8665
15089SOL     OW46554   8.511   1.696   2.533  0.1677  0.0399  0.9083
15089SOL    HW146555   8.468   1.763   2.479 -1.5044 -0.8101  1.1056
15089SOL    HW246556   8.457   1.692   2.613 -0.5372 -2.3565  0.3930
15090SOL     OW46557   8.541   1.986   2.117 -0.1267  0.3130 -0.3704
15090SOL    HW146558   8.524   2.074   2.084 -1.3191 -0.0700 -0.8268
15090SOL    HW246559   8.462   1.936   2.095  0.2269 -0.6843  0.5343
15091SOL     OW46560   7.601   7.515   2.393  0.6297 -0.0613 -0.7469
15091SOL    HW146561   7.543   7.464   2.450  0.6814  1.5342  0.8262
15091SOL    HW246562   7.543   7.565   2.337  0.5332  0.1749 -0.4330
15092SOL     OW46563   2.038   8.140   1.981  0.1185  0.3902  0.1279
15092SOL    HW146564   2.056   8.206   1.914  0.5158 -0.5643 -0.7448
15092SOL    HW246565   2.076   8.060   1.945 -1.0862 -0.4928  0.7748
15093SOL     OW46566   6.911   8.310   1.336  0.0019  0.1538  0.4126
15093SOL    HW146567   6.861   8.289   1.415 -0.5417 -1.1881 -0.2535
15093SOL    HW246568   6.949   8.396   1.353  1.4231 -0.8467  2.8918
15094SOL     OW46569   5.549   0.239   0.307  0.0376  1.0075  0.1251
15094SOL    HW146570   5.529   0.169   0.246 -0.1588  0.7045  0.5355
15094SOL    HW246571   5.643   0.254   0.297 -0.2047  1.8329 -1.1640
15095SOL     OW46572   1.858   8.484   2.134  0.2774 -0.5901 -0.2666
15095SOL    HW146573   1.770   8.491   2.170 -0.1902  0.3106 -1.5126
15095SOL    HW246574   1.847   8.503   2.041  1.7230 -0.9533 -0.5339
15096SOL     OW46575   3.769   5.976   2.155 -0.0912 -0.0237 -0.1105
15096SOL    HW146576   3.738   6.035   2.224  0.1148  0.5222 -0.4730
15096SOL    HW246577   3.690   5.936   2.121 -0.2158 -0.1227  0.2897
15097SOL     OW46578   7.978   4.496   3.575 -0.1280 -0.0829  0.3286
15097SOL    HW146579   8.057   4.516   3.625 -1.2942  2.0773  1.4559
15097SOL    HW246580   7.916   4.464   3.641 -1.3987  1.9521  0.2008
15098SOL     OW46581   7.329   5.595   7.404 -0.2277  0.4810  0.4552
15098SOL    HW146582   7.254   5.590   7.463 -0.4264  1.1313  0.2745
15098SOL    HW246583   7.362   5.684   7.415 -0.2897  0.6252 -0.4309
15099SOL     OW46584   4.174   4.961   4.736  0.1715 -0.4272 -0.7879
15099SOL    HW146585   4.114   4.924   4.801  1.5507 -2.4106 -0.5707
15099SOL    HW246586   4.147   5.053   4.728 -2.4330 -1.0790 -0.2353
15100SOL     OW46587   1.384   1.868   3.075 -0.0255 -0.8772 -0.3914
15100SOL    HW146588   1.466   1.881   3.028  0.0957 -2.0304 -0.5379
15100SOL    HW246589   1.358   1.778   3.053 -1.5660 -0.3855 -0.7211
15101SOL     OW46590   0.207   7.908   1.797  0.1527 -0.2299 -0.2219
15101SOL    HW146591   0.187   7.828   1.845 -1.1840  0.4241  0.3727
15101SOL    HW246592   0.129   7.925   1.744  1.0247 -0.1384 -1.5291
15102SOL     OW46593   8.429   6.336   0.944  0.0725  0.3498 -0.1817
15102SOL    HW146594   8.408   6.354   1.035  1.0044 -1.3237  0.4003
15102SOL    HW246595   8.408   6.417   0.898 -1.5164  0.8411  1.3220
15103SOL     OW46596   7.603   2.351   2.910  0.1724 -0.1910 -0.3840
15103SOL    HW146597   7.641   2.405   2.841 -0.2792 -0.6446 -0.9911
15103SOL    HW246598   7.634   2.263   2.892 -0.5075 -0.4295 -0.4121
15104SOL     OW46599   3.552   3.761   1.107 -0.2685 -0.0741 -0.0248
15104SOL    HW146600   3.513   3.694   1.051 -0.7277 -0.0533  0.2639
15104SOL    HW246601   3.493   3.766   1.182 -0.8158  1.3835 -0.5222
15105SOL     OW46602   4.737   4.792   6.389  0.8479 -0.4939  0.2323
15105SOL    HW146603   4.791   4.865   6.419  2.3004 -1.4517  0.0185
15105SOL    HW246604   4.681   4.772   6.464  0.3838  0.8413  0.2790
15106SOL     OW46605   4.008   2.704   5.943 -0.3109 -0.0886 -0.4007
15106SOL    HW146606   3.926   2.662   5.966  0.0975 -0.9822 -0.5403
15106SOL    HW246607   3.997   2.796   5.970 -0.8522 -0.4868  0.7960
15107SOL     OW46608   6.489   3.476   3.872 -0.2961 -0.4973  0.2150
15107SOL    HW146609   6.453   3.549   3.923  0.4186 -1.2232  1.8298
15107SOL    HW246610   6.418   3.411   3.869 -0.3365 -0.4572  0.3024
15108SOL     OW46611   4.394   6.734   3.628  0.2010 -0.1343 -0.0073
15108SOL    HW146612   4.480   6.763   3.597 -0.1237 -0.4678 -1.3090
15108SOL    HW246613   4.397   6.744   3.723  1.9187 -0.7974  0.0311
15109SOL     OW46614   0.967   1.526   7.695 -0.1206 -0.1550  0.7724
15109SOL    HW146615   0.895   1.491   7.642 -0.4322  0.0304  1.0721
15109SOL    HW246616   0.964   1.620   7.680  1.7923 -0.3612 -1.3908
15110SOL     OW46617   1.147   3.157   7.760  0.2450 -0.1269 -0.0438
15110SOL    HW146618   1.242   3.151   7.754  0.2315 -0.7485  0.2328
15110SOL    HW246619   1.115   3.086   7.704 -0.1273  1.5692 -2.1097
15111SOL     OW46620   8.221   8.108   6.133 -0.3872  0.7620 -0.0513
15111SOL    HW146621   8.294   8.104   6.195 -1.5567 -0.4169  1.3335
15111SOL    HW246622   8.190   8.017   6.128 -1.8111  1.2510 -0.5146
15112SOL     OW46623   1.898   4.310   1.288 -1.5656 -0.0772  0.0579
15112SOL    HW146624   1.851   4.316   1.204 -0.2865 -2.4894 -0.9480
15112SOL    HW246625   1.864   4.230   1.328 -1.7249  0.7334  1.5857
15113SOL     OW46626   2.319   0.073   5.754  0.0833  0.3032  0.2187
15113SOL    HW146627   2.359   0.040   5.835  0.7115  0.2868 -0.0959
15113SOL    HW246628   2.226   0.076   5.774  0.0711 -1.0485  0.4807
15114SOL     OW46629   7.126   1.996   5.601  0.2233  0.1376 -0.2486
15114SOL    HW146630   7.114   1.957   5.514  1.0865  0.3643 -0.4790
15114SOL    HW246631   7.186   1.936   5.646 -0.2028  0.0341  0.1932
15115SOL     OW46632   0.173   7.459   5.220 -0.7375 -0.2963 -0.4624
15115SOL    HW146633   0.242   7.426   5.162 -2.9507 -2.4927 -2.0032
15115SOL    HW246634   0.182   7.407   5.300  0.6861  0.9824  0.2937
15116SOL     OW46635   4.718   1.517   7.200  0.1230  0.4872 -0.4706
15116SOL    HW146636   4.767   1.435   7.193 -0.2836  0.0811  1.2196
15116SOL    HW246637   4.626   1.491   7.195  0.0007  0.8992 -0.3737
15117SOL     OW46638   1.743   5.228   8.174 -0.2588 -0.3237 -0.0746
15117SOL    HW146639   1.662   5.176   8.173  0.7061 -1.8882 -0.6623
15117SOL    HW246640   1.802   5.180   8.116  1.4046  0.2778  1.0636
15118SOL     OW46641   0.255   5.489   0.622 -0.2309  0.3068  0.4703
15118SOL    HW146642   0.346   5.492   0.594 -0.2539 -0.2677  0.3202
15118SOL    HW246643   0.230   5.581   0.632  0.2143  0.4832  0.0272
15119SOL     OW46644   3.360   5.180   3.561 -0.3146 -0.1885 -0.9688
15119SOL    HW146645   3.337   5.270   3.537 -1.0569 -0.4316 -1.1945
15119SOL    HW246646   3.446   5.166   3.521  0.2893  0.7656 -0.0482
15120SOL     OW46647   0.100   5.284   6.026  0.1354  0.5359  0.6249
15120SOL    HW146648   0.043   5.347   5.982 -0.6753 -0.1655  0.6420
15120SOL    HW246649   0.048   5.250   6.099  0.5090 -0.2380  0.5448
15121SOL     OW46650   6.212   4.256   8.222 -0.4224  0.0841  0.3052
15121SOL    HW146651   6.282   4.195   8.198 -0.7665  0.1340 -0.8901
15121SOL    HW246652   6.234   4.284   8.312 -0.3043 -1.8342  0.9076
15122SOL     OW46653   8.532   3.897   8.635 -0.8102  0.9175 -0.4688
15122SOL    HW146654   8.611   3.883   8.583 -0.4020  2.6289 -0.3694
15122SOL    HW246655   8.562   3.897   8.726 -1.2115 -0.1168 -0.3218
15123SOL     OW46656   3.593   6.268   0.839 -0.1104  0.1929  0.1058
15123SOL    HW146657   3.627   6.240   0.754 -2.0717  1.1004 -1.0591
15123SOL    HW246658   3.665   6.315   0.880  0.4961  0.8043 -1.5915
15124SOL     OW46659   8.611   0.750   6.965  0.1364 -0.5365 -0.6081
15124SOL    HW146660   8.692   0.801   6.957  0.1551 -0.5856 -0.7387
15124SOL    HW246661   8.543   0.816   6.978  0.2524 -0.5205 -0.0953
15125SOL     OW46662   1.409   6.927   8.090 -0.0983 -0.0447 -0.0827
15125SOL    HW146663   1.421   6.881   8.173  0.0808 -0.1339 -0.1589
15125SOL    HW246664   1.348   6.872   8.041 -1.3526  0.7219  0.5554
15126SOL     OW46665   3.129   3.484   3.605  0.5370 -0.0594 -0.8525
15126SOL    HW146666   3.201   3.501   3.667 -0.3185  1.3969 -0.1940
15126SOL    HW246667   3.120   3.389   3.604 -0.7123 -0.1437  2.8749
15127SOL     OW46668   2.914   4.894   3.018  0.2093  0.0269  0.5491
15127SOL    HW146669   2.948   4.983   3.011  0.7430 -0.2290 -0.2603
15127SOL    HW246670   2.992   4.839   3.020 -0.1265 -0.4542  0.5014
15128SOL     OW46671   0.165   7.103   5.624  0.1498 -0.2338 -0.2342
15128SOL    HW146672   0.123   7.058   5.697  0.7187  0.1490  0.3373
15128SOL    HW246673   0.242   7.050   5.604 -1.0972 -1.5227 -1.9674
15129SOL     OW46674   7.819   6.868   6.316 -0.1708 -0.2321 -0.2960
15129SOL    HW146675   7.778   6.790   6.352  1.4505 -1.3253 -0.7241
15129SOL    HW246676   7.896   6.883   6.372 -0.0297  0.5963 -0.6899
15130SOL     OW46677   2.491   2.735   3.060  0.7000  0.1549  0.2428
15130SOL    HW146678   2.501   2.826   3.088 -1.2093  0.6004 -0.3449
15130SOL    HW246679   2.413   2.705   3.106 -0.5451 -0.1493 -1.9197
15131SOL     OW46680   4.315   0.563   3.021  0.3777  0.3427 -0.3602
15131SOL    HW146681   4.319   0.519   3.105 -2.1449 -0.2611 -0.4767
15131SOL    HW246682   4.348   0.499   2.958 -0.2374 -0.2110 -0.1298
15132SOL     OW46683   5.269   8.212   3.953 -0.2028 -0.1047 -0.2987
15132SOL    HW146684   5.357   8.191   3.922  0.1220 -0.5434  0.8593
15132SOL    HW246685   5.261   8.166   4.037 -1.0891  0.9120  0.2026
15133SOL     OW46686   0.328   2.029   3.495 -0.1018 -0.3448 -0.0321
15133SOL    HW146687   0.367   2.037   3.582 -0.4860 -2.1029  0.3410
15133SOL    HW246688   0.381   2.087   3.440 -0.8541  2.1252  1.6380
15134SOL     OW46689   8.515   5.761   8.381  0.1410  0.2385 -0.3031
15134SOL    HW146690   8.596   5.765   8.432  0.8253  0.2580 -1.3766
15134SOL    HW246691   8.465   5.689   8.420  0.7509  0.0990  0.2306
15135SOL     OW46692   0.659   7.945   7.091  0.1405  0.1829  0.1981
15135SOL    HW146693   0.596   7.929   7.161  0.9799 -1.5328  0.6027
15135SOL    HW246694   0.707   8.023   7.120  1.3804 -1.2494  2.2606
15136SOL     OW46695   1.662   7.527   1.667 -0.1092  0.0794  0.6721
15136SOL    HW146696   1.635   7.435   1.661  0.7564 -0.0947 -1.3101
15136SOL    HW246697   1.603   7.573   1.607  1.5485  0.2516 -0.9194
15137SOL     OW46698   5.705   7.030   5.288  0.3667  0.1646 -0.1883
15137SOL    HW146699   5.704   6.935   5.277 -0.6021  0.1836 -0.3469
15137SOL    HW246700   5.693   7.064   5.199 -1.3748  0.3938  0.1018
15138SOL     OW46701   4.420   3.040   4.707  0.7744 -0.4433  0.3480
15138SOL    HW146702   4.426   3.100   4.781  0.4718 -0.7185  0.5959
15138SOL    HW246703   4.508   3.039   4.670  0.8890 -0.1860  0.6086
15139SOL     OW46704   3.375   7.126   6.597  0.0881  0.1747  0.1483
15139SOL    HW146705   3.311   7.139   6.668 -0.5033  1.6393 -0.6342
15139SOL    HW246706   3.322   7.096   6.523  0.5113  0.0533 -0.1052
15140SOL     OW46707   7.256   3.075   6.228  0.1153 -1.1054  0.8167
15140SOL    HW146708   7.261   3.088   6.134  1.9503  3.7762  1.2670
15140SOL    HW246709   7.344   3.048   6.253 -0.1223 -1.5322  1.1921
15141SOL     OW46710   5.660   8.417   3.478  0.5571  0.0659  0.3534
15141SOL    HW146711   5.703   8.332   3.486  0.0898 -0.2711 -0.6403
15141SOL    HW246712   5.619   8.431   3.563 -0.3604 -1.2490  0.1545
15142SOL     OW46713   8.214   0.740   7.538  0.1944  0.2588 -0.8942
15142SOL    HW146714   8.164   0.706   7.463  0.8489 -0.6306 -0.9438
15142SOL    HW246715   8.183   0.830   7.548 -0.1395  0.2949 -2.0331
15143SOL     OW46716   3.553   7.516   7.347 -0.6129  0.4758  0.3008
15143SOL    HW146717   3.463   7.535   7.375 -0.6944 -0.1555  0.5075
15143SOL    HW246718   3.598   7.489   7.428 -0.6818 -0.7666 -0.0505
15144SOL     OW46719   2.275   5.979   6.378 -0.4473 -0.4205 -0.2708
15144SOL    HW146720   2.356   5.928   6.381 -2.4460 -4.0248 -1.5353
15144SOL    HW246721   2.253   5.995   6.469  1.7192  0.8520  0.0930
15145SOL     OW46722   7.389   2.560   5.759 -0.0835  0.2362 -0.0945
15145SOL    HW146723   7.370   2.466   5.764 -0.5412  0.3223 -0.2239
15145SOL    HW246724   7.317   2.602   5.805  0.2926  0.5080  0.2495
15146SOL     OW46725   4.889   4.252   3.023  0.7510 -0.5865 -0.3489
15146SOL    HW146726   4.903   4.253   3.117 -0.7343  1.2707 -0.1004
15146SOL    HW246727   4.820   4.316   3.007  1.4441 -0.3202 -2.7767
15147SOL     OW46728   6.937   8.069   2.328  0.1735  0.1195 -0.3140
15147SOL    HW146729   6.959   7.978   2.345 -0.1763  0.0449 -0.2545
15147SOL    HW246730   6.987   8.092   2.249 -0.0558 -0.2439 -0.5676
15148SOL     OW46731   5.767   6.555   6.926 -0.0304  0.2477 -0.8526
15148SOL    HW146732   5.768   6.488   6.994 -1.1445  0.0202 -1.0366
15148SOL    HW246733   5.846   6.607   6.942  1.2736 -1.5430 -1.1674
15149SOL     OW46734   5.158   2.122   7.206 -0.5906  0.5648 -0.5805
15149SOL    HW146735   5.199   2.071   7.136 -0.0244 -0.0135  0.1493
15149SOL    HW246736   5.173   2.213   7.181 -1.1842  0.3766 -1.6556
15150SOL     OW46737   1.307   1.842   0.601  0.0435  0.1896  0.2024
15150SOL    HW146738   1.272   1.905   0.663  0.3566  0.3826  0.1866
15150SOL    HW246739   1.235   1.781   0.585 -0.7918  1.4332 -0.9949
15151SOL     OW46740   5.171   3.335   4.654  0.1484  0.0704 -0.1103
15151SOL    HW146741   5.258   3.306   4.680 -0.0762 -0.9017 -0.4133
15151SOL    HW246742   5.130   3.364   4.736 -0.1878 -1.9773  0.4869
15152SOL     OW46743   1.380   5.287   4.284 -1.0027  0.6413 -0.6088
15152SOL    HW146744   1.443   5.255   4.220  1.2929  2.8501  0.3808
15152SOL    HW246745   1.300   5.238   4.265  0.8610 -2.1140 -2.1314
15153SOL     OW46746   0.928   6.259   2.375  0.1241  0.0661  0.1044
15153SOL    HW146747   1.024   6.262   2.384  0.4952 -4.5014  0.3939
15153SOL    HW246748   0.897   6.252   2.465 -0.6066  2.0061  0.0379
15154SOL     OW46749   4.630   6.455   1.997 -0.4806  0.7269  0.0387
15154SOL    HW146750   4.711   6.491   2.034 -1.3471  2.1305  0.6262
15154SOL    HW246751   4.567   6.526   2.003 -1.5266 -0.0466 -1.2736
15155SOL     OW46752   8.593   4.637   4.268  0.1764  0.0046 -0.3059
15155SOL    HW146753   8.682   4.612   4.296  1.5895  4.2496 -0.2154
15155SOL    HW246754   8.553   4.674   4.347 -0.6486  0.4817 -0.9348
15156SOL     OW46755   0.655   8.178   4.612 -0.3419 -0.2899  0.0922
15156SOL    HW146756   0.749   8.158   4.610 -0.4340 -0.8072  0.7151
15156SOL    HW246757   0.621   8.143   4.530  0.0051 -0.1108 -0.1299
15157SOL     OW46758   6.078   1.644   1.021 -0.2382 -0.0926 -0.1063
15157SOL    HW146759   6.148   1.638   0.956 -0.1087 -2.1458  0.1513
15157SOL    HW246760   6.122   1.632   1.105 -0.6591  0.5076  0.2053
15158SOL     OW46761   8.465   2.657   2.543 -0.0899  0.4311 -0.0609
15158SOL    HW146762   8.430   2.581   2.496 -0.1349  0.4309 -0.0279
15158SOL    HW246763   8.557   2.662   2.517 -0.0559  0.2910  0.0318
15159SOL     OW46764   2.087   5.620   3.012 -0.5465  0.4999  0.4522
15159SOL    HW146765   2.179   5.637   2.991 -0.5764  1.4538  1.0152
15159SOL    HW246766   2.038   5.686   2.963 -1.0334 -0.6035 -0.6078
15160SOL     OW46767   4.543   5.649   1.046  0.5088 -0.2261 -0.5978
15160SOL    HW146768   4.581   5.656   1.133  0.4128 -0.1452 -0.5611
15160SOL    HW246769   4.598   5.705   0.991 -0.6494  1.4420 -0.1697
15161SOL     OW46770   8.684   0.669   5.944 -0.1951  0.3606 -0.1176
15161SOL    HW146771   8.711   0.747   5.992  0.4427  0.6036 -0.8668
15161SOL    HW246772   8.595   0.653   5.974  0.3487  0.2143  1.5324
15162SOL     OW46773   6.668   2.417   1.326 -0.0573  0.3526  0.1273
15162SOL    HW146774   6.584   2.462   1.323  0.6551  1.6816 -1.0259
15162SOL    HW246775   6.647   2.326   1.306 -1.1715  0.7422 -0.5631
15163SOL     OW46776   5.060   7.922   2.867 -0.3074  0.0227  0.2183
15163SOL    HW146777   4.969   7.952   2.864 -0.5592 -0.7074  0.2562
15163SOL    HW246778   5.060   7.853   2.934  0.0867 -0.5803 -0.3937
15164SOL     OW46779   5.310   5.720   2.207 -0.0028  0.0068  0.2055
15164SOL    HW146780   5.286   5.792   2.266  0.4398  0.4011 -0.0840
15164SOL    HW246781   5.238   5.658   2.214 -0.4180  0.5046  0.4209
15165SOL     OW46782   3.360   3.422   7.090 -0.0277  0.1413  0.0238
15165SOL    HW146783   3.447   3.422   7.130  0.2748  0.8452 -0.6124
15165SOL    HW246784   3.350   3.510   7.055 -1.8452  0.7595  1.8846
15166SOL     OW46785   3.775   1.847   8.507  0.4344  0.3888 -0.0269
15166SOL    HW146786   3.703   1.854   8.569 -0.5628 -2.2627 -0.7561
15166SOL    HW246787   3.848   1.811   8.559  0.1892 -0.0525  0.0135
15167SOL     OW46788   1.666   7.106   6.327  0.5296 -0.3733  0.2032
15167SOL    HW146789   1.673   7.147   6.413 -0.9747  1.3156 -0.4050
15167SOL    HW246790   1.579   7.131   6.296  0.9621 -1.0874 -1.7317
15168SOL     OW46791   6.442   6.634   1.587  0.1000  0.5952 -0.0534
15168SOL    HW146792   6.370   6.696   1.581  0.7576  1.3382 -0.4366
15168SOL    HW246793   6.418   6.577   1.660 -1.4704  0.0370 -0.9496
15169SOL     OW46794   0.009   8.553   6.537  0.5976  0.3251  0.3183
15169SOL    HW146795   0.065   8.586   6.468  2.1212 -0.1393  1.2906
15169SOL    HW246796  -0.012   8.631   6.590  1.5410  0.2810  0.7771
15170SOL     OW46797   2.708   0.147   5.452  0.0990  0.4915  0.1394
15170SOL    HW146798   2.779   0.129   5.513 -0.1302  1.1155  0.6004
15170SOL    HW246799   2.637   0.180   5.508 -0.4845  0.0622 -0.3354
15171SOL     OW46800   6.537   6.342   6.719 -0.5741 -0.4624  0.1650
15171SOL    HW146801   6.499   6.406   6.658  0.3047 -0.9208 -0.8864
15171SOL    HW246802   6.629   6.336   6.693  0.0460  0.0101  2.1386
15172SOL     OW46803   4.404   6.762   0.447  0.0072 -0.3417  0.2906
15172SOL    HW146804   4.471   6.704   0.410  0.8872 -0.0251  1.3255
15172SOL    HW246805   4.335   6.703   0.477 -0.7709 -0.6082 -1.8307
15173SOL     OW46806   8.175   7.175   5.125 -0.1612 -0.0923  0.0719
15173SOL    HW146807   8.080   7.171   5.116 -0.2523  0.0260  0.8886
15173SOL    HW246808   8.190   7.178   5.219  0.6860 -0.8564 -0.0213
15174SOL     OW46809   5.241   4.419   8.458 -0.5475  0.2949 -0.4532
15174SOL    HW146810   5.213   4.327   8.459  0.9047 -0.1818 -0.9226
15174SOL    HW246811   5.307   4.423   8.389 -2.4228  2.2979 -2.3000
15175SOL     OW46812   8.686   1.262   3.094  0.4007  0.0255 -0.6530
15175SOL    HW146813   8.706   1.234   3.183 -2.5633 -0.8626 -0.1647
15175SOL    HW246814   8.714   1.189   3.039  0.4170 -0.2804 -0.2453
15176SOL     OW46815   3.767   6.065   1.765 -0.5179 -0.6635 -0.1057
15176SOL    HW146816   3.685   6.093   1.807 -0.0348  2.5581 -1.0666
15176SOL    HW246817   3.836   6.095   1.824  0.0492 -1.0833 -0.5431
15177SOL     OW46818   0.085   4.667   1.835  0.2667  0.3524 -0.2195
15177SOL    HW146819   0.036   4.610   1.776  1.0144 -0.4391 -0.1010
15177SOL    HW246820   0.150   4.709   1.779  0.2248  0.4856 -0.1675
15178SOL     OW46821   5.959   5.719   1.750 -0.3054  0.0033 -0.6884
15178SOL    HW146822   5.986   5.743   1.838 -1.1225  1.2164 -0.7423
15178SOL    HW246823   5.910   5.638   1.761 -0.9191  0.4610  0.0759
15179SOL     OW46824   1.366   2.608   8.621  0.2117 -0.0221 -0.2529
15179SOL    HW146825   1.363   2.695   8.581  1.8477  0.2267  0.0987
15179SOL    HW246826   1.337   2.622   8.711 -0.4903 -0.0298 -0.4745
15180SOL     OW46827   4.681   6.669   1.751 -0.1062  0.0557  0.4926
15180SOL    HW146828   4.596   6.627   1.741  0.6742 -2.2200  2.3071
15180SOL    HW246829   4.666   6.740   1.814 -0.5988 -0.6519  1.1918
15181SOL     OW46830   0.768   1.071   5.498 -0.5303  0.2323 -0.2006
15181SOL    HW146831   0.744   1.118   5.418  0.5929  1.4148  0.1385
15181SOL    HW246832   0.861   1.090   5.511 -0.1968 -1.5762  0.3056
15182SOL     OW46833   8.110   2.712   8.653  0.0996  0.0807 -0.4822
15182SOL    HW146834   8.063   2.748   8.728 -0.4724 -1.5857  0.0051
15182SOL    HW246835   8.176   2.778   8.631 -0.6093  1.1816  0.6309
15183SOL     OW46836   0.686   4.883   0.601  0.1979 -0.7083 -0.4301
15183SOL    HW146837   0.717   4.934   0.526 -1.2570  2.4017  0.8932
15183SOL    HW246838   0.617   4.827   0.566  0.6736 -0.5509 -1.6741
15184SOL     OW46839   2.832   7.446   0.068 -0.0925 -0.4824  0.0581
15184SOL    HW146840   2.792   7.505   0.132 -0.7035 -0.7385 -0.0765
15184SOL    HW246841   2.772   7.372   0.063  0.9614 -1.4050  0.6663
15185SOL     OW46842   6.261   1.534   1.184 -0.1450  0.5131 -0.2098
15185SOL    HW146843   6.272   1.445   1.218  0.3942  1.2244  1.6476
15185SOL    HW246844   6.304   1.590   1.250 -1.2923  2.2237 -0.8319
15186SOL     OW46845   0.886   1.144   3.671  0.3523  0.0902 -0.1976
15186SOL    HW146846   0.903   1.234   3.700 -1.3443  0.0720  0.9776
15186SOL    HW246847   0.860   1.153   3.580 -2.0115  1.1101  0.5028
15187SOL     OW46848   5.768   3.081   0.186 -0.1056 -0.0769 -0.4486
15187SOL    HW146849   5.711   3.116   0.117  0.5093  0.3867 -0.7347
15187SOL    HW246850   5.846   3.051   0.139  0.5236  0.6867  0.0907
15188SOL     OW46851   0.319   1.683   3.230  0.1885 -0.4188  0.5599
15188SOL    HW146852   0.393   1.661   3.287 -0.3976 -0.5582  1.2759
15188SOL    HW246853   0.271   1.601   3.220 -0.4081 -0.1121  0.8944
15189SOL     OW46854   2.163   0.754   4.578  0.1002  0.7612  0.1049
15189SOL    HW146855   2.245   0.773   4.624  0.9476  1.0563 -1.4614
15189SOL    HW246856   2.139   0.667   4.608 -0.1156  1.4681  2.1167
15190SOL     OW46857   3.476   0.696   2.148  0.1414 -0.2693  0.3026
15190SOL    HW146858   3.412   0.679   2.079  1.2592 -1.7359 -0.4050
15190SOL    HW246859   3.510   0.783   2.128  0.8644 -0.9014 -1.3526
15191SOL     OW46860   2.915   5.997   6.623  0.7395 -0.0428  0.2148
15191SOL    HW146861   2.913   6.088   6.591 -1.1382  0.7353  2.2440
15191SOL    HW246862   2.918   5.944   6.543 -0.9437  1.7850 -1.1847
15192SOL     OW46863   1.988   6.294   4.313  0.1812  0.4983  0.1989
15192SOL    HW146864   2.014   6.207   4.280 -1.1537 -0.0907  0.6251
15192SOL    HW246865   2.010   6.292   4.406 -2.5097 -0.5540  0.9115
15193SOL     OW46866   1.258   2.508   7.313  0.1416 -0.0903 -0.7907
15193SOL    HW146867   1.282   2.430   7.363  0.8488  1.6421  1.7583
15193SOL    HW246868   1.279   2.486   7.222  0.5989 -2.7240 -0.1243
15194SOL     OW46869   0.681   4.042   7.938  0.1345 -0.5354  0.0794
15194SOL    HW146870   0.770   4.027   7.906 -0.7634 -0.6268 -2.6023
15194SOL    HW246871   0.636   3.959   7.923 -0.4139 -0.5071  1.4842
15195SOL     OW46872   4.935   7.423   0.561 -0.2948  0.1572 -0.1355
15195SOL    HW146873   5.003   7.443   0.626 -0.6483  1.4440 -0.1345
15195SOL    HW246874   4.873   7.367   0.607  2.0319 -3.3684 -0.8700
15196SOL     OW46875   8.226   7.800   4.263  0.7629 -0.0631  0.1881
15196SOL    HW146876   8.152   7.760   4.308  0.9052  1.8117  2.3093
15196SOL    HW246877   8.186   7.860   4.200  0.5362 -1.0677 -0.6471
15197SOL     OW46878   6.349   3.971   5.268 -0.3981  0.3370 -0.0854
15197SOL    HW146879   6.382   3.952   5.356 -0.6635  1.0993  0.1943
15197SOL    HW246880   6.281   3.907   5.253 -1.3042  1.0506  0.8385
15198SOL     OW46881   0.616   0.390   7.674 -0.7630 -0.0927 -0.2547
15198SOL    HW146882   0.563   0.314   7.651 -0.5726 -0.3191  0.0535
15198SOL    HW246883   0.593   0.410   7.764 -1.3563  0.6746 -0.5573
15199SOL     OW46884   7.131   7.182   2.708  0.5273 -0.0191  0.9146
15199SOL    HW146885   7.148   7.275   2.697  2.1393 -0.4972 -1.3439
15199SOL    HW246886   7.040   7.171   2.683  0.9754  0.6683 -1.2563
15200SOL     OW46887   4.836   3.531   0.445 -0.0539 -0.0855  0.2529
15200SOL    HW146888   4.836   3.585   0.367  1.6049 -0.3299  0.0380
15200SOL    HW246889   4.845   3.593   0.517  2.5329 -0.0324 -0.0311
15201SOL     OW46890   7.214   7.747   7.542  0.2170 -0.3907 -0.3700
15201SOL    HW146891   7.216   7.744   7.638 -0.9426  0.0878 -0.3103
15201SOL    HW246892   7.240   7.836   7.520  1.2467 -0.7237 -0.5496
15202SOL     OW46893   0.602   2.380   4.789 -0.6251  0.0462  0.0524
15202SOL    HW146894   0.589   2.294   4.750  0.7781 -0.1962  0.0874
15202SOL    HW246895   0.682   2.372   4.841 -0.6600  1.2783  0.3327
15203SOL     OW46896   4.555   1.883   3.318  0.5024 -0.6585  0.3220
15203SOL    HW146897   4.553   1.919   3.229  2.7966 -0.2316  0.3723
15203SOL    HW246898   4.567   1.960   3.374  1.3137 -1.1083  0.7867
15204SOL     OW46899   5.761   7.790   2.330  0.2327 -0.7880 -0.2429
15204SOL    HW146900   5.760   7.880   2.298  1.3396 -0.3779  0.8009
15204SOL    HW246901   5.815   7.743   2.266  0.0495 -0.6086 -0.5313
15205SOL     OW46902   8.018   1.065   4.899  0.5239  0.0302 -0.1905
15205SOL    HW146903   8.024   0.997   4.832  1.4687 -0.7074  0.6091
15205SOL    HW246904   7.978   1.021   4.974  0.8686  0.4400  0.2350
15206SOL     OW46905   0.425   0.283   4.367 -0.0964  0.0705 -0.2959
15206SOL    HW146906   0.381   0.257   4.448  0.0588 -0.0575 -0.2523
15206SOL    HW246907   0.430   0.202   4.315 -0.8005  0.2955 -0.7176
15207SOL     OW46908   2.239   0.744   1.480  0.0695 -0.1959 -0.1771
15207SOL    HW146909   2.282   0.677   1.425 -0.0991 -0.4055 -0.0554
15207SOL    HW246910   2.297   0.820   1.475  0.9189 -0.7600  0.6924
15208SOL     OW46911   2.364   2.955   0.693 -0.1381 -0.5186 -0.2114
15208SOL    HW146912   2.418   2.904   0.753  0.1615  0.6245  0.5300
15208SOL    HW246913   2.376   2.913   0.608  0.0471 -1.6970  0.3835
15209SOL     OW46914   4.333   6.755   1.147  0.8928 -0.1449  0.1676
15209SOL    HW146915   4.385   6.694   1.199  2.0112  0.5333 -0.1208
15209SOL    HW246916   4.250   6.764   1.195  1.3164 -0.6937  1.0125
15210SOL     OW46917   6.531   4.538   7.410  0.3179 -0.6101  0.0467
15210SOL    HW146918   6.541   4.448   7.378  0.6259 -1.3943  2.1990
15210SOL    HW246919   6.437   4.553   7.408  0.2128 -1.2081  0.2358
15211SOL     OW46920   5.645   5.608   3.329 -0.3395  0.1543  0.4995
15211SOL    HW146921   5.736   5.581   3.323 -0.0489  1.2565 -0.3093
15211SOL    HW246922   5.617   5.619   3.238 -1.0290  0.6304  0.7588
15212SOL     OW46923   8.344   4.601   7.654  0.2711 -0.1577  0.2355
15212SOL    HW146924   8.375   4.535   7.592  0.9606  0.4736 -0.1150
15212SOL    HW246925   8.349   4.683   7.605  0.3009  0.2757  0.9524
15213SOL     OW46926   7.954   3.897   0.673 -0.5847 -0.0932  0.4737
15213SOL    HW146927   8.039   3.863   0.644 -0.8082 -0.7730  0.5996
15213SOL    HW246928   7.974   3.951   0.749 -0.1283  0.7400 -0.2155
15214SOL     OW46929   7.083   8.341   1.585 -0.2070  0.4289 -0.0118
15214SOL    HW146930   7.124   8.288   1.653  1.1685  2.2325  0.6580
15214SOL    HW246931   7.022   8.398   1.631  0.5288  1.4711 -0.2817
15215SOL     OW46932   4.665   6.685   7.584  0.6163  0.1060 -0.0752
15215SOL    HW146933   4.603   6.711   7.652  0.8068  1.0700 -0.2454
15215SOL    HW246934   4.720   6.763   7.572  1.0712 -0.3186 -0.7910
15216SOL     OW46935   7.520   3.952   7.419  0.1678 -0.0664 -0.4236
15216SOL    HW146936   7.516   4.028   7.361 -0.8477 -0.3341 -0.7384
15216SOL    HW246937   7.436   3.908   7.406  0.5581 -0.9989  0.0845
15217SOL     OW46938   4.031   3.834   5.594 -0.4855  0.5879 -0.2437
15217SOL    HW146939   4.091   3.909   5.591  1.5917 -1.0105 -0.0268
15217SOL    HW246940   3.960   3.860   5.535  1.9526  1.3005 -3.1398
15218SOL     OW46941   2.944   5.302   2.228  0.0168  0.1748  0.1829
15218SOL    HW146942   3.039   5.292   2.227 -0.0446 -0.7039  1.0672
15218SOL    HW246943   2.929   5.393   2.251  0.6971 -0.4728  3.7666
15219SOL     OW46944   7.032   5.474   4.544  0.2863  0.8144  0.5220
15219SOL    HW146945   6.979   5.457   4.623  1.2644  0.6927  1.1730
15219SOL    HW246946   7.093   5.401   4.541  0.5389  1.0515 -0.1132
15220SOL     OW46947   7.342   5.901   7.580 -0.0379 -0.0120  0.9224
15220SOL    HW146948   7.264   5.946   7.613 -0.2721  0.2505  0.0505
15220SOL    HW246949   7.348   5.929   7.489  1.7455  0.9234  1.2736
15221SOL     OW46950   7.583   1.147   7.032 -0.3447  0.6764 -0.4336
15221SOL    HW146951   7.580   1.212   7.103  2.3605 -0.6898  1.1029
15221SOL    HW246952   7.573   1.063   7.076 -0.2063 -0.1456 -1.9118
15222SOL     OW46953   6.394   2.972   5.673 -0.6629  0.0788 -0.8260
15222SOL    HW146954   6.301   2.963   5.657 -0.8303  1.7330 -0.9708
15222SOL    HW246955   6.400   3.010   5.761 -0.1966  1.0337 -1.2546
15223SOL     OW46956   4.784   3.551   7.205  0.1714  0.2044  0.1397
15223SOL    HW146957   4.856   3.614   7.197  0.1742  0.2355  0.3808
15223SOL    HW246958   4.738   3.555   7.122 -0.0515  0.8007  0.2919
15224SOL     OW46959   1.660   7.240   7.050  0.0906 -0.3249  0.0735
15224SOL    HW146960   1.586   7.301   7.057  0.0078 -0.5362  1.0914
15224SOL    HW246961   1.651   7.182   7.125  2.4957  0.9393  1.4625
15225SOL     OW46962   7.544   7.908   6.513  0.7302 -0.1469  0.2311
15225SOL    HW146963   7.534   7.913   6.418 -0.0870  1.6752  0.3707
15225SOL    HW246964   7.458   7.931   6.547  0.9997 -0.8266  1.4232
15226SOL     OW46965   5.764   3.848   1.702  0.1397  0.9937  0.0365
15226SOL    HW146966   5.784   3.760   1.669 -1.2375  0.7686 -0.2833
15226SOL    HW246967   5.725   3.893   1.627 -4.5961 -0.0370  1.5512
15227SOL     OW46968   8.420   3.893   4.932  0.0934  0.0093  0.1247
15227SOL    HW146969   8.356   3.911   4.862  0.4280 -0.0567 -0.2002
15227SOL    HW246970   8.475   3.971   4.935  1.4175 -0.8315 -1.1446
15228SOL     OW46971   1.434   6.077   5.386 -0.6619  0.0387  0.0785
15228SOL    HW146972   1.351   6.069   5.432 -0.2696  0.0512  0.7948
15228SOL    HW246973   1.462   6.167   5.403 -0.1256 -0.2027  0.4827
15229SOL     OW46974   6.068   7.698   1.237  0.3654  0.5980 -0.0201
15229SOL    HW146975   5.973   7.690   1.249  0.6168  0.5403  2.4323
15229SOL    HW246976   6.087   7.645   1.160 -1.4525 -0.2809  0.0803
15230SOL     OW46977   2.107   8.106   4.404  0.3390  0.1277 -0.1339
15230SOL    HW146978   2.042   8.060   4.457  1.7641 -0.0625  1.5501
15230SOL    HW246979   2.099   8.067   4.317 -1.5734 -0.0703  0.0825
15231SOL     OW46980   3.280   3.053   4.119  0.8512 -0.1247  0.4835
15231SOL    HW146981   3.358   3.002   4.101  1.7493  1.2959  0.2253
15231SOL    HW246982   3.209   3.003   4.079  1.7360 -0.9895 -0.0471
15232SOL     OW46983   0.108   6.096   3.485 -0.9987 -0.2018  0.1197
15232SOL    HW146984   0.036   6.113   3.425 -1.1275  0.4387  0.4371
15232SOL    HW246985   0.099   6.004   3.509 -1.0128 -0.4291 -0.7449
15233SOL     OW46986   1.195   2.971   4.337 -0.5048 -0.2972 -0.0789
15233SOL    HW146987   1.138   2.959   4.261 -1.2078  2.1916 -0.0191
15233SOL    HW246988   1.183   3.062   4.362  1.7892 -0.3212  1.3849
15234SOL     OW46989   1.936   3.878   3.188 -0.9560 -0.6584  0.5083
15234SOL    HW146990   1.851   3.872   3.144  0.5050 -0.4980 -2.6190
15234SOL    HW246991   1.979   3.794   3.169  0.8087  0.4851 -0.9469
15235SOL     OW46992   0.088   1.216   1.955 -0.2965  0.0256  0.0008
15235SOL    HW146993   0.082   1.182   2.044  0.4627  2.3914  1.0415
15235SOL    HW246994   0.035   1.296   1.956  2.6700  2.1918 -0.4645
15236SOL     OW46995   3.029   7.040   2.259  0.0776 -0.6229 -0.1735
15236SOL    HW146996   3.051   7.132   2.277  0.5896 -0.9385  0.8657
15236SOL    HW246997   2.936   7.033   2.281  0.1831 -0.4846  0.3426
15237SOL     OW46998   8.664   6.721   7.745 -0.3853 -0.3950  0.2576
15237SOL    HW146999   8.724   6.752   7.813  2.1247 -1.6450 -1.2124
15237SOL    HW247000   8.695   6.764   7.665 -1.8124 -0.6862 -0.4864
15238SOL     OW47001   5.238   0.088   6.121 -0.3975  0.1016  0.3194
15238SOL    HW147002   5.172   0.074   6.053 -2.3719 -0.0247  2.1461
15238SOL    HW247003   5.192   0.137   6.189  1.9348  1.6156  0.9323
15239SOL     OW47004   8.521   4.432   4.460 -0.2323 -0.5321 -0.5677
15239SOL    HW147005   8.456   4.494   4.494  1.2192  0.4089  0.6092
15239SOL    HW247006   8.534   4.459   4.369  0.3167  0.8834 -0.0941
15240SOL     OW47007   2.473   6.888   0.126 -0.3389  0.3846 -0.3579
15240SOL    HW147008   2.433   6.972   0.147  0.8977  0.4549  2.1208
15240SOL    HW247009   2.413   6.823   0.163 -0.2461  0.2778 -0.3935
15241SOL     OW47010   0.796   2.383   1.061 -0.8014  0.3210  0.5201
15241SOL    HW147011   0.845   2.304   1.036 -1.3627  0.1627 -0.1062
15241SOL    HW247012   0.736   2.397   0.988  0.2058  2.1115 -0.0241
15242SOL     OW47013   8.297   1.870   2.020  0.1919  0.0663 -0.8030
15242SOL    HW147014   8.233   1.815   2.066  0.4521  1.6323  1.6439
15242SOL    HW247015   8.244   1.927   1.964 -0.3917 -0.1477 -0.4827
15243SOL     OW47016   7.588   0.611   0.846 -0.0683  0.3406  0.0879
15243SOL    HW147017   7.493   0.626   0.846 -0.5945 -2.4781  0.3648
15243SOL    HW247018   7.616   0.634   0.935 -0.6406  0.3352  0.2735
15244SOL     OW47019   7.984   4.519   5.921 -0.3585  0.4195 -0.2280
15244SOL    HW147020   7.996   4.460   5.996 -0.5226 -0.8556 -1.1700
15244SOL    HW247021   7.894   4.551   5.930  0.4390  2.3828  1.5378
15245SOL     OW47022   3.567   2.080   3.088  0.0671 -0.2324 -0.1133
15245SOL    HW147023   3.653   2.043   3.069  1.1106  0.9121  2.0134
15245SOL    HW247024   3.557   2.152   3.025 -0.4663 -1.8361 -1.9651
15246SOL     OW47025   1.988   4.582   1.254 -0.1375  0.0002 -1.0679
15246SOL    HW147026   1.977   4.491   1.282  0.0418  0.4370  0.4586
15246SOL    HW247027   2.075   4.607   1.285 -1.0709  1.3944  0.5762
15247SOL     OW47028   3.338   7.521   1.916 -0.1104  0.3145 -1.4292
15247SOL    HW147029   3.259   7.480   1.880 -0.3873  1.2237 -1.8754
15247SOL    HW247030   3.409   7.488   1.862 -0.3831  0.7422 -2.0578
15248SOL     OW47031   7.959   0.295   0.446 -0.0985 -0.1299 -0.5580
15248SOL    HW147032   7.937   0.203   0.458  1.3527 -0.4514 -0.2379
15248SOL    HW247033   7.875   0.337   0.427 -1.2832 -0.9910  2.3047
15249SOL     OW47034   3.141   1.541   3.039 -0.4230  0.2034  0.3649
15249SOL    HW147035   3.212   1.579   2.986  0.7359 -1.6186  0.5368
15249SOL    HW247036   3.114   1.612   3.097  1.6853  0.8061  0.6986
15250SOL     OW47037   0.873   4.509   5.311 -0.5073  0.6188  0.2281
15250SOL    HW147038   0.833   4.449   5.374 -0.2272  0.1701 -0.0200
15250SOL    HW247039   0.945   4.550   5.359 -0.2654  0.2435  0.1875
15251SOL     OW47040   1.069   1.465   2.379 -0.6231 -0.2452  0.3460
15251SOL    HW147041   1.003   1.474   2.311  1.2443 -0.9400 -1.6902
15251SOL    HW247042   1.122   1.545   2.371  2.4624 -2.3216 -2.4195
15252SOL     OW47043   5.967   2.117   8.041 -0.3095 -0.1878  0.5138
15252SOL    HW147044   6.003   2.029   8.047  0.7568  0.3148  2.5296
15252SOL    HW247045   6.043   2.173   8.030 -0.7848  0.6125  1.1782
15253SOL     OW47046   3.474   6.294   1.737  0.0434  0.0378  0.0590
15253SOL    HW147047   3.407   6.293   1.669 -0.2029  0.3205  0.2944
15253SOL    HW247048   3.549   6.338   1.697  0.4696 -1.1926 -0.5522
15254SOL     OW47049   6.630   6.163   6.482  0.4489  0.4884 -0.3725
15254SOL    HW147050   6.672   6.236   6.528 -2.0606  1.2096  0.9607
15254SOL    HW247051   6.702   6.104   6.459  2.2899  2.2565  0.5696
15255SOL     OW47052   6.116   7.347   1.772  0.5771  0.4985  0.3375
15255SOL    HW147053   6.030   7.372   1.806  1.2100  1.7801  1.0729
15255SOL    HW247054   6.127   7.400   1.693 -0.0473 -1.0157 -0.8262
15256SOL     OW47055   4.743   6.334   2.361 -0.4554  0.6294 -0.5981
15256SOL    HW147056   4.802   6.265   2.390 -0.1101  1.1813  0.0509
15256SOL    HW247057   4.657   6.292   2.357 -0.5451  0.5335  1.3600
15257SOL     OW47058   3.128   4.666   5.939  0.0757 -0.5614 -0.0706
15257SOL    HW147059   3.052   4.718   5.966 -0.0623 -0.2863 -0.9589
15257SOL    HW247060   3.091   4.583   5.909  0.3422 -1.5206  2.0210
15258SOL     OW47061   7.343   3.083   0.605  0.1280  0.0796 -0.2534
15258SOL    HW147062   7.320   2.992   0.585  1.3079  0.1721 -2.1993
15258SOL    HW247063   7.305   3.133   0.533  1.7011  0.8225 -0.5808
15259SOL     OW47064   0.108   7.438   1.425 -0.0318  0.0290 -0.0719
15259SOL    HW147065   0.031   7.482   1.461 -0.3617 -0.1930 -0.4943
15259SOL    HW247066   0.084   7.418   1.334  0.6625  0.2849 -0.3189
15260SOL     OW47067   6.758   0.277   8.590  0.3551  0.4486  0.2240
15260SOL    HW147068   6.680   0.230   8.621  0.0579  0.8994  0.1703
15260SOL    HW247069   6.830   0.241   8.641  0.2863 -0.7668 -0.4938
15261SOL     OW47070   1.237   4.856   6.991  0.0365  0.5145 -0.4261
15261SOL    HW147071   1.195   4.937   6.961 -0.1168  1.4447  2.0845
15261SOL    HW247072   1.185   4.786   6.951 -1.0122  1.6538 -1.1208
15262SOL     OW47073   2.970   7.516   0.994 -0.4228  0.3632 -0.1935
15262SOL    HW147074   2.984   7.478   0.907  1.3932 -1.5062  0.8534
15262SOL    HW247075   3.009   7.603   0.988  2.8246 -0.9869 -0.3666
15263SOL     OW47076   5.770   3.364   5.772 -0.7433  0.3196 -0.5305
15263SOL    HW147077   5.777   3.450   5.729 -0.5211 -0.2205 -1.6226
15263SOL    HW247078   5.849   3.358   5.825 -0.6661  0.7144 -0.5917
15264SOL     OW47079   3.310   1.077   7.429 -0.3330  0.2899 -0.4694
15264SOL    HW147080   3.347   1.163   7.450 -1.0092  0.4125  0.2934
15264SOL    HW247081   3.249   1.095   7.357 -1.1590  0.6299  0.2918
15265SOL     OW47082   0.035   3.820   6.723 -0.5813  1.0083 -0.1592
15265SOL    HW147083  -0.013   3.737   6.731  0.4877  0.5290  1.9382
15265SOL    HW247084  -0.008   3.879   6.784  0.4224  1.0719  0.5176
15266SOL     OW47085   4.022   2.474   6.322 -0.0168  0.0832  0.1420
15266SOL    HW147086   3.964   2.543   6.355 -0.1084  0.7189 -1.2890
15266SOL    HW247087   4.100   2.481   6.378 -0.4208  0.6873  0.6529
15267SOL     OW47088   2.329   8.154   3.551 -0.3636 -0.5720  0.6803
15267SOL    HW147089   2.292   8.084   3.605 -3.1785  1.1447  1.1582
15267SOL    HW247090   2.370   8.213   3.614 -0.5050 -0.3570  0.5714
15268SOL     OW47091   1.966   1.016   2.472  0.0810  0.2879  0.3884
15268SOL    HW147092   1.990   0.930   2.439  0.1354  0.9255 -1.3232
15268SOL    HW247093   1.870   1.017   2.467  0.1420  1.4261 -2.7599
15269SOL     OW47094   7.165   3.804   0.782 -0.2441  0.1757 -0.0033
15269SOL    HW147095   7.077   3.837   0.764 -0.5099 -1.5146 -2.2944
15269SOL    HW247096   7.165   3.715   0.746  2.0426 -0.3359  1.0715
15270SOL     OW47097   6.809   1.412   7.248  0.3720  0.0113  0.4534
15270SOL    HW147098   6.728   1.381   7.289  0.1195  1.6080  1.2389
15270SOL    HW247099   6.866   1.335   7.247 -0.4543 -0.6590  1.6825
15271SOL     OW47100   2.861   0.678   2.903 -1.1888 -0.5871 -0.3940
15271SOL    HW147101   2.808   0.740   2.953 -0.6317 -0.2070 -0.2634
15271SOL    HW247102   2.941   0.668   2.955 -0.9392 -0.7970 -0.8165
15272SOL     OW47103   2.458   3.346   7.755 -0.3478  0.0398  0.4412
15272SOL    HW147104   2.511   3.340   7.834 -2.0545 -1.9142  1.5366
15272SOL    HW247105   2.368   3.356   7.787 -1.3571 -2.8895 -1.0971
15273SOL     OW47106   7.367   7.483   3.858  0.8677 -0.5655 -0.3401
15273SOL    HW147107   7.320   7.560   3.827  0.9885 -0.6642 -0.7713
15273SOL    HW247108   7.458   7.513   3.869  0.8523 -0.5654 -0.2129
15274SOL     OW47109   1.457   3.259   5.735  0.1507  0.2723  0.8658
15274SOL    HW147110   1.373   3.221   5.711  1.1139 -0.5914 -1.3957
15274SOL    HW247111   1.509   3.186   5.768  0.8933  0.2562 -0.3008
15275SOL     OW47112   5.192   0.996   6.321 -0.8423 -0.4804  0.4640
15275SOL    HW147113   5.210   1.083   6.357 -0.6157  0.7202 -2.2601
15275SOL    HW247114   5.097   0.986   6.329 -0.8563 -0.0260  0.9228
15276SOL     OW47115   0.217   0.976   7.832 -0.4064 -0.2062  0.1723
15276SOL    HW147116   0.245   1.030   7.906  1.3986  1.3172 -1.5008
15276SOL    HW247117   0.194   0.892   7.870  2.0423 -0.0216  2.2909
15277SOL     OW47118   3.953   6.230   4.944  0.6796  0.3522 -0.3416
15277SOL    HW147119   3.950   6.321   4.976  0.1435  0.6956 -1.3265
15277SOL    HW247120   3.965   6.178   5.023 -0.5365  1.1769  0.4319
15278SOL     OW47121   1.025   7.367   0.070 -0.6148 -0.0957  0.1126
15278SOL    HW147122   1.007   7.405   0.156 -0.8309 -0.8694  0.4185
15278SOL    HW247123   1.061   7.280   0.089  0.0649  0.0282 -0.5675
15279SOL     OW47124   4.765   2.270   4.557  0.2741  0.2260 -0.4817
15279SOL    HW147125   4.831   2.334   4.585  1.1771 -1.8412  2.6709
15279SOL    HW247126   4.796   2.239   4.472  1.8273  1.3126 -0.3596
15280SOL     OW47127   8.148   5.606   4.177 -0.1072  0.2919 -0.0179
15280SOL    HW147128   8.092   5.683   4.187  0.5448  0.5728  1.7660
15280SOL    HW247129   8.191   5.620   4.092  0.9766  2.5935  0.8141
15281SOL     OW47130   5.003   6.598   2.515 -0.0111 -0.0294 -0.6163
15281SOL    HW147131   4.915   6.567   2.537 -0.1684  0.9538  0.2566
15281SOL    HW247132   5.027   6.655   2.588  0.8710  0.6594 -1.4125
15282SOL     OW47133   4.787   0.750   0.707  0.5902  0.3643  0.0915
15282SOL    HW147134   4.782   0.663   0.747  2.0988 -0.4250 -1.3243
15282SOL    HW247135   4.880   0.767   0.697  0.3794  2.6557  1.2744
15283SOL     OW47136   8.540   5.557   3.056  0.1382 -0.4997  0.1189
15283SOL    HW147137   8.593   5.627   3.094 -1.8123  1.1387 -0.0089
15283SOL    HW247138   8.564   5.479   3.107  0.8407  0.6982  1.7073
15284SOL     OW47139   7.040   5.269   6.472  0.0220  0.0355 -0.2410
15284SOL    HW147140   7.072   5.330   6.407  0.0843 -0.5669 -0.7865
15284SOL    HW247141   7.112   5.259   6.534  0.1393  0.2504 -0.3435
15285SOL     OW47142   1.356   5.700   6.049  0.4170 -0.5591  0.1993
15285SOL    HW147143   1.441   5.673   6.085  0.1304  0.2156  1.5001
15285SOL    HW247144   1.295   5.633   6.079  0.6210 -1.3621 -1.1123
15286SOL     OW47145   5.565   8.141   4.630  0.3804 -0.4287  0.4017
15286SOL    HW147146   5.648   8.181   4.655 -0.3123  0.2985  1.6082
15286SOL    HW247147   5.568   8.053   4.668  0.8147 -0.6083 -0.0328
15287SOL     OW47148   1.782   7.181   0.587 -0.2307  0.9718 -0.2308
15287SOL    HW147149   1.717   7.110   0.588  0.3310  0.4496  1.0360
15287SOL    HW247150   1.741   7.251   0.638 -0.5099  1.3312 -0.9275
15288SOL     OW47151   1.378   5.196   1.335 -0.1352  0.2337 -0.3126
15288SOL    HW147152   1.356   5.146   1.257  0.2970 -0.6843  0.1380
15288SOL    HW247153   1.297   5.200   1.386 -0.2049  0.1089 -0.4148
15289SOL     OW47154   7.615   1.155   5.782  0.3007 -0.6278 -0.3637
15289SOL    HW147155   7.548   1.204   5.734  0.9265  0.3557 -0.2776
15289SOL    HW247156   7.566   1.095   5.838 -0.7817  2.6832  2.5966
15290SOL     OW47157   8.392   8.583   8.418 -0.3441  0.2711  0.8249
15290SOL    HW147158   8.432   8.647   8.359 -0.2492 -0.0596  0.5215
15290SOL    HW247159   8.424   8.498   8.386 -0.4517  0.0752  1.2314
15291SOL     OW47160   1.794   8.692   7.078  0.0251  0.0635 -0.0443
15291SOL    HW147161   1.888   8.698   7.059  0.4111  1.0012  1.8843
15291SOL    HW247162   1.786   8.612   7.130  0.1200  0.9955  1.4657
15292SOL     OW47163   6.166   5.030   1.616 -0.0857  0.5044 -0.2681
15292SOL    HW147164   6.107   4.985   1.554  0.1027  1.1302 -0.9101
15292SOL    HW247165   6.253   4.998   1.593  0.3202  2.7285 -2.1517
15293SOL     OW47166   2.195   0.625   8.451 -0.3845  0.0511  0.2550
15293SOL    HW147167   2.164   0.715   8.455  0.5135  0.3928 -0.2730
15293SOL    HW247168   2.119   0.572   8.477 -0.8087  0.9724  0.9235
15294SOL     OW47169   4.902   4.018   6.746 -0.1126 -0.1880 -0.2685
15294SOL    HW147170   4.842   4.077   6.700  0.6746  0.6006 -0.3167
15294SOL    HW247171   4.920   3.948   6.683  0.3020  0.4404 -0.8578
15295SOL     OW47172   1.987   3.528   1.215  0.5515  0.3885  0.7332
15295SOL    HW147173   2.057   3.467   1.191 -0.4376 -0.0891 -1.0642
15295SOL    HW247174   1.913   3.504   1.159 -0.6337  1.7439  1.6434
15296SOL     OW47175   8.340   7.177   3.819 -0.0739  0.1871 -0.0482
15296SOL    HW147176   8.370   7.167   3.729  0.9585  1.0436  0.1766
15296SOL    HW247177   8.255   7.222   3.811  1.0203  2.2856 -0.5502
15297SOL     OW47178   2.914   0.812   2.020 -0.0329 -0.3287 -0.2728
15297SOL    HW147179   2.947   0.725   1.998 -0.6498 -0.9793  1.2310
15297SOL    HW247180   2.830   0.795   2.064 -0.4675  1.0654 -0.5259
15298SOL     OW47181   2.689   5.470   5.003  0.3011 -0.4944 -0.1392
15298SOL    HW147182   2.685   5.379   5.033 -0.6743 -0.0668  1.1447
15298SOL    HW247183   2.765   5.507   5.048 -0.6478 -0.0911  1.2061
15299SOL     OW47184   0.796   0.271   1.938  0.3237 -0.0415 -0.4473
15299SOL    HW147185   0.723   0.312   1.985  1.0986  0.1126  0.6351
15299SOL    HW247186   0.807   0.186   1.980  1.0173  0.0911 -0.3611
15300SOL     OW47187   1.696   1.048   5.714  0.0751  0.2720  0.9100
15300SOL    HW147188   1.646   1.116   5.669 -0.2252  0.3010  1.2904
15300SOL    HW247189   1.783   1.087   5.726  0.2364  0.1742  0.1422
15301SOL     OW47190   1.654   5.959   6.814  0.3324 -0.5173 -0.0622
15301SOL    HW147191   1.647   5.906   6.893  0.2898 -1.7571 -0.8617
15301SOL    HW247192   1.614   5.905   6.745  0.5479  0.4394 -0.9721
15302SOL     OW47193   0.877   4.288   1.676  0.3697 -0.3166  0.7547
15302SOL    HW147194   0.954   4.276   1.620 -0.1332 -0.2097  0.0311
15302SOL    HW247195   0.864   4.202   1.718  1.3833 -0.1024  1.5556
15303SOL     OW47196   7.124   7.828   0.515  0.0453  0.1736 -0.5526
15303SOL    HW147197   7.057   7.837   0.582 -0.5241 -3.5917 -0.4282
15303SOL    HW247198   7.201   7.796   0.562  0.0732 -1.1454 -1.4477
15304SOL     OW47199   6.341   1.165   3.214  0.1323  0.2561 -0.1241
15304SOL    HW147200   6.431   1.145   3.186  0.6150 -0.5214  1.7999
15304SOL    HW247201   6.323   1.251   3.177  2.4534  1.3609  1.0658
15305SOL     OW47202   5.738   2.339   2.312  0.1584  0.0045 -0.1971
15305SOL    HW147203   5.789   2.300   2.384 -0.2900 -0.2146  0.0065
15305SOL    HW247204   5.649   2.342   2.346  0.2462  1.6187 -0.0412
15306SOL     OW47205   2.086   4.261   7.830  0.4014 -0.0940 -0.2104
15306SOL    HW147206   2.110   4.345   7.792 -0.0043  0.1906  0.1636
15306SOL    HW247207   2.121   4.263   7.919  3.5951 -1.7383 -1.2637
15307SOL     OW47208   4.017   8.601   3.011 -0.4311 -0.1334  0.0669
15307SOL    HW147209   3.970   8.552   2.944  0.0602 -0.1861 -0.2481
15307SOL    HW247210   4.092   8.639   2.965 -0.8744  1.0414  0.2639
15308SOL     OW47211   8.463   4.393   5.236 -0.0725  0.2533  0.6733
15308SOL    HW147212   8.432   4.483   5.231 -1.4163 -0.2597 -2.2829
15308SOL    HW247213   8.387   4.343   5.266 -0.7565 -0.3654 -1.8442
15309SOL     OW47214   3.281   5.668   7.563  0.0998 -0.4124  0.6417
15309SOL    HW147215   3.357   5.614   7.541 -1.4044 -2.0770 -0.7521
15309SOL    HW247216   3.228   5.613   7.620 -2.0793 -1.0336 -1.7970
15310SOL     OW47217   7.758   4.805   1.017  0.3385 -0.4711 -0.0810
15310SOL    HW147218   7.818   4.859   1.069  0.6555 -2.2585  1.4941
15310SOL    HW247219   7.671   4.839   1.039  0.5653 -0.2135  0.4449
15311SOL     OW47220   7.115   0.554   3.792  0.3753 -0.4408 -0.0108
15311SOL    HW147221   7.180   0.575   3.859 -0.6045  3.0032  0.0324
15311SOL    HW247222   7.031   0.552   3.839  0.0846 -2.4428 -0.4831
15312SOL     OW47223   5.022   4.285   3.867  0.1839 -0.2599 -0.0166
15312SOL    HW147224   5.016   4.251   3.957 -0.3671 -0.1068  0.0092
15312SOL    HW247225   4.985   4.373   3.872  0.5851 -0.0684 -0.3061
15313SOL     OW47226   0.282   3.434   5.417 -0.0190  0.6471  0.6872
15313SOL    HW147227   0.370   3.446   5.452 -0.5647 -0.5022  2.5451
15313SOL    HW247228   0.259   3.343   5.438 -0.9790  0.3467 -1.3720
15314SOL     OW47229   7.767   2.007   6.922 -0.5771 -0.1113 -0.2413
15314SOL    HW147230   7.708   1.981   6.851 -0.1368  0.4787 -0.8443
15314SOL    HW247231   7.828   1.934   6.931 -0.9620 -0.4204 -0.0949
15315SOL     OW47232   2.447   4.246   5.440  0.2063 -0.4826  0.0839
15315SOL    HW147233   2.486   4.294   5.367 -0.6530 -1.2787 -0.9157
15315SOL    HW247234   2.446   4.155   5.412 -0.0180 -0.8313  1.1521
15316SOL     OW47235   3.323   0.142   4.636 -0.4907 -0.5467  0.3136
15316SOL    HW147236   3.261   0.107   4.572 -2.5760  0.3558  1.7011
15316SOL    HW247237   3.321   0.078   4.708  0.6015 -0.7499  0.1813
15317SOL     OW47238   6.325   3.865   7.355  0.2152 -0.1505 -0.3503
15317SOL    HW147239   6.375   3.904   7.426 -0.4445  0.9423 -0.4656
15317SOL    HW247240   6.386   3.861   7.281  0.9693 -1.4884  0.3043
15318SOL     OW47241   1.952   5.122   3.614 -0.1701 -0.0998  0.5994
15318SOL    HW147242   2.028   5.068   3.592  0.0766  0.5322 -0.1213
15318SOL    HW247243   1.980   5.211   3.597 -0.5129  0.2866  1.9680
15319SOL     OW47244   4.437   0.070   5.611  0.3619 -0.2326  0.0972
15319SOL    HW147245   4.532   0.078   5.621  0.2120  0.9002  0.7684
15319SOL    HW247246   4.408   0.024   5.690  0.1974  0.7734  0.6422
15320SOL     OW47247   2.874   3.584   6.171  0.0225  0.5510 -0.1312
15320SOL    HW147248   2.932   3.659   6.188  0.8841 -0.1393  0.0791
15320SOL    HW247249   2.852   3.551   6.258 -0.1898  0.4367 -0.2280
15321SOL     OW47250   1.587   0.372   2.307 -0.1299  0.3876  0.6877
15321SOL    HW147251   1.505   0.349   2.263  0.7962  0.5315 -1.1937
15321SOL    HW247252   1.617   0.289   2.345 -0.3588 -0.0031  0.0333
15322SOL     OW47253   6.266   5.536   0.171 -0.1710  0.2007 -0.2443
15322SOL    HW147254   6.287   5.452   0.210 -1.0785  0.4392  0.8291
15322SOL    HW247255   6.349   5.570   0.139  0.1196 -1.3436 -1.2271
15323SOL     OW47256   4.849   2.962   7.515 -0.1338 -0.3147 -0.8166
15323SOL    HW147257   4.818   2.899   7.450  0.4359 -1.2700 -0.1925
15323SOL    HW247258   4.809   2.933   7.597  1.5155 -0.9385 -0.1977
15324SOL     OW47259   0.643   6.005   8.486 -0.2954 -0.1695 -0.1548
15324SOL    HW147260   0.684   6.091   8.484 -0.5391 -0.0613 -1.2680
15324SOL    HW247261   0.656   5.971   8.397  0.9493 -1.8412  0.6247
15325SOL     OW47262   4.406   4.633   1.008 -0.0717 -0.1971  0.0722
15325SOL    HW147263   4.439   4.710   0.962 -0.4680 -0.0409  0.0414
15325SOL    HW247264   4.454   4.631   1.090 -1.5255  1.3010  1.0217
15326SOL     OW47265   2.477   0.409   4.614 -0.4823  0.7048 -0.1186
15326SOL    HW147266   2.513   0.492   4.582  0.8026  0.2318  0.0423
15326SOL    HW247267   2.383   0.417   4.599 -0.2443  1.6777 -1.2786
15327SOL     OW47268   2.874   7.752   4.375 -0.5279  0.2059 -0.2595
15327SOL    HW147269   2.968   7.769   4.380 -0.6350  2.1426 -2.9607
15327SOL    HW247270   2.864   7.662   4.408  2.5829 -0.9445 -2.0707
15328SOL     OW47271   7.941   8.504   6.309  1.0990 -0.2671  0.0840
15328SOL    HW147272   7.985   8.585   6.284  1.6049 -0.7220 -0.5269
15328SOL    HW247273   8.002   8.435   6.284  0.7094 -0.8380  0.6724
15329SOL     OW47274   3.683   7.741   4.031  0.9801 -0.2584  0.3722
15329SOL    HW147275   3.634   7.778   3.958 -1.8577 -2.4838  0.9883
15329SOL    HW247276   3.748   7.684   3.990  0.1351 -0.6580 -0.4353
15330SOL     OW47277   1.633   3.293   5.492  0.1314 -0.2189 -0.0796
15330SOL    HW147278   1.639   3.272   5.585  0.3309 -1.3135 -0.3261
15330SOL    HW247279   1.539   3.303   5.475  0.1256  0.4956  0.3363
15331SOL     OW47280   2.682   2.335   4.066 -0.6202  0.3730  0.4717
15331SOL    HW147281   2.660   2.311   3.976  1.7475  0.7395 -0.2938
15331SOL    HW247282   2.695   2.252   4.111 -0.7469  0.1825  0.1601
15332SOL     OW47283   8.205   7.427   8.174  1.0431 -0.1469 -0.2424
15332SOL    HW147284   8.122   7.428   8.126  1.5018  0.2271 -1.0655
15332SOL    HW247285   8.182   7.453   8.263  0.3150  0.2003 -0.5247
15333SOL     OW47286   1.155   2.144   7.907  0.8937 -0.2165  0.2986
15333SOL    HW147287   1.102   2.205   7.856 -1.4810 -2.5112 -0.1965
15333SOL    HW247288   1.239   2.188   7.917  0.1826  1.9830 -2.2329
15334SOL     OW47289   1.989   2.929   6.680  0.3095  0.9141 -0.1567
15334SOL    HW147290   1.933   3.002   6.654 -3.0199 -1.2950  0.2920
15334SOL    HW247291   1.944   2.851   6.648  2.3245 -1.1541  1.7007
15335SOL     OW47292   3.637   8.507   2.681  0.2939  0.8860 -0.1571
15335SOL    HW147293   3.584   8.562   2.739  0.3473  2.0294 -1.1435
15335SOL    HW247294   3.627   8.547   2.595 -0.2625 -1.1238 -1.0799
15336SOL     OW47295   5.065   5.617   5.104  0.7886 -0.1162  0.2073
15336SOL    HW147296   5.023   5.677   5.042  1.1623 -0.0399  0.0273
15336SOL    HW247297   5.059   5.532   5.062  2.2901  0.1369 -0.6006
15337SOL     OW47298   2.947   3.361   0.898  0.1379 -0.3046 -0.3799
15337SOL    HW147299   2.854   3.338   0.907  0.7006 -2.1962  1.3554
15337SOL    HW247300   2.972   3.395   0.984  1.1387 -0.1534 -0.7192
15338SOL     OW47301   2.172   4.334   3.998 -0.1253  0.1073  0.2429
15338SOL    HW147302   2.143   4.308   4.086 -2.4182  1.6896  0.0212
15338SOL    HW247303   2.148   4.259   3.943 -1.3664  0.2631  0.5294
15339SOL     OW47304   0.218   3.564   6.310  0.6014 -0.0660 -0.0056
15339SOL    HW147305   0.227   3.630   6.378 -1.3047  1.5529 -1.2046
15339SOL    HW247306   0.227   3.481   6.356 -1.6231  0.9039  2.4338
15340SOL     OW47307   7.554   3.899   0.571 -0.3113  0.0704 -0.0117
15340SOL    HW147308   7.568   3.927   0.661 -0.5096 -0.5059  0.2000
15340SOL    HW247309   7.547   3.804   0.576  1.5683 -0.1742 -0.8555
15341SOL     OW47310   2.476   7.582   6.701 -0.2305 -0.0255  0.4126
15341SOL    HW147311   2.476   7.487   6.689 -0.4003 -0.0056  0.2604
15341SOL    HW247312   2.403   7.613   6.649 -0.3787  0.1576  0.7280
15342SOL     OW47313   6.728   5.090   4.943 -0.4285 -0.3524 -0.5623
15342SOL    HW147314   6.769   5.008   4.914  0.5337  0.3431 -1.2166
15342SOL    HW247315   6.651   5.100   4.886 -1.0750 -1.2414  0.1202
15343SOL     OW47316   8.064   6.366   7.993 -0.1961  0.0744  0.7298
15343SOL    HW147317   8.117   6.404   7.924 -1.6035  0.4498 -0.1790
15343SOL    HW247318   8.011   6.300   7.950 -3.6433  2.6140  0.5888
15344SOL     OW47319   0.866   5.197   2.056 -0.1554 -0.2305  0.1023
15344SOL    HW147320   0.791   5.233   2.009  0.2655  0.0954 -0.3388
15344SOL    HW247321   0.864   5.240   2.141 -0.3701 -0.0907  0.0275
15345SOL     OW47322   6.493   3.932   6.438 -0.2867  0.0165 -0.0099
15345SOL    HW147323   6.429   3.999   6.459 -0.9482 -1.4752  3.4288
15345SOL    HW247324   6.578   3.974   6.454 -0.4440  1.1653 -1.9013
15346SOL     OW47325   2.882   0.814   0.474  0.3951  0.0291  0.4300
15346SOL    HW147326   2.855   0.905   0.463 -0.6466 -0.2354  0.6813
15346SOL    HW247327   2.966   0.808   0.427  0.4799  1.1058  0.4130
15347SOL     OW47328   5.607   4.151   2.288 -0.1301  0.4769  0.3690
15347SOL    HW147329   5.613   4.197   2.371  1.7262 -1.2440  1.2748
15347SOL    HW247330   5.690   4.103   2.281 -0.7243 -0.3548 -1.9174
15348SOL     OW47331   7.326   0.651   2.362 -0.9274 -0.1526 -0.0702
15348SOL    HW147332   7.257   0.593   2.330 -1.2576 -0.0562  0.4573
15348SOL    HW247333   7.308   0.660   2.456 -0.2957  0.0076  0.0397
15349SOL     OW47334   7.001   0.348   3.449  0.1649 -0.3215  0.3167
15349SOL    HW147335   6.923   0.372   3.498  0.7142  0.4093  0.8496
15349SOL    HW247336   6.973   0.275   3.393 -0.8392 -0.1925  0.6394
15350SOL     OW47337   7.404   7.627   0.358 -1.0977  0.1432 -0.2103
15350SOL    HW147338   7.471   7.681   0.316 -0.3198  0.4456  1.3523
15350SOL    HW247339   7.377   7.678   0.435 -0.8897 -1.3424  0.8849
15351SOL     OW47340   8.542   6.790   1.561  0.4384 -0.4109  0.3358
15351SOL    HW147341   8.513   6.761   1.475 -1.6455 -0.2355  0.9300
15351SOL    HW247342   8.606   6.724   1.588  1.8105 -0.0037 -1.6568
15352SOL     OW47343   7.750   7.071   3.492  0.1664  0.0438  0.1091
15352SOL    HW147344   7.659   7.042   3.494  0.0437  0.3051 -0.8629
15352SOL    HW247345   7.799   6.999   3.531 -0.5725  0.4829  1.9876
15353SOL     OW47346   3.948   7.987   3.007  0.0765 -0.3686  0.1332
15353SOL    HW147347   3.872   8.044   3.020 -0.8294 -0.5652 -3.2661
15353SOL    HW247348   3.919   7.900   3.033 -0.4566 -0.2197  0.0414
15354SOL     OW47349   4.430   8.493   3.320  0.0052 -0.3788 -1.1394
15354SOL    HW147350   4.525   8.491   3.330 -0.1360 -0.2223  0.4749
15354SOL    HW247351   4.413   8.563   3.258  0.8997  0.1952 -0.7444
15355SOL     OW47352   1.691   0.217   7.012  0.3233  0.7676 -0.2442
15355SOL    HW147353   1.604   0.209   7.052  0.4342  0.9965  0.0518
15355SOL    HW247354   1.727   0.129   7.015  0.1550  0.6995 -0.2351
15356SOL     OW47355   1.531   7.824   7.867 -0.0077  0.4457  0.1993
15356SOL    HW147356   1.528   7.910   7.825 -0.0773  0.1320 -0.4632
15356SOL    HW247357   1.568   7.840   7.954  1.2059  0.9680 -0.3856
15357SOL     OW47358   0.794   0.940   7.914  0.3131  0.4997  1.0071
15357SOL    HW147359   0.813   0.856   7.955  0.1793 -0.2891 -0.4702
15357SOL    HW247360   0.704   0.960   7.941 -0.4996 -0.9824 -0.3851
15358SOL     OW47361   6.555   1.791   0.381  0.1178  0.1625  0.9066
15358SOL    HW147362   6.527   1.870   0.427 -0.2213 -0.5316  1.9275
15358SOL    HW247363   6.513   1.719   0.429  0.0343 -0.6183 -0.2824
15359SOL     OW47364   2.870   8.005   2.012  0.0107 -0.2636 -0.1482
15359SOL    HW147365   2.918   8.034   1.934  1.6567  0.1262  0.9476
15359SOL    HW247366   2.794   8.063   2.016  0.5638  0.5369 -0.8112
15360SOL     OW47367   1.573   0.467   0.804  0.0144  0.6808 -0.3467
15360SOL    HW147368   1.507   0.402   0.777 -0.0251  0.7640 -0.4546
15360SOL    HW247369   1.547   0.547   0.757  0.1776  0.7204 -0.3686
15361SOL     OW47370   3.539   5.914   2.046  0.3616 -0.0788  0.4239
15361SOL    HW147371   3.507   5.981   1.985 -0.4513 -0.1453  0.7626
15361SOL    HW247372   3.519   5.831   2.002 -0.4747 -0.1343  0.8777
15362SOL     OW47373   7.513   6.187   3.401 -0.0211 -0.0080 -0.0830
15362SOL    HW147374   7.579   6.120   3.382 -0.8992 -0.3236 -2.3854
15362SOL    HW247375   7.547   6.233   3.478  1.8146 -1.5102  0.0886
15363SOL     OW47376   1.452   1.094   6.705 -0.5484 -0.0577  0.5448
15363SOL    HW147377   1.500   1.175   6.688 -0.3240  0.1087  1.8706
15363SOL    HW247378   1.462   1.043   6.625 -0.2182  0.9803 -0.1042
15364SOL     OW47379   4.005   7.318   6.523  0.1933 -0.7234 -0.3908
15364SOL    HW147380   3.911   7.320   6.504  0.0296 -1.2340  0.3069
15364SOL    HW247381   4.047   7.346   6.442 -0.5602 -0.6036 -0.7463
15365SOL     OW47382   7.569   5.720   7.506 -0.2367 -0.2488 -0.1566
15365SOL    HW147383   7.619   5.793   7.470  1.0248 -0.2722  1.4367
15365SOL    HW247384   7.625   5.644   7.494  0.5102 -0.1744  2.2171
15366SOL     OW47385   2.140   5.734   0.421 -0.2260  0.1509 -0.6234
15366SOL    HW147386   2.107   5.645   0.413 -2.0605  0.7725 -0.3481
15366SOL    HW247387   2.226   5.724   0.463 -1.3537 -1.3561  1.5032
15367SOL     OW47388   2.696   0.343   6.320 -0.6638 -0.1235 -0.1890
15367SOL    HW147389   2.633   0.388   6.376 -0.6797  1.8569 -1.7109
15367SOL    HW247390   2.781   0.363   6.359 -0.8094 -1.1923  0.7482
15368SOL     OW47391   8.622   3.805   5.567  0.1179 -0.9614 -0.0755
15368SOL    HW147392   8.673   3.775   5.642  0.5515 -0.2934 -0.0901
15368SOL    HW247393   8.576   3.727   5.536  0.7237 -1.4631  0.2632
15369SOL     OW47394   0.759   0.364   4.212 -0.9126  0.2225  0.3852
15369SOL    HW147395   0.675   0.331   4.179  0.2051 -0.7918 -1.6959
15369SOL    HW247396   0.824   0.326   4.153  1.3239 -1.2763  3.5374
15370SOL     OW47397   8.523   4.478   5.634 -0.4791  0.1949  0.1299
15370SOL    HW147398   8.599   4.516   5.590  0.3574 -0.8498  0.6395
15370SOL    HW247399   8.537   4.496   5.727  0.6252 -2.3891  0.5544
15371SOL     OW47400   5.000   7.341   4.592 -0.3618 -0.3332 -0.0753
15371SOL    HW147401   4.932   7.348   4.526  0.2125  0.3442 -0.6036
15371SOL    HW247402   5.042   7.427   4.594 -1.1423  0.0773  2.0319
15372SOL     OW47403   5.611   7.003   7.006 -0.9084  0.6796  0.3781
15372SOL    HW147404   5.518   6.997   7.029 -0.8339  1.3850  0.8738
15372SOL    HW247405   5.642   7.082   7.050  0.4454 -0.6769  1.9928
15373SOL     OW47406   6.538   6.577   0.171  0.4731  0.6240 -0.5252
15373SOL    HW147407   6.486   6.497   0.180  0.9413  0.1191 -2.0581
15373SOL    HW247408   6.628   6.546   0.169  0.7772  1.3765  0.6862
15374SOL     OW47409   3.110   7.889   6.964 -0.1264 -0.2414  0.2432
15374SOL    HW147410   3.100   7.981   6.988  0.7875  0.2746 -1.2507
15374SOL    HW247411   3.021   7.861   6.941 -0.1235  0.8870 -1.3105
15375SOL     OW47412   4.333   5.900   5.738  0.0849 -0.4407 -0.1649
15375SOL    HW147413   4.374   5.924   5.821 -0.0845  0.5123 -0.3438
15375SOL    HW247414   4.250   5.861   5.762  0.7937 -1.8131  0.1755
15376SOL     OW47415   4.486   3.622   0.564  0.3028  0.2143  0.3440
15376SOL    HW147416   4.557   3.677   0.598  0.3503  2.9219 -3.5035
15376SOL    HW247417   4.417   3.684   0.539 -1.5125 -1.9183 -0.2507
15377SOL     OW47418   0.672   4.127   4.355 -0.2917  0.4198 -0.3190
15377SOL    HW147419   0.726   4.173   4.419  0.4876 -1.1528  0.1923
15377SOL    HW247420   0.627   4.059   4.406 -0.1442 -0.4556 -1.3197
15378SOL     OW47421   7.459   2.606   8.219  0.1309  0.6099 -0.2288
15378SOL    HW147422   7.477   2.591   8.312 -1.0263 -0.0042 -0.0829
15378SOL    HW247423   7.542   2.636   8.183  0.2696  2.2178  1.2829
15379SOL     OW47424   3.371   8.126   1.164  0.1740  0.2268  0.1281
15379SOL    HW147425   3.392   8.209   1.121 -0.9032  0.4662  0.0367
15379SOL    HW247426   3.415   8.060   1.111 -1.6131  0.4596 -1.7502
15380SOL     OW47427   7.768   4.838   8.652 -0.5106  0.4678  0.5079
15380SOL    HW147428   7.810   4.849   8.567  0.7985  2.4423  1.3109
15380SOL    HW247429   7.832   4.791   8.705 -0.9143  0.0917  0.6638
15381SOL     OW47430   8.591   7.352   5.433  0.2705 -0.0556  0.0885
15381SOL    HW147431   8.605   7.294   5.358  2.7515 -1.0755  1.2038
15381SOL    HW247432   8.563   7.293   5.503 -1.3933  0.7862  0.1795
15382SOL     OW47433   7.574   7.333   5.564  0.8367  0.1369  0.1774
15382SOL    HW147434   7.513   7.387   5.616  1.3285 -0.0545  0.9738
15382SOL    HW247435   7.553   7.243   5.588 -0.5586 -0.1106 -1.7949
15383SOL     OW47436   8.508   0.532   3.139  0.3072  0.3810  0.3731
15383SOL    HW147437   8.477   0.443   3.122 -0.4861  0.8210 -0.5737
15383SOL    HW247438   8.469   0.555   3.224 -2.1980  0.9632 -0.8398
15384SOL     OW47439   5.747   7.893   1.788  0.3709 -0.6250  0.2330
15384SOL    HW147440   5.667   7.869   1.742 -0.2321  1.7837 -0.0916
15384SOL    HW247441   5.795   7.947   1.726  1.2419 -0.2620  1.1935
15385SOL     OW47442   6.537   7.604   8.599 -0.1013 -0.5180 -0.0049
15385SOL    HW147443   6.519   7.539   8.667 -2.2721  0.9497  0.9380
15385SOL    HW247444   6.520   7.688   8.642 -1.1698  0.4832 -2.2524
15386SOL     OW47445   8.178   2.630   0.315 -0.1401 -0.2611  0.0463
15386SOL    HW147446   8.162   2.599   0.404  0.8014 -1.1933 -0.0871
15386SOL    HW247447   8.196   2.723   0.326  0.8456 -0.5300  0.9634
15387SOL     OW47448   2.417   1.032   7.101 -0.1599  0.1259 -0.6310
15387SOL    HW147449   2.426   1.098   7.032  0.2311 -0.1912 -0.8871
15387SOL    HW247450   2.323   1.019   7.109 -0.2138 -1.6037 -2.8346
15388SOL     OW47451   1.232   4.561   4.068  0.5253  0.3999 -0.9292
15388SOL    HW147452   1.182   4.636   4.036 -1.1857  0.6403  1.9893
15388SOL    HW247453   1.184   4.485   4.036  0.9682  0.5460 -1.9821
15389SOL     OW47454   4.532   3.541   5.266 -0.2403 -0.3010 -0.4103
15389SOL    HW147455   4.454   3.522   5.214  0.9563  1.7593 -3.1998
15389SOL    HW247456   4.590   3.466   5.250 -0.3409 -0.2287 -1.1632
15390SOL     OW47457   4.333   4.849   2.435 -0.1165 -0.1808 -0.3428
15390SOL    HW147458   4.385   4.849   2.355 -2.8236 -1.5768 -2.2752
15390SOL    HW247459   4.279   4.927   2.429  0.5972  0.4383  0.8688
15391SOL     OW47460   4.116   8.016   2.795 -0.3908  0.3758  0.0561
15391SOL    HW147461   4.054   7.999   2.866 -0.8820  1.7448  0.0038
15391SOL    HW247462   4.061   8.052   2.724  0.3081  0.5499 -0.4082
15392SOL     OW47463   5.828   4.059   5.978 -0.0898  0.2451 -0.3728
15392SOL    HW147464   5.737   4.087   5.987  0.0444  0.9612 -1.1347
15392SOL    HW247465   5.863   4.112   5.907  1.2438  0.7817  0.6369
15393SOL     OW47466   3.912   1.768   6.059 -0.1019  0.4634 -0.2212
15393SOL    HW147467   3.861   1.698   6.100 -0.3004  0.2986 -0.7452
15393SOL    HW247468   3.876   1.848   6.098 -0.9418  0.3661 -0.7544
15394SOL     OW47469   6.350   0.159   4.203  0.2484  0.3461 -0.7113
15394SOL    HW147470   6.397   0.080   4.230 -0.2023  0.7425  1.4254
15394SOL    HW247471   6.266   0.127   4.169  0.7625 -0.1744 -1.5162
15395SOL     OW47472   1.097   5.864   2.397  0.5895  0.0305 -0.2082
15395SOL    HW147473   1.138   5.883   2.480  0.6676 -1.3252  0.0932
15395SOL    HW247474   1.054   5.946   2.371  0.7600  0.5285  1.0384
15396SOL     OW47475   2.777   6.265   0.570 -0.0641 -0.2911  0.1056
15396SOL    HW147476   2.782   6.361   0.572  0.4355 -0.3221  1.9237
15396SOL    HW247477   2.775   6.239   0.662 -1.8608 -1.9657 -0.3311
15397SOL     OW47478   0.012   4.703   2.674 -0.5049 -0.5624  0.0074
15397SOL    HW147479   0.041   4.711   2.583 -0.8826  3.3515  0.0810
15397SOL    HW247480  -0.084   4.711   2.669 -0.5764 -0.9775  0.7042
15398SOL     OW47481   8.649   8.327   7.613  0.1322 -0.1954 -0.1383
15398SOL    HW147482   8.742   8.308   7.597  0.4896  1.3294 -0.0009
15398SOL    HW247483   8.629   8.283   7.695  0.8921 -0.0547  0.1250
15399SOL     OW47484   2.595   5.781   3.304  0.2894  0.0364 -0.4249
15399SOL    HW147485   2.629   5.692   3.311  1.7325  0.6248  0.5831
15399SOL    HW247486   2.501   5.770   3.291  0.1188 -1.6364  1.6307
15400SOL     OW47487   7.341   6.882   7.465 -0.1345  0.3381  1.2201
15400SOL    HW147488   7.255   6.894   7.425  0.4212  1.7008  0.3735
15400SOL    HW247489   7.326   6.897   7.558 -1.0187 -0.6633  1.2655
15401SOL     OW47490   2.294   7.201   0.663  0.6127 -0.1872 -0.3594
15401SOL    HW147491   2.198   7.208   0.670  0.3717 -2.8712 -0.0376
15401SOL    HW247492   2.312   7.220   0.571 -0.3439 -0.6157 -0.6529
15402SOL     OW47493   7.688   2.638   1.796  0.9079  0.0095 -0.4325
15402SOL    HW147494   7.729   2.612   1.714  1.1624 -1.3861  0.1017
15402SOL    HW247495   7.594   2.633   1.779  0.9593  0.1924 -0.7705
15403SOL     OW47496   5.775   4.323   6.597 -0.1641 -0.2337  0.0313
15403SOL    HW147497   5.762   4.253   6.533  1.4404  0.2376 -0.8730
15403SOL    HW247498   5.782   4.402   6.544 -0.4209  0.3968  0.9242
15404SOL     OW47499   6.465   4.438   1.737 -0.0359 -0.3838  0.0864
15404SOL    HW147500   6.393   4.450   1.800  0.5381 -4.0842  1.7037
15404SOL    HW247501   6.544   4.454   1.788  0.3827 -0.2634 -0.5955
15405SOL     OW47502   0.739   7.255   0.340 -0.3612 -0.0960  0.7953
15405SOL    HW147503   0.778   7.286   0.422 -0.5909 -3.7110  2.4560
15405SOL    HW247504   0.796   7.184   0.311 -1.5759 -0.4301 -0.9577
15406SOL     OW47505   4.381   4.509   6.135 -0.3190 -0.2070  0.0431
15406SOL    HW147506   4.413   4.518   6.225 -0.3670  0.4285 -0.0012
15406SOL    HW247507   4.413   4.587   6.090  0.2570 -0.8322 -0.6615
15407SOL     OW47508   3.060   8.522   4.481  0.0938  0.1054  0.0602
15407SOL    HW147509   3.037   8.545   4.571 -0.6325 -2.2488  0.5373
15407SOL    HW247510   3.054   8.426   4.478  2.2344 -0.0720 -1.9161
15408SOL     OW47511   4.381   1.475   3.194 -0.1108  0.0738  0.4336
15408SOL    HW147512   4.312   1.542   3.194  0.8559  1.1218 -1.0945
15408SOL    HW247513   4.347   1.406   3.137  0.0727  0.5657 -0.2800
15409SOL     OW47514   0.877   7.508   8.404 -0.5771 -0.9673  0.2344
15409SOL    HW147515   0.807   7.497   8.340 -0.8230  2.0202 -0.1369
15409SOL    HW247516   0.923   7.587   8.377  2.1882 -2.1246  1.2148
15410SOL     OW47517   6.781   6.055   3.944  0.4390  0.3001 -0.5173
15410SOL    HW147518   6.816   5.997   3.877 -0.1522  0.0958 -0.6543
15410SOL    HW247519   6.719   6.111   3.897 -0.3838 -0.2022 -0.0498
15411SOL     OW47520   1.267   3.864   7.266  0.7413  0.3519 -0.0735
15411SOL    HW147521   1.355   3.899   7.252  0.8579 -0.4441 -1.5307
15411SOL    HW247522   1.238   3.835   7.180 -1.3186  1.3931  0.2024
15412SOL     OW47523   1.382   4.303   3.642 -0.1736 -0.2300  0.7506
15412SOL    HW147524   1.291   4.297   3.671 -0.8321  0.1630 -1.0674
15412SOL    HW247525   1.407   4.212   3.621 -0.3029 -0.2800  0.8153
15413SOL     OW47526   6.216   7.094   5.766  0.2332 -0.3740 -0.4812
15413SOL    HW147527   6.292   7.137   5.805  0.6350  0.0028 -1.6493
15413SOL    HW247528   6.179   7.160   5.707 -0.4333 -0.8839 -0.6417
15414SOL     OW47529   4.056   3.072   7.301 -0.0501 -0.0468  0.9916
15414SOL    HW147530   4.133   3.127   7.284 -1.3718  1.8933  1.0198
15414SOL    HW247531   4.064   3.049   7.393 -2.0498  4.5977  2.6296
15415SOL     OW47532   2.558   7.910   8.054  0.1111 -0.1373 -1.0952
15415SOL    HW147533   2.574   7.998   8.089  0.1453  0.7387 -3.1809
15415SOL    HW247534   2.494   7.923   7.984 -0.7652 -1.9620 -0.6968
15416SOL     OW47535   7.184   5.373   1.398  0.5118 -0.5121 -0.1405
15416SOL    HW147536   7.226   5.409   1.320 -2.0982  0.6740 -1.1398
15416SOL    HW247537   7.117   5.313   1.364 -3.5223  3.0111  0.6667
15417SOL     OW47538   5.520   2.054   6.091 -0.1910 -0.3981 -0.1595
15417SOL    HW147539   5.443   1.999   6.089 -0.1765 -0.4272  0.1285
15417SOL    HW247540   5.591   1.998   6.060  0.1930 -1.1178  1.8558
15418SOL     OW47541   5.018   5.364   4.981  0.2432  0.7485  0.3255
15418SOL    HW147542   4.997   5.371   4.887 -2.7726  0.5093  0.8800
15418SOL    HW247543   5.027   5.270   4.996 -0.2325  0.7138  0.4226
15419SOL     OW47544   1.557   7.228   7.815 -0.0171  0.3741 -0.0458
15419SOL    HW147545   1.569   7.149   7.762 -1.8624 -0.0731  0.1269
15419SOL    HW247546   1.599   7.207   7.898  1.2438  0.3537 -0.6724
15420SOL     OW47547   5.301   6.143   4.599 -0.6387 -0.4460 -0.1479
15420SOL    HW147548   5.216   6.113   4.566 -0.1379 -1.9722 -0.0805
15420SOL    HW247549   5.325   6.079   4.665 -0.3163  1.0428  1.2447
15421SOL     OW47550   6.532   5.864   8.367  0.0771  0.3110 -0.4409
15421SOL    HW147551   6.562   5.952   8.389 -0.4760  1.3103 -3.2000
15421SOL    HW247552   6.437   5.873   8.356 -0.3252 -1.1772  1.2796
15422SOL     OW47553   4.803   0.501   5.653  0.1804  0.3327  0.3243
15422SOL    HW147554   4.714   0.469   5.641 -0.0068  0.8903  0.1921
15422SOL    HW247555   4.800   0.555   5.732  0.4877  0.0316  0.5438
15423SOL     OW47556   4.331   7.023   4.498 -0.3331  0.4582 -0.0274
15423SOL    HW147557   4.339   7.118   4.508  0.4750  0.4348 -0.3566
15423SOL    HW247558   4.384   7.003   4.421  1.1953 -0.5002  1.2024
15424SOL     OW47559   3.356   4.165   5.584 -0.3472 -0.0593  0.1490
15424SOL    HW147560   3.401   4.223   5.645 -0.0419 -0.3922  0.2426
15424SOL    HW247561   3.425   4.128   5.530 -0.7183  1.0598 -1.1348
15425SOL     OW47562   7.843   7.726   0.062 -0.6537  0.1783 -0.3433
15425SOL    HW147563   7.891   7.654   0.021 -0.6580  0.7169 -1.3097
15425SOL    HW247564   7.803   7.687   0.140 -0.4007 -0.7879 -0.6893
15426SOL     OW47565   2.668   3.322   0.908 -0.0458 -0.0448 -0.1428
15426SOL    HW147566   2.661   3.397   0.966  0.1955 -0.9579  1.1043
15426SOL    HW247567   2.593   3.329   0.849 -1.7250 -0.4087  1.8484
15427SOL     OW47568   1.790   3.579   6.808 -0.1481 -0.1843 -0.0409
15427SOL    HW147569   1.768   3.500   6.759  0.1409 -0.3181  0.0433
15427SOL    HW247570   1.711   3.598   6.859 -0.1376 -0.5549  0.1172
15428SOL     OW47571   0.015   1.309   3.954 -0.1333  0.3619  0.5245
15428SOL    HW147572   0.001   1.235   4.012  2.3871 -0.9481 -0.3552
15428SOL    HW247573   0.106   1.335   3.970 -0.1646  1.5790 -1.0226
15429SOL     OW47574   2.181   5.861   0.796  0.1657 -0.2969  1.0892
15429SOL    HW147575   2.270   5.836   0.772  0.4815  1.8675 -0.2534
15429SOL    HW247576   2.135   5.778   0.806  1.5419 -1.4612 -1.2808
15430SOL     OW47577   4.778   2.686   1.186 -0.1874  0.4885 -0.2395
15430SOL    HW147578   4.704   2.629   1.205  0.1263  0.2675  0.3358
15430SOL    HW247579   4.855   2.629   1.191 -0.0191  0.5980 -1.3868
15431SOL     OW47580   5.320   8.379   5.268  0.3270 -0.2178 -0.5488
15431SOL    HW147581   5.242   8.366   5.321  1.5304 -0.1928  1.3271
15431SOL    HW247582   5.329   8.298   5.218 -0.3878 -0.5736 -0.1171
15432SOL     OW47583   7.283   5.228   4.342  0.4095 -0.0457  0.1367
15432SOL    HW147584   7.271   5.258   4.432  0.0386  0.0102  0.0702
15432SOL    HW247585   7.195   5.228   4.305  0.0133 -3.1297  0.7522
15433SOL     OW47586   7.966   6.444   5.642 -0.2507  0.4883 -0.0145
15433SOL    HW147587   7.982   6.538   5.643 -1.1464  0.6591 -0.5030
15433SOL    HW247588   8.016   6.412   5.567 -0.3011  0.6429 -0.1134
15434SOL     OW47589   1.277   5.721   4.213 -0.0368 -0.0383 -0.1168
15434SOL    HW147590   1.341   5.658   4.246  0.5507  0.2959 -0.5881
15434SOL    HW247591   1.197   5.702   4.260  0.5745 -0.0735  0.9285
15435SOL     OW47592   7.672   4.002   4.095 -0.5234  0.0666 -0.5783
15435SOL    HW147593   7.669   3.918   4.140 -1.1317  0.8002  0.7953
15435SOL    HW247594   7.580   4.022   4.076 -0.4116  0.6063 -0.5638
15436SOL     OW47595   0.492   2.717   6.148 -0.0425  0.0269 -0.1146
15436SOL    HW147596   0.474   2.694   6.240  0.7447 -0.9362 -0.1856
15436SOL    HW247597   0.464   2.808   6.141 -0.9178 -0.1407  0.8541
15437SOL     OW47598   1.127   8.412   6.995 -0.5396  0.0294 -0.2596
15437SOL    HW147599   1.210   8.461   6.990 -0.8340  0.7214  1.1846
15437SOL    HW247600   1.132   8.350   6.922  2.0190 -1.1423  0.7794
15438SOL     OW47601   4.658   0.489   4.983 -0.0467 -0.0662 -0.1452
15438SOL    HW147602   4.586   0.507   4.922 -0.3872  1.4195  0.6565
15438SOL    HW247603   4.614   0.464   5.064  0.2621  1.7382  0.6304
15439SOL     OW47604   1.213   6.446   2.645 -0.3227 -0.0750  0.2288
15439SOL    HW147605   1.258   6.518   2.689 -0.8026  0.3848 -0.0409
15439SOL    HW247606   1.124   6.449   2.678 -1.0324  1.0385 -1.6759
15440SOL     OW47607   7.932   0.028   3.910  0.0375 -0.2443  0.0569
15440SOL    HW147608   7.908   0.121   3.915  0.9070 -0.0390  0.7120
15440SOL    HW247609   8.023   0.028   3.881  0.3060 -0.8442  0.8492
15441SOL     OW47610   5.302   8.077   3.364 -0.3798 -0.8020  0.8556
15441SOL    HW147611   5.321   7.992   3.402  1.6155 -0.3589  0.9695
15441SOL    HW247612   5.299   8.137   3.439  0.2536 -0.4577  0.6132
15442SOL     OW47613   1.356   4.765   1.218  0.2030  0.4668  0.0963
15442SOL    HW147614   1.378   4.713   1.141 -1.3589  0.6342 -0.4987
15442SOL    HW247615   1.396   4.851   1.201  2.6539 -0.4034  1.0116
15443SOL     OW47616   0.672   0.024   6.993 -0.5086  0.4413  0.4914
15443SOL    HW147617   0.578   0.037   7.006 -0.4439 -0.5470  2.2417
15443SOL    HW247618   0.712   0.057   7.074  0.5852  0.0965  0.1057
15444SOL     OW47619   1.537   0.811   6.929  0.3124 -0.4817  0.6133
15444SOL    HW147620   1.477   0.805   7.004  0.5676  0.5569  0.9187
15444SOL    HW247621   1.624   0.807   6.969  0.4667  1.2911  0.5186
15445SOL     OW47622   2.138   0.734   3.692  0.1911  0.1743 -0.3890
15445SOL    HW147623   2.178   0.691   3.767  0.8978 -0.2435 -0.9850
15445SOL    HW247624   2.101   0.662   3.640  0.1531  0.4126 -0.6957
15446SOL     OW47625   1.737   7.817   4.140 -0.7454  0.2462  0.0099
15446SOL    HW147626   1.752   7.794   4.048  1.0500 -1.5203  0.6572
15446SOL    HW247627   1.698   7.738   4.178 -0.9062  0.7449  0.9000
15447SOL     OW47628   5.546   3.297   6.647 -0.0930 -0.1005 -0.0481
15447SOL    HW147629   5.582   3.384   6.629 -0.4167 -0.2516 -1.4951
15447SOL    HW247630   5.451   3.311   6.652 -0.0710 -0.2003  0.8139
15448SOL     OW47631   0.428   2.314   2.866 -0.2941 -0.1563 -0.1292
15448SOL    HW147632   0.478   2.254   2.811  0.1786 -0.9798  1.1640
15448SOL    HW247633   0.439   2.281   2.955  0.2781  2.0570  0.7021
15449SOL     OW47634   5.832   6.126   4.625 -0.2084 -0.1856  0.3609
15449SOL    HW147635   5.756   6.158   4.672 -2.1544 -1.2733 -1.8332
15449SOL    HW247636   5.863   6.202   4.576 -0.8710 -0.0946  0.0687
15450SOL     OW47637   7.450   4.329   8.635 -0.0580 -0.7226 -0.3621
15450SOL    HW147638   7.500   4.301   8.558 -0.7827 -2.0119 -0.3924
15450SOL    HW247639   7.395   4.254   8.656 -1.3158  0.3200  0.2251
15451SOL     OW47640   1.216   6.346   5.434  0.9545  0.5179 -0.1421
15451SOL    HW147641   1.177   6.271   5.478 -0.0264  1.2626  0.3063
15451SOL    HW247642   1.183   6.340   5.344  2.0028 -0.3423 -0.4913
15452SOL     OW47643   6.737   7.833   6.157 -0.4839 -0.2514 -0.2763
15452SOL    HW147644   6.645   7.855   6.172 -0.5011 -0.8953  0.7166
15452SOL    HW247645   6.740   7.737   6.165  0.5541 -0.1188  1.5882
15453SOL     OW47646   4.411   1.125   8.150 -0.2531  0.6775  0.8396
15453SOL    HW147647   4.410   1.156   8.241 -1.3525  1.4001  0.6056
15453SOL    HW247648   4.349   1.052   8.150  0.8809 -0.3116  0.9757
15454SOL     OW47649   6.102   2.042   2.673 -0.0549  0.1287  0.3664
15454SOL    HW147650   6.164   2.115   2.674  1.7331 -1.2917  2.7438
15454SOL    HW247651   6.154   1.965   2.649 -1.2801 -0.8342  0.6678
15455SOL     OW47652   3.287   5.182   6.809  0.5175  0.1833 -0.2768
15455SOL    HW147653   3.371   5.175   6.764  0.3830 -0.3714 -0.4433
15455SOL    HW247654   3.222   5.157   6.743  0.1505  1.3887 -0.3920
15456SOL     OW47655   2.499   2.059   3.925 -0.5901  0.0724 -0.1874
15456SOL    HW147656   2.560   2.104   3.867 -0.3430  0.4479  0.3557
15456SOL    HW247657   2.490   1.971   3.887 -0.0676  0.1606 -0.5205
15457SOL     OW47658   0.507   1.867   2.605 -0.2661  0.1723 -0.2707
15457SOL    HW147659   0.464   1.782   2.599  0.4774 -0.1795 -0.8993
15457SOL    HW247660   0.551   1.877   2.521  0.5812  0.6605  0.2124
15458SOL     OW47661   8.243   3.723   1.454 -0.2012  0.3793 -0.5197
15458SOL    HW147662   8.153   3.708   1.428 -0.3317  0.7161 -0.2789
15458SOL    HW247663   8.245   3.816   1.479  0.1451  0.3046 -0.2661
15459SOL     OW47664   0.320   5.359   2.573 -0.3474  0.2654  0.0673
15459SOL    HW147665   0.234   5.401   2.566 -0.1476  1.2522  2.4089
15459SOL    HW247666   0.339   5.359   2.667  2.2683  0.1948 -0.3770
15460SOL     OW47667   1.765   0.142   4.843 -0.3700  0.2865 -0.1387
15460SOL    HW147668   1.729   0.067   4.890  0.0854 -0.4641 -0.9659
15460SOL    HW247669   1.855   0.118   4.825  0.0355  1.3959  0.3220
15461SOL     OW47670   8.451   7.202   3.558 -0.3872  0.0393 -0.3105
15461SOL    HW147671   8.405   7.122   3.532 -1.2446  0.5964 -0.5551
15461SOL    HW247672   8.469   7.247   3.476  0.7365 -0.2305 -0.2246
15462SOL     OW47673   0.824   3.337   7.475 -0.2852  0.2590  0.5085
15462SOL    HW147674   0.904   3.366   7.433 -0.6079  1.2841  0.5793
15462SOL    HW247675   0.779   3.417   7.501 -1.1219 -0.3040  0.8759
15463SOL     OW47676   4.712   5.560   0.520 -0.5604  0.1485 -0.1383
15463SOL    HW147677   4.805   5.543   0.504 -0.8771 -0.8618 -0.9984
15463SOL    HW247678   4.674   5.572   0.433 -0.9421  2.4264  0.2587
15464SOL     OW47679   8.097   5.508   7.905  0.1404  0.4732  0.1444
15464SOL    HW147680   8.167   5.563   7.870 -1.0252  1.9002 -0.0493
15464SOL    HW247681   8.115   5.502   7.999  0.6144  0.6618  0.0694
15465SOL     OW47682   0.117   4.667   6.949 -0.6605  0.3156 -0.1227
15465SOL    HW147683   0.123   4.615   6.869 -0.8651  0.3649 -0.1694
15465SOL    HW247684   0.208   4.677   6.977 -0.5074  1.1557 -0.8889
15466SOL     OW47685   7.027   5.231   5.990  0.2516 -0.1271  0.3562
15466SOL    HW147686   6.953   5.172   6.004  1.0615 -1.1957  0.2774
15466SOL    HW247687   7.082   5.186   5.926  1.8118 -0.1869  1.6651
15467SOL     OW47688   7.703   1.523   5.309 -0.2047 -0.1241  0.6250
15467SOL    HW147689   7.644   1.594   5.283  0.5172 -0.1767 -1.3200
15467SOL    HW247690   7.647   1.463   5.359 -1.3537  0.6963  0.3630
15468SOL     OW47691   0.398   0.892   8.448  0.0629 -0.0048  0.4631
15468SOL    HW147692   0.364   0.935   8.527  0.2752  0.6633  0.1932
15468SOL    HW247693   0.467   0.950   8.417  0.4766 -0.6295  0.1887
15469SOL     OW47694   4.126   1.688   0.155  0.5202  0.1182 -1.1397
15469SOL    HW147695   4.220   1.696   0.169  0.6419  0.0462 -1.8622
15469SOL    HW247696   4.114   1.707   0.062  0.0434 -1.6431 -1.4657
15470SOL     OW47697   2.069   2.147   8.327  0.0472  0.3872  0.5836
15470SOL    HW147698   1.998   2.091   8.297  1.4579 -1.1917  0.0626
15470SOL    HW247699   2.049   2.165   8.419 -1.5841  0.9335  0.1588
15471SOL     OW47700   5.488   7.060   7.996  0.3911  0.1930  0.2694
15471SOL    HW147701   5.546   7.128   8.030  0.8842 -0.8313  1.5419
15471SOL    HW247702   5.537   7.019   7.925  0.6773  0.2221  0.4494
15472SOL     OW47703   1.241   6.908   4.189 -0.1048 -0.2335  0.1520
15472SOL    HW147704   1.174   6.854   4.147  0.7096 -0.2933 -1.1125
15472SOL    HW247705   1.230   6.892   4.283 -0.1493 -2.2771 -0.1707
15473SOL     OW47706   6.990   4.034   2.264 -0.5484 -0.0222 -0.5317
15473SOL    HW147707   6.979   4.086   2.184 -1.6171 -0.1167 -0.4600
15473SOL    HW247708   7.054   4.083   2.316 -1.4122  1.1466 -0.5328
15474SOL     OW47709   7.948   2.635   1.903 -0.3527 -0.0390 -0.0116
15474SOL    HW147710   7.853   2.631   1.896 -0.3989 -0.3074  0.6730
15474SOL    HW247711   7.975   2.545   1.916  0.0613 -0.0489 -0.8810
15475SOL     OW47712   4.497   6.705   6.553 -0.1729 -0.0552  0.0310
15475SOL    HW147713   4.510   6.680   6.462  0.3036  0.9471 -0.1906
15475SOL    HW247714   4.402   6.711   6.564 -0.2233  0.1032 -0.4775
15476SOL     OW47715   1.665   6.929   0.558  0.1813 -0.1586  0.0044
15476SOL    HW147716   1.754   6.936   0.523 -0.0622  1.3697 -0.3734
15476SOL    HW247717   1.676   6.884   0.642  1.6358  1.9835  1.0398
15477SOL     OW47718   8.242   4.103   2.582 -0.6906 -0.4696 -0.3532
15477SOL    HW147719   8.212   4.171   2.522 -2.9504 -0.5939  0.5348
15477SOL    HW247720   8.332   4.085   2.555 -1.0214  0.7580 -2.4992
15478SOL     OW47721   7.180   4.609   7.816 -0.2770 -0.2080 -0.3300
15478SOL    HW147722   7.235   4.681   7.846  2.5183 -1.9905 -0.7865
15478SOL    HW247723   7.132   4.645   7.741  0.4508  1.3997 -0.0535
15479SOL     OW47724   6.445   7.544   3.298  0.1614  0.8090 -0.2573
15479SOL    HW147725   6.489   7.523   3.381 -0.7923  0.1339  0.0914
15479SOL    HW247726   6.385   7.471   3.284 -1.2380  1.9740 -0.4509
15480SOL     OW47727   4.726   5.286   3.983 -0.1545 -0.2960 -0.0209
15480SOL    HW147728   4.775   5.358   4.023 -1.4851  1.0501 -0.7329
15480SOL    HW247729   4.778   5.263   3.905  2.7041 -3.2452  2.4663
15481SOL     OW47730   4.642   6.283   4.910 -0.1221  0.0515  0.8592
15481SOL    HW147731   4.728   6.244   4.896 -0.1191  0.2810  0.1840
15481SOL    HW247732   4.657   6.350   4.977  0.4293  0.7327  0.0800
15482SOL     OW47733   2.012   1.099   0.531 -0.0612 -0.2774  0.2499
15482SOL    HW147734   2.068   1.026   0.504  0.0345 -0.2236  0.3008
15482SOL    HW247735   1.992   1.145   0.450  1.2891  0.6403  0.3959
15483SOL     OW47736   2.936   4.443   6.841  0.4722 -0.0728 -0.1961
15483SOL    HW147737   2.902   4.415   6.926 -0.3518 -1.4605 -0.9379
15483SOL    HW247738   2.976   4.528   6.857  1.0226 -0.6555  1.7370
15484SOL     OW47739   4.289   7.242   7.752 -0.6130 -0.2733  0.4013
15484SOL    HW147740   4.377   7.277   7.735 -1.0366  0.0846 -1.1397
15484SOL    HW247741   4.303   7.178   7.823  0.9816 -0.6089 -0.1690
15485SOL     OW47742   5.141   6.383   1.567 -0.6381  0.0836 -0.0911
15485SOL    HW147743   5.156   6.349   1.479  0.2022  2.6329 -1.0237
15485SOL    HW247744   5.052   6.416   1.566 -0.0820  1.6688 -0.6089
15486SOL     OW47745   1.695   4.556   3.294  0.0284  0.0201 -0.0504
15486SOL    HW147746   1.699   4.646   3.261 -0.1369  0.5004  1.1864
15486SOL    HW247747   1.786   4.528   3.296  0.2360  0.7011  0.9451
15487SOL     OW47748   4.629   3.535   7.564 -0.0795  0.3271  0.1521
15487SOL    HW147749   4.674   3.555   7.647  2.2920  0.1125 -0.9852
15487SOL    HW247750   4.569   3.608   7.551  0.0939  0.7748  1.6487
15488SOL     OW47751   7.010   7.722   4.602  0.2646 -0.3033  0.1874
15488SOL    HW147752   7.040   7.811   4.581 -1.8798  0.5517  0.3727
15488SOL    HW247753   6.948   7.702   4.531  0.9419 -1.8080 -0.0128
15489SOL     OW47754   7.291   7.888   1.997  0.5304  0.0091 -0.1742
15489SOL    HW147755   7.357   7.940   1.953 -1.5863  0.3480 -3.2429
15489SOL    HW247756   7.234   7.953   2.039  0.5994 -0.1313  0.1399
15490SOL     OW47757   5.197   0.583   7.363 -0.1621  0.7833 -0.3250
15490SOL    HW147758   5.154   0.515   7.415  1.2941  1.3013  1.6877
15490SOL    HW247759   5.242   0.535   7.294 -1.3707 -0.0301 -0.5811
15491SOL     OW47760   0.887   7.814   1.720  0.1047  0.1510  0.3735
15491SOL    HW147761   0.969   7.855   1.691 -0.0440  0.9998  1.1008
15491SOL    HW247762   0.829   7.888   1.739 -0.7078 -0.4392  0.2106
15492SOL     OW47763   6.985   0.788   0.764  0.2688 -0.4754 -0.3294
15492SOL    HW147764   7.025   0.717   0.814 -0.4588  0.0794  1.1204
15492SOL    HW247765   6.968   0.856   0.829 -1.0414  0.1494 -1.2758
15493SOL     OW47766   3.635   4.007   4.886 -0.6268 -0.0587  0.3832
15493SOL    HW147767   3.615   4.099   4.904 -1.4467  0.2482 -1.8069
15493SOL    HW247768   3.724   4.008   4.852 -1.2525  0.2533 -1.4041
15494SOL     OW47769   5.092   6.768   3.661  0.1087 -0.0751 -0.0767
15494SOL    HW147770   4.998   6.757   3.645 -0.1364  1.3073  0.3224
15494SOL    HW247771   5.103   6.861   3.677  1.4802 -0.3057  0.4350
15495SOL     OW47772   8.462   6.539   2.826  0.3262  0.1026 -0.3543
15495SOL    HW147773   8.492   6.450   2.809  0.1396 -0.0722  0.2065
15495SOL    HW247774   8.367   6.534   2.815 -0.0774 -0.4934  2.5678
15496SOL     OW47775   4.267   1.960   6.728  0.2955 -0.0190  1.0611
15496SOL    HW147776   4.275   1.955   6.633 -0.0640 -0.6233  1.0582
15496SOL    HW247777   4.318   2.037   6.752 -0.4341  0.7194  0.2807
15497SOL     OW47778   3.631   0.486   7.617  0.1724 -0.1836 -0.0765
15497SOL    HW147779   3.671   0.530   7.542 -0.6710  1.9880  0.6773
15497SOL    HW247780   3.543   0.523   7.624 -1.2484 -3.2148 -0.3302
15498SOL     OW47781   8.520   2.666   4.885  0.2497  0.1674 -0.4137
15498SOL    HW147782   8.442   2.618   4.913  0.8290 -0.4729  0.1320
15498SOL    HW247783   8.514   2.667   4.789 -1.0843  1.2668 -0.3546
15499SOL     OW47784   3.724   6.991   8.137 -0.3255 -0.2444  0.5321
15499SOL    HW147785   3.662   6.939   8.087  0.3697 -0.8741  0.3202
15499SOL    HW247786   3.727   6.949   8.223 -0.6656  0.1683  0.7540
15500SOL     OW47787   3.932   5.124   8.489  0.2967  0.1351  0.7821
15500SOL    HW147788   3.934   5.052   8.552  2.0174  0.2965  0.9499
15500SOL    HW247789   3.848   5.168   8.505 -0.4558 -1.3911  1.1562
15501SOL     OW47790   7.841   6.584   2.760  0.2085  0.0761 -0.7469
15501SOL    HW147791   7.873   6.602   2.849  0.2707 -1.5902 -0.4000
15501SOL    HW247792   7.762   6.638   2.752 -0.5461 -0.7093  0.8247
15502SOL     OW47793   6.952   7.958   7.305  0.6686  0.0342  0.7249
15502SOL    HW147794   6.952   8.053   7.312 -0.0046  0.4403 -2.8255
15502SOL    HW247795   7.017   7.939   7.237 -0.7836 -1.7721 -0.2615
15503SOL     OW47796   1.027   8.697   7.352  0.9459 -0.4251  0.0600
15503SOL    HW147797   1.022   8.733   7.441  1.0424  0.5648 -0.3227
15503SOL    HW247798   0.973   8.618   7.356 -2.0647  1.4498  0.1191
15504SOL     OW47799   5.295   7.296   7.009 -0.0733 -0.3791 -0.1743
15504SOL    HW147800   5.210   7.329   7.036 -0.6786 -1.0309 -1.1927
15504SOL    HW247801   5.291   7.297   6.913  0.6811 -1.3673 -0.2290
15505SOL     OW47802   2.983   7.925   2.260 -0.3525  0.2191  0.3186
15505SOL    HW147803   2.949   7.938   2.172  1.2297 -2.1760 -0.7560
15505SOL    HW247804   2.906   7.932   2.317 -2.4654 -3.1677 -1.7602
15506SOL     OW47805   0.012   3.076   4.203  0.0809  0.0965 -0.2840
15506SOL    HW147806  -0.046   3.023   4.148  1.9334  0.5149 -2.8687
15506SOL    HW247807  -0.047   3.128   4.258 -1.9334 -0.5547 -1.7093
15507SOL     OW47808   3.326   5.824   4.988  0.5373 -0.7571 -0.1876
15507SOL    HW147809   3.421   5.820   4.990  0.5076 -2.1904  1.5022
15507SOL    HW247810   3.300   5.761   4.920  0.7963 -1.7135  0.5751
15508SOL     OW47811   4.249   0.992   2.249 -0.3446  0.4135 -0.3673
15508SOL    HW147812   4.285   0.947   2.172  1.4317 -0.2786  0.8028
15508SOL    HW247813   4.261   0.929   2.321 -0.1577  1.7840  0.8449
15509SOL     OW47814   0.976   6.060   6.122  0.6342 -0.2012  0.5646
15509SOL    HW147815   1.037   6.123   6.160  0.7741 -1.0904  1.8828
15509SOL    HW247816   0.910   6.114   6.079  1.0793  0.8292  1.1182
15510SOL     OW47817   8.556   1.512   3.133 -0.2643  0.0863 -0.3551
15510SOL    HW147818   8.613   1.585   3.113 -0.5322  0.5267  0.4352
15510SOL    HW247819   8.595   1.437   3.087  1.3025  0.2400  0.6598
15511SOL     OW47820   6.048   2.615   8.314  0.0343  0.8949  0.2709
15511SOL    HW147821   6.010   2.557   8.380  1.0257  0.0076  0.0762
15511SOL    HW247822   6.018   2.580   8.230  1.0357  0.3324  0.1275
15512SOL     OW47823   3.565   1.630   5.544 -0.2406 -0.0485 -0.7006
15512SOL    HW147824   3.528   1.662   5.626 -0.2824 -0.3939 -0.5826
15512SOL    HW247825   3.567   1.534   5.553  1.8555 -0.0179 -0.1799
15513SOL     OW47826   7.289   1.526   6.216  0.0619 -0.1095 -0.7554
15513SOL    HW147827   7.278   1.470   6.292 -1.5296 -0.0986 -0.9427
15513SOL    HW247828   7.354   1.591   6.243  0.5239 -0.9088  0.1091
15514SOL     OW47829   2.817   2.865   8.392  0.0291 -0.3140  0.0293
15514SOL    HW147830   2.906   2.863   8.426  0.7599 -1.0946 -1.8327
15514SOL    HW247831   2.791   2.773   8.386  0.4812 -0.3492 -2.7472
15515SOL     OW47832   0.213   4.239   4.836 -0.0855  0.1574  0.3056
15515SOL    HW147833   0.211   4.148   4.864 -0.6238  0.0233 -0.1654
15515SOL    HW247834   0.277   4.280   4.895 -0.2914 -0.3833  0.9207
15516SOL     OW47835   7.605   0.635   3.795  0.4246 -0.1589  0.1110
15516SOL    HW147836   7.529   0.580   3.815 -0.1859  0.3916 -0.6917
15516SOL    HW247837   7.642   0.597   3.716  1.2554 -0.6859  0.7337
15517SOL     OW47838   1.483   7.717   6.380  0.6095  0.1109  0.1166
15517SOL    HW147839   1.568   7.754   6.356  0.2417  0.3889 -0.8157
15517SOL    HW247840   1.419   7.781   6.350  0.0869  0.3482  1.6550
15518SOL     OW47841   7.188   5.308   2.622  0.0514 -0.2496  0.3610
15518SOL    HW147842   7.170   5.401   2.631 -2.6768 -0.4250 -2.0877
15518SOL    HW247843   7.130   5.265   2.685 -2.0572 -0.4160 -1.5940
15519SOL     OW47844   5.040   0.356   5.679  0.1430  0.9420 -0.0235
15519SOL    HW147845   5.076   0.411   5.749  0.3069  0.2074  0.4785
15519SOL    HW247846   4.957   0.398   5.657  0.2014  1.3189  0.4415
15520SOL     OW47847   4.446   6.253   3.814 -0.0759  0.2874 -0.0868
15520SOL    HW147848   4.364   6.278   3.771 -0.8546  0.1914  1.2904
15520SOL    HW247849   4.508   6.320   3.787  0.0763 -0.8487 -2.9963
15521SOL     OW47850   1.147   2.251   3.665 -0.1471 -0.1825 -0.2371
15521SOL    HW147851   1.201   2.323   3.634 -0.2193 -0.2474 -0.5135
15521SOL    HW247852   1.193   2.172   3.637 -1.2192 -0.2336 -1.9362
15522SOL     OW47853   7.364   5.110   7.206  0.1957 -0.2916 -0.0218
15522SOL    HW147854   7.374   5.170   7.280  0.5314 -1.2598  0.7391
15522SOL    HW247855   7.328   5.164   7.136  0.5199  0.7997  0.6320
15523SOL     OW47856   7.126   5.889   7.107  0.1635 -0.2276 -0.6415
15523SOL    HW147857   7.039   5.890   7.146  0.6681  1.0867  0.5271
15523SOL    HW247858   7.124   5.960   7.042  0.3688 -0.1762 -0.5925
15524SOL     OW47859   8.501   3.720   3.654  0.3689 -0.0709  0.1733
15524SOL    HW147860   8.415   3.730   3.613 -0.1927 -1.9066  0.8198
15524SOL    HW247861   8.548   3.659   3.597  1.3699  1.1118 -0.3141
15525SOL     OW47862   0.575   1.083   3.595  0.6471  0.1208  0.4673
15525SOL    HW147863   0.536   1.058   3.511 -1.6706 -1.0338  1.7871
15525SOL    HW247864   0.576   1.179   3.593  1.6772  0.1288 -1.2753
15526SOL     OW47865   6.956   0.206   4.833 -0.6036  0.5473  0.3559
15526SOL    HW147866   6.980   0.192   4.925 -1.8565 -0.5256  0.5567
15526SOL    HW247867   6.973   0.121   4.791 -0.6555  0.8368 -0.2543
15527SOL     OW47868   3.637   0.698   2.915 -0.0764  0.3780 -0.1155
15527SOL    HW147869   3.660   0.659   2.830 -1.0437  1.3520 -0.8673
15527SOL    HW247870   3.716   0.745   2.942  1.0450 -1.8314  0.7166
15528SOL     OW47871   6.805   1.490   0.829  0.0439  0.0639  0.5885
15528SOL    HW147872   6.821   1.402   0.796  0.5027  0.1994  0.4452
15528SOL    HW247873   6.865   1.546   0.779 -1.1112  0.6278 -0.2180
15529SOL     OW47874   4.106   4.946   0.682  0.5895  0.3734  0.3686
15529SOL    HW147875   4.126   5.040   0.689 -1.3054  0.8335  0.0880
15529SOL    HW247876   4.192   4.904   0.683  1.5103  2.1282  0.1170
15530SOL     OW47877   1.461   6.420   6.810 -0.1667  0.2610  0.1430
15530SOL    HW147878   1.401   6.391   6.741 -0.0008  0.2153  0.0154
15530SOL    HW247879   1.527   6.350   6.816 -1.1742 -0.6101  1.6086
15531SOL     OW47880   1.777   5.262   5.075 -0.0603 -0.3982  0.2028
15531SOL    HW147881   1.709   5.328   5.076  0.5977  0.2879  1.5207
15531SOL    HW247882   1.833   5.283   5.150  1.5013 -1.0296 -0.7269
15532SOL     OW47883   3.934   1.685   0.862  0.0175  0.1152  0.5673
15532SOL    HW147884   3.880   1.633   0.922  0.8101 -1.1122  0.2658
15532SOL    HW247885   3.985   1.742   0.919  0.3525 -0.6426  1.0508
15533SOL     OW47886   8.470   6.467   5.985 -0.4261  0.4511 -0.1547
15533SOL    HW147887   8.531   6.510   5.925 -0.1534  0.6141  0.2323
15533SOL    HW247888   8.407   6.423   5.928  0.0603  0.2653 -0.5600
15534SOL     OW47889   7.759   5.550   6.030  0.4575  0.0974 -0.2087
15534SOL    HW147890   7.694   5.549   5.960  1.0283  0.6518 -0.7607
15534SOL    HW247891   7.735   5.625   6.084  0.9714  0.6530 -0.7426
15535SOL     OW47892   3.442   0.171   6.309  0.2789  0.3190  0.0734
15535SOL    HW147893   3.408   0.217   6.233 -1.3065 -0.7270  0.1019
15535SOL    HW247894   3.517   0.122   6.275  0.9059  1.5257 -0.3254
15536SOL     OW47895   3.658   5.206   8.176  0.5207  0.0567  0.9049
15536SOL    HW147896   3.720   5.134   8.164  0.2543 -0.1768  0.9108
15536SOL    HW247897   3.630   5.198   8.267  1.3443  0.8623  1.2488
15537SOL     OW47898   1.879   0.501   6.789  0.0457 -0.5962 -0.0395
15537SOL    HW147899   1.903   0.490   6.880  0.2786  0.7852  0.0848
15537SOL    HW247900   1.783   0.503   6.789  0.0424  1.1689  0.4445
15538SOL     OW47901   8.620   5.568   1.782  0.9237  0.2900 -0.6461
15538SOL    HW147902   8.572   5.548   1.702 -0.0600  0.7757 -0.1920
15538SOL    HW247903   8.568   5.636   1.825  0.2300 -1.4736  1.4933
15539SOL     OW47904   4.604   7.669   6.130  0.2251 -0.2044  0.3114
15539SOL    HW147905   4.615   7.602   6.198  0.5382 -0.0870  0.3755
15539SOL    HW247906   4.661   7.740   6.156  0.7812 -0.3868 -0.3680
15540SOL     OW47907   8.595   2.196   4.246 -0.0766 -0.0126  0.2944
15540SOL    HW147908   8.624   2.110   4.277 -1.2107 -0.1033  1.1758
15540SOL    HW247909   8.581   2.247   4.326 -2.2679  0.0167 -0.0311
15541SOL     OW47910   0.311   8.504   5.560 -0.4510 -0.5337 -0.3180
15541SOL    HW147911   0.399   8.537   5.541 -0.2947  0.3725  1.6868
15541SOL    HW247912   0.267   8.504   5.475  1.2138 -0.1838 -1.2319
15542SOL     OW47913   6.018   4.410   1.873 -0.2921 -0.6258  0.0455
15542SOL    HW147914   6.073   4.394   1.950 -1.8661 -0.2914  1.2940
15542SOL    HW247915   5.936   4.365   1.892 -1.4621  1.1712 -0.4789
15543SOL     OW47916   4.337   2.874   4.975  0.1833 -0.0670  0.0840
15543SOL    HW147917   4.246   2.905   4.966  0.4103  0.3482 -0.9444
15543SOL    HW247918   4.386   2.953   4.997  0.2269 -0.3900  1.1979
15544SOL     OW47919   4.285   6.898   2.468  0.4566  0.1031 -0.2092
15544SOL    HW147920   4.374   6.889   2.503  0.7079  1.4581 -0.4473
15544SOL    HW247921   4.298   6.926   2.377 -0.2043  1.2166  0.0217
15545SOL     OW47922   3.945   6.300   1.144  0.3209 -0.4660 -0.7763
15545SOL    HW147923   3.981   6.278   1.230  0.6032 -1.7413 -1.1987
15545SOL    HW247924   4.010   6.265   1.082  0.9739  1.9210 -1.5208
15546SOL     OW47925   0.932   4.184   6.017 -0.0814  0.5322  0.2821
15546SOL    HW147926   0.871   4.169   6.090 -0.4027  1.1839  0.1571
15546SOL    HW247927   0.955   4.096   5.987 -1.1451  0.2672  0.1808
15547SOL     OW47928   3.758   1.372   8.362 -0.6470 -0.1666  0.2525
15547SOL    HW147929   3.780   1.306   8.297 -0.9768 -0.8690  0.8467
15547SOL    HW247930   3.820   1.443   8.345  0.0586 -0.8408 -0.0632
15548SOL     OW47931   4.216   6.458   6.338  0.2679 -0.0871 -0.2059
15548SOL    HW147932   4.290   6.452   6.399  0.6197  1.5564 -0.4279
15548SOL    HW247933   4.145   6.413   6.383  1.4161 -1.8161 -0.0475
15549SOL     OW47934   8.052   7.347   4.542 -0.6265 -0.3899  0.3398
15549SOL    HW147935   8.098   7.430   4.532 -1.1914  0.4027  3.3822
15549SOL    HW247936   8.090   7.290   4.474  2.4033  1.2140  0.5301
15550SOL     OW47937   1.250   7.125   1.398 -0.4609  0.6192  0.0553
15550SOL    HW147938   1.222   7.214   1.419 -1.8988 -0.1186  1.4287
15550SOL    HW247939   1.215   7.071   1.469  0.2404 -1.0796 -0.8319
15551SOL     OW47940   5.514   1.334   5.994  0.4068 -0.0235 -0.1276
15551SOL    HW147941   5.429   1.356   5.956 -0.0771 -0.0971  0.8768
15551SOL    HW247942   5.549   1.267   5.936  0.3109  0.8387 -1.2157
15552SOL     OW47943   7.488   4.316   6.521 -0.1496  0.1853 -0.2747
15552SOL    HW147944   7.556   4.366   6.474  1.7261 -0.6194  1.4463
15552SOL    HW247945   7.501   4.226   6.492 -1.8473  0.2789 -1.4342
15553SOL     OW47946   0.235   4.689   8.273 -0.2486  0.1484  0.1179
15553SOL    HW147947   0.291   4.708   8.198 -0.7385  1.7418  0.1357
15553SOL    HW247948   0.292   4.643   8.334  0.3777 -0.4218 -0.8710
15554SOL     OW47949   7.482   2.605   1.206 -0.3472 -0.0618 -0.3626
15554SOL    HW147950   7.400   2.648   1.184 -0.0470  0.2665 -0.8579
15554SOL    HW247951   7.536   2.614   1.127 -0.2973 -1.4128 -0.5095
15555SOL     OW47952   0.536   0.411   3.089  0.0426  0.0293 -0.8218
15555SOL    HW147953   0.492   0.463   3.157  0.4450 -2.4462  1.5008
15555SOL    HW247954   0.464   0.375   3.037 -0.4463 -0.3087  0.0693
15556SOL     OW47955   7.157   0.557   5.103  0.1622  0.1779 -0.8706
15556SOL    HW147956   7.076   0.557   5.053  0.0859 -0.2621 -0.7521
15556SOL    HW247957   7.226   0.569   5.037  0.1079 -1.0237 -1.1686
15557SOL     OW47958   5.152   2.260   3.647  0.5645 -0.5813 -0.3567
15557SOL    HW147959   5.074   2.253   3.701  0.2582 -1.5128 -0.8943
15557SOL    HW247960   5.223   2.231   3.704  0.2738 -1.3667 -0.3825
15558SOL     OW47961   6.070   8.244   4.506  0.1644  0.0863 -0.0750
15558SOL    HW147962   6.075   8.339   4.522 -0.1758  0.2410 -0.8105
15558SOL    HW247963   6.143   8.208   4.554  0.1119  0.6937  0.4764
15559SOL     OW47964   7.858   4.961   2.871 -0.4277  0.2199 -0.4832
15559SOL    HW147965   7.857   5.010   2.789 -0.5080 -1.0961 -1.2996
15559SOL    HW247966   7.811   4.880   2.851 -0.3944 -0.1473  0.8506
15560SOL     OW47967   6.012   0.834   3.406 -0.0899 -0.1379 -0.3635
15560SOL    HW147968   6.054   0.864   3.487  1.6311 -1.2128 -0.8142
15560SOL    HW247969   5.949   0.904   3.385  1.0538  1.2659  0.6659
15561SOL     OW47970   3.739   5.503   5.973 -0.0698 -0.2222  0.6129
15561SOL    HW147971   3.705   5.413   5.978 -0.9418  0.1344  1.4362
15561SOL    HW247972   3.832   5.492   5.956 -0.6637 -1.2331 -2.8057
15562SOL     OW47973   8.313   5.364   1.439  0.3424  0.5137 -0.3717
15562SOL    HW147974   8.244   5.335   1.500 -0.4371  1.4479 -0.7865
15562SOL    HW247975   8.289   5.326   1.355  0.6511  0.3810 -0.4029
15563SOL     OW47976   8.643   1.043   4.056 -0.4972  0.4006  0.0921
15563SOL    HW147977   8.565   0.988   4.062  0.0025 -0.3575 -0.2032
15563SOL    HW247978   8.715   0.986   4.084  0.2179  0.4670 -1.5208
15564SOL     OW47979   2.133   0.061   3.135 -0.5232  0.1722  0.1923
15564SOL    HW147980   2.224   0.090   3.126 -0.8719  1.1468 -0.3003
15564SOL    HW247981   2.140  -0.029   3.169  0.6046  0.3849  0.5713
15565SOL     OW47982   6.244   7.655   3.786 -0.5770 -0.3499 -0.0918
15565SOL    HW147983   6.150   7.657   3.767 -0.3704 -1.3676 -1.3504
15565SOL    HW247984   6.276   7.577   3.740  0.6377 -0.8719  1.5660
15566SOL     OW47985   1.320   0.851   5.351 -0.0228  0.5727 -0.2505
15566SOL    HW147986   1.323   0.810   5.438 -1.6267 -0.6818 -0.7271
15566SOL    HW247987   1.395   0.813   5.304 -0.0324  0.0877  0.1140
15567SOL     OW47988   4.347   5.667   0.690  0.3424  0.2741 -0.4200
15567SOL    HW147989   4.435   5.702   0.678  0.9563 -0.8241  0.6940
15567SOL    HW247990   4.334   5.666   0.785 -1.4539  1.7902 -0.5856
15568SOL     OW47991   6.776   1.729   3.376  0.3693  0.2283  0.1457
15568SOL    HW147992   6.744   1.817   3.357  1.3493  0.9141  1.4870
15568SOL    HW247993   6.804   1.733   3.467  0.4952 -1.4646  0.2108
15569SOL     OW47994   4.465   8.200   1.528  0.4142 -0.0219 -0.5283
15569SOL    HW147995   4.430   8.275   1.577 -0.8923 -1.2477  0.4934
15569SOL    HW247996   4.534   8.166   1.584 -1.0036 -1.3539  0.5040
15570SOL     OW47997   0.611   7.918   1.271  0.3069  0.3284 -0.3823
15570SOL    HW147998   0.518   7.918   1.295  0.0759 -2.3852 -1.0424
15570SOL    HW247999   0.612   7.947   1.180  0.0355 -0.3016 -0.5863
15571SOL     OW48000   1.850   4.763   3.459 -0.5953 -0.7688 -0.3459
15571SOL    HW148001   1.892   4.798   3.381  2.1880  1.8034  2.0620
15571SOL    HW248002   1.910   4.696   3.491 -1.6806 -1.7617 -0.3134
15572SOL     OW48003   3.210   7.084   6.359 -0.2614 -0.1587 -0.3155
15572SOL    HW148004   3.159   7.165   6.359 -0.0998 -0.0470  0.5439
15572SOL    HW248005   3.155   7.021   6.312 -0.5398  0.3528 -0.6835
15573SOL     OW48006   1.272   5.716   3.812  0.4024 -0.7085  0.0561
15573SOL    HW148007   1.324   5.652   3.862  1.2157 -1.4599 -1.6601
15573SOL    HW248008   1.207   5.663   3.766 -2.2004  0.2379  2.3777
15574SOL     OW48009   4.843   0.044   6.245 -0.6597  0.6005 -0.4545
15574SOL    HW148010   4.774   0.023   6.308 -0.7743 -1.4571 -1.2033
15574SOL    HW248011   4.809   0.119   6.197 -0.8493  1.8033  1.4487
15575SOL     OW48012   7.784   5.368   2.362 -0.2172  0.2510 -0.0287
15575SOL    HW148013   7.705   5.361   2.417  0.0203  0.6146  0.3667
15575SOL    HW248014   7.854   5.332   2.416 -0.3419 -1.3887 -0.9109
15576SOL     OW48015   1.838   6.517   3.055 -0.2653  0.3034 -0.4464
15576SOL    HW148016   1.764   6.544   3.110  1.1438  2.0862  0.6668
15576SOL    HW248017   1.799   6.499   2.970 -2.0505  0.6799  0.2456
15577SOL     OW48018   1.927   5.988   6.787  0.0841  0.1013 -0.0355
15577SOL    HW148019   1.947   5.971   6.879  1.7713 -0.6712 -0.4976
15577SOL    HW248020   1.831   5.993   6.783  0.0451  2.6150  2.1309
15578SOL     OW48021   4.549   6.424   3.173  0.2390  0.3167 -0.0614
15578SOL    HW148022   4.581   6.345   3.129  1.1023  0.2817  0.5905
15578SOL    HW248023   4.494   6.391   3.244 -0.5042  0.3490 -0.6161
15579SOL     OW48024   0.765   8.263   1.401  0.4261 -0.4342  0.5062
15579SOL    HW148025   0.857   8.289   1.400  0.1423  0.6949 -1.1796
15579SOL    HW248026   0.764   8.175   1.364  0.7102  0.1944 -1.0776
15580SOL     OW48027   0.119   4.323   7.809 -0.9328  0.5141  0.1933
15580SOL    HW148028   0.086   4.374   7.883 -1.0538 -1.5080  1.6191
15580SOL    HW248029   0.180   4.261   7.848 -1.7934 -1.3331 -1.2278
15581SOL     OW48030   4.271   8.494   6.125 -0.0454  0.5153  0.1449
15581SOL    HW148031   4.274   8.431   6.197  0.1501  0.5158  0.1372
15581SOL    HW248032   4.289   8.443   6.047 -1.8405  0.2124 -0.1157
15582SOL     OW48033   4.087   5.519   7.169 -0.6167  0.7653  0.1705
15582SOL    HW148034   4.111   5.473   7.089  0.8239 -0.9533  1.5307
15582SOL    HW248035   4.096   5.612   7.147  0.8311  0.3019 -1.3296
15583SOL     OW48036   2.214   4.081   7.470 -0.2764 -0.0223 -0.0545
15583SOL    HW148037   2.220   4.172   7.497 -1.4887  1.1490 -3.2844
15583SOL    HW248038   2.273   4.074   7.395 -1.0105 -1.5969 -0.5289
15584SOL     OW48039   7.481   2.171   1.272 -0.3587  0.3827 -0.4972
15584SOL    HW148040   7.512   2.113   1.203  0.9757 -0.1067  0.4727
15584SOL    HW248041   7.386   2.169   1.265 -0.3191 -1.4518 -0.8596
15585SOL     OW48042   4.620   2.338   7.377  0.6526 -0.3398 -0.1458
15585SOL    HW148043   4.712   2.313   7.364  0.4310 -1.2310 -0.0655
15585SOL    HW248044   4.570   2.267   7.338 -0.0190 -1.2043  2.1238
15586SOL     OW48045   8.169   0.551   7.790 -0.5321  0.0355  0.0904
15586SOL    HW148046   8.118   0.481   7.750  1.3601 -0.2918 -1.9877
15586SOL    HW248047   8.164   0.623   7.726 -0.9299  1.1524  1.3244
15587SOL     OW48048   0.943   5.946   7.211  0.5297 -0.1115 -0.1909
15587SOL    HW148049   0.917   6.033   7.179 -1.5349 -0.3502  0.6985
15587SOL    HW248050   0.884   5.885   7.167 -0.5763 -0.6835  1.9376
15588SOL     OW48051   4.935   4.981   3.841  0.8522 -0.1125  0.4548
15588SOL    HW148052   4.959   5.052   3.900 -0.9187  0.4300  0.5848
15588SOL    HW248053   4.934   5.021   3.754  2.7738 -0.7386  0.1145
15589SOL     OW48054   5.401   5.923   5.037 -0.2556 -0.4795 -0.2284
15589SOL    HW148055   5.390   6.012   5.071  1.2065 -0.4778  0.3123
15589SOL    HW248056   5.339   5.870   5.088 -0.7872  0.1450 -0.2152
15590SOL     OW48057   5.170   5.210   7.691 -0.1965 -0.5334 -0.2585
15590SOL    HW148058   5.164   5.305   7.688 -1.0642 -0.6063 -1.2964
15590SOL    HW248059   5.087   5.182   7.731  0.9851 -0.7874  2.2326
15591SOL     OW48060   6.925   1.222   0.360 -0.2744  0.0927 -0.0063
15591SOL    HW148061   6.933   1.139   0.408  0.4672  0.0475 -0.1915
15591SOL    HW248062   6.857   1.205   0.295 -0.4446 -0.2289  0.2521
15592SOL     OW48063   3.569   4.095   5.438  0.2869 -0.3264  0.4056
15592SOL    HW148064   3.533   4.026   5.382 -1.2310  0.5203  0.2748
15592SOL    HW248065   3.617   4.152   5.377 -0.7403  0.1915  0.0649
15593SOL     OW48066   5.074   0.368   8.158  0.5172  0.4923 -0.1430
15593SOL    HW148067   5.009   0.438   8.169  0.9685  0.6913  1.6373
15593SOL    HW248068   5.157   0.414   8.152  0.7463  0.1474  0.3148
15594SOL     OW48069   2.675   3.139   0.038 -0.3635 -0.5722  0.6995
15594SOL    HW148070   2.688   3.220   0.087  1.5855 -0.7059  0.4842
15594SOL    HW248071   2.687   3.164  -0.053 -1.6938 -0.7632  0.4516
15595SOL     OW48072   8.387   1.191   7.754 -0.6019 -0.8779  0.2239
15595SOL    HW148073   8.447   1.226   7.820 -1.3053  0.9057 -0.0103
15595SOL    HW248074   8.308   1.168   7.803 -1.2729  0.8171  0.0241
15596SOL     OW48075   6.041   3.781   2.248 -0.2798 -0.2575 -0.6864
15596SOL    HW148076   6.116   3.784   2.307  0.9332 -0.4113 -2.1429
15596SOL    HW248077   6.015   3.689   2.245 -1.0857 -0.0862  0.4506
15597SOL     OW48078   1.430   3.191   8.346  0.6046 -0.7763  0.4021
15597SOL    HW148079   1.412   3.126   8.278  0.2337  0.2417 -0.5173
15597SOL    HW248080   1.362   3.257   8.334  0.8244 -0.3323  1.4686
15598SOL     OW48081   7.961   8.305   3.961  0.2839 -0.8816 -0.7111
15598SOL    HW148082   7.917   8.273   3.882  1.0476 -3.5010 -0.1819
15598SOL    HW248083   8.011   8.229   3.993  1.2466  0.5519  1.4232
15599SOL     OW48084   2.671   4.154   5.612  0.0674  0.4658  0.2052
15599SOL    HW148085   2.605   4.179   5.547 -0.3680 -0.3635  0.3101
15599SOL    HW248086   2.752   4.149   5.562 -0.1120  0.6185 -0.1095
15600SOL     OW48087   1.322   7.544   5.863 -0.3815 -0.4396  0.6401
15600SOL    HW148088   1.256   7.534   5.932 -1.4863  1.5010 -0.0707
15600SOL    HW248089   1.278   7.514   5.783 -0.7648  1.6207  0.0185
15601SOL     OW48090   8.068   5.136   1.452 -0.6598 -0.0763  0.4114
15601SOL    HW148091   8.070   5.187   1.371 -0.9135 -0.2738  0.2789
15601SOL    HW248092   8.084   5.200   1.521 -0.2769  0.0655  0.1917
15602SOL     OW48093   8.011   6.570   4.599 -0.8219 -0.0387 -0.7138
15602SOL    HW148094   7.993   6.653   4.643  2.6649  0.3052  0.3296
15602SOL    HW248095   8.106   6.567   4.591 -0.9369 -3.1309 -2.3926
15603SOL     OW48096   2.855   7.665   7.512  0.4599  0.3188  0.0116
15603SOL    HW148097   2.872   7.579   7.475 -0.4854 -0.1905  0.7219
15603SOL    HW248098   2.925   7.679   7.575 -1.2300 -1.5065  2.4999
15604SOL     OW48099   1.121   4.919   7.848 -0.2610 -0.2872 -0.2714
15604SOL    HW148100   1.069   4.845   7.816  0.3737 -1.3540  1.0686
15604SOL    HW248101   1.180   4.938   7.775 -1.6068  0.0847 -1.3027
15605SOL     OW48102   1.890   5.985   4.135  0.1533  0.6882 -0.2673
15605SOL    HW148103   1.885   5.928   4.058 -0.5025  0.7121 -0.2407
15605SOL    HW248104   1.880   6.073   4.101 -1.1840  0.6355 -0.0423
15606SOL     OW48105   3.094   2.465   7.256 -0.1271  0.1058 -0.3674
15606SOL    HW148106   3.001   2.469   7.274  0.0854 -0.1405  0.8961
15606SOL    HW248107   3.100   2.421   7.171 -1.2173  1.9501 -1.4739
15607SOL     OW48108   4.082   1.236   0.224  0.1199 -0.1233  0.0185
15607SOL    HW148109   4.017   1.288   0.176 -1.2067 -1.1135  0.6742
15607SOL    HW248110   4.070   1.147   0.191  0.6910 -0.4326  0.6358
15608SOL     OW48111   8.401   6.426   2.497 -0.0547  0.3839  0.2780
15608SOL    HW148112   8.483   6.475   2.498  1.6960 -2.3284  0.1817
15608SOL    HW248113   8.376   6.425   2.404 -0.3472  1.3759  0.3300
15609SOL     OW48114   4.437   2.026   2.327  0.3760 -0.3664 -0.6462
15609SOL    HW148115   4.411   2.089   2.260 -1.0268 -1.8207 -1.5380
15609SOL    HW248116   4.519   1.989   2.295  1.0959  0.8092 -0.2230
15610SOL     OW48117   5.416   5.191   4.521  0.6171  0.6622  0.3090
15610SOL    HW148118   5.401   5.179   4.615 -0.6429 -0.2364  0.0064
15610SOL    HW248119   5.334   5.167   4.480  0.8648  1.9138 -0.9885
15611SOL     OW48120   0.277   1.270   3.983  0.3242  0.0192 -0.1515
15611SOL    HW148121   0.291   1.194   4.040 -1.2334  0.5125  0.9414
15611SOL    HW248122   0.365   1.305   3.967  0.8933 -0.9096  0.8510
15612SOL     OW48123   1.876   4.394   5.778 -0.0095  0.0396  0.0632
15612SOL    HW148124   1.841   4.443   5.852 -0.6941 -0.2387 -0.0671
15612SOL    HW248125   1.965   4.429   5.766  0.7577 -1.0769  2.0539
15613SOL     OW48126   7.377   0.361   0.351  0.4826  0.0868 -0.0552
15613SOL    HW148127   7.298   0.350   0.404  0.5046  0.5269  0.0716
15613SOL    HW248128   7.373   0.452   0.320 -0.1154 -0.4752 -1.7629
15614SOL     OW48129   6.384   2.508   1.592 -0.4084 -0.0387  0.4370
15614SOL    HW148130   6.467   2.482   1.632 -0.5235  1.1658  1.5338
15614SOL    HW248131   6.335   2.427   1.582  0.2863 -0.5651  1.2349
15615SOL     OW48132   2.949   7.067   3.421  0.5940 -0.1827 -0.2983
15615SOL    HW148133   3.012   7.009   3.378  0.8306 -1.1242  1.2410
15615SOL    HW248134   2.994   7.096   3.500 -0.1000  0.9285 -0.2809
15616SOL     OW48135   4.507   4.864   0.878 -0.5976 -0.0908  0.0198
15616SOL    HW148136   4.598   4.877   0.851 -0.2735 -1.3745  0.3869
15616SOL    HW248137   4.468   4.950   0.873  0.2670  0.2447 -1.4907
15617SOL     OW48138   1.723   1.577   7.054  0.5440 -0.6182 -0.1879
15617SOL    HW148139   1.793   1.571   7.120  1.7044 -1.0575 -1.4175
15617SOL    HW248140   1.763   1.545   6.973 -1.1625 -1.1050 -0.8910
15618SOL     OW48141   1.457   7.171   2.810  0.2391  0.1716  0.2650
15618SOL    HW148142   1.515   7.096   2.800  0.0331  0.0491 -0.0133
15618SOL    HW248143   1.508   7.246   2.777  1.1020  0.4681  2.0992
15619SOL     OW48144   4.452   5.587   5.866 -0.6478 -0.3330  0.2740
15619SOL    HW148145   4.425   5.506   5.909 -1.0193 -0.7154 -0.6390
15619SOL    HW248146   4.400   5.589   5.786  0.6101 -0.0650 -0.5627
15620SOL     OW48147   5.687   3.609   6.006  0.0448 -0.2599 -0.4086
15620SOL    HW148148   5.622   3.654   5.951  1.0131  0.1452 -1.2614
15620SOL    HW248149   5.740   3.680   6.042  1.3044 -0.6644 -1.4035
15621SOL     OW48150   2.423   3.097   6.622 -0.2679 -0.1469 -0.2250
15621SOL    HW148151   2.437   3.012   6.663 -0.6217 -0.0038  0.1962
15621SOL    HW248152   2.356   3.080   6.555 -0.4474 -0.1701 -0.0402
15622SOL     OW48153   3.693   3.025   5.934 -0.1755 -0.0850  0.1373
15622SOL    HW148154   3.694   2.982   6.020 -1.5442  1.2370  0.8691
15622SOL    HW248155   3.755   3.098   5.943  0.9285 -0.8906 -0.5790
15623SOL     OW48156   4.773   0.113   1.006  0.3599  0.3613  0.2593
15623SOL    HW148157   4.810   0.125   1.094  1.6023 -0.5187 -0.1228
15623SOL    HW248158   4.847   0.089   0.952 -0.5958 -0.2886 -0.7965
15624SOL     OW48159   2.852   8.464   5.102  0.3955 -0.6316  0.7373
15624SOL    HW148160   2.910   8.540   5.111  1.0659 -0.9711 -0.4416
15624SOL    HW248161   2.765   8.501   5.093  0.7273  0.0213  0.0573
15625SOL     OW48162   1.149   5.758   1.524  0.0580 -0.1853 -0.5206
15625SOL    HW148163   1.163   5.680   1.577  0.6936  1.1680  1.4483
15625SOL    HW248164   1.229   5.810   1.535 -1.3022  1.8743  0.3434
15626SOL     OW48165   7.102   6.070   6.909  0.2895 -0.5407  0.1974
15626SOL    HW148166   7.075   6.162   6.910  1.1241 -0.2889  0.6454
15626SOL    HW248167   7.058   6.033   6.833 -0.1582  0.1984  0.0862
15627SOL     OW48168   3.113   7.293   5.105 -0.3336  0.4585 -0.9144
15627SOL    HW148169   3.121   7.213   5.053 -1.8658 -0.9263  0.8344
15627SOL    HW248170   3.062   7.353   5.050  0.2781  0.0307 -1.9870
15628SOL     OW48171   7.128   1.969   7.660 -0.3588  0.0123 -0.2581
15628SOL    HW148172   7.120   1.955   7.755  1.0251  1.2386  0.0691
15628SOL    HW248173   7.092   2.056   7.646 -0.8660 -0.2941 -0.9403
15629SOL     OW48174   5.722   7.441   5.887 -0.1438 -0.2240 -0.5687
15629SOL    HW148175   5.786   7.419   5.820  1.4420  0.4856  0.6680
15629SOL    HW248176   5.709   7.535   5.879  0.7578  0.0305  0.6724
15630SOL     OW48177   0.790   0.404   7.467 -0.6667 -0.5156  0.5027
15630SOL    HW148178   0.737   0.447   7.400 -0.4383 -1.0287 -0.0153
15630SOL    HW248179   0.729   0.386   7.538 -1.5747 -2.4238 -0.6655
15631SOL     OW48180   6.976   0.188   8.027 -0.2032  0.0389  0.0261
15631SOL    HW148181   6.987   0.282   8.011 -1.0223  0.2011  0.3446
15631SOL    HW248182   6.895   0.165   7.982 -0.1024 -0.4775  0.0985
15632SOL     OW48183   1.301   3.635   1.956  0.3182  0.1484 -0.0421
15632SOL    HW148184   1.356   3.565   1.920  1.2132  1.1613 -0.7428
15632SOL    HW248185   1.359   3.683   2.015 -0.2153  0.4363  0.2550
15633SOL     OW48186   8.104   5.900   5.789  0.2083 -0.5333  0.5526
15633SOL    HW148187   8.146   5.956   5.724  0.9383  1.4689  2.6168
15633SOL    HW248188   8.149   5.816   5.781  1.1330  0.0493 -0.6532
15634SOL     OW48189   2.587   2.487   4.265  0.1887  0.1182 -0.4107
15634SOL    HW148190   2.531   2.563   4.246 -0.5687 -0.7503 -1.7860
15634SOL    HW248191   2.590   2.438   4.183  1.9491 -0.5438 -0.0048
15635SOL     OW48192   1.943   5.647   0.689  0.3473 -0.0875 -0.7584
15635SOL    HW148193   1.886   5.588   0.640  1.6058 -0.9943 -1.1954
15635SOL    HW248194   1.953   5.723   0.631 -0.7640  0.3063 -0.4680
15636SOL     OW48195   0.958   0.559   2.029 -0.3821  0.3209  0.8044
15636SOL    HW148196   1.028   0.497   2.052 -0.2048  0.0427 -0.4489
15636SOL    HW248197   0.905   0.513   1.965 -0.6891  1.1974  0.4210
15637SOL     OW48198   0.876   8.235   1.132 -0.8966 -0.4656  0.0541
15637SOL    HW148199   0.967   8.259   1.152 -0.7550 -0.0951 -0.9347
15637SOL    HW248200   0.825   8.268   1.206 -0.1744 -1.1006  0.8503
15638SOL     OW48201   4.297   3.207   3.323  0.2000  0.0182 -0.1691
15638SOL    HW148202   4.333   3.218   3.411 -1.3040  1.2495  0.3339
15638SOL    HW248203   4.342   3.273   3.271 -1.0683  1.4015  0.4089
15639SOL     OW48204   3.807   8.684   7.324  0.3199 -0.3083  0.3670
15639SOL    HW148205   3.856   8.650   7.248  0.5740 -1.0050  0.8359
15639SOL    HW248206   3.822   8.619   7.393 -1.3667 -0.6041  0.5014
15640SOL     OW48207   2.562   6.962   7.580 -0.4223  0.3082 -0.1858
15640SOL    HW148208   2.553   7.041   7.525 -1.2819  0.9764  0.8640
15640SOL    HW248209   2.485   6.965   7.637  1.7665  1.1683  2.9765
15641SOL     OW48210   6.747   0.388   3.575 -0.4376 -0.2948  1.0153
15641SOL    HW148211   6.755   0.482   3.590 -0.2103 -0.0395 -0.5219
15641SOL    HW248212   6.680   0.380   3.508  0.8384 -1.0696 -0.2387
15642SOL     OW48213   2.522   1.792   2.513  0.2966 -0.1836  0.9665
15642SOL    HW148214   2.454   1.794   2.445  0.1609 -0.6041  1.0851
15642SOL    HW248215   2.590   1.852   2.481 -0.7588  1.3573  1.5199
15643SOL     OW48216   5.587   6.229   4.703  0.1911  0.0865  0.1796
15643SOL    HW148217   5.571   6.323   4.717 -1.2273 -0.3938  2.2754
15643SOL    HW248218   5.503   6.194   4.674  0.3919 -0.7034  0.5120
15644SOL     OW48219   3.639   0.664   3.363  0.7094 -0.4203 -0.0551
15644SOL    HW148220   3.635   0.569   3.373 -0.3113 -0.3087  0.7147
15644SOL    HW248221   3.595   0.681   3.280 -0.2172 -0.5393  0.3969
15645SOL     OW48222   5.449   7.722   5.034  0.2275 -0.6297 -0.4054
15645SOL    HW148223   5.465   7.628   5.036  0.6600 -0.5701 -0.6804
15645SOL    HW248224   5.393   7.735   4.957  1.0703 -0.5504 -1.0300
15646SOL     OW48225   0.612   5.569   2.562  0.6830  0.1845 -0.0888
15646SOL    HW148226   0.696   5.612   2.547  0.1601  0.6451 -2.0231
15646SOL    HW248227   0.584   5.540   2.475 -0.9244 -0.4282  0.5837
15647SOL     OW48228   1.517   0.667   5.870 -0.3105 -0.1600  0.1592
15647SOL    HW148229   1.424   0.649   5.861 -0.1954 -0.1340 -1.3878
15647SOL    HW248230   1.530   0.683   5.963 -2.1125  1.3230  0.2120
15648SOL     OW48231   4.932   2.923   5.128 -0.4524  0.1989 -0.5835
15648SOL    HW148232   4.909   2.858   5.061 -0.4710 -0.9224  0.4683
15648SOL    HW248233   4.866   2.911   5.197  0.7859 -0.1464  0.5825
15649SOL     OW48234   6.145   1.719   0.557 -0.0021 -0.2118 -0.2969
15649SOL    HW148235   6.114   1.684   0.473 -0.0303 -0.2997 -0.2503
15649SOL    HW248236   6.235   1.690   0.564  0.4328  0.9251 -0.9203
15650SOL     OW48237   1.225   0.496   0.108 -0.3504 -0.5645  0.4567
15650SOL    HW148238   1.201   0.569   0.165  0.0759 -1.2777  1.5728
15650SOL    HW248239   1.233   0.421   0.166  1.1038 -1.1086 -0.3836
15651SOL     OW48240   8.156   1.319   3.410  0.2906 -0.0244 -0.8061
15651SOL    HW148241   8.215   1.394   3.420 -1.2545  1.3081 -1.3182
15651SOL    HW248242   8.200   1.248   3.457  0.8699  1.7301  1.5232
15652SOL     OW48243   4.495   5.489   6.669  1.2566  0.4503  0.2991
15652SOL    HW148244   4.558   5.540   6.721  1.1050 -0.2679  1.2225
15652SOL    HW248245   4.493   5.533   6.584  2.5120  0.8752  0.4618
15653SOL     OW48246   1.318   6.178   1.697 -0.5248 -0.6232 -0.0855
15653SOL    HW148247   1.390   6.159   1.758 -0.2609  0.7428  0.0611
15653SOL    HW248248   1.260   6.102   1.704  0.4234 -1.3233  0.5002
15654SOL     OW48249   3.985   4.092   2.259  0.7291  0.3679 -0.4454
15654SOL    HW148250   3.929   4.162   2.227  1.3832  1.6499  1.0989
15654SOL    HW248251   4.064   4.097   2.205  0.7763  0.8114 -0.3320
15655SOL     OW48252   1.716   3.008   5.629  0.1301  0.3240 -0.0325
15655SOL    HW148253   1.699   3.033   5.719 -0.2075 -2.5866  0.8129
15655SOL    HW248254   1.634   3.025   5.583 -0.8936 -1.4193  1.0546
15656SOL     OW48255   0.277   0.998   5.134  0.1158 -1.0095 -0.0265
15656SOL    HW148256   0.368   0.978   5.111  0.1787 -0.9998  0.2107
15656SOL    HW248257   0.261   1.085   5.097  0.2436 -0.9578  0.0394
15657SOL     OW48258   0.967   1.293   0.935 -0.3166 -0.2012 -0.7615
15657SOL    HW148259   0.996   1.266   1.022 -0.7961  1.8503  0.1049
15657SOL    HW248260   1.041   1.275   0.877  0.2088 -1.0917  0.1670
15658SOL     OW48261   5.726   4.521   6.856  0.1309 -0.1152 -0.0543
15658SOL    HW148262   5.669   4.561   6.790 -0.1506 -0.6331 -0.1267
15658SOL    HW248263   5.731   4.429   6.831  3.3208  0.3675 -1.7243
15659SOL     OW48264   2.562   2.926   5.472  0.1057  0.2362  0.0699
15659SOL    HW148265   2.545   2.941   5.565 -0.1935 -1.0293  0.2401
15659SOL    HW248266   2.636   2.865   5.470 -0.7481 -0.8056 -0.4833
15660SOL     OW48267   2.192   5.164   7.491 -0.2647  0.4875  0.0829
15660SOL    HW148268   2.276   5.153   7.536 -0.4705 -1.0400  0.1451
15660SOL    HW248269   2.215   5.189   7.402  0.2295  0.6713  0.2577
15661SOL     OW48270   6.897   1.927   2.687 -0.0777  0.0409 -0.3279
15661SOL    HW148271   6.990   1.948   2.672 -0.0727  0.7260  0.5765
15661SOL    HW248272   6.854   2.012   2.689 -1.1948 -0.3279 -3.3196
15662SOL     OW48273   2.995   3.462   6.648  0.0396 -0.2995 -0.2531
15662SOL    HW148274   3.075   3.414   6.671  0.3307  0.0191 -0.5966
15662SOL    HW248275   3.026   3.550   6.627 -0.2873 -0.4248 -1.3062
15663SOL     OW48276   4.258   2.670   1.289 -0.0932 -0.3910  0.3400
15663SOL    HW148277   4.230   2.587   1.326  0.5028 -0.1008  1.4650
15663SOL    HW248278   4.193   2.689   1.221  0.3202 -2.2639 -0.6596
15664SOL     OW48279   5.492   8.005   4.903 -0.5595  0.5762  0.1755
15664SOL    HW148280   5.583   8.032   4.915 -1.5464  4.0632  0.8150
15664SOL    HW248281   5.498   7.912   4.880  3.1079  0.5932  0.4314
15665SOL     OW48282   7.887   4.115   1.647  0.1205 -0.0971  0.5292
15665SOL    HW148283   7.876   4.024   1.619 -0.3783 -0.1304  0.8139
15665SOL    HW248284   7.825   4.125   1.719 -0.5759  0.7566 -0.1686
15666SOL     OW48285   6.040   8.230   1.949  0.0640  0.1503 -0.4225
15666SOL    HW148286   6.039   8.169   2.023  0.2398  0.3165 -0.2832
15666SOL    HW248287   5.976   8.194   1.888 -0.5893  0.3764  0.1116
15667SOL     OW48288   7.733   8.023   7.549 -0.5642 -0.0474  0.3734
15667SOL    HW148289   7.754   8.073   7.628  3.1463  1.0068 -1.0149
15667SOL    HW248290   7.746   7.932   7.573 -0.8686  0.1532  1.3235
15668SOL     OW48291   0.002   8.638   6.930 -0.2878 -0.2063 -0.2746
15668SOL    HW148292   0.014   8.714   6.873 -0.2463  0.5458  0.7060
15668SOL    HW248293  -0.091   8.618   6.925 -0.6861  1.1782  0.9881
15669SOL     OW48294   1.385   6.940   0.575  0.1154 -0.2782 -0.6991
15669SOL    HW148295   1.329   6.866   0.598 -0.8353 -0.1354 -2.4011
15669SOL    HW248296   1.469   6.900   0.554 -0.2219 -0.8262 -1.0415
15670SOL     OW48297   5.653   6.087   0.303  0.0392 -0.2492  0.0071
15670SOL    HW148298   5.638   6.063   0.394  0.3914 -1.3330 -0.2108
15670SOL    HW248299   5.634   6.007   0.253  0.2510  0.2084 -0.8318
15671SOL     OW48300   2.356   5.673   0.598 -0.0865 -0.1256 -0.0674
15671SOL    HW148301   2.387   5.597   0.647 -0.4050  0.3018  0.8186
15671SOL    HW248302   2.394   5.748   0.644 -1.4306  0.3494  0.3097
15672SOL     OW48303   3.860   5.840   1.612 -0.1439  0.1401  0.3603
15672SOL    HW148304   3.852   5.755   1.655  0.7051  1.0911  2.5475
15672SOL    HW248305   3.805   5.899   1.663  0.6512  1.2643 -0.0335
15673SOL     OW48306   0.181   0.264   4.529 -0.0416 -0.2107  0.3714
15673SOL    HW148307   0.119   0.195   4.505 -2.3047  1.9843 -0.5077
15673SOL    HW248308   0.127   0.333   4.565  2.1025  1.2778  0.9216
15674SOL     OW48309   2.881   4.410   2.355  0.3746  0.0935 -0.6592
15674SOL    HW148310   2.856   4.482   2.414 -0.2239 -1.5618  1.1973
15674SOL    HW248311   2.800   4.360   2.342  0.7765 -0.2702 -1.9440
15675SOL     OW48312   1.529   3.496   7.392 -0.2250  0.1919  0.2504
15675SOL    HW148313   1.592   3.461   7.455 -0.5708  2.2299  1.8143
15675SOL    HW248314   1.582   3.517   7.315  0.7896  0.6873  1.0661
15676SOL     OW48315   7.598   6.962   6.440 -0.1890 -0.4108  0.4230
15676SOL    HW148316   7.673   6.950   6.382 -0.6899  0.7016 -0.4861
15676SOL    HW248317   7.528   6.908   6.401  0.1438 -1.5281  1.3252
15677SOL     OW48318   5.854   0.333   7.986 -0.2672  0.5392 -0.2408
15677SOL    HW148319   5.922   0.266   7.989 -1.4140 -0.6396  0.5573
15677SOL    HW248320   5.837   0.347   7.892 -0.9319 -1.2982 -0.4303
15678SOL     OW48321   3.939   0.249   1.248 -0.5202  0.0668 -0.6529
15678SOL    HW148322   3.861   0.229   1.197 -0.1517 -0.2070 -1.1126
15678SOL    HW248323   3.983   0.165   1.259 -1.1129 -0.0627  0.9995
15679SOL     OW48324   0.067   3.691   5.816 -0.0570 -0.3359 -0.2636
15679SOL    HW148325   0.120   3.632   5.763 -2.0526 -0.8030 -1.8719
15679SOL    HW248326  -0.008   3.637   5.843  0.5480  0.0732  2.5520
15680SOL     OW48327   0.517   2.556   4.135  0.3210 -0.0431 -0.4693
15680SOL    HW148328   0.560   2.612   4.199  1.0145 -1.0954  0.0258
15680SOL    HW248329   0.588   2.504   4.097 -0.4541 -1.9248  0.4755
15681SOL     OW48330   7.068   7.938   0.272  0.0627  0.2912 -0.9036
15681SOL    HW148331   7.119   8.019   0.277 -0.0577  0.3991 -1.3246
15681SOL    HW248332   7.097   7.887   0.347 -1.0269  1.3891  0.3189
15682SOL     OW48333   4.068   2.550   4.730 -0.7126  0.1618 -0.1407
15682SOL    HW148334   4.042   2.611   4.798  0.1348 -1.3711  1.6384
15682SOL    HW248335   3.987   2.501   4.711 -0.6447 -0.3477  0.8132
15683SOL     OW48336   1.561   0.755   8.483 -0.0041 -0.1739  0.5970
15683SOL    HW148337   1.571   0.713   8.569  0.4907 -2.3030 -0.4315
15683SOL    HW248338   1.641   0.733   8.436  0.0949  1.6631 -0.1718
15684SOL     OW48339   5.326   0.451   3.514  0.2792  0.3452  0.3397
15684SOL    HW148340   5.388   0.403   3.459 -0.7195 -0.1514 -0.3922
15684SOL    HW248341   5.332   0.410   3.600  0.9617  0.3146  0.2826
15685SOL     OW48342   0.222   5.757   0.354 -0.0474 -0.4712 -0.2521
15685SOL    HW148343   0.173   5.699   0.296  0.4876 -0.0132 -1.1957
15685SOL    HW248344   0.309   5.763   0.313  0.2046  0.2056  0.3662
15686SOL     OW48345   6.342   0.484   2.305  0.0179 -0.0801  0.0284
15686SOL    HW148346   6.263   0.449   2.263  0.1068 -0.1629 -0.0689
15686SOL    HW248347   6.413   0.459   2.247  0.1358 -0.1448  0.2009
15687SOL     OW48348   6.366   5.876   6.731  0.1464 -0.0643  0.0215
15687SOL    HW148349   6.291   5.927   6.762  0.5605  0.8803 -0.4525
15687SOL    HW248350   6.362   5.794   6.779 -0.6813  0.3341  0.6551
15688SOL     OW48351   8.207   1.275   7.467 -0.1047  0.0144  0.0490
15688SOL    HW148352   8.172   1.341   7.527 -0.6614 -0.5024  0.2932
15688SOL    HW248353   8.171   1.192   7.498  0.1861 -0.3451 -0.5613
15689SOL     OW48354   5.719   6.690   1.252 -0.0987  0.7150 -0.0904
15689SOL    HW148355   5.687   6.687   1.342 -0.7795  0.6587 -0.3300
15689SOL    HW248356   5.773   6.769   1.248  0.3858  0.4240  0.5080
15690SOL     OW48357   6.601   8.320   3.718  0.2568 -0.0357 -0.1170
15690SOL    HW148358   6.688   8.358   3.724  0.8540 -1.4196  0.4021
15690SOL    HW248359   6.587   8.305   3.624  1.1200 -0.9813 -0.1085
15691SOL     OW48360   0.163   2.101   7.995  0.0209  0.2954 -0.8056
15691SOL    HW148361   0.133   2.192   7.993  0.3198  0.4357  0.4834
15691SOL    HW248362   0.132   2.064   7.912  0.7185  1.8303 -1.7938
15692SOL     OW48363   0.095   7.681   2.943  0.3633 -0.0325 -0.3910
15692SOL    HW148364   0.009   7.660   2.907 -0.2052  0.0953  0.8612
15692SOL    HW248365   0.077   7.741   3.016  1.4901 -0.2105  0.0478
15693SOL     OW48366   4.212   0.350   0.946 -0.4692  0.3150  0.0010
15693SOL    HW148367   4.256   0.415   0.891 -0.6006 -1.2267 -2.0271
15693SOL    HW248368   4.283   0.305   0.992 -0.2801  0.9027  0.2939
15694SOL     OW48369   1.949   6.967   1.775 -0.7151 -0.3877  0.4687
15694SOL    HW148370   1.990   7.039   1.823 -1.8439  1.4926 -1.2209
15694SOL    HW248371   2.009   6.948   1.703 -1.2244  0.0977 -0.0959
15695SOL     OW48372   8.336   3.134   2.100  0.1281  0.1844  0.1044
15695SOL    HW148373   8.423   3.100   2.080  0.1360 -0.2087  0.7742
15695SOL    HW248374   8.331   3.133   2.196 -0.2097  1.2311  0.1124
15696SOL     OW48375   3.571   7.164   4.837  0.5223  1.2049  0.2197
15696SOL    HW148376   3.633   7.103   4.799 -0.4737 -0.0615  0.5768
15696SOL    HW248377   3.615   7.199   4.915  0.3265 -0.6708  1.2170
15697SOL     OW48378   2.248   3.506   3.257  0.3386 -0.7753 -0.9615
15697SOL    HW148379   2.241   3.434   3.193  1.0234 -0.4833 -1.3705
15697SOL    HW248380   2.331   3.490   3.302 -0.5234 -1.4476  0.4576
15698SOL     OW48381   0.427   4.817   4.877 -0.2218 -0.4456 -0.6523
15698SOL    HW148382   0.356   4.878   4.898 -0.0949  0.0052 -1.5007
15698SOL    HW248383   0.491   4.831   4.947 -1.1891 -1.2627  0.4373
15699SOL     OW48384   7.064   3.011   7.780 -0.6965 -0.1379 -0.2166
15699SOL    HW148385   7.035   3.094   7.817 -1.3467 -0.1414 -0.7057
15699SOL    HW248386   7.159   3.012   7.791 -0.4187  1.6464 -2.1078
15700SOL     OW48387   3.347   7.994   8.500 -0.3269 -0.3636  0.0745
15700SOL    HW148388   3.283   8.027   8.564  0.2050 -1.2004  1.0835
15700SOL    HW248389   3.407   8.067   8.486 -0.1002 -0.3564  1.0140
15701SOL     OW48390   7.444   7.940   8.249 -0.1122 -0.5242  0.6974
15701SOL    HW148391   7.488   7.902   8.325  1.6850 -0.2593 -0.1619
15701SOL    HW248392   7.473   8.032   8.248  0.4306 -0.6917 -0.6630
15702SOL     OW48393   5.226   2.073   3.928 -0.0469 -0.1038 -0.2474
15702SOL    HW148394   5.205   2.143   3.990  0.3875 -0.6175  0.4990
15702SOL    HW248395   5.307   2.103   3.885  0.9474 -0.7753  1.1021
15703SOL     OW48396   6.306   2.927   5.249 -0.0833 -0.3039 -0.3886
15703SOL    HW148397   6.335   3.010   5.286  1.8001 -0.5978 -1.1337
15703SOL    HW248398   6.384   2.888   5.210 -1.1798 -1.8467 -1.1834
15704SOL     OW48399   1.259   1.328   8.454 -0.0706 -0.3431  0.3292
15704SOL    HW148400   1.206   1.305   8.530 -0.5275  1.4337  0.5955
15704SOL    HW248401   1.197   1.331   8.381  0.4137 -2.3281 -0.2187
15705SOL     OW48402   4.089   1.732   5.849 -0.1218 -0.5767  0.0728
15705SOL    HW148403   4.023   1.771   5.906  0.4332 -0.7586  0.8633
15705SOL    HW248404   4.051   1.648   5.823  0.1935 -1.1537  1.3617
15706SOL     OW48405   1.045   3.200   2.427  0.2721  0.2156  0.0527
15706SOL    HW148406   1.082   3.132   2.483  1.2296  0.1898 -0.6104
15706SOL    HW248407   1.065   3.173   2.338 -3.2804 -0.9731 -0.5398
15707SOL     OW48408   8.079   7.485   3.170 -0.3607  0.1215 -0.4122
15707SOL    HW148409   8.146   7.428   3.209  0.2211  0.7618 -0.4611
15707SOL    HW248410   8.014   7.425   3.135 -0.2657 -0.4981  0.4360
15708SOL     OW48411   4.396   0.687   5.737  0.0041  0.4463  0.2609
15708SOL    HW148412   4.311   0.706   5.776  0.0346 -0.5277  0.8281
15708SOL    HW248413   4.458   0.694   5.809 -0.0847 -2.5026  0.7141
15709SOL     OW48414   7.253   1.640   5.126  0.1191  0.0370 -0.2945
15709SOL    HW148415   7.235   1.614   5.217  0.6739 -0.0970 -0.2238
15709SOL    HW248416   7.177   1.693   5.102  0.0210  0.1686  0.2817
15710SOL     OW48417   7.199   6.430   1.780 -0.6554  0.3778  0.1615
15710SOL    HW148418   7.109   6.402   1.764 -0.9495  2.2256 -1.8443
15710SOL    HW248419   7.193   6.524   1.799  0.7949  0.4143  0.6130
15711SOL     OW48420   4.273   2.709   4.676  0.6009  0.0472  0.2354
15711SOL    HW148421   4.258   2.793   4.719  0.6849  0.2961 -0.2120
15711SOL    HW248422   4.195   2.657   4.696 -1.6481  1.7515 -3.0972
15712SOL     OW48423   3.946   2.515   0.556  0.5002 -0.2051  0.1119
15712SOL    HW148424   4.001   2.452   0.509 -0.4639 -0.8284 -0.1985
15712SOL    HW248425   3.969   2.599   0.517 -0.9457 -0.7977 -2.2273
15713SOL     OW48426   2.803   2.040   5.004 -0.3277  0.5616  0.3739
15713SOL    HW148427   2.885   2.084   5.024 -0.2960  1.4644 -1.4440
15713SOL    HW248428   2.736   2.108   5.015 -0.7635 -0.0034  1.2691
15714SOL     OW48429   7.081   7.039   7.444 -0.1018  0.2254  0.4011
15714SOL    HW148430   7.051   7.042   7.353  0.2983  1.1130  0.2929
15714SOL    HW248431   7.030   6.967   7.483 -0.4262 -0.0332 -0.4609
15715SOL     OW48432   6.914   5.727   4.768 -0.2754  0.1858 -0.1753
15715SOL    HW148433   6.888   5.786   4.697  0.8764 -0.5363 -1.2530
15715SOL    HW248434   6.942   5.785   4.838 -0.4561  0.9234 -0.6962
15716SOL     OW48435   1.513   4.044   7.459  0.1242 -0.2346 -0.2914
15716SOL    HW148436   1.463   4.079   7.385  0.3781  0.0422 -0.3308
15716SOL    HW248437   1.446   4.023   7.524  0.0470  1.7439  0.3445
15717SOL     OW48438   6.568   3.481   4.657  0.1653 -0.0230 -0.9903
15717SOL    HW148439   6.546   3.428   4.733  1.7237 -0.3241 -0.7131
15717SOL    HW248440   6.529   3.567   4.675 -0.2909 -0.3668 -0.3086
15718SOL     OW48441   7.029   8.484   4.177 -0.5242  0.2662  0.4326
15718SOL    HW148442   6.956   8.503   4.118  0.0976  0.0801 -0.4151
15718SOL    HW248443   7.059   8.397   4.150  1.1169  1.0683 -0.4040
15719SOL     OW48444   6.597   5.583   0.742 -0.4112 -0.0314 -0.6233
15719SOL    HW148445   6.544   5.503   0.749 -0.5204  0.1810  1.4457
15719SOL    HW248446   6.564   5.626   0.663 -2.4209 -0.5567 -0.1344
15720SOL     OW48447   8.492   0.800   1.570 -0.4184 -0.3373 -0.4366
15720SOL    HW148448   8.413   0.855   1.574 -0.6657 -0.5611 -1.8757
15720SOL    HW248449   8.558   0.850   1.618 -0.5968  1.3295 -1.8236
15721SOL     OW48450   4.263   7.062   1.204 -0.3211  0.0947  0.5821
15721SOL    HW148451   4.205   7.004   1.156  0.8959 -1.5292  0.9718
15721SOL    HW248452   4.312   7.109   1.136 -1.3822  0.7795  0.2657
15722SOL     OW48453   2.002   0.594   1.300 -0.2385  0.1281  0.1124
15722SOL    HW148454   1.945   0.520   1.277  1.7493 -1.4860  0.0697
15722SOL    HW248455   2.029   0.576   1.390  0.6634  0.5219 -0.0738
15723SOL     OW48456   2.550   4.215   4.938 -0.1120  0.9264  0.4344
15723SOL    HW148457   2.558   4.126   4.972 -0.7810  0.9463  0.6613
15723SOL    HW248458   2.565   4.270   5.015  0.2159  1.0104  0.3113
15724SOL     OW48459   5.023   6.060   3.415 -0.3003  0.0061  0.3786
15724SOL    HW148460   5.037   6.093   3.326  0.3413  0.4117  0.6182
15724SOL    HW248461   5.003   5.967   3.404  0.7055 -0.1580 -0.1384
15725SOL     OW48462   6.852   2.501   6.949 -0.9514  0.2607 -0.7185
15725SOL    HW148463   6.899   2.551   7.016  0.9052 -2.6326  0.3660
15725SOL    HW248464   6.902   2.516   6.869  1.5360 -2.0292  0.2355
15726SOL     OW48465   3.358   2.616   3.806 -0.4419  0.2478  0.6412
15726SOL    HW148466   3.374   2.606   3.900 -2.1213 -0.2990  0.8968
15726SOL    HW248467   3.267   2.645   3.800 -0.7309 -0.8515 -0.8452
15727SOL     OW48468   1.375   1.232   3.069 -0.2348  0.1569  0.0275
15727SOL    HW148469   1.286   1.265   3.085 -0.4099  0.1153 -0.8290
15727SOL    HW248470   1.401   1.193   3.152 -1.1128 -0.0509  0.2140
15728SOL     OW48471   5.037   2.638   2.126  0.0991 -0.6473 -0.5365
15728SOL    HW148472   5.129   2.655   2.106 -0.2542 -0.1927 -1.8210
15728SOL    HW248473   4.988   2.683   2.058 -1.0854 -0.9605  0.0783
15729SOL     OW48474   0.017   1.197   0.660 -0.5717 -0.3933  0.4669
15729SOL    HW148475  -0.063   1.231   0.700 -0.3910 -0.2097  0.6752
15729SOL    HW248476   0.083   1.200   0.730 -0.2929 -0.2104  0.2007
15730SOL     OW48477   2.755   5.843   0.375  0.4013  0.2684 -0.0714
15730SOL    HW148478   2.709   5.764   0.406  1.2891 -1.4284 -2.7073
15730SOL    HW248479   2.685   5.908   0.364 -0.4267 -0.2528  1.7079
15731SOL     OW48480   3.321   8.261   3.691  0.2871 -0.2405 -0.4049
15731SOL    HW148481   3.408   8.229   3.665  0.5723 -0.5251  0.8514
15731SOL    HW248482   3.261   8.220   3.628  1.2937  2.7455 -3.5981
15732SOL     OW48483   5.174   5.252   5.687 -0.5064 -0.1250 -0.1780
15732SOL    HW148484   5.171   5.157   5.694 -0.5780  0.0094  2.4107
15732SOL    HW248485   5.083   5.280   5.681 -0.4806 -0.1895 -1.0633
15733SOL     OW48486   7.532   6.541   7.959 -0.2207 -0.2050  0.3265
15733SOL    HW148487   7.454   6.595   7.945 -0.8745 -0.8117  1.5462
15733SOL    HW248488   7.522   6.506   8.047  0.7469 -1.4267 -0.0220
15734SOL     OW48489   2.137   4.187   0.479 -0.0781 -0.0858 -0.4703
15734SOL    HW148490   2.130   4.166   0.572 -0.9719 -0.6172 -0.6531
15734SOL    HW248491   2.056   4.234   0.459  0.4067  0.6058 -0.8351
15735SOL     OW48492   7.779   1.877   4.698 -0.4572 -0.5241  0.7170
15735SOL    HW148493   7.754   1.801   4.750 -1.3658 -0.5972  0.1985
15735SOL    HW248494   7.749   1.952   4.750 -1.7342 -0.6080  0.1462
15736SOL     OW48495   7.337   6.520   2.386 -0.3720 -0.0748  0.1631
15736SOL    HW148496   7.291   6.578   2.446 -0.9429  0.0328 -0.3660
15736SOL    HW248497   7.363   6.576   2.313  1.1506 -0.0072  0.7279
15737SOL     OW48498   2.447   5.399   7.629 -0.7400 -0.1029  0.2369
15737SOL    HW148499   2.420   5.375   7.718 -1.1707 -0.6838 -0.0442
15737SOL    HW248500   2.516   5.464   7.642 -0.9241 -0.0469  0.9942
15738SOL     OW48501   1.457   8.139   6.329 -0.5918  0.2109  0.1435
15738SOL    HW148502   1.449   8.227   6.366 -2.1683  0.1548  0.0104
15738SOL    HW248503   1.549   8.131   6.305 -0.1030  1.2576  1.5492
15739SOL     OW48504   1.731   2.803   3.628  0.0733 -0.1742 -0.6506
15739SOL    HW148505   1.770   2.760   3.552  2.7357 -0.0216  0.5408
15739SOL    HW248506   1.723   2.895   3.601  0.9662 -0.1268 -0.7806
15740SOL     OW48507   2.298   0.348   4.281  0.0902  0.2857 -0.0534
15740SOL    HW148508   2.217   0.346   4.331  0.6497 -0.1775  0.8656
15740SOL    HW248509   2.341   0.430   4.308  0.3776  0.0506  0.2215
15741SOL     OW48510   5.489   2.823   8.115  0.2139 -0.3687  0.3868
15741SOL    HW148511   5.525   2.909   8.138 -0.6659  0.4843 -1.1979
15741SOL    HW248512   5.397   2.841   8.096  0.2266 -1.5138 -0.8427
15742SOL     OW48513   3.784   6.059   1.107 -0.0299 -0.6951  0.3730
15742SOL    HW148514   3.844   6.024   1.173  0.4832  0.8731  0.7942
15742SOL    HW248515   3.769   6.150   1.135 -0.8391 -0.3919 -0.9623
15743SOL     OW48516   1.122   8.632   0.961  0.4514  0.1863 -0.1342
15743SOL    HW148517   1.092   8.571   0.894 -1.2682  0.0250  0.7210
15743SOL    HW248518   1.165   8.702   0.913  1.9113 -1.3451 -1.1776
15744SOL     OW48519   2.431   3.348   8.299 -0.4207 -0.2494  0.4817
15744SOL    HW148520   2.422   3.443   8.305 -2.1133 -0.4021  1.0289
15744SOL    HW248521   2.350   3.315   8.339 -0.6712 -1.8871 -1.2933
15745SOL     OW48522   4.530   0.009   0.715  0.1667 -0.5224  0.0255
15745SOL    HW148523   4.516  -0.030   0.629  0.9640  1.9511 -1.3208
15745SOL    HW248524   4.476  -0.043   0.775 -1.6702 -1.3122 -2.2070
15746SOL     OW48525   1.328   2.915   0.871 -0.1822  0.2844  1.4469
15746SOL    HW148526   1.326   2.988   0.810  1.7748  0.0468  1.0253
15746SOL    HW248527   1.299   2.839   0.820 -2.2131  0.6972  1.8852
15747SOL     OW48528   0.496   1.128   0.373  0.6994 -0.1062  0.8104
15747SOL    HW148529   0.437   1.170   0.435 -1.0409 -1.0448 -0.1303
15747SOL    HW248530   0.439   1.073   0.319  2.6900 -3.0040  1.4111
15748SOL     OW48531   7.408   2.065   5.502 -0.4636  0.2775  0.3858
15748SOL    HW148532   7.315   2.065   5.522 -0.4603  1.5136  0.4942
15748SOL    HW248533   7.431   1.972   5.494 -1.8829 -0.0251 -0.5468
15749SOL     OW48534   1.106   1.109   5.630  0.1393  0.4288  0.1407
15749SOL    HW148535   1.105   1.087   5.536 -1.0186 -0.9604  0.4462
15749SOL    HW248536   1.101   1.205   5.632  0.2824  0.4838 -1.2205
15750SOL     OW48537   7.168   5.220   3.553  0.3891 -0.5953 -0.2004
15750SOL    HW148538   7.121   5.237   3.635  0.8817 -0.2493  0.0158
15750SOL    HW248539   7.194   5.129   3.559  1.1148 -0.3568  0.3925
15751SOL     OW48540   5.817   3.534   1.745 -0.2595  0.0224 -0.2515
15751SOL    HW148541   5.909   3.528   1.720 -0.4593  1.3580 -1.4091
15751SOL    HW248542   5.817   3.587   1.824 -0.0222 -0.1019 -0.1677
15752SOL     OW48543   3.559   2.169   6.780 -0.3621  0.9111 -0.4497
15752SOL    HW148544   3.563   2.084   6.824  1.5338  0.9920 -0.4122
15752SOL    HW248545   3.650   2.199   6.777 -0.8549  2.3868 -1.5613
15753SOL     OW48546   4.515   6.662   2.491 -0.1634  0.0729  0.2734
15753SOL    HW148547   4.606   6.631   2.494 -0.1735  0.1040  1.2298
15753SOL    HW248548   4.519   6.751   2.526 -0.9601 -0.9815  3.3822
15754SOL     OW48549   4.547   6.834   0.080  0.2357 -0.2855  0.3540
15754SOL    HW148550   4.618   6.832   0.145  0.1876  1.6896  0.5393
15754SOL    HW248551   4.573   6.770   0.014  2.1075  0.2200  0.5421
15755SOL     OW48552   0.538   1.740   3.545  0.8000 -0.0977  0.1058
15755SOL    HW148553   0.585   1.799   3.604  0.1177  0.0311  0.5293
15755SOL    HW248554   0.562   1.770   3.457  3.0379 -1.2526  0.2587
15756SOL     OW48555   1.607   7.013   5.684 -0.2881 -0.3327  0.6251
15756SOL    HW148556   1.647   6.975   5.762  0.4711  2.8174  1.9292
15756SOL    HW248557   1.669   7.080   5.655 -1.0085 -0.7200 -2.1595
15757SOL     OW48558   6.646   7.517   7.773 -0.3336 -0.5399 -0.4780
15757SOL    HW148559   6.615   7.548   7.858 -1.8173 -0.4549 -1.0045
15757SOL    HW248560   6.738   7.540   7.770 -0.3860 -0.0950  0.9014
15758SOL     OW48561   5.520   6.744   4.628  0.0958  0.1668 -0.5828
15758SOL    HW148562   5.564   6.826   4.608  0.2531  0.2893  0.2423
15758SOL    HW248563   5.555   6.718   4.713 -0.3338 -0.4940 -0.6003
15759SOL     OW48564   2.451   1.126   6.191 -0.2632 -0.2950 -0.4543
15759SOL    HW148565   2.393   1.070   6.139 -0.0380 -0.3539 -0.6426
15759SOL    HW248566   2.526   1.143   6.134  0.5741 -1.3769  0.2884
15760SOL     OW48567   1.132   1.958   1.136  0.3376  0.1556 -0.2652
15760SOL    HW148568   1.158   2.044   1.169  2.9923 -0.9504  0.8445
15760SOL    HW248569   1.169   1.896   1.199  0.0358 -1.8595 -1.9626
15761SOL     OW48570   2.625   1.276   7.110  0.2966  0.0281  0.5950
15761SOL    HW148571   2.542   1.304   7.070  1.0585  1.4627 -0.0668
15761SOL    HW248572   2.656   1.354   7.156  0.8860 -0.7402  1.5271
15762SOL     OW48573   2.660   0.344   5.931 -0.6951  0.0566  0.4835
15762SOL    HW148574   2.585   0.397   5.901 -0.2618  0.2730 -0.2302
15762SOL    HW248575   2.717   0.337   5.854  0.6876  1.0490  1.3682
15763SOL     OW48576   3.806   8.366   5.203 -0.4291  0.7347 -0.3772
15763SOL    HW148577   3.800   8.393   5.111 -2.0747  1.3329 -0.1242
15763SOL    HW248578   3.877   8.419   5.239  0.0797  0.6587 -1.2373
15764SOL     OW48579   4.683   0.589   0.513 -0.1834  0.5383 -0.5336
15764SOL    HW148580   4.726   0.510   0.543 -0.6910  0.1795 -0.7309
15764SOL    HW248581   4.713   0.658   0.572 -0.1190  0.1021 -0.0598
15765SOL     OW48582   2.412   5.384   3.863 -0.2615 -0.0401  0.3745
15765SOL    HW148583   2.441   5.452   3.924  1.8605  0.7661 -1.4198
15765SOL    HW248584   2.491   5.337   3.840 -0.9616 -0.2683 -1.7866
15766SOL     OW48585   2.445   5.539   6.762 -0.4617  0.4016  0.1858
15766SOL    HW148586   2.433   5.464   6.704 -1.4728  1.4155 -0.9800
15766SOL    HW248587   2.390   5.607   6.724 -0.5043  1.3668  1.8960
15767SOL     OW48588   7.243   5.556   8.710 -0.1174  0.2771  0.3269
15767SOL    HW148589   7.296   5.515   8.779  0.3318 -1.8039 -1.1614
15767SOL    HW248590   7.168   5.496   8.699 -1.2931  1.6817  0.4202
15768SOL     OW48591   0.344   5.174   6.425 -0.3147  0.5449 -0.2473
15768SOL    HW148592   0.347   5.093   6.374  0.7936  0.9166 -0.8290
15768SOL    HW248593   0.344   5.243   6.359 -1.3035  1.0263  0.2437
15769SOL     OW48594   4.368   6.593   8.177 -0.0657 -0.0339  0.4739
15769SOL    HW148595   4.406   6.661   8.233  0.4223  1.2706 -1.3185
15769SOL    HW248596   4.306   6.641   8.121  0.8776 -0.8695 -1.3877
15770SOL     OW48597   7.136   8.626   5.240  0.2354  0.3775  0.6948
15770SOL    HW148598   7.172   8.544   5.207  0.6243  1.1749 -1.0104
15770SOL    HW248599   7.139   8.617   5.335 -2.8436 -2.8964  0.6747
15771SOL     OW48600   5.456   1.894   4.018 -0.5934  0.7299  0.8063
15771SOL    HW148601   5.366   1.902   3.987 -0.3418  1.6313  0.2810
15771SOL    HW248602   5.469   1.800   4.030 -1.5807  0.5853  0.8324
15772SOL     OW48603   3.124   1.797   3.190 -0.0005 -0.3151 -0.0442
15772SOL    HW148604   3.084   1.881   3.213 -1.2332 -0.6966 -0.7203
15772SOL    HW248605   3.204   1.794   3.243 -0.5520  0.7328  0.9054
15773SOL     OW48606   4.060   0.662   2.292 -0.1566  0.0479  0.3544
15773SOL    HW148607   4.020   0.709   2.219  0.5867 -1.0988 -0.8385
15773SOL    HW248608   4.001   0.676   2.365 -0.1077  2.5838 -0.0049
15774SOL     OW48609   2.294   0.622   5.622  0.0239  0.0733  0.2407
15774SOL    HW148610   2.226   0.627   5.555  0.3259  0.1027 -0.0623
15774SOL    HW248611   2.312   0.713   5.645  1.3038  0.1552 -1.0328
15775SOL     OW48612   7.681   4.190   7.059 -0.1159  0.1793 -0.4035
15775SOL    HW148613   7.593   4.157   7.040  0.3011 -1.7341  0.7488
15775SOL    HW248614   7.705   4.240   6.980 -1.2142 -1.4644 -1.8616
15776SOL     OW48615   2.814   0.712   8.354  0.1404 -0.2231 -0.1283
15776SOL    HW148616   2.890   0.655   8.366  1.5762  1.2770 -1.6380
15776SOL    HW248617   2.793   0.743   8.442  0.4829 -1.5924  0.4703
15777SOL     OW48618   3.937   8.660   1.878  0.2540 -0.1737  0.3971
15777SOL    HW148619   3.927   8.576   1.833  1.0000 -0.4993  0.8097
15777SOL    HW248620   3.945   8.636   1.971  1.2844  0.2683  0.4390
15778SOL     OW48621   7.268   5.616   2.382 -0.1449  0.5168  0.1174
15778SOL    HW148622   7.305   5.670   2.312  2.2432  0.9373  1.5590
15778SOL    HW248623   7.316   5.533   2.376 -4.1447 -1.9406 -2.4401
15779SOL     OW48624   4.747   1.514   2.350 -0.1382 -0.0646 -0.0634
15779SOL    HW148625   4.682   1.476   2.408  0.2162 -2.4199 -1.0920
15779SOL    HW248626   4.825   1.525   2.404 -0.3038 -0.6845  0.3056
15780SOL     OW48627   3.087   5.750   2.940  0.2964  0.5219  0.0738
15780SOL    HW148628   3.031   5.806   2.886  1.1202  0.6057 -0.7200
15780SOL    HW248629   3.176   5.774   2.915  0.7022 -1.7887 -1.0298
15781SOL     OW48630   0.514   0.004   5.522 -0.2064 -0.3400  0.3305
15781SOL    HW148631   0.588   0.052   5.485 -1.0521  1.2274  0.5725
15781SOL    HW248632   0.458  -0.015   5.446 -2.0414  3.0532  0.6025
15782SOL     OW48633   8.242   5.908   0.560 -0.1827  0.3896 -0.4234
15782SOL    HW148634   8.147   5.897   0.568 -0.0736 -0.5340 -0.2289
15782SOL    HW248635   8.267   5.850   0.488  0.0082  2.0163 -1.7165
15783SOL     OW48636   2.081   7.426   4.150 -0.2509 -0.6579 -0.3556
15783SOL    HW148637   2.092   7.505   4.097  0.6446  0.5101  1.4809
15783SOL    HW248638   2.026   7.453   4.223  0.2466 -1.6677  0.4180
15784SOL     OW48639   2.724   7.725   3.480  0.6798  0.3702 -0.6087
15784SOL    HW148640   2.636   7.689   3.488  0.5475  0.7775 -0.2064
15784SOL    HW248641   2.775   7.655   3.438  0.3408 -0.1478 -0.1760
15785SOL     OW48642   1.747   8.354   4.337 -0.2536 -0.7004  0.0227
15785SOL    HW148643   1.765   8.267   4.302  0.1776 -0.5129 -0.2352
15785SOL    HW248644   1.777   8.349   4.428  0.6121 -0.5656 -0.2396
15786SOL     OW48645   1.051   6.607   5.695 -0.0300 -0.5973  0.3407
15786SOL    HW148646   1.025   6.644   5.779 -0.2154  0.3529 -0.1147
15786SOL    HW248647   1.133   6.562   5.712  0.0699 -0.1782  0.9747
15787SOL     OW48648   2.666   2.947   1.175  0.1382 -0.7668 -0.0465
15787SOL    HW148649   2.750   2.911   1.205  1.1186  0.3787 -1.3120
15787SOL    HW248650   2.653   3.026   1.228 -0.0933 -0.8829  0.0720
15788SOL     OW48651   8.010   4.560   6.849 -0.1421 -1.0017 -0.7274
15788SOL    HW148652   7.968   4.584   6.932  1.5285  0.1436 -0.1561
15788SOL    HW248653   7.958   4.605   6.782  0.8671  1.5478  0.0750
15789SOL     OW48654   3.315   7.995   7.633 -0.3632 -0.3127  0.4162
15789SOL    HW148655   3.316   7.900   7.615 -0.4768 -0.2279 -0.0535
15789SOL    HW248656   3.401   8.026   7.602  0.0338 -0.4054  1.3976
15790SOL     OW48657   0.118   4.912   2.206 -0.0365 -0.5078  0.1078
15790SOL    HW148658   0.155   4.896   2.119 -2.0582 -1.2726 -0.7009
15790SOL    HW248659   0.138   5.004   2.225  0.2375 -0.2583 -1.2925
15791SOL     OW48660   6.313   1.566   1.804  0.0802  0.1051  0.0409
15791SOL    HW148661   6.255   1.530   1.737 -0.7788 -0.8190  1.2373
15791SOL    HW248662   6.388   1.506   1.805 -0.5628 -0.7068  0.8596
15792SOL     OW48663   6.719   2.269   8.056 -0.1805 -0.1227 -0.8418
15792SOL    HW148664   6.694   2.314   8.137  2.7455 -0.0297  0.1048
15792SOL    HW248665   6.669   2.313   7.987 -1.5238  0.8686  0.7104
15793SOL     OW48666   7.129   1.625   5.701  0.0370  0.2002 -0.1222
15793SOL    HW148667   7.119   1.653   5.792 -0.5741  1.1510 -0.4686
15793SOL    HW248668   7.220   1.597   5.695  0.3539  1.0303  0.5456
15794SOL     OW48669   0.134   3.021   4.888 -0.0299  0.0263 -0.3681
15794SOL    HW148670   0.079   3.059   4.957  1.3507  0.4907  0.5250
15794SOL    HW248671   0.146   3.092   4.825 -0.4465 -0.0741 -0.5611
15795SOL     OW48672   5.069   7.025   1.719 -0.4221 -0.5003  0.1325
15795SOL    HW148673   5.015   7.037   1.641 -0.7926  1.1097  0.6031
15795SOL    HW248674   5.126   7.102   1.721 -0.4280 -0.5088  1.4527
15796SOL     OW48675   4.147   0.802   4.920  0.4507  0.0799  0.5609
15796SOL    HW148676   4.085   0.866   4.956  1.2269  0.4449  1.2662
15796SOL    HW248677   4.221   0.855   4.890 -0.4785 -0.1019 -2.3611
15797SOL     OW48678   0.042   1.450   3.565  0.0975 -0.3072  0.6803
15797SOL    HW148679   0.102   1.497   3.623  1.9944 -0.9940 -0.5981
15797SOL    HW248680   0.012   1.375   3.617  0.3930  0.0207  1.3357
15798SOL     OW48681   7.416   5.539   8.048 -0.1836 -0.2550  0.0086
15798SOL    HW148682   7.359   5.610   8.079 -0.8220 -0.8896  0.3078
15798SOL    HW248683   7.473   5.520   8.123 -0.1687 -0.2118  0.0091
15799SOL     OW48684   3.606   4.327   3.751  0.6513 -0.3734 -0.0379
15799SOL    HW148685   3.570   4.370   3.829 -2.0553 -1.9887 -0.2687
15799SOL    HW248686   3.626   4.399   3.691 -0.2818  0.7391  0.9445
15800SOL     OW48687   3.879   6.890   5.629 -0.5625  0.2071  0.3471
15800SOL    HW148688   3.858   6.867   5.539 -1.1564  0.5249  0.4052
15800SOL    HW248689   3.798   6.877   5.677 -0.4207  0.6847  0.7169
15801SOL     OW48690   0.275   1.881   6.106 -0.2291  0.4726  0.5546
15801SOL    HW148691   0.268   1.919   6.018  0.7463  1.0258  0.7021
15801SOL    HW248692   0.224   1.940   6.162  1.5788  1.8695  0.8496
15802SOL     OW48693   2.839   7.869   4.126  0.1881  0.3253  0.1659
15802SOL    HW148694   2.914   7.840   4.075 -0.2032 -1.7644  0.6757
15802SOL    HW248695   2.862   7.847   4.217 -0.2075  1.5408  0.5730
15803SOL     OW48696   8.028   7.000   6.885 -0.0144  0.6577  0.0883
15803SOL    HW148697   8.095   7.058   6.921 -0.0116  1.4442 -1.1050
15803SOL    HW248698   8.069   6.914   6.884  0.1922  0.7214  1.3528
15804SOL     OW48699   4.077   1.105   4.039 -0.0560  0.0943 -0.6502
15804SOL    HW148700   4.002   1.103   3.979  0.8586  0.2585 -1.8313
15804SOL    HW248701   4.058   1.037   4.103 -0.1728 -1.4353 -2.2440
15805SOL     OW48702   2.486   3.013   6.117  0.0503 -0.0066 -0.2708
15805SOL    HW148703   2.434   2.940   6.083  1.3918 -0.7122 -0.8944
15805SOL    HW248704   2.425   3.086   6.121 -0.7203 -0.4966 -2.0820
15806SOL     OW48705   4.751   3.367   0.950  0.4704 -0.4527  0.1277
15806SOL    HW148706   4.670   3.393   0.906  1.1157  1.1060 -0.1990
15806SOL    HW248707   4.739   3.394   1.041  1.5730  2.2445 -0.4270
15807SOL     OW48708   7.521   2.993   1.834  0.3710 -0.3033 -0.1437
15807SOL    HW148709   7.444   2.937   1.829 -0.2815  0.5310  0.2325
15807SOL    HW248710   7.558   2.977   1.921  0.3673 -0.3813 -0.1568
15808SOL     OW48711   1.544   1.787   8.518  0.5344 -0.2584  0.1307
15808SOL    HW148712   1.561   1.802   8.425 -0.7382  0.7172  0.0214
15808SOL    HW248713   1.453   1.814   8.530  0.3431 -1.3993  1.4496
15809SOL     OW48714   0.173   5.510   8.159  0.1621 -0.3265  0.5192
15809SOL    HW148715   0.225   5.466   8.226  0.8885  1.3047  1.0754
15809SOL    HW248716   0.234   5.572   8.119 -0.4143 -0.8707 -1.2816
15810SOL     OW48717   3.120   7.195   7.903  0.4325  0.3505 -0.0683
15810SOL    HW148718   3.211   7.216   7.883  0.4884  0.0771 -0.1037
15810SOL    HW248719   3.120   7.176   7.997  0.7294 -1.2638 -0.3631
15811SOL     OW48720   5.741   3.532   7.460 -0.3357  0.4543  0.2378
15811SOL    HW148721   5.767   3.580   7.381 -0.9348  1.4988  0.6552
15811SOL    HW248722   5.799   3.565   7.529  1.7729 -2.0878 -0.1452
15812SOL     OW48723   8.522   3.220   7.185  0.2545 -0.2007 -0.1275
15812SOL    HW148724   8.450   3.227   7.121 -0.0294  0.2273  0.2336
15812SOL    HW248725   8.534   3.309   7.217  2.7417  0.2841 -2.1030
15813SOL     OW48726   6.444   4.839   4.527  0.0347  0.6786 -0.2025
15813SOL    HW148727   6.363   4.889   4.530  1.1050  2.4494  0.7605
15813SOL    HW248728   6.416   4.749   4.513 -2.0050  1.4255 -1.4167
15814SOL     OW48729   2.399   0.116   7.268 -0.1539  0.0624  0.4684
15814SOL    HW148730   2.484   0.104   7.309  0.4023  1.7740 -0.1179
15814SOL    HW248731   2.408   0.075   7.182 -0.0951 -0.1949  0.5963
15815SOL     OW48732   5.873   5.531   0.920  0.2271  0.4926  0.1927
15815SOL    HW148733   5.857   5.604   0.981 -0.7808  1.0644 -0.7150
15815SOL    HW248734   5.968   5.524   0.915  0.3354  1.4032  0.7027
15816SOL     OW48735   2.312   6.312   3.098  0.5118  0.1235  0.1585
15816SOL    HW148736   2.395   6.330   3.143  0.2918  2.6242 -0.2560
15816SOL    HW248737   2.271   6.398   3.089 -1.9846 -0.9984  0.0079
15817SOL     OW48738   1.707   2.388   6.588 -0.1362  0.3964 -0.1992
15817SOL    HW148739   1.668   2.463   6.542 -1.6351  0.2159  0.7073
15817SOL    HW248740   1.716   2.418   6.678  1.2121  0.1798 -0.2499
15818SOL     OW48741   2.396   1.749   4.982 -0.3179 -0.3436  0.2424
15818SOL    HW148742   2.313   1.739   5.029 -0.6078  0.0015 -0.1798
15818SOL    HW248743   2.407   1.843   4.973 -1.1487 -0.3801 -1.8397
15819SOL     OW48744   7.799   2.433   3.148 -0.2075 -0.1678 -0.1144
15819SOL    HW148745   7.828   2.523   3.165 -0.0044  0.1788 -1.9719
15819SOL    HW248746   7.712   2.443   3.110 -0.1180 -0.7281 -0.4856
15820SOL     OW48747   7.882   4.670   5.519  0.2768 -0.0435 -0.0996
15820SOL    HW148748   7.794   4.704   5.534 -0.0180 -0.2772 -1.2117
15820SOL    HW248749   7.935   4.747   5.498  0.7124  0.3004  2.0222
15821SOL     OW48750   2.905   5.178   4.520  0.0527 -0.0919 -0.1244
15821SOL    HW148751   2.966   5.248   4.543 -0.9792  1.1180 -0.8879
15821SOL    HW248752   2.932   5.150   4.432  1.3886 -1.7462  0.7680
15822SOL     OW48753   8.073   8.178   7.676 -0.8949  0.6080  0.3510
15822SOL    HW148754   8.072   8.097   7.626  0.1628 -1.2081  3.0699
15822SOL    HW248755   7.997   8.172   7.734  1.0126 -0.1475  2.9345
15823SOL     OW48756   8.702   2.578   6.691  0.1419  0.2740 -0.0110
15823SOL    HW148757   8.692   2.486   6.716 -0.7653 -0.2608 -2.1488
15823SOL    HW248758   8.783   2.580   6.639 -0.6803  0.3276 -1.3364
15824SOL     OW48759   0.036   5.476   6.413  0.2933 -0.3633 -0.1469
15824SOL    HW148760   0.027   5.532   6.335  1.0655 -1.9836 -1.4641
15824SOL    HW248761   0.040   5.538   6.486 -1.0303  1.2090 -1.3037
15825SOL     OW48762   6.316   4.630   5.809 -0.0101  0.5221  0.5378
15825SOL    HW148763   6.366   4.681   5.873 -1.3735  1.4397  0.9091
15825SOL    HW248764   6.288   4.695   5.744 -2.2140  0.4040  1.2935
15826SOL     OW48765   8.570   1.391   1.947 -0.0778 -0.4663  0.9717
15826SOL    HW148766   8.523   1.468   1.916  1.6177 -0.3115 -1.5105
15826SOL    HW248767   8.520   1.362   2.023 -2.0697  1.7329  0.6357
15827SOL     OW48768   6.727   7.568   5.262  0.6708  0.3047  0.2996
15827SOL    HW148769   6.823   7.559   5.263  0.5844 -1.0783 -1.2574
15827SOL    HW248770   6.695   7.488   5.220 -1.2420  0.3581  1.5234
15828SOL     OW48771   7.479   4.945   1.506  0.5704 -0.0786 -0.1639
15828SOL    HW148772   7.532   5.004   1.452  1.2645  0.8454  1.4632
15828SOL    HW248773   7.437   5.002   1.571 -0.8630 -1.0603 -0.1911
15829SOL     OW48774   1.146   6.555   4.181 -0.2070  0.6522  0.0736
15829SOL    HW148775   1.207   6.557   4.255 -0.5481  0.0724  0.3799
15829SOL    HW248776   1.062   6.578   4.219 -0.3808  0.3738 -0.1419
15830SOL     OW48777   3.085   7.318   6.321 -0.3695  0.1632 -0.1158
15830SOL    HW148778   3.039   7.333   6.404 -1.2174 -0.2507 -0.5023
15830SOL    HW248779   3.015   7.309   6.256  0.1831 -1.9162 -0.4893
15831SOL     OW48780   2.577   7.930   1.769 -0.0291 -0.2058  0.2588
15831SOL    HW148781   2.510   7.984   1.727  0.6666  0.9050  0.5209
15831SOL    HW248782   2.529   7.878   1.833 -0.8281 -0.4944 -0.5444
15832SOL     OW48783   2.903   5.177   7.930  0.0577  0.1103 -0.7716
15832SOL    HW148784   2.853   5.217   8.000 -0.8574 -0.6240 -0.9763
15832SOL    HW248785   2.994   5.190   7.954 -0.2411  0.6508  0.0936
15833SOL     OW48786   0.339   2.846   2.330  0.3537 -0.1175 -0.4178
15833SOL    HW148787   0.317   2.782   2.398  1.0783 -0.3873 -0.4277
15833SOL    HW248788   0.299   2.811   2.250  1.9985 -1.3594 -0.7368
15834SOL     OW48789   4.305   8.487   0.144 -0.4207 -0.2059  0.1349
15834SOL    HW148790   4.229   8.432   0.123  1.0679 -2.2532 -0.2216
15834SOL    HW248791   4.370   8.463   0.078  0.6008  1.3807  0.5311
15835SOL     OW48792   5.114   8.095   0.785  0.1926  0.2529 -0.0338
15835SOL    HW148793   5.118   8.105   0.690 -0.8774 -0.6332 -0.1988
15835SOL    HW248794   5.205   8.090   0.813  0.5486  1.6378 -0.8697
15836SOL     OW48795   5.192   8.233   0.473  0.1463 -0.4180 -0.4779
15836SOL    HW148796   5.135   8.278   0.536  0.7091 -1.0636  0.5173
15836SOL    HW248797   5.136   8.219   0.397 -0.5802  0.2978 -0.0969
15837SOL     OW48798   4.314   7.791   1.626 -0.3161  0.0614  0.1337
15837SOL    HW148799   4.369   7.864   1.597 -0.8326 -0.2860 -1.8548
15837SOL    HW248800   4.353   7.714   1.586  0.0434 -0.7610  1.9745
15838SOL     OW48801   6.008   6.689   7.066 -0.3516 -0.0396 -0.1679
15838SOL    HW148802   5.983   6.724   7.152  0.3866  0.1751 -0.0365
15838SOL    HW248803   6.084   6.634   7.083  1.5852  2.2120 -1.0199
15839SOL     OW48804   5.686   1.309   3.152  0.2756 -0.1364 -0.5023
15839SOL    HW148805   5.738   1.374   3.105  1.3429  0.0710  0.8869
15839SOL    HW248806   5.699   1.331   3.245 -0.1638 -1.7017 -0.0433
15840SOL     OW48807   3.247   0.685   3.028 -0.1505  0.8738 -0.1314
15840SOL    HW148808   3.225   0.592   3.031  0.4010  0.7652  1.2301
15840SOL    HW248809   3.283   0.699   2.941  3.3875 -1.0467  0.8349
15841SOL     OW48810   8.339   4.480   0.290 -0.0236 -0.1388  0.2361
15841SOL    HW148811   8.380   4.478   0.203 -1.0679 -0.1498 -0.2634
15841SOL    HW248812   8.247   4.462   0.274 -0.0668 -1.1438  1.4663
15842SOL     OW48813   6.036   4.668   3.718 -0.1933  0.3402 -0.0711
15842SOL    HW148814   5.943   4.690   3.716  0.0783  1.5122 -0.7151
15842SOL    HW248815   6.075   4.720   3.648  0.9468 -0.1650  0.1573
15843SOL     OW48816   2.949   1.886   6.598  0.5508 -0.0551  0.6129
15843SOL    HW148817   3.010   1.960   6.599  2.4895 -1.5659  1.7830
15843SOL    HW248818   2.969   1.840   6.516 -1.7582  1.4664 -0.9275
15844SOL     OW48819   7.912   2.515   4.108 -0.5041  0.0138  0.3101
15844SOL    HW148820   7.891   2.428   4.142  0.2713 -0.1577  0.3556
15844SOL    HW248821   7.930   2.501   4.015  1.9591 -0.2955  0.7634
15845SOL     OW48822   7.944   1.568   5.216  0.3099 -0.1718 -0.0054
15845SOL    HW148823   7.866   1.545   5.267  0.0931  0.9209  0.1788
15845SOL    HW248824   7.917   1.642   5.162  0.4010 -1.6202 -2.1067
15846SOL     OW48825   3.432   3.010   5.842  0.6709  0.3114 -0.1448
15846SOL    HW148826   3.428   2.931   5.788  0.2706  0.4678 -0.3542
15846SOL    HW248827   3.525   3.022   5.860  0.6100 -1.1875  1.3778
15847SOL     OW48828   8.261   4.017   3.380  0.5558  0.6119  0.1541
15847SOL    HW148829   8.261   3.975   3.466  1.5494  1.3477  0.5263
15847SOL    HW248830   8.350   4.005   3.348 -0.1289 -0.8305 -1.3768
15848SOL     OW48831   5.503   4.827   6.460  0.2807  0.3136 -1.0046
15848SOL    HW148832   5.480   4.884   6.386 -0.8971 -0.4905 -1.2960
15848SOL    HW248833   5.423   4.823   6.512  0.5191 -0.6220 -0.6951
15849SOL     OW48834   7.757   5.715   0.337  0.3608  0.2833  0.4016
15849SOL    HW148835   7.845   5.677   0.341  0.0554 -0.6747 -1.0833
15849SOL    HW248836   7.726   5.694   0.249 -0.7326  2.0525  0.3094
15850SOL     OW48837   3.791   3.206   6.811  0.4082  0.5673  0.1787
15850SOL    HW148838   3.716   3.248   6.770  0.7310 -0.0080 -1.0413
15850SOL    HW248839   3.867   3.255   6.778  0.7258 -0.4193 -0.6144
15851SOL     OW48840   8.244   4.859   2.517 -0.1848 -0.2671  0.4728
15851SOL    HW148841   8.268   4.775   2.479  1.1972 -0.2843  1.3083
15851SOL    HW248842   8.260   4.922   2.447 -1.7108 -0.7155 -0.3261
15852SOL     OW48843   4.149   7.534   1.616  0.2471 -0.5964 -0.1267
15852SOL    HW148844   4.242   7.551   1.599  0.3710  0.9602  1.7368
15852SOL    HW248845   4.149   7.474   1.690 -0.2201 -0.4579 -0.0093
15853SOL     OW48846   0.839   2.208   5.642  0.5988  0.1390 -0.0872
15853SOL    HW148847   0.844   2.271   5.714  1.0219 -0.2656  0.2402
15853SOL    HW248848   0.920   2.158   5.648 -0.2570 -1.2612  0.4249
15854SOL     OW48849   7.831   4.795   1.525  0.3775 -0.1195  1.1059
15854SOL    HW148850   7.755   4.744   1.552  1.3467 -0.7404  2.8083
15854SOL    HW248851   7.831   4.790   1.429 -1.1352 -0.9332  1.1186
15855SOL     OW48852   0.572   4.380   6.290 -0.0845 -0.2349 -0.6545
15855SOL    HW148853   0.523   4.367   6.209 -0.7109 -0.3283 -0.2633
15855SOL    HW248854   0.506   4.376   6.359  0.5918 -1.4233 -0.0343
15856SOL     OW48855   5.836   7.926   2.584  0.3677 -0.1975 -0.3903
15856SOL    HW148856   5.812   7.878   2.505  0.9357 -0.0373 -0.6655
15856SOL    HW248857   5.802   8.014   2.570  0.1851 -0.2549 -0.3133
15857SOL     OW48858   4.322   7.343   5.330 -0.0115 -0.6194 -0.3054
15857SOL    HW148859   4.398   7.360   5.275  1.6149 -0.7127  1.7910
15857SOL    HW248860   4.315   7.247   5.333 -1.3130 -0.6200 -1.8328
15858SOL     OW48861   7.673   0.201   8.041  0.3111  0.4015  0.1192
15858SOL    HW148862   7.636   0.149   7.970 -0.0784  3.1075 -1.8298
15858SOL    HW248863   7.678   0.290   8.005  0.6484  1.8008  3.3150
15859SOL     OW48864   4.032   2.949   6.668  0.7271  1.0261 -0.3590
15859SOL    HW148865   3.965   2.966   6.602 -0.1001  2.0177  0.7004
15859SOL    HW248866   4.002   2.871   6.713  1.5590  0.0407 -1.4590
15860SOL     OW48867   4.000   4.432   7.814 -0.6300 -0.0863 -0.4735
15860SOL    HW148868   3.973   4.366   7.750  0.5176 -0.8138 -0.2420
15860SOL    HW248869   4.093   4.416   7.827 -0.3527  1.5063 -0.2950
15861SOL     OW48870   6.596   5.527   7.875  0.0923  0.0485  0.5994
15861SOL    HW148871   6.581   5.604   7.930 -0.3041  0.7054 -0.4119
15861SOL    HW248872   6.553   5.456   7.923 -0.7903  0.7286  0.8412
15862SOL     OW48873   2.133   0.577   5.409  0.1688  0.4653  0.2998
15862SOL    HW148874   2.044   0.546   5.392 -0.7601  2.7351  0.7141
15862SOL    HW248875   2.132   0.670   5.385  2.1892  0.7587  1.1249
15863SOL     OW48876   4.573   7.658   5.655  0.4094  0.3640  0.5912
15863SOL    HW148877   4.618   7.741   5.639 -0.6146  0.6498 -1.0487
15863SOL    HW248878   4.642   7.593   5.658  1.0520  0.9402 -0.7701
15864SOL     OW48879   0.252   3.091   6.817 -0.1698  0.5600 -0.1933
15864SOL    HW148880   0.226   3.005   6.783 -0.4624 -0.3682  2.1612
15864SOL    HW248881   0.187   3.110   6.884  0.8026  1.8874  0.4114
15865SOL     OW48882   1.213   8.364   7.620  0.5265 -0.5142 -0.7302
15865SOL    HW148883   1.179   8.396   7.704 -2.0660  0.0488 -1.8807
15865SOL    HW248884   1.251   8.279   7.640  1.1109  0.1472  1.2129
15866SOL     OW48885   1.162   4.720   4.838 -0.3910 -0.2474  0.2018
15866SOL    HW148886   1.233   4.657   4.826 -1.0964 -1.1754  0.7533
15866SOL    HW248887   1.109   4.713   4.758 -0.1230  0.1142 -0.0108
15867SOL     OW48888   6.127   4.636   5.339 -0.3704 -0.1334  0.0481
15867SOL    HW148889   6.036   4.658   5.359 -0.9347 -2.1695 -0.0493
15867SOL    HW248890   6.152   4.700   5.272 -2.4512 -0.8135 -1.5064
15868SOL     OW48891   6.117   2.033   1.500  0.3911  0.1658 -0.2670
15868SOL    HW148892   6.110   1.986   1.417  0.5502 -3.4690  1.5945
15868SOL    HW248893   6.029   2.070   1.514  0.1503  0.1734 -1.6794
15869SOL     OW48894   3.087   8.115   1.013  0.1954 -0.5904 -0.1397
15869SOL    HW148895   3.106   8.044   1.075  0.4889  0.2937  0.8105
15869SOL    HW248896   3.087   8.073   0.927  2.2149 -1.4242  0.2143
15870SOL     OW48897   2.184   1.308   1.222  0.1657  0.0552  0.1840
15870SOL    HW148898   2.129   1.248   1.172 -0.3056  1.7139 -1.3868
15870SOL    HW248899   2.201   1.262   1.304 -2.8452 -0.9017  0.3916
15871SOL     OW48900   6.284   7.142   2.023 -0.2061 -0.0421 -0.0765
15871SOL    HW148901   6.299   7.096   1.940  0.8506 -0.8591  0.5420
15871SOL    HW248902   6.211   7.095   2.064 -1.3212  0.8989 -0.8934
15872SOL     OW48903   2.330   5.422   7.870  0.3658  0.4949  0.6424
15872SOL    HW148904   2.350   5.468   7.952 -1.1239  1.1921  0.6414
15872SOL    HW248905   2.274   5.349   7.896  0.7353  0.1030  0.3535
15873SOL     OW48906   6.799   3.560   5.234 -0.2828 -0.4060 -0.1803
15873SOL    HW148907   6.856   3.551   5.158 -0.6738 -0.5694 -0.4606
15873SOL    HW248908   6.756   3.645   5.222 -0.8561 -0.7331 -0.5062
15874SOL     OW48909   3.418   6.864   2.840  1.0320  0.0026 -0.0800
15874SOL    HW148910   3.478   6.800   2.877  1.3199  0.0888 -0.3949
15874SOL    HW248911   3.468   6.907   2.771  1.0457  1.0073  0.5486
15875SOL     OW48912   4.339   2.400   2.015  0.6789 -0.1620 -0.1889
15875SOL    HW148913   4.309   2.404   1.924 -0.4440 -1.0232  0.1146
15875SOL    HW248914   4.300   2.476   2.057  0.3993 -0.2862 -0.2179
15876SOL     OW48915   6.557   4.142   5.612 -0.4286  0.7397  0.2969
15876SOL    HW148916   6.486   4.187   5.568 -0.4498 -0.5428 -1.0566
15876SOL    HW248917   6.523   4.123   5.700 -1.0204  1.8295  0.3091
15877SOL     OW48918   7.698   7.524   8.064 -0.7677  0.3366 -0.0512
15877SOL    HW148919   7.702   7.495   7.973  0.2257  1.4377 -0.3791
15877SOL    HW248920   7.622   7.582   8.068 -0.5594  0.6290 -0.2908
15878SOL     OW48921   6.810   2.826   2.360  0.2218 -0.1787  0.0017
15878SOL    HW148922   6.777   2.868   2.439  3.9678 -1.7972  2.7611
15878SOL    HW248923   6.855   2.895   2.312 -0.4997  0.4666  0.2464
15879SOL     OW48924   3.152   1.445   8.703 -0.5557  0.1487 -0.4473
15879SOL    HW148925   3.139   1.540   8.707 -2.2338 -0.0804  1.7913
15879SOL    HW248926   3.063   1.410   8.699  0.0630 -1.3465 -2.1981
15880SOL     OW48927   7.646   6.924   1.526  0.0437 -0.1652  0.0388
15880SOL    HW148928   7.625   6.904   1.617  0.2452 -2.8394 -0.4301
15880SOL    HW248929   7.572   6.891   1.476  0.0559  1.0451 -0.8018
15881SOL     OW48930   7.892   2.394   1.750 -0.2676 -0.6308  0.0063
15881SOL    HW148931   7.914   2.314   1.701 -0.6404  0.3900 -1.9484
15881SOL    HW248932   7.937   2.464   1.702 -0.6832  0.4415  1.1408
15882SOL     OW48933   6.863   4.018   2.547  0.0836  0.6431  0.1214
15882SOL    HW148934   6.877   4.021   2.452  0.5662 -0.6769  0.1293
15882SOL    HW248935   6.916   3.944   2.577  0.1036  1.1713  1.4604
15883SOL     OW48936   6.796   0.821   0.288 -0.6051  0.0879  0.0305
15883SOL    HW148937   6.748   0.810   0.371 -1.1579  0.3921 -0.2438
15883SOL    HW248938   6.810   0.732   0.256  0.6346 -0.1032  1.0157
15884SOL     OW48939   8.687   2.578   5.359  0.0571 -0.0150 -0.0833
15884SOL    HW148940   8.593   2.589   5.375  0.3137  1.0708  0.8442
15884SOL    HW248941   8.701   2.614   5.271 -0.6346 -1.6975 -0.9159
15885SOL     OW48942   1.709   8.532   0.495 -0.6602 -0.1107  0.5205
15885SOL    HW148943   1.726   8.512   0.587 -0.3793  0.2824  0.5560
15885SOL    HW248944   1.633   8.590   0.498 -1.3730 -1.0173  0.4278
15886SOL     OW48945   6.152   8.238   0.848  0.1607 -0.2566 -0.5058
15886SOL    HW148946   6.192   8.325   0.848 -0.3077 -0.0416 -0.6027
15886SOL    HW248947   6.227   8.178   0.851  0.7261  0.0586 -3.9437
15887SOL     OW48948   3.321   2.363   3.314  0.2647  0.5441  0.0177
15887SOL    HW148949   3.363   2.338   3.396 -2.8145 -3.1582  0.7864
15887SOL    HW248950   3.386   2.342   3.247  1.1982 -0.9570  1.3153
15888SOL     OW48951   3.197   5.342   6.365  0.0821  0.3507  0.1277
15888SOL    HW148952   3.242   5.383   6.439  0.3817  0.0870  0.0941
15888SOL    HW248953   3.109   5.322   6.398  0.4730 -0.5123  0.6686
15889SOL     OW48954   7.830   3.093   7.437  0.1101  0.0466 -0.1103
15889SOL    HW148955   7.808   3.017   7.491  0.3146  0.8463  1.1418
15889SOL    HW248956   7.879   3.151   7.496 -0.2700  1.2704 -0.9626
15890SOL     OW48957   4.178   4.642   7.458 -0.3366 -0.2231 -0.0869
15890SOL    HW148958   4.105   4.628   7.399 -1.0622 -0.5015  0.8481
15890SOL    HW248959   4.138   4.655   7.544  0.6520  0.8974  0.2334
15891SOL     OW48960   7.441   7.169   6.508  0.3620  0.8277  0.0228
15891SOL    HW148961   7.483   7.086   6.483 -0.3335 -0.1470  1.9262
15891SOL    HW248962   7.510   7.217   6.554  1.2026  1.9989 -2.3007
15892SOL     OW48963   6.594   4.875   6.762  0.1645  0.9554  0.0312
15892SOL    HW148964   6.661   4.838   6.705 -0.5907 -1.4804  0.5916
15892SOL    HW248965   6.546   4.937   6.708  1.5762  1.2270 -0.9496
15893SOL     OW48966   5.738   1.730   7.921 -0.0558 -0.0320 -0.4055
15893SOL    HW148967   5.745   1.764   8.010 -0.4378 -1.1618  0.0742
15893SOL    HW248968   5.806   1.776   7.872 -0.2984  1.1071  0.3074
15894SOL     OW48969   0.283   4.055   8.502 -0.3163 -0.4528  0.4998
15894SOL    HW148970   0.189   4.060   8.489 -0.0491  2.7214 -1.2121
15894SOL    HW248971   0.317   4.024   8.418  0.1801 -2.8788  1.5133
15895SOL     OW48972   0.867   7.304   0.581 -0.1275  0.1493  0.9951
15895SOL    HW148973   0.924   7.352   0.641  0.3224 -0.6538  1.2158
15895SOL    HW248974   0.879   7.212   0.604 -1.5460 -0.0319  1.0737
15896SOL     OW48975   0.205   7.191   0.097  0.0228 -0.2673  0.0951
15896SOL    HW148976   0.245   7.275   0.075 -2.4042  0.9815  0.0707
15896SOL    HW248977   0.223   7.135   0.021 -0.3087  1.0040 -0.9542
15897SOL     OW48978   3.813   6.497   4.849 -0.0439  0.4860  0.1396
15897SOL    HW148979   3.819   6.546   4.767  0.5047 -0.7859 -0.5948
15897SOL    HW248980   3.737   6.440   4.838  0.4278 -0.1698  0.2430
15898SOL     OW48981   7.995   7.922   5.839  0.2060 -0.6327 -0.2976
15898SOL    HW148982   7.968   7.951   5.926  0.1135 -0.1176 -0.4940
15898SOL    HW248983   7.914   7.918   5.789  0.4288  0.5741 -0.7886
15899SOL     OW48984   5.108   6.272   4.802 -0.0998 -0.4810  0.1816
15899SOL    HW148985   5.164   6.252   4.877 -0.1549 -0.7837  0.1422
15899SOL    HW248986   5.168   6.281   4.728 -0.0838 -0.5880  0.1821
15900SOL     OW48987   1.253   5.063   3.089 -0.0511 -0.0646  0.2841
15900SOL    HW148988   1.213   5.126   3.149  1.0103  1.0433 -0.1242
15900SOL    HW248989   1.326   5.026   3.138 -1.2535 -1.7904  0.8874
15901SOL     OW48990   0.273   4.760   1.023  0.2485 -0.1714  0.0198
15901SOL    HW148991   0.274   4.692   0.956 -1.4509 -1.0531  0.8194
15901SOL    HW248992   0.221   4.723   1.094 -0.6453  1.9187  0.5389
15902SOL     OW48993   4.297   0.071   7.312  0.0850 -0.2151 -0.4721
15902SOL    HW148994   4.371   0.076   7.252  0.6135  1.7017  0.2396
15902SOL    HW248995   4.306   0.150   7.367 -1.2068 -1.1216  1.1267
15903SOL     OW48996   5.213   4.167   6.017 -0.4208 -0.6296 -0.7615
15903SOL    HW148997   5.118   4.179   6.015 -0.4907 -0.6541  0.8366
15903SOL    HW248998   5.229   4.088   5.965 -1.0999  0.1706 -2.2564
15904SOL     OW48999   2.494   1.323   2.954  0.0030 -0.6295 -0.4300
15904SOL    HW149000   2.429   1.256   2.974 -0.5793 -0.0224 -0.2649
15904SOL    HW249001   2.494   1.328   2.858  0.2914 -1.0968 -0.4570
15905SOL     OW49002   4.806   8.625   0.734  0.0788 -0.2885  0.4250
15905SOL    HW149003   4.858   8.623   0.654  0.3961 -2.7151  0.6231
15905SOL    HW249004   4.727   8.674   0.710  0.9696  0.6194 -0.8108
15906SOL     OW49005   2.108   5.499   8.272  0.0972 -0.5176  0.7769
15906SOL    HW149006   2.182   5.459   8.227 -1.0357 -1.8245 -0.0123
15906SOL    HW249007   2.095   5.583   8.228  0.7648 -0.5176  0.5683
15907SOL     OW49008   5.992   8.532   6.770  0.2636  0.5133 -0.2722
15907SOL    HW149009   5.972   8.526   6.677  2.0551  0.7111 -0.7154
15907SOL    HW249010   5.942   8.607   6.801  0.2882  0.9561 -1.2639
15908SOL     OW49011   5.998   1.145   6.439 -0.2195 -0.3572 -0.5136
15908SOL    HW149012   5.972   1.108   6.354  2.0515 -1.1534 -0.9271
15908SOL    HW249013   5.985   1.240   6.428 -0.5846 -0.5120 -1.5160
15909SOL     OW49014   8.630   8.192   2.690 -0.0592  0.3325  0.6969
15909SOL    HW149015   8.721   8.197   2.660 -0.4141 -0.9368 -0.7491
15909SOL    HW249016   8.580   8.176   2.610 -1.1714 -2.5192  1.8192
15910SOL     OW49017   5.583   5.285   7.754  0.6530 -0.3969  0.1278
15910SOL    HW149018   5.526   5.227   7.704 -0.6213  1.9241 -1.2671
15910SOL    HW249019   5.538   5.298   7.838  0.3015 -0.4274 -0.0546
15911SOL     OW49020   6.664   5.285   5.209 -0.0902 -0.1931 -0.0969
15911SOL    HW149021   6.746   5.313   5.251 -0.5345  2.1823 -0.6744
15911SOL    HW249022   6.689   5.265   5.119  0.1353 -1.1444  0.1712
15912SOL     OW49023   8.204   1.499   0.841  0.3104  0.7430  0.1407
15912SOL    HW149024   8.271   1.510   0.773  1.2210  0.1679  0.9142
15912SOL    HW249025   8.170   1.588   0.855  1.1661  1.1091 -0.0212
15913SOL     OW49026   0.768   7.407   2.010 -0.0067 -0.5055  0.2188
15913SOL    HW149027   0.711   7.334   1.985  0.9056 -1.3260  0.4681
15913SOL    HW249028   0.751   7.474   1.944 -1.3595 -0.6662  0.3747
15914SOL     OW49029   5.991   3.384   7.848  0.2819 -0.1000 -0.0119
15914SOL    HW149030   5.949   3.337   7.776  0.3536  1.6628 -1.2726
15914SOL    HW249031   5.934   3.459   7.864  0.0962 -0.6084  2.0327
15915SOL     OW49032   5.698   8.265   2.038 -0.2222 -0.6733  0.1109
15915SOL    HW149033   5.641   8.201   1.996  0.1489 -1.4202  0.7099
15915SOL    HW249034   5.701   8.338   1.977 -0.3779 -1.3692 -0.7567
15916SOL     OW49035   7.295   4.346   7.786 -0.2134 -0.6482  0.0634
15916SOL    HW149036   7.250   4.431   7.780  3.1504  1.2493 -0.9934
15916SOL    HW249037   7.272   4.313   7.873 -3.7639 -0.0448 -0.5178
15917SOL     OW49038   7.971   6.953   1.827 -0.0504 -0.1979 -0.5205
15917SOL    HW149039   8.062   6.954   1.797 -0.5723 -1.7216 -2.3558
15917SOL    HW249040   7.953   6.862   1.848 -0.9330  0.2190  0.6693
15918SOL     OW49041   0.490   2.443   6.882 -0.2097 -0.7564 -0.2221
15918SOL    HW149042   0.436   2.415   6.808  1.3966 -0.3441 -1.6312
15918SOL    HW249043   0.454   2.528   6.907  0.4001  0.0523 -1.8898
15919SOL     OW49044   3.485   8.374   3.044 -0.6547  0.6064 -0.5494
15919SOL    HW149045   3.551   8.410   3.103 -0.0791  0.8010 -1.2866
15919SOL    HW249046   3.421   8.332   3.101  1.1548 -1.3713  0.1205
15920SOL     OW49047   1.945   6.456   3.315 -0.3284 -0.0082 -0.3006
15920SOL    HW149048   1.893   6.459   3.235 -0.8565  1.5376  0.0688
15920SOL    HW249049   1.991   6.372   3.310  1.0609  0.7761 -3.1069
15921SOL     OW49050   3.639   1.118   0.957 -0.0158 -0.3542 -0.3507
15921SOL    HW149051   3.725   1.082   0.935  0.4787  0.1125  0.6879
15921SOL    HW249052   3.612   1.069   1.034  0.5433  1.2261  0.9120
15922SOL     OW49053   7.161   1.729   7.888 -0.3915  0.4934  0.1424
15922SOL    HW149054   7.250   1.695   7.901  0.5018  1.5713 -2.4733
15922SOL    HW249055   7.167   1.821   7.917 -0.2010  0.9837 -1.3704
15923SOL     OW49056   3.348   2.535   5.633 -0.1333 -0.0630 -0.2248
15923SOL    HW149057   3.311   2.549   5.546 -1.0043  0.7675  0.2595
15923SOL    HW249058   3.401   2.455   5.624  0.2944  0.3525 -1.6556
15924SOL     OW49059   8.287   0.301   2.086  0.4744  0.5305 -0.4519
15924SOL    HW149060   8.355   0.259   2.034  0.9042  0.6772 -0.0203
15924SOL    HW249061   8.329   0.380   2.121  0.2444  0.3506  0.2397
15925SOL     OW49062   0.778   6.325   3.099  0.6479 -0.0656  0.0530
15925SOL    HW149063   0.832   6.402   3.116  4.7052 -1.7844 -3.4500
15925SOL    HW249064   0.814   6.256   3.155 -0.3969 -0.4281  0.3204
15926SOL     OW49065   2.094   4.469   0.650 -0.4377 -0.5703  0.1631
15926SOL    HW149066   2.089   4.421   0.733 -1.6785 -0.6845  0.0479
15926SOL    HW249067   2.037   4.419   0.591 -0.1797 -0.0555 -0.5271
15927SOL     OW49068   0.396   2.661   3.929  0.4320 -0.1608 -0.4733
15927SOL    HW149069   0.430   2.596   3.990 -0.7669 -0.3137  0.0568
15927SOL    HW249070   0.334   2.614   3.874  0.9450  0.1416 -1.3521
15928SOL     OW49071   1.621   0.294   4.647 -0.2484 -0.4583  0.5114
15928SOL    HW149072   1.644   0.248   4.727 -0.0244 -1.4332 -0.0941
15928SOL    HW249073   1.548   0.244   4.610  0.1386 -0.4662 -0.2728
15929SOL     OW49074   1.540   6.608   5.821  0.2152 -0.0139 -0.3284
15929SOL    HW149075   1.539   6.513   5.812  1.1329 -0.0807  0.1507
15929SOL    HW249076   1.530   6.623   5.915  0.9316  0.3355 -0.3073
15930SOL     OW49077   5.788   4.940   2.975 -0.7044 -0.3722  0.1378
15930SOL    HW149078   5.846   4.968   3.046 -0.4250 -0.4552 -0.0527
15930SOL    HW249079   5.836   4.962   2.895 -1.3595  0.4537 -0.0411
15931SOL     OW49080   6.443   5.665   5.966 -0.2812  0.2610  0.1910
15931SOL    HW149081   6.442   5.694   5.875 -0.7475 -0.4841 -0.0448
15931SOL    HW249082   6.523   5.703   6.002 -0.4793  1.1893 -0.3148
15932SOL     OW49083   7.295   1.054   3.515  0.5239  0.8354 -0.1896
15932SOL    HW149084   7.359   0.990   3.484  0.8556  1.4414 -0.7620
15932SOL    HW249085   7.248   1.008   3.585  1.9294  0.5679  0.6079
15933SOL     OW49086   4.294   8.483   6.677  0.1016  0.1291  0.6314
15933SOL    HW149087   4.375   8.491   6.727  0.0904  0.1081  0.6528
15933SOL    HW249088   4.295   8.393   6.644 -0.0577  0.0384  0.8776
15934SOL     OW49089   1.450   3.633   7.113  0.1473 -0.2112 -0.3240
15934SOL    HW149090   1.482   3.584   7.037  1.1846  1.0916 -0.7449
15934SOL    HW249091   1.528   3.654   7.164 -0.4533 -0.3551  0.7064
15935SOL     OW49092   5.076   1.807   6.660 -0.1618  0.1020 -0.6320
15935SOL    HW149093   4.998   1.756   6.682  0.2188 -0.9131 -1.5402
15935SOL    HW249094   5.078   1.809   6.564  1.6713 -1.1393 -0.6729
15936SOL     OW49095   8.611   0.904   2.527  0.0454  0.4930  0.5215
15936SOL    HW149096   8.594   0.997   2.512 -2.3320 -0.1768 -1.6117
15936SOL    HW249097   8.535   0.873   2.577  1.0752 -0.2247  1.6999
15937SOL     OW49098   3.477   0.243   8.390  0.4466 -0.8708  0.3785
15937SOL    HW149099   3.413   0.253   8.460 -0.2694  0.2957 -0.4191
15937SOL    HW249100   3.519   0.159   8.408 -1.0526 -1.4935  1.1262
15938SOL     OW49101   0.679   2.870   1.795  0.7510 -0.5646 -0.3524
15938SOL    HW149102   0.622   2.822   1.734 -0.5092 -1.0873  1.1523
15938SOL    HW249103   0.713   2.802   1.853 -1.5084  0.2760  2.1839
15939SOL     OW49104   8.452   1.973   0.901 -0.0883  0.1621 -0.1574
15939SOL    HW149105   8.358   1.971   0.918  0.1515  0.8819  1.4053
15939SOL    HW249106   8.467   1.897   0.845 -1.4749 -0.4447  0.2422
15940SOL     OW49107   6.698   6.314   8.237  0.8216  0.5670  0.0638
15940SOL    HW149108   6.638   6.272   8.176  0.9097 -1.5627  1.3393
15940SOL    HW249109   6.673   6.406   8.237 -0.6533  0.1992 -1.4370
15941SOL     OW49110   5.580   7.261   6.469  0.3747 -0.1068  0.0375
15941SOL    HW149111   5.601   7.196   6.402  1.6270  1.6097 -1.3508
15941SOL    HW249112   5.538   7.211   6.539  2.0247 -2.5418 -0.5616
15942SOL     OW49113   3.681   8.124   0.656  0.7026 -0.2247  0.1010
15942SOL    HW149114   3.681   8.184   0.731 -1.4931 -0.3670  0.2716
15942SOL    HW249115   3.627   8.168   0.591  2.5505 -0.1212 -1.4515
15943SOL     OW49116   6.421   5.958   3.727 -0.0624 -0.0716  0.1031
15943SOL    HW149117   6.351   5.894   3.742  1.1480 -1.5564 -0.3530
15943SOL    HW249118   6.446   5.987   3.814  0.4650 -1.4804  0.4595
15944SOL     OW49119   6.483   0.329   5.461  0.2040  0.1548  0.0392
15944SOL    HW149120   6.398   0.373   5.454  1.8530  3.6079 -0.6513
15944SOL    HW249121   6.521   0.335   5.374  1.4391 -0.7197  0.4822
15945SOL     OW49122   8.308   1.981   0.333 -0.7879 -0.3869 -0.5305
15945SOL    HW149123   8.330   2.064   0.375 -0.6644 -0.4598 -0.4499
15945SOL    HW249124   8.367   1.917   0.373 -0.3556 -0.3759 -1.1338
15946SOL     OW49125   2.676   7.193   5.072  0.4743  0.1125 -0.0496
15946SOL    HW149126   2.706   7.236   4.991  0.2408  0.2568 -0.0610
15946SOL    HW249127   2.632   7.114   5.042  0.6161  0.0318 -0.0473
15947SOL     OW49128   2.149   0.587   2.527 -1.2275 -0.4287  0.5822
15947SOL    HW149129   2.142   0.527   2.453  0.1400 -1.9215  1.5942
15947SOL    HW249130   2.064   0.631   2.531 -1.3096 -0.2289 -1.8823
15948SOL     OW49131   8.404   7.783   2.055  0.4574  0.4998 -0.0506
15948SOL    HW149132   8.464   7.846   2.093  0.7490  0.7703 -0.9344
15948SOL    HW249133   8.375   7.823   1.973 -1.0406  0.4403  0.4128
15949SOL     OW49134   5.662   4.450   1.400 -0.0260  0.1420 -0.7381
15949SOL    HW149135   5.657   4.473   1.308  0.1835  0.0163 -0.7831
15949SOL    HW249136   5.687   4.531   1.444  0.6574  0.0247 -0.8891
15950SOL     OW49137   1.294   7.229   0.114  0.3753  0.5753 -0.3952
15950SOL    HW149138   1.218   7.210   0.168 -1.2162 -1.1726 -3.0255
15950SOL    HW249139   1.308   7.323   0.126 -1.7032  0.8080  0.7719
15951SOL     OW49140   5.202   7.373   7.818 -0.6243 -0.4444 -0.0289
15951SOL    HW149141   5.222   7.323   7.898 -1.0179  0.0633  0.4006
15951SOL    HW249142   5.118   7.416   7.838  0.7584  2.2532  0.5439
15952SOL     OW49143   2.151   4.386   5.711 -0.0007  0.4759 -0.4279
15952SOL    HW149144   2.224   4.425   5.663 -1.6229  2.6669 -1.2480
15952SOL    HW249145   2.188   4.369   5.798  2.1523 -0.8510 -1.5019
15953SOL     OW49146   4.979   4.973   5.265 -0.0796 -0.6108  0.3516
15953SOL    HW149147   4.930   4.935   5.192  0.9898  2.4955 -2.2100
15953SOL    HW249148   5.047   5.026   5.224  0.3629  1.6686  3.5948
15954SOL     OW49149   7.719   2.831   4.024  0.6595 -0.0925  0.5576
15954SOL    HW149150   7.705   2.803   4.114 -2.3791 -0.4988  0.0827
15954SOL    HW249151   7.708   2.752   3.972 -1.9950  0.7729 -0.3876
15955SOL     OW49152   3.849   0.818   6.006 -0.3768  0.5650  0.2943
15955SOL    HW149153   3.753   0.826   6.014 -0.5440  1.2282 -1.7903
15955SOL    HW249154   3.875   0.893   5.953  1.2238 -0.0019  0.2254
15956SOL     OW49155   0.512   1.374   3.625  0.1235  0.1059  0.3546
15956SOL    HW149156   0.438   1.377   3.564 -0.6791 -2.5527  1.0775
15956SOL    HW249157   0.522   1.464   3.654 -0.4073  1.2208 -2.5455
15957SOL     OW49158   0.406   5.550   6.548  0.1457 -0.1627  0.1402
15957SOL    HW149159   0.393   5.551   6.453  1.3286 -1.6445 -0.0623
15957SOL    HW249160   0.354   5.475   6.579  0.4824 -0.2360  0.5415
15958SOL     OW49161   0.584   6.000   7.851 -0.1843  0.3100 -0.3339
15958SOL    HW149162   0.622   6.042   7.773 -0.5514  0.3861 -0.4739
15958SOL    HW249163   0.491   6.024   7.848 -0.2031  0.2963  0.1191
15959SOL     OW49164   1.759   2.559   5.796 -0.3342 -0.1323  0.0568
15959SOL    HW149165   1.851   2.588   5.795 -0.6911  1.0725 -1.1013
15959SOL    HW249166   1.715   2.617   5.734 -1.2218 -2.8994 -2.1019
15960SOL     OW49167   1.753   3.718   4.985 -0.0361 -0.0640 -0.3438
15960SOL    HW149168   1.752   3.710   4.890  1.6794  0.8795 -0.4706
15960SOL    HW249169   1.741   3.628   5.017  0.3838 -0.5314 -1.4615
15961SOL     OW49170   8.600   2.052   1.742 -0.2297  0.5379 -0.0896
15961SOL    HW149171   8.567   1.967   1.713 -1.5483  0.7502  0.6829
15961SOL    HW249172   8.695   2.042   1.744 -0.3735 -1.0049  0.2442
15962SOL     OW49173   1.349   7.904   6.240 -0.1190 -0.5785  0.4317
15962SOL    HW149174   1.354   7.998   6.258 -1.3047 -0.7570  1.9009
15962SOL    HW249175   1.419   7.888   6.176 -1.3095  1.6938 -1.6456
15963SOL     OW49176   2.619   5.646   0.480  0.3092  0.2675  0.1849
15963SOL    HW149177   2.537   5.665   0.526  1.2692  1.8770  1.3327
15963SOL    HW249178   2.599   5.570   0.426 -2.0917  0.9541 -0.0020
15964SOL     OW49179   1.456   6.427   2.332 -0.0551 -0.0250  0.3648
15964SOL    HW149180   1.503   6.502   2.297  0.1733 -0.2193  0.2498
15964SOL    HW249181   1.366   6.438   2.300  0.0210  0.1003  0.1905
15965SOL     OW49182   4.830   7.297   8.386  0.4950  0.9218  0.2385
15965SOL    HW149183   4.746   7.334   8.360  1.2481  1.3070 -1.8735
15965SOL    HW249184   4.875   7.278   8.303  1.1856 -2.4341  1.2100
15966SOL     OW49185   5.948   3.014   1.877 -0.0597 -0.0682  0.2081
15966SOL    HW149186   5.895   2.946   1.918 -1.4992  2.1946  2.4861
15966SOL    HW249187   5.886   3.063   1.822  0.2109  1.1150  0.9150
15967SOL     OW49188   2.508   3.784   6.052  0.0376 -0.1546 -0.0282
15967SOL    HW149189   2.420   3.773   6.016 -1.0023  0.8820  2.0237
15967SOL    HW249190   2.509   3.727   6.129  0.9108  0.3732  0.3651
15968SOL     OW49191   0.233   6.847   1.182 -0.0207 -0.3661 -0.9557
15968SOL    HW149192   0.184   6.850   1.099  0.2074 -0.3042 -1.0881
15968SOL    HW249193   0.323   6.866   1.157 -0.0083 -0.0115 -0.6451
15969SOL     OW49194   6.011   5.957   7.149  0.4253 -0.4898  0.3172
15969SOL    HW149195   5.952   6.032   7.136  0.1918 -0.8947 -1.0854
15969SOL    HW249196   5.953   5.884   7.169  0.4787 -0.7964 -0.6360
15970SOL     OW49197   3.494   4.300   4.163 -0.5607 -0.0833 -0.2023
15970SOL    HW149198   3.526   4.355   4.092 -2.3402  0.3505 -0.7275
15970SOL    HW249199   3.473   4.360   4.234 -2.0150 -0.1082 -0.5848
15971SOL     OW49200   6.085   4.188   4.056  0.2529 -0.0222  0.6857
15971SOL    HW149201   6.030   4.239   3.997 -0.5407  0.1191  1.5206
15971SOL    HW249202   6.073   4.097   4.028  0.2088  0.0818  0.3679
15972SOL     OW49203   3.500   4.927   7.471 -0.7552 -0.2102  0.4245
15972SOL    HW149204   3.496   5.003   7.528  0.4222 -0.1849  0.5135
15972SOL    HW249205   3.427   4.871   7.499 -0.6468  0.1404  1.4505
15973SOL     OW49206   7.978   7.273   3.866 -0.0363 -0.3684 -0.3463
15973SOL    HW149207   8.037   7.277   3.791 -0.2235 -0.9579 -0.5285
15973SOL    HW249208   7.937   7.187   3.860 -1.9535  0.5487 -1.0052
15974SOL     OW49209   6.042   8.314   5.818 -0.0161 -0.4127  0.7234
15974SOL    HW149210   6.136   8.319   5.801 -0.2661 -0.3527 -0.8697
15974SOL    HW249211   6.027   8.373   5.892  0.9057  1.4163 -0.4639
15975SOL     OW49212   8.081   5.157   3.802 -0.3088  0.0288 -0.3868
15975SOL    HW149213   8.035   5.207   3.870 -1.1754 -0.1461 -0.8283
15975SOL    HW249214   8.159   5.123   3.846 -0.8274 -0.0302  0.5029
15976SOL     OW49215   5.722   3.847   0.771  0.2341 -0.2762 -0.2641
15976SOL    HW149216   5.640   3.806   0.799  0.2953 -0.5466 -0.4731
15976SOL    HW249217   5.790   3.789   0.806  0.3054 -1.0083 -1.5407
15977SOL     OW49218   3.249   6.423   6.647  0.0299 -0.7447 -0.0917
15977SOL    HW149219   3.339   6.400   6.672  0.0182 -0.3404  0.3351
15977SOL    HW249220   3.257   6.460   6.559  0.5798  1.2720  0.7639
15978SOL     OW49221   8.395   0.077   6.692  0.0840  0.1511 -0.5604
15978SOL    HW149222   8.401   0.149   6.755 -2.3344  0.3745 -0.5111
15978SOL    HW249223   8.468   0.093   6.632 -0.0437  2.3235 -0.2289
15979SOL     OW49224   2.089   8.271   2.427 -0.0372 -0.0635 -0.7476
15979SOL    HW149225   2.160   8.330   2.454  0.1978 -0.0485 -1.3758
15979SOL    HW249226   2.107   8.189   2.472 -0.1964  0.2468 -0.1025
15980SOL     OW49227   3.236   2.332   6.067 -0.3316  0.0146 -0.2819
15980SOL    HW149228   3.292   2.384   6.010  0.2482 -1.5057 -1.1638
15980SOL    HW249229   3.263   2.355   6.156  1.7965 -0.7292 -0.6867
15981SOL     OW49230   2.332   2.031   4.818  0.3650  0.1827  0.2551
15981SOL    HW149231   2.262   1.994   4.763 -1.1400  0.3061  1.9931
15981SOL    HW249232   2.365   2.106   4.768 -0.2909 -0.2715 -0.8915
15982SOL     OW49233   3.374   5.803   5.900 -0.0306 -0.2971 -0.2473
15982SOL    HW149234   3.411   5.734   5.956 -0.8468  0.2629  1.0250
15982SOL    HW249235   3.326   5.755   5.832  0.3366 -0.9851 -0.0410
15983SOL     OW49236   2.233   1.094   3.748  0.3721  0.5310  0.0879
15983SOL    HW149237   2.329   1.095   3.738  0.3791  0.9061  0.1700
15983SOL    HW249238   2.219   1.046   3.830  0.3224 -2.2397 -1.4460
15984SOL     OW49239   6.246   1.935   3.392  0.2681 -0.0218  0.2412
15984SOL    HW149240   6.219   1.994   3.322 -0.2912  0.2524  0.6782
15984SOL    HW249241   6.163   1.906   3.431  0.5804  0.1468  1.0443
15985SOL     OW49242   1.452   4.581   0.720 -0.5039 -0.4984 -0.1189
15985SOL    HW149243   1.402   4.653   0.682 -1.9091 -1.5614 -0.3690
15985SOL    HW249244   1.489   4.535   0.644  0.1830 -0.1913  0.0258
15986SOL     OW49245   4.813   8.198   8.433  0.4104  0.4587 -0.2686
15986SOL    HW149246   4.870   8.228   8.363 -0.6772  2.3149 -0.4253
15986SOL    HW249247   4.764   8.276   8.459 -0.9804 -0.7418  0.8719
15987SOL     OW49248   4.521   3.694   2.226 -0.1087  0.3919  0.2661
15987SOL    HW149249   4.487   3.628   2.166 -0.4614  0.4055  0.4420
15987SOL    HW249250   4.615   3.680   2.227 -0.0857  0.4861 -0.3941
15988SOL     OW49251   2.765   4.440   0.647 -0.3803  0.2188  0.2562
15988SOL    HW149252   2.859   4.428   0.658 -0.0702  3.0237  1.6093
15988SOL    HW249253   2.728   4.353   0.661  1.9816 -0.9822 -0.4222
15989SOL     OW49254   2.636   6.811   7.333  0.3152 -0.0486 -0.4175
15989SOL    HW149255   2.725   6.798   7.300  0.6823 -1.6000  1.0117
15989SOL    HW249256   2.641   6.892   7.384  0.3857  0.9315 -1.9414
15990SOL     OW49257   6.808   5.923   7.351  0.7664  0.0672 -0.2347
15990SOL    HW149258   6.837   5.943   7.440  0.1973 -0.6768  0.1280
15990SOL    HW249259   6.726   5.876   7.362 -0.1116  1.2867 -1.2122
15991SOL     OW49260   0.788   6.356   4.243 -0.3012 -0.0025 -0.0250
15991SOL    HW149261   0.868   6.342   4.192  0.1430  1.4153  0.2335
15991SOL    HW249262   0.723   6.383   4.178 -0.3323 -0.2898 -0.1154
15992SOL     OW49263   0.161   0.943   5.903 -0.0865  0.0640  0.0046
15992SOL    HW149264   0.149   0.997   5.981  0.0045  0.4454 -0.2406
15992SOL    HW249265   0.083   0.888   5.900  0.1583 -0.3303  0.6526
15993SOL     OW49266   3.019   1.684   0.003  0.4667 -0.1717 -0.2607
15993SOL    HW149267   2.923   1.679   0.008  0.5105 -0.8626 -0.0942
15993SOL    HW249268   3.035   1.743  -0.071 -0.0942 -1.8240 -1.7730
15994SOL     OW49269   6.449   4.761   0.254 -0.4350  0.2469  0.0871
15994SOL    HW149270   6.397   4.735   0.330  0.3984 -1.0564  0.2358
15994SOL    HW249271   6.435   4.692   0.189  1.5518 -0.4762  0.3568
15995SOL     OW49272   3.474   8.638   5.698  0.4350 -0.3848 -0.1452
15995SOL    HW149273   3.508   8.605   5.614  0.2969 -1.2742  0.1305
15995SOL    HW249274   3.512   8.579   5.763  0.6672  0.4025  0.4332
15996SOL     OW49275   6.560   6.756   6.884  0.4380 -0.0507  0.1268
15996SOL    HW149276   6.555   6.828   6.947  0.6537  0.1777 -0.1152
15996SOL    HW249277   6.636   6.705   6.912  0.1210 -0.3400  0.4615
15997SOL     OW49278   8.246   1.674   5.517  0.2437  0.3538  0.0111
15997SOL    HW149279   8.291   1.592   5.536 -0.9949 -0.1985  0.6815
15997SOL    HW249280   8.197   1.694   5.597  1.7911  2.6380  0.4744
15998SOL     OW49281   6.862   5.839   3.794 -0.0725 -0.4472 -0.5272
15998SOL    HW149282   6.919   5.786   3.738  0.5599 -1.4319  0.9862
15998SOL    HW249283   6.799   5.776   3.829 -0.0581  0.0207  0.3650
15999SOL     OW49284   7.885   2.108   0.130  0.3210 -0.1967 -0.4964
15999SOL    HW149285   7.871   2.157   0.050 -0.7155  0.8406  0.2762
15999SOL    HW249286   7.834   2.028   0.118 -1.5638  0.8871 -0.0885
16000SOL     OW49287   3.604   7.265   6.539  0.1317 -0.3921 -0.4608
16000SOL    HW149288   3.535   7.206   6.570  1.3437 -0.7212  1.8076
16000SOL    HW249289   3.677   7.208   6.517  0.3027  0.0790 -1.1671
16001SOL     OW49290   3.698   6.070   5.851  0.0751 -0.2073  0.3657
16001SOL    HW149291   3.661   6.031   5.772 -0.1908  1.3750 -0.3116
16001SOL    HW249292   3.765   6.007   5.878  0.4474 -0.6005 -1.3342
16002SOL     OW49293   0.043   4.667   2.933 -0.3975  0.3106  0.0969
16002SOL    HW149294  -0.042   4.694   2.966  0.5485  1.6921  1.5724
16002SOL    HW249295   0.031   4.659   2.838 -2.0558  0.8404  0.2310
16003SOL     OW49296   3.427   1.321   2.510 -0.2036 -0.1375 -0.4199
16003SOL    HW149297   3.503   1.296   2.562  0.3478 -1.2659 -1.6856
16003SOL    HW249298   3.354   1.316   2.571  0.6742  0.6274  0.7418
16004SOL     OW49299   3.578   5.729   6.744  0.0212  0.4627  0.3941
16004SOL    HW149300   3.571   5.636   6.767  1.4874  0.4543  0.9566
16004SOL    HW249301   3.489   5.762   6.752 -0.7324 -1.1021 -0.8450
16005SOL     OW49302   8.046   8.574   2.508  0.4224  0.4941 -0.1679
16005SOL    HW149303   7.990   8.652   2.509  2.3421  2.0285 -2.4126
16005SOL    HW249304   7.992   8.507   2.468 -0.7218  1.1296  0.2589
16006SOL     OW49305   1.783   5.094   3.397 -0.1699 -0.5141 -0.5317
16006SOL    HW149306   1.853   5.103   3.461 -0.3837  0.8693 -0.4467
16006SOL    HW249307   1.773   5.182   3.361 -1.7201 -0.7283 -0.6946
16007SOL     OW49308   3.323   6.647   5.302  0.4449  0.6215  0.5921
16007SOL    HW149309   3.346   6.635   5.394  0.2561  0.4220  0.6148
16007SOL    HW249310   3.364   6.730   5.277  1.3969  0.1621  0.5659
16008SOL     OW49311   4.259   8.314   7.076 -0.2397  0.0985  0.3915
16008SOL    HW149312   4.330   8.263   7.038 -1.2315 -1.3539  0.4139
16008SOL    HW249313   4.273   8.307   7.171  0.1213  0.6347  0.3856
16009SOL     OW49314   3.172   4.661   4.682  0.4288  0.0993 -0.6991
16009SOL    HW149315   3.081   4.648   4.655  0.2838 -0.2263 -0.0711
16009SOL    HW249316   3.202   4.574   4.707  0.0926  0.5718  1.5848
16010SOL     OW49317   2.346   7.648   0.832 -0.2044 -0.3075  0.7162
16010SOL    HW149318   2.378   7.694   0.910 -0.4555 -0.3568  0.8476
16010SOL    HW249319   2.342   7.716   0.764 -4.0774  0.8055  1.8093
16011SOL     OW49320   0.435   4.632   5.314 -0.0436  0.0291  0.2057
16011SOL    HW149321   0.528   4.612   5.304 -0.8821 -5.3332  0.2931
16011SOL    HW249322   0.396   4.603   5.232 -1.8342  1.1154  0.6175
16012SOL     OW49323   7.047   5.795   0.832 -0.3501 -0.1481 -0.3564
16012SOL    HW149324   6.959   5.773   0.861  0.5668 -0.7831  2.2515
16012SOL    HW249325   7.079   5.858   0.897  1.0942  0.1098 -1.2730
16013SOL     OW49326   5.516   5.297   2.374 -0.2386  0.9919 -0.3579
16013SOL    HW149327   5.602   5.275   2.409  0.6531  2.1821 -1.6939
16013SOL    HW249328   5.454   5.256   2.434  1.2512 -1.3268 -0.3105
16014SOL     OW49329   1.718   6.841   6.250  0.8772 -0.3540  0.3735
16014SOL    HW149330   1.713   6.934   6.271  1.7161  0.4231 -2.4944
16014SOL    HW249331   1.695   6.797   6.332  0.1874  2.3457  1.7451
16015SOL     OW49332   2.727   7.218   7.720 -0.8377 -0.2308 -0.2725
16015SOL    HW149333   2.684   7.185   7.799 -0.4764 -0.3208 -0.1092
16015SOL    HW249334   2.660   7.268   7.675 -1.3628 -1.0702 -0.4488
16016SOL     OW49335   3.827   5.735   3.792  0.3434  0.2700  0.0050
16016SOL    HW149336   3.911   5.743   3.746 -0.5474  4.3394 -1.3136
16016SOL    HW249337   3.851   5.726   3.884  2.1431 -2.1495 -0.5774
16017SOL     OW49338   3.573   8.119   6.624  0.3002 -0.1337  0.1080
16017SOL    HW149339   3.623   8.127   6.706 -0.4170  2.5358  0.4074
16017SOL    HW249340   3.579   8.027   6.601  3.0740 -0.4318  1.5429
16018SOL     OW49341   8.317   2.310   6.607 -0.1588 -0.2119  0.2434
16018SOL    HW149342   8.295   2.218   6.618 -1.0536 -0.0155  0.1371
16018SOL    HW249343   8.247   2.346   6.554  2.2378 -0.3249 -3.3453
16019SOL     OW49344   3.065   2.511   2.139 -0.2066 -0.2295 -0.0502
16019SOL    HW149345   3.001   2.569   2.098  0.7206  1.3919  0.6999
16019SOL    HW249346   3.112   2.567   2.201  1.5477 -1.4942 -0.1509
16020SOL     OW49347   7.177   1.853   8.398 -0.2853  0.2289  0.2605
16020SOL    HW149348   7.183   1.779   8.459 -1.2507  0.4624  0.6493
16020SOL    HW249349   7.184   1.931   8.454 -0.7752  0.4405  0.0258
16021SOL     OW49350   7.425   5.630   2.884 -0.6111  0.1685 -1.0333
16021SOL    HW149351   7.409   5.548   2.837 -0.8391  0.0260 -0.7135
16021SOL    HW249352   7.342   5.647   2.929  0.7785 -1.9158  2.7380
16022SOL     OW49353   0.844   4.352   7.375 -0.2311  0.1712 -0.3194
16022SOL    HW149354   0.864   4.417   7.442 -1.2510  1.3876 -1.1458
16022SOL    HW249355   0.852   4.400   7.292  0.8969 -1.2653 -1.0937
16023SOL     OW49356   7.023   5.236   4.242  0.2039 -0.1842 -0.3437
16023SOL    HW149357   6.995   5.179   4.170 -1.8075  0.9967 -0.5735
16023SOL    HW249358   6.942   5.278   4.272  0.8565 -0.9733  2.9497
16024SOL     OW49359   0.394   5.118   3.141 -0.2849  0.1780 -0.2262
16024SOL    HW149360   0.351   5.084   3.220  0.4469 -0.2495 -0.0021
16024SOL    HW249361   0.479   5.149   3.172 -0.2257  0.5472 -0.7508
16025SOL     OW49362   6.192   4.441   7.860  0.4071  0.1685 -0.1303
16025SOL    HW149363   6.232   4.473   7.780 -0.8142 -1.3129 -1.4029
16025SOL    HW249364   6.129   4.375   7.831  1.3521 -1.9033  2.1496
16026SOL     OW49365   7.906   6.420   2.543  0.3257  0.8966 -0.2984
16026SOL    HW149366   7.813   6.416   2.518 -0.1068 -1.9924  1.4034
16026SOL    HW249367   7.906   6.464   2.627  0.1862 -0.9034  0.6862
16027SOL     OW49368   3.370   6.147   4.456 -0.4182  0.5213 -0.5768
16027SOL    HW149369   3.321   6.119   4.378 -2.5065  0.6425  0.6285
16027SOL    HW249370   3.317   6.119   4.530  1.1695  1.0228  0.8392
16028SOL     OW49371   1.657   1.183   4.417  0.1916  0.2123  0.0627
16028SOL    HW149372   1.690   1.195   4.506 -0.2534  0.9455  0.1346
16028SOL    HW249373   1.567   1.217   4.420 -1.0907 -2.8548  0.2002
16029SOL     OW49374   0.095   0.940   5.582 -0.2520  0.0152  0.5866
16029SOL    HW149375   0.084   0.936   5.487  1.1088  0.6923  0.3866
16029SOL    HW249376   0.164   0.877   5.601 -0.9608 -0.5838  1.2126
16030SOL     OW49377   8.658   4.016   3.578  0.6886 -0.4545  0.0636
16030SOL    HW149378   8.597   4.063   3.633  0.2197 -0.8583 -0.1007
16030SOL    HW249379   8.742   4.024   3.623  1.0039  1.9747 -0.8186
16031SOL     OW49380   2.449   1.095   5.032 -0.4880  0.4400  0.5911
16031SOL    HW149381   2.429   1.158   5.101 -1.2474  1.0066 -0.1212
16031SOL    HW249382   2.530   1.128   4.992 -1.1845  1.3243 -0.1523
16032SOL     OW49383   1.590   0.581   1.271  0.5240  0.0976 -0.5374
16032SOL    HW149384   1.669   0.628   1.244  1.9242 -2.1614 -0.6672
16032SOL    HW249385   1.572   0.521   1.198 -0.3878 -0.5124  0.1665
16033SOL     OW49386   1.956   4.647   5.595 -0.1621  0.0124 -0.2367
16033SOL    HW149387   2.050   4.652   5.581 -0.3714  0.3880 -1.6642
16033SOL    HW249388   1.929   4.565   5.555 -0.3389 -0.4788  0.8659
16034SOL     OW49389   7.600   4.494   7.737 -0.1237  0.8496 -0.1244
16034SOL    HW149390   7.544   4.454   7.803 -0.3005  0.4966 -0.4835
16034SOL    HW249391   7.688   4.462   7.757  0.0853  2.0100  0.9053
16035SOL     OW49392   4.684   5.358   2.657 -0.2936 -0.9225  0.4889
16035SOL    HW149393   4.712   5.377   2.747  1.9974  1.4114 -0.5766
16035SOL    HW249394   4.634   5.436   2.631  0.9627 -0.5411 -0.9184
16036SOL     OW49395   6.315   5.676   2.082  0.1769  0.1723 -0.0905
16036SOL    HW149396   6.374   5.615   2.039  0.4881  0.9469 -0.7910
16036SOL    HW249397   6.304   5.641   2.171  0.5180 -0.7675 -0.4111
16037SOL     OW49398   3.641   8.627   2.420 -0.2937 -0.2077 -0.5863
16037SOL    HW149399   3.644   8.722   2.437  0.2741 -0.3840  0.3416
16037SOL    HW249400   3.591   8.620   2.339 -1.3828  0.8170 -0.0463
16038SOL     OW49401   6.217   5.056   3.231 -0.1790 -0.3083  0.0249
16038SOL    HW149402   6.266   5.108   3.294 -0.2257 -0.9161  0.5815
16038SOL    HW249403   6.284   5.007   3.183 -0.2007 -0.7403  0.4244
16039SOL     OW49404   2.508   8.108   6.666  0.6356  0.6207  0.1923
16039SOL    HW149405   2.597   8.076   6.677  0.4876 -0.1767 -0.7620
16039SOL    HW249406   2.457   8.060   6.731  0.7035  0.1987 -0.0670
16040SOL     OW49407   2.054   0.231   7.945  0.2335 -0.7126  0.4596
16040SOL    HW149408   2.096   0.169   7.885 -0.3528  0.5055 -1.3003
16040SOL    HW249409   2.012   0.176   8.011  1.2909 -2.0970  0.0393
16041SOL     OW49410   4.632   5.807   4.825 -0.3708 -0.3687  0.5668
16041SOL    HW149411   4.675   5.878   4.776 -2.1362  0.4680  0.1437
16041SOL    HW249412   4.637   5.836   4.916  1.5874 -1.2074  0.7813
16042SOL     OW49413   6.189   1.406   5.748 -0.1236 -0.1298 -0.1259
16042SOL    HW149414   6.161   1.316   5.734 -0.5668 -0.2431  1.2498
16042SOL    HW249415   6.146   1.431   5.830 -0.4740  1.5229 -0.7662
16043SOL     OW49416   3.406   2.763   2.610 -0.4001 -0.3234  0.2743
16043SOL    HW149417   3.443   2.776   2.522  1.2178 -1.2515  0.7783
16043SOL    HW249418   3.318   2.800   2.604  0.0547  0.6185 -1.4292
16044SOL     OW49419   2.357   5.467   5.267 -0.3635 -0.0364  0.0603
16044SOL    HW149420   2.403   5.547   5.293  1.8580 -0.9014 -0.8617
16044SOL    HW249421   2.333   5.482   5.175 -1.2205  0.0985  0.3021
16045SOL     OW49422   1.112   5.214   4.214 -0.5234 -0.1176 -0.2235
16045SOL    HW149423   1.045   5.203   4.281 -0.3693 -2.2990 -0.3540
16045SOL    HW249424   1.076   5.280   4.155 -0.9027  1.4456  1.6462
16046SOL     OW49425   3.040   6.636   0.162 -0.1455  0.7839 -0.2952
16046SOL    HW149426   3.133   6.640   0.185 -0.0401  3.4867 -0.8860
16046SOL    HW249427   3.001   6.586   0.234  1.5712  0.6971  0.6522
16047SOL     OW49428   8.328   5.916   7.557 -0.1190 -0.4007 -0.3995
16047SOL    HW149429   8.324   5.822   7.540  2.5866 -0.5578 -0.5716
16047SOL    HW249430   8.371   5.924   7.642  0.3566  0.6854 -0.7199
16048SOL     OW49431   3.868   7.186   1.918 -0.0905  0.0662 -0.2331
16048SOL    HW149432   3.944   7.133   1.943 -0.4573 -0.4653 -0.2311
16048SOL    HW249433   3.816   7.128   1.862  0.4956  1.0800 -1.8921
16049SOL     OW49434   8.002   2.523   4.898  0.1922  0.4969  0.0893
16049SOL    HW149435   8.081   2.575   4.889  0.0977  0.6911  0.3811
16049SOL    HW249436   7.952   2.541   4.819  0.4034  0.4312 -0.0604
16050SOL     OW49437   1.126   7.573   7.345 -0.2902  0.2260  0.3096
16050SOL    HW149438   1.075   7.543   7.270  0.1095  1.9540 -0.7219
16050SOL    HW249439   1.130   7.498   7.403 -0.3922 -1.2710 -1.5143
16051SOL     OW49440   1.885   4.417   6.817  0.4991  0.3382  0.1861
16051SOL    HW149441   1.849   4.339   6.860 -0.0769  0.9437  0.8350
16051SOL    HW249442   1.826   4.487   6.842  1.5242  1.1635  0.3855
16052SOL     OW49443   8.578   7.377   1.542 -0.1086  0.2071  0.1320
16052SOL    HW149444   8.617   7.429   1.613 -1.6277  1.3886  0.1295
16052SOL    HW249445   8.587   7.286   1.573 -0.5722  0.6775  1.7832
16053SOL     OW49446   1.659   1.882   6.036  0.4444  0.2853 -0.1154
16053SOL    HW149447   1.743   1.873   6.081 -0.0917 -0.5054  0.7629
16053SOL    HW249448   1.616   1.797   6.049  0.2969 -0.0142 -2.1925
16054SOL     OW49449   2.399   7.468   8.286 -0.0504  0.7164 -0.0388
16054SOL    HW149450   2.310   7.432   8.291 -0.2291  0.9126 -1.5140
16054SOL    HW249451   2.389   7.552   8.241  0.9688  0.4093 -0.8758
16055SOL     OW49452   1.851   2.701   6.593  0.5511 -0.0550  0.2818
16055SOL    HW149453   1.882   2.668   6.509  2.5708  0.5892  0.7189
16055SOL    HW249454   1.756   2.703   6.584  0.6225 -1.6101 -1.3599
16056SOL     OW49455   5.289   2.307   0.294 -0.1204 -0.1581 -0.2537
16056SOL    HW149456   5.306   2.400   0.308  2.2587 -0.4216 -0.9471
16056SOL    HW249457   5.300   2.295   0.199 -1.7332 -0.9290 -0.3750
16057SOL     OW49458   1.315   3.755   4.772 -0.7497 -0.5172 -0.2686
16057SOL    HW149459   1.347   3.829   4.720 -0.6651 -1.0844 -1.0405
16057SOL    HW249460   1.376   3.749   4.845  1.0566 -1.6733 -1.7854
16058SOL     OW49461   8.226   0.572   3.050 -0.1288 -0.1693  0.4344
16058SOL    HW149462   8.281   0.550   2.975 -0.8716  0.6157 -0.3739
16058SOL    HW249463   8.246   0.664   3.067 -0.1723 -0.2681  1.0324
16059SOL     OW49464   3.103   5.790   4.000  0.8448  0.5473  0.3612
16059SOL    HW149465   3.011   5.765   4.004  0.2299  2.2757 -1.4662
16059SOL    HW249466   3.150   5.714   4.034 -1.0878 -1.4911 -1.2402
16060SOL     OW49467   8.490   3.021   1.120  0.3921 -0.0474 -0.5861
16060SOL    HW149468   8.515   3.096   1.067  0.2043  0.7860  0.4560
16060SOL    HW249469   8.452   3.060   1.199 -0.7067 -1.2487 -0.4942
16061SOL     OW49470   0.491   4.509   6.679 -0.5893  0.0091  0.2457
16061SOL    HW149471   0.537   4.588   6.707 -1.3534  1.0399 -1.2577
16061SOL    HW249472   0.417   4.501   6.740 -0.8206  0.7840  0.0762
16062SOL     OW49473   0.287   4.095   0.622  0.1592  0.3239 -0.7530
16062SOL    HW149474   0.280   4.062   0.712 -0.2019 -1.5407 -1.4315
16062SOL    HW249475   0.290   4.190   0.632 -1.4326  0.2463  1.1580
16063SOL     OW49476   5.446   8.348   6.486 -0.6330 -0.3185 -0.2952
16063SOL    HW149477   5.426   8.395   6.567  4.6897 -0.4469  1.4330
16063SOL    HW249478   5.420   8.258   6.504 -0.5260 -0.1349  0.8039
16064SOL     OW49479   2.138   3.839   8.512 -0.6888  0.3487 -0.2804
16064SOL    HW149480   2.179   3.837   8.425 -0.5474  0.4916 -0.2180
16064SOL    HW249481   2.045   3.853   8.494 -0.3199  3.3627 -0.3336
16065SOL     OW49482   7.590   1.904   6.421 -0.1127  0.2287  0.2723
16065SOL    HW149483   7.540   1.984   6.441  0.7999  0.9734 -0.3810
16065SOL    HW249484   7.544   1.865   6.347 -1.2031 -0.4609  1.2700
16066SOL     OW49485   5.010   2.361   0.374 -0.1726 -0.1235 -0.0052
16066SOL    HW149486   5.002   2.285   0.432 -1.7634 -0.0616 -0.0864
16066SOL    HW249487   5.090   2.345   0.324  0.6689 -0.6791  1.4742
16067SOL     OW49488   4.707   7.695   8.348 -0.4179  0.4007 -0.2970
16067SOL    HW149489   4.710   7.735   8.261 -1.6474 -1.6705 -1.3676
16067SOL    HW249490   4.786   7.727   8.392  0.6202  0.9124 -2.4306
16068SOL     OW49491   5.346   5.437   3.136  0.9068 -0.0134 -0.2975
16068SOL    HW149492   5.302   5.413   3.054 -1.0124 -0.2917  0.7354
16068SOL    HW249493   5.348   5.356   3.187 -0.5816  0.7063  1.0249
16069SOL     OW49494   0.978   1.658   2.993  0.4673 -0.1282  0.4056
16069SOL    HW149495   1.053   1.679   2.938  0.4336 -0.6556  0.1507
16069SOL    HW249496   0.903   1.697   2.948  0.4999 -0.1756  0.3101
16070SOL     OW49497   8.032   7.367   6.678 -0.1410  0.2202 -0.3860
16070SOL    HW149498   7.953   7.333   6.720 -0.2348  0.8383 -0.0574
16070SOL    HW249499   8.000   7.402   6.595 -0.1691  0.2461 -0.3641
16071SOL     OW49500   3.515   3.426   6.032  0.5336 -0.0882  0.0603
16071SOL    HW149501   3.595   3.477   6.019  0.7693 -0.4927 -0.1038
16071SOL    HW249502   3.490   3.396   5.944 -0.6395  1.2704 -0.1017
16072SOL     OW49503   3.673   4.895   1.058  0.1776 -0.4648 -0.2628
16072SOL    HW149504   3.721   4.838   0.998  1.1912 -0.6695  0.7162
16072SOL    HW249505   3.699   4.984   1.032  1.2384 -0.5769  0.3526
16073SOL     OW49506   4.163   4.235   5.216 -0.4801 -0.1732  0.1200
16073SOL    HW149507   4.084   4.191   5.184 -0.2106 -1.4349  1.0747
16073SOL    HW249508   4.131   4.311   5.263 -1.0230  0.1660 -0.7625
16074SOL     OW49509   6.197   8.085   4.004  0.2828 -0.7009 -0.5559
16074SOL    HW149510   6.267   8.150   3.990  0.0446 -0.7248 -1.9929
16074SOL    HW249511   6.184   8.085   4.099  1.8736 -0.3196 -0.2951
16075SOL     OW49512   8.282   3.150   2.604  0.0194  0.1900  0.1188
16075SOL    HW149513   8.352   3.125   2.664 -0.7209  0.1997  1.0068
16075SOL    HW249514   8.318   3.135   2.516  0.0746 -2.7884  0.5535
16076SOL     OW49515   7.939   5.233   0.947  0.2197  0.2612 -0.0875
16076SOL    HW149516   7.854   5.277   0.948  1.0520  1.9512  0.6767
16076SOL    HW249517   7.972   5.245   0.858  0.5335  1.4148  0.1733
16077SOL     OW49518   6.467   3.060   0.727  0.3304  0.2767 -0.4062
16077SOL    HW149519   6.382   3.103   0.739  0.4433  0.2686  0.5840
16077SOL    HW249520   6.505   3.102   0.650 -0.1506  0.9920 -0.2677
16078SOL     OW49521   1.359   6.013   2.823 -0.0290 -0.1875  0.0307
16078SOL    HW149522   1.339   6.071   2.896 -0.4899 -0.0749 -0.1805
16078SOL    HW249523   1.449   6.033   2.800 -0.4361  1.0458 -0.5797
16079SOL     OW49524   6.229   7.500   0.764 -0.4476 -0.1738  0.2691
16079SOL    HW149525   6.201   7.523   0.675 -1.8401 -2.2366  0.1158
16079SOL    HW249526   6.320   7.530   0.768 -0.4594  0.3007 -1.7228
16080SOL     OW49527   6.685   0.731   5.043  0.2057 -0.0808  0.1715
16080SOL    HW149528   6.623   0.744   4.971  1.0486 -0.2717 -0.6186
16080SOL    HW249529   6.638   0.679   5.107 -0.6877  0.4098 -0.0768
16081SOL     OW49530   6.122   5.729   2.530 -0.0013 -0.3007 -0.4751
16081SOL    HW149531   6.111   5.821   2.556 -0.5237 -0.5773  0.3327
16081SOL    HW249532   6.037   5.703   2.494 -0.4736 -0.9737  1.0157
16082SOL     OW49533   2.050   4.157   7.213 -0.0783  0.2425  0.2429
16082SOL    HW149534   2.078   4.103   7.139  0.1152 -1.7715  1.7260
16082SOL    HW249535   2.130   4.203   7.241  0.3035 -0.5433  0.4556
16083SOL     OW49536   0.275   3.539   1.236 -0.5367  0.1268 -0.6154
16083SOL    HW149537   0.215   3.494   1.176 -1.1754  0.4037 -0.1933
16083SOL    HW249538   0.233   3.623   1.253  0.2146  0.5304 -0.6964
16084SOL     OW49539   4.621   5.937   4.404  0.3626 -0.3356  0.1543
16084SOL    HW149540   4.703   5.947   4.453 -0.1453 -0.3080  1.0275
16084SOL    HW249541   4.572   5.870   4.452 -0.6108  0.4698  0.3283
16085SOL     OW49542   2.638   6.995   4.149  0.5363  0.1922  0.2066
16085SOL    HW149543   2.723   7.014   4.109  0.8365 -0.0925  0.7087
16085SOL    HW249544   2.596   6.934   4.088  1.1138 -0.4658  0.4664
16086SOL     OW49545   7.204   7.363   3.482  0.1305 -0.5233  0.2458
16086SOL    HW149546   7.211   7.371   3.387  0.9742  2.4005  0.4547
16086SOL    HW249547   7.272   7.299   3.505  1.3922  0.3242 -0.9586
16087SOL     OW49548   2.976   6.954   1.999  0.3803 -0.1644  0.3383
16087SOL    HW149549   3.002   6.984   2.086 -0.6457 -1.7800  1.2407
16087SOL    HW249550   2.998   7.027   1.941  2.2764  0.4454  1.7359
16088SOL     OW49551   8.707   0.868   6.121  0.5599  0.1638 -0.1154
16088SOL    HW149552   8.659   0.949   6.102 -0.7899 -1.0256 -2.1335
16088SOL    HW249553   8.695   0.855   6.215 -1.5067  0.9262 -0.2224
16089SOL     OW49554   0.649   6.220   6.473 -0.1036 -0.7484  0.0982
16089SOL    HW149555   0.595   6.141   6.474  0.7112 -1.3220  1.4646
16089SOL    HW249556   0.639   6.256   6.561  0.8515 -0.2597  0.0097
16090SOL     OW49557   8.344   1.323   1.616  0.2468  0.2228  0.2427
16090SOL    HW149558   8.309   1.283   1.536  1.2303 -1.1134  0.4334
16090SOL    HW249559   8.268   1.334   1.672 -0.0539 -1.9415  0.3733
16091SOL     OW49560   6.377   0.411   0.117 -0.2853 -0.0543  0.7766
16091SOL    HW149561   6.292   0.399   0.161  0.6412 -0.8789  2.4296
16091SOL    HW249562   6.368   0.495   0.072 -1.8440  0.0648  1.2328
16092SOL     OW49563   7.504   6.916   0.292 -0.3004 -0.1375 -0.2851
16092SOL    HW149564   7.556   6.907   0.212  0.2973 -0.3296  0.1162
16092SOL    HW249565   7.528   7.002   0.326 -2.2263  0.9416 -1.4625
16093SOL     OW49566   4.585   0.641   7.811 -0.1279  0.6719 -0.1353
16093SOL    HW149567   4.643   0.598   7.875 -1.9670  0.2929  1.3671
16093SOL    HW249568   4.609   0.734   7.816  1.1843  0.3751 -0.4913
16094SOL     OW49569   0.520   6.507   7.539 -0.4481 -0.4618  0.1899
16094SOL    HW149570   0.575   6.470   7.608 -0.6773 -0.7478  0.2191
16094SOL    HW249571   0.456   6.439   7.520  0.8714 -1.2424 -1.7535
16095SOL     OW49572   4.953   8.246   4.101 -0.3269 -0.6741 -0.1503
16095SOL    HW149573   4.991   8.159   4.111 -1.1671 -1.0573 -0.1920
16095SOL    HW249574   4.859   8.232   4.113 -0.4001  0.3380  0.5402
16096SOL     OW49575   2.169   4.978   5.544  0.2743  0.2622 -0.1784
16096SOL    HW149576   2.142   5.001   5.633 -0.0062 -2.3259  0.4949
16096SOL    HW249577   2.158   5.059   5.493 -0.7949  1.4575  1.8444
16097SOL     OW49578   8.208   4.474   4.654 -0.2939 -0.2058 -0.1995
16097SOL    HW149579   8.218   4.527   4.574 -2.4235  0.4626 -0.0988
16097SOL    HW249580   8.127   4.507   4.694  1.4322  0.4848  3.0457
16098SOL     OW49581   0.465   2.254   8.185 -0.3059  0.4196 -0.8683
16098SOL    HW149582   0.386   2.304   8.207 -1.1971 -0.6101 -1.6051
16098SOL    HW249583   0.536   2.303   8.225 -1.5892 -0.4080  2.8728
16099SOL     OW49584   7.885   0.825   4.400 -0.5580 -0.3717 -0.3519
16099SOL    HW149585   7.980   0.834   4.409 -0.4314 -2.0457  0.3429
16099SOL    HW249586   7.864   0.872   4.320  1.0754 -1.2566 -1.3560
16100SOL     OW49587   3.739   3.627   6.746 -0.0895 -0.2378  0.3948
16100SOL    HW149588   3.739   3.662   6.657  0.9672 -2.2619 -0.4739
16100SOL    HW249589   3.713   3.701   6.801 -2.6960  0.5786 -1.7453
16101SOL     OW49590   3.795   2.684   7.034  0.5337 -0.0671  0.6934
16101SOL    HW149591   3.755   2.752   7.089  0.0769  0.0853  0.1786
16101SOL    HW249592   3.829   2.731   6.958  0.2224 -0.4044  0.3404
16102SOL     OW49593   3.299   6.490   6.916  0.2892 -0.3339 -0.1882
16102SOL    HW149594   3.267   6.480   6.827  1.0382  0.9357 -0.6304
16102SOL    HW249595   3.227   6.532   6.963 -0.8958 -2.8025  0.3824
16103SOL     OW49596   4.491   3.721   6.206 -0.6817  0.0418 -0.0630
16103SOL    HW149597   4.566   3.725   6.147 -0.8179  0.4903 -0.2049
16103SOL    HW249598   4.530   3.723   6.294 -0.5217  0.1067 -0.1356
16104SOL     OW49599   6.892   0.729   5.515  0.1763 -0.4313 -0.1049
16104SOL    HW149600   6.850   0.814   5.524 -0.1809 -0.7166  1.0641
16104SOL    HW249601   6.840   0.683   5.450  0.0936  0.0754 -0.3991
16105SOL     OW49602   3.323   2.093   1.604 -0.1320 -0.0713 -0.3779
16105SOL    HW149603   3.305   2.035   1.678  0.8965  0.5538  0.3803
16105SOL    HW249604   3.263   2.166   1.615  0.2415  0.1771  0.0244
16106SOL     OW49605   5.427   8.283   2.732  0.3065 -0.3547 -0.0761
16106SOL    HW149606   5.381   8.353   2.778  0.8865 -0.6979  1.0669
16106SOL    HW249607   5.363   8.250   2.669  0.0925  1.3128 -0.7671
16107SOL     OW49608   1.829   5.066   2.426  0.5751  0.0875  0.5451
16107SOL    HW149609   1.740   5.072   2.392  0.7190 -0.8673 -0.0258
16107SOL    HW249610   1.821   5.091   2.518 -0.3653 -0.4266  0.6128
16108SOL     OW49611   5.745   7.443   3.850 -0.2205  0.0638  0.3441
16108SOL    HW149612   5.803   7.370   3.869 -0.2919 -0.3019 -0.8001
16108SOL    HW249613   5.803   7.518   3.838 -0.0933  0.0089  0.5976
16109SOL     OW49614   4.723   3.391   4.663  0.2418  0.3994  0.2272
16109SOL    HW149615   4.632   3.418   4.658  0.5428  1.7368  1.2522
16109SOL    HW249616   4.772   3.473   4.668  1.4842 -0.2944  0.0035
16110SOL     OW49617   3.649   5.210   8.502 -0.5297 -0.3619 -0.6624
16110SOL    HW149618   3.572   5.258   8.469 -0.4164  0.9455  0.8800
16110SOL    HW249619   3.696   5.273   8.556  1.6924 -1.1222 -1.5892
16111SOL     OW49620   8.049   0.087   4.434 -0.3470  0.3162  0.1881
16111SOL    HW149621   8.077   0.083   4.342  0.5574  2.9786  0.2851
16111SOL    HW249622   7.981   0.154   4.436  0.7576  1.4626  1.6687
16112SOL     OW49623   7.896   5.032   1.122 -0.1402 -0.1228 -0.0481
16112SOL    HW149624   7.913   5.114   1.075  0.6672  0.5561  1.3630
16112SOL    HW249625   7.980   4.986   1.122 -0.1793 -0.2103  0.5069
16113SOL     OW49626   5.494   2.020   1.187 -0.5911 -0.3872  0.5823
16113SOL    HW149627   5.548   1.941   1.197 -1.3391 -0.7543  2.0431
16113SOL    HW249628   5.422   1.992   1.130  0.9237  0.2418 -1.8013
16114SOL     OW49629   7.507   4.032   2.014 -0.5192 -0.3687  0.0385
16114SOL    HW149630   7.464   3.954   2.049 -0.6740  1.3203  4.2625
16114SOL    HW249631   7.442   4.101   2.022  0.7153  0.8625 -0.1414
16115SOL     OW49632   2.376   7.745   8.179  0.8653  0.2598 -0.5221
16115SOL    HW149633   2.294   7.767   8.136  0.1022 -3.0388 -1.0118
16115SOL    HW249634   2.443   7.793   8.129 -0.5077  0.8725 -1.8252
16116SOL     OW49635   5.479   7.175   6.769  0.3905 -0.6322 -0.5834
16116SOL    HW149636   5.530   7.095   6.777  0.0149 -0.8285 -0.0808
16116SOL    HW249637   5.457   7.199   6.860 -0.6699 -0.7305 -0.7994
16117SOL     OW49638   0.032   6.915   1.369 -0.0377 -0.1738 -0.4086
16117SOL    HW149639  -0.031   6.843   1.367  1.0312 -1.2297  1.2905
16117SOL    HW249640   0.102   6.887   1.311 -0.7818  0.7206 -1.8022
16118SOL     OW49641   1.867   4.919   5.427  0.4009 -0.5407 -0.3084
16118SOL    HW149642   1.938   4.856   5.443 -0.0440 -1.6731 -2.4707
16118SOL    HW249643   1.893   4.965   5.348 -0.9977 -0.5564 -0.8033
16119SOL     OW49644   6.491   7.279   2.664 -0.7647  0.2695  0.3031
16119SOL    HW149645   6.573   7.318   2.634 -1.2687  0.9730 -0.1970
16119SOL    HW249646   6.508   7.255   2.755  0.5341 -1.1647 -0.2734
16120SOL     OW49647   7.390   5.591   0.425  0.1265 -0.2214  0.1359
16120SOL    HW149648   7.370   5.515   0.480 -0.4669  0.0062  0.2450
16120SOL    HW249649   7.397   5.555   0.337  1.7503 -0.6924  0.4343
16121SOL     OW49650   5.930   7.485   6.300 -0.5652  0.2518 -1.2682
16121SOL    HW149651   5.932   7.408   6.358  0.4867  0.7008 -0.6779
16121SOL    HW249652   5.880   7.550   6.349  0.4642  0.6880 -0.7441
16122SOL     OW49653   3.908   1.344   5.262  0.1127  0.2322  0.1915
16122SOL    HW149654   3.895   1.410   5.193 -1.6916  0.7465  0.9746
16122SOL    HW249655   3.980   1.380   5.315  1.3809 -0.0693 -1.2501
16123SOL     OW49656   3.735   5.631   5.726 -0.1434 -0.4821  0.2786
16123SOL    HW149657   3.729   5.604   5.818  2.1493  1.3774  1.0875
16123SOL    HW249658   3.660   5.689   5.713 -0.7515 -1.1251  0.8258
16124SOL     OW49659   7.159   4.693   0.531  0.0778  0.4109  0.4592
16124SOL    HW149660   7.190   4.699   0.440  0.8009  0.7654  0.7162
16124SOL    HW249661   7.080   4.747   0.534 -0.0730  0.2185 -0.0095
16125SOL     OW49662   3.176   0.335   3.606 -0.1918  0.0991  0.1004
16125SOL    HW149663   3.237   0.340   3.679 -0.1496  0.6611  0.0278
16125SOL    HW249664   3.228   0.300   3.533  0.0128  0.4507  0.0752
16126SOL     OW49665   0.114   3.885   5.979  0.4416  0.7616  0.2558
16126SOL    HW149666   0.146   3.850   6.062  1.7991  0.8392 -0.2160
16126SOL    HW249667   0.089   3.808   5.928 -3.1518  0.7603  1.7116
16127SOL     OW49668   1.617   2.529   4.098 -0.7628 -0.0837  0.7197
16127SOL    HW149669   1.708   2.510   4.120 -0.5160 -0.8943 -0.8650
16127SOL    HW249670   1.621   2.600   4.034 -1.3541  0.9250  1.7604
16128SOL     OW49671   6.319   4.404   1.368 -0.0646  0.1677  0.4818
16128SOL    HW149672   6.361   4.425   1.285 -0.0229 -0.1703  0.4168
16128SOL    HW249673   6.343   4.477   1.426 -0.1256  0.4216  0.1893
16129SOL     OW49674   6.727   3.300   3.060  0.4920  0.7898  0.1075
16129SOL    HW149675   6.805   3.318   3.008  0.3051  1.0537 -0.0870
16129SOL    HW249676   6.744   3.342   3.145 -0.0889  2.2448 -0.4610
16130SOL     OW49677   4.715   1.935   2.260 -0.0685 -0.1389  0.6195
16130SOL    HW149678   4.796   1.980   2.283 -0.3314  0.7861 -0.1871
16130SOL    HW249679   4.694   1.966   2.172  0.3534 -2.7392 -0.5083
16131SOL     OW49680   3.054   2.671   6.718 -0.0463 -0.4818 -0.1422
16131SOL    HW149681   3.143   2.677   6.682 -0.8830 -0.3635 -2.3123
16131SOL    HW249682   3.032   2.578   6.712 -0.7307 -0.2578 -1.3736
16132SOL     OW49683   7.577   8.131   5.119 -0.4579  0.1878 -0.0527
16132SOL    HW149684   7.583   8.156   5.211 -0.3377  0.2106 -0.0670
16132SOL    HW249685   7.558   8.212   5.072 -2.2074 -0.0751  0.1313
16133SOL     OW49686   7.639   6.668   6.634  0.4701 -0.2090 -0.4457
16133SOL    HW149687   7.544   6.668   6.642  0.5607 -1.3345  0.9223
16133SOL    HW249688   7.656   6.642   6.543 -0.5109  0.0570 -0.7149
16134SOL     OW49689   8.535   7.073   5.521  0.0654 -0.1119  0.2949
16134SOL    HW149690   8.491   6.990   5.538  1.1864 -0.8705 -0.3415
16134SOL    HW249691   8.573   7.063   5.434 -0.3706  1.3522 -0.1036
16135SOL     OW49692   4.213   6.555   5.420  0.2015 -0.2682 -0.5399
16135SOL    HW149693   4.193   6.566   5.327 -1.6076  0.6048 -0.0826
16135SOL    HW249694   4.225   6.644   5.453  0.5892 -0.5566  0.1223
16136SOL     OW49695   6.676   4.208   7.108 -0.4229 -0.2083 -0.3767
16136SOL    HW149696   6.657   4.295   7.073  0.0781  0.1133  0.1261
16136SOL    HW249697   6.771   4.199   7.101 -0.3669 -0.3379  0.4003
16137SOL     OW49698   2.832   4.251   5.836  0.2065 -0.1642 -0.2036
16137SOL    HW149699   2.754   4.269   5.887  1.0917  1.0445  0.7936
16137SOL    HW249700   2.803   4.189   5.768 -1.2828 -0.8017  0.9527
16138SOL     OW49701   2.233   5.471   4.188 -0.0944 -0.1156  0.3875
16138SOL    HW149702   2.320   5.501   4.160 -0.3519 -0.2317 -0.5822
16138SOL    HW249703   2.241   5.375   4.191 -0.2756 -0.1470 -0.0332
16139SOL     OW49704   8.189   8.343   4.181 -0.0435 -0.2062 -0.1324
16139SOL    HW149705   8.235   8.427   4.185 -1.1717  0.5916 -2.5448
16139SOL    HW249706   8.098   8.364   4.201 -0.0828 -1.1354  0.7521
16140SOL     OW49707   3.974   5.352   1.459  0.4002 -0.7555  0.3235
16140SOL    HW149708   3.884   5.383   1.452  0.8213  0.2224 -1.5470
16140SOL    HW249709   4.012   5.402   1.531 -0.5167 -1.1599  1.1049
16141SOL     OW49710   6.884   2.652   8.218 -0.6263 -0.6298 -0.1562
16141SOL    HW149711   6.977   2.645   8.241 -0.6329 -1.0550 -0.2474
16141SOL    HW249712   6.845   2.571   8.252 -0.8317 -0.7717 -0.7262
16142SOL     OW49713   3.947   3.766   3.467  0.0013 -0.0279 -0.2073
16142SOL    HW149714   3.872   3.802   3.515 -0.4961 -0.8131 -0.3878
16142SOL    HW249715   4.001   3.843   3.446 -0.4581  0.4784  0.4200
16143SOL     OW49716   7.462   7.244   4.643  0.4022  0.3297 -0.1314
16143SOL    HW149717   7.371   7.241   4.673  0.4989  1.7061  0.3591
16143SOL    HW249718   7.456   7.268   4.551  0.2581 -0.0371 -0.2190
16144SOL     OW49719   7.136   7.540   4.810 -0.2203  0.6689  0.4426
16144SOL    HW149720   7.176   7.571   4.892  1.2265  0.1972 -0.0467
16144SOL    HW249721   7.082   7.613   4.780  1.9199  2.1774  0.0700
16145SOL     OW49722   7.402   1.063   2.956 -0.1130  0.2104  0.7982
16145SOL    HW149723   7.390   1.151   2.920 -0.3323 -1.4726 -3.9966
16145SOL    HW249724   7.313   1.034   2.977 -0.4080  0.2338 -0.3264
16146SOL     OW49725   0.410   6.224   7.665 -0.3757  0.5016  0.8817
16146SOL    HW149726   0.439   6.224   7.756 -1.3267 -1.9241  1.2553
16146SOL    HW249727   0.315   6.226   7.670 -0.4702 -0.7595  0.0204
16147SOL     OW49728   1.811   0.761   8.035 -0.3721 -0.2771  0.2659
16147SOL    HW149729   1.802   0.671   8.005 -1.0895 -0.1882  0.1826
16147SOL    HW249730   1.749   0.768   8.108 -0.8008  0.3204 -0.1420
16148SOL     OW49731   7.965   7.354   0.435 -0.2163  0.1891 -0.3148
16148SOL    HW149732   7.969   7.327   0.343 -0.5623  0.9805 -0.5673
16148SOL    HW249733   7.923   7.280   0.479  2.0377 -1.2307 -0.3624
16149SOL     OW49734   8.148   2.991   4.099  0.2033  0.3169 -0.4419
16149SOL    HW149735   8.098   2.938   4.037 -1.4515  0.0814  0.9970
16149SOL    HW249736   8.094   3.070   4.110  0.7663  0.6163  0.2190
16150SOL     OW49737   3.734   3.158   2.636  0.2692 -0.2041 -0.3760
16150SOL    HW149738   3.664   3.178   2.697  0.1297  0.2330 -0.6759
16150SOL    HW249739   3.806   3.126   2.691 -0.4762 -1.5492 -0.1512
16151SOL     OW49740   5.402   5.805   6.258  0.6750 -0.2849 -0.2557
16151SOL    HW149741   5.441   5.730   6.211 -0.2137  0.2867 -1.9979
16151SOL    HW249742   5.308   5.784   6.262  0.5219  0.4038 -0.1258
16152SOL     OW49743   3.555   4.354   6.619 -0.5017  0.0208  0.3511
16152SOL    HW149744   3.497   4.294   6.573 -1.5051  0.9419  0.3786
16152SOL    HW249745   3.598   4.405   6.550  2.0005 -2.0949  0.1839
16153SOL     OW49746   2.052   3.930   3.576 -0.6242 -0.2296  0.0538
16153SOL    HW149747   2.058   3.908   3.669 -1.5737 -0.1413  0.1464
16153SOL    HW249748   2.031   4.023   3.575 -0.4288 -0.1883 -0.2579
16154SOL     OW49749   2.863   2.379   8.065 -0.7158 -0.1596 -0.0981
16154SOL    HW149750   2.948   2.378   8.019 -0.6027 -2.6730 -0.0014
16154SOL    HW249751   2.874   2.316   8.136 -2.7539 -0.8065 -0.2920
16155SOL     OW49752   2.290   0.415   3.547 -0.2312  0.7137  0.1139
16155SOL    HW149753   2.197   0.403   3.565 -0.3817  2.1496  0.4689
16155SOL    HW249754   2.301   0.510   3.542  0.9674  0.5443 -1.3015
16156SOL     OW49755   3.763   5.927   4.770 -0.2462 -0.1498 -0.6097
16156SOL    HW149756   3.793   5.867   4.838  0.2323 -0.0246 -0.7077
16156SOL    HW249757   3.841   5.976   4.744 -0.6777  0.6938 -0.3637
16157SOL     OW49758   3.769   2.589   6.001 -0.0619 -0.0598  0.1711
16157SOL    HW149759   3.807   2.505   5.976  0.5175  0.6442 -1.4126
16157SOL    HW249760   3.681   2.588   5.966 -0.2032 -0.1705  0.5249
16158SOL     OW49761   1.612   5.641   2.247 -0.2065 -0.5937  0.5020
16158SOL    HW149762   1.633   5.734   2.247  0.1617 -0.6699 -0.0935
16158SOL    HW249763   1.555   5.629   2.323  0.3412 -0.0210  1.0153
16159SOL     OW49764   0.660   6.460   6.703  0.4453  0.1003 -0.4533
16159SOL    HW149765   0.694   6.433   6.789  0.5426 -3.7254 -1.4770
16159SOL    HW249766   0.713   6.536   6.679  1.6625  0.1648  2.0800
16160SOL     OW49767   4.417   3.540   4.689  0.0529 -0.0191  0.0525
16160SOL    HW149768   4.417   3.485   4.610  1.6939 -0.1021  0.0673
16160SOL    HW249769   4.329   3.531   4.725 -0.3177 -1.0416 -1.0472
16161SOL     OW49770   8.377   8.186   2.210 -0.1582  0.1469 -0.2719
16161SOL    HW149771   8.424   8.162   2.130  0.4910  0.3149  0.0573
16161SOL    HW249772   8.341   8.273   2.191  0.5824  0.4920 -0.1383
16162SOL     OW49773   1.158   6.773   5.076  0.6661 -0.0925 -0.1975
16162SOL    HW149774   1.239   6.791   5.125  0.3969  0.1437  0.1621
16162SOL    HW249775   1.170   6.819   4.993  0.7913  0.1679 -0.0379
16163SOL     OW49776   6.799   0.981   4.753  0.0464 -0.1035  0.0767
16163SOL    HW149777   6.804   1.077   4.762  0.0811  0.2072 -2.4904
16163SOL    HW249778   6.724   0.956   4.806  1.2023  1.0396  2.4456
16164SOL     OW49779   6.737   8.020   8.707 -0.2697 -0.2380  0.2717
16164SOL    HW149780   6.739   7.977   8.621  1.0805 -0.5194  0.4189
16164SOL    HW249781   6.730   8.113   8.687  0.7011 -0.2476 -0.1902
16165SOL     OW49782   3.028   5.616   6.219  0.4173 -0.0352 -0.2466
16165SOL    HW149783   2.953   5.640   6.274  0.4564 -1.0309  0.2755
16165SOL    HW249784   3.105   5.644   6.270  0.4824 -1.6218  0.6004
16166SOL     OW49785   0.174   7.392   1.128 -0.3967 -0.1232  0.4656
16166SOL    HW149786   0.254   7.341   1.117  0.3247  0.6400  1.9287
16166SOL    HW249787   0.160   7.432   1.042  1.3394  0.4667  0.4053
16167SOL     OW49788   1.547   6.013   0.829  0.2800 -0.3177 -0.1516
16167SOL    HW149789   1.627   5.980   0.788  0.4148  0.4351 -0.5064
16167SOL    HW249790   1.534   5.955   0.905  2.2344  0.7005  1.0311
16168SOL     OW49791   5.333   7.777   7.307 -0.2724 -0.0048 -0.2097
16168SOL    HW149792   5.353   7.749   7.217 -0.1678  1.0309 -0.5256
16168SOL    HW249793   5.294   7.700   7.348  1.6202 -1.1852 -0.4854
16169SOL     OW49794   7.899   4.685   6.590 -0.4483 -0.7243  0.3223
16169SOL    HW149795   7.977   4.685   6.535  1.6182 -3.5399  2.9085
16169SOL    HW249796   7.904   4.767   6.639  0.3701 -0.4559 -0.1855
16170SOL     OW49797   6.765   3.033   0.803 -0.0439 -0.2784 -0.0293
16170SOL    HW149798   6.819   2.960   0.834  0.8053 -0.0604 -0.9816
16170SOL    HW249799   6.677   2.995   0.794  0.1540 -0.8912  0.5509
16171SOL     OW49800   5.793   1.207   5.776  0.8105 -0.1459  0.1794
16171SOL    HW149801   5.706   1.178   5.803  1.0139  0.0950  1.0920
16171SOL    HW249802   5.800   1.297   5.806  0.9925  0.1811 -0.7983
16172SOL     OW49803   6.291   6.035   8.120  0.3895 -0.6046 -0.0029
16172SOL    HW149804   6.205   6.021   8.081  0.2468  0.9358 -0.2917
16172SOL    HW249805   6.289   5.981   8.200  0.0024 -2.3116 -1.1056
16173SOL     OW49806   8.006   2.879   4.391  0.1018 -0.5406  0.8008
16173SOL    HW149807   8.052   2.796   4.388  0.5198 -0.4376  2.8043
16173SOL    HW249808   8.066   2.942   4.350  1.5891 -0.5162  2.8467
16174SOL     OW49809   7.138   4.904   6.217 -0.1357  0.7558 -0.3703
16174SOL    HW149810   7.181   4.987   6.195  2.0177  0.0102  0.7224
16174SOL    HW249811   7.204   4.855   6.267 -1.2298 -1.7338 -1.1808
16175SOL     OW49812   1.337   3.280   8.650 -0.6420 -0.2215 -0.0816
16175SOL    HW149813   1.316   3.308   8.561 -2.0262 -0.4312  0.1522
16175SOL    HW249814   1.367   3.189   8.640 -1.7307 -0.5752 -0.2503
16176SOL     OW49815   2.677   7.111   3.745  0.1065 -0.4160  0.3925
16176SOL    HW149816   2.606   7.163   3.707  0.2883 -0.5456 -0.1181
16176SOL    HW249817   2.720   7.172   3.806  0.6385  0.2135 -0.5755
16177SOL     OW49818   0.590   8.012   8.256  0.0851  0.2489 -0.0197
16177SOL    HW149819   0.671   8.055   8.286  0.4201 -0.1936 -0.2916
16177SOL    HW249820   0.618   7.927   8.224 -0.5261 -0.0002  0.1001
16178SOL     OW49821   2.132   8.023   8.306  0.0690 -0.2639  0.0540
16178SOL    HW149822   2.144   7.938   8.348 -0.6188 -0.0811  0.6531
16178SOL    HW249823   2.084   8.004   8.226 -0.4073 -0.4190  0.3669
16179SOL     OW49824   3.636   5.541   0.650  0.0942 -0.3410  1.0668
16179SOL    HW149825   3.567   5.536   0.717 -1.7083  1.2165 -0.5670
16179SOL    HW249826   3.597   5.499   0.573  0.6898  1.1187 -0.0724
16180SOL     OW49827   2.458   5.396   3.552 -0.2560 -0.4244  0.1209
16180SOL    HW149828   2.415   5.419   3.634  0.4439 -0.9568  0.6505
16180SOL    HW249829   2.390   5.406   3.485 -0.7523  0.2973  0.7208
16181SOL     OW49830   7.882   8.613   8.171  0.0475  0.4170 -0.3318
16181SOL    HW149831   7.877   8.707   8.182  1.1661  0.3953  0.5634
16181SOL    HW249832   7.955   8.586   8.226  0.4380 -0.8342 -1.3911
16182SOL     OW49833   0.217   1.922   4.996  0.2195 -0.5774 -0.3723
16182SOL    HW149834   0.261   1.999   4.961 -1.2305  1.1726  1.4762
16182SOL    HW249835   0.288   1.860   5.015  1.4910  0.6426 -1.0093
16183SOL     OW49836   7.460   5.082   8.602 -0.4908  0.2577 -0.2041
16183SOL    HW149837   7.513   5.043   8.672  0.0769  0.4224 -0.5283
16183SOL    HW249838   7.525   5.121   8.543 -0.9967  0.7543 -0.4407
16184SOL     OW49839   6.221   7.238   0.360  0.2909  0.5430 -0.6878
16184SOL    HW149840   6.293   7.299   0.344  0.9918 -0.6637 -2.3350
16184SOL    HW249841   6.245   7.159   0.312 -1.1560 -0.6325  0.4352
16185SOL     OW49842   6.782   1.660   8.502 -0.4505 -0.6439  0.1055
16185SOL    HW149843   6.795   1.730   8.438 -0.1634 -1.2595 -0.5212
16185SOL    HW249844   6.868   1.619   8.510 -0.2351  0.0269  1.6262
16186SOL     OW49845   7.033   6.860   6.036 -0.3827  0.5985  0.6630
16186SOL    HW149846   6.962   6.915   6.005 -1.8723 -1.7855 -0.4147
16186SOL    HW249847   7.024   6.860   6.131 -1.3992  0.8540  0.5722
16187SOL     OW49848   4.904   6.929   1.911 -0.4841  0.0753 -0.0406
16187SOL    HW149849   4.828   6.938   1.854 -0.9562  3.3469  0.9129
16187SOL    HW249850   4.979   6.946   1.853 -0.7360  0.3787 -0.2791
16188SOL     OW49851   1.560   0.370   5.998  0.2184  0.3342 -0.2748
16188SOL    HW149852   1.478   0.411   5.970  0.1756 -1.3632 -3.0315
16188SOL    HW249853   1.535   0.313   6.070 -1.1070 -0.3561 -1.2433
16189SOL     OW49854   1.797   3.826   5.837 -0.4790 -0.7602  0.5472
16189SOL    HW149855   1.769   3.742   5.801 -0.2141 -0.1602 -1.1469
16189SOL    HW249856   1.719   3.881   5.834 -0.2730 -0.4875  0.2279
16190SOL     OW49857   0.279   7.757   2.207  0.5670 -0.4025 -0.1661
16190SOL    HW149858   0.338   7.762   2.132  2.3888  1.4329  1.2976
16190SOL    HW249859   0.226   7.679   2.190  4.6825 -3.3755 -0.6560
16191SOL     OW49860   2.810   1.653   6.250 -0.3574 -0.1645  0.1226
16191SOL    HW149861   2.767   1.700   6.179 -1.0573 -0.6344  0.2256
16191SOL    HW249862   2.879   1.712   6.279 -0.4564  0.2892 -0.5408
16192SOL     OW49863   5.214   2.890   8.158 -0.5155 -0.1036 -0.0492
16192SOL    HW149864   5.229   2.983   8.137 -0.0616  0.3292  2.0066
16192SOL    HW249865   5.239   2.882   8.250 -1.4234 -2.0789  0.0656
16193SOL     OW49866   6.599   6.379   1.190  0.2707 -0.2787  0.2403
16193SOL    HW149867   6.505   6.396   1.188  0.1974 -0.3464  1.8636
16193SOL    HW249868   6.624   6.391   1.281  1.9286  0.1611 -0.2249
16194SOL     OW49869   4.967   1.989   0.249 -0.0886 -0.3727 -0.0086
16194SOL    HW149870   5.008   2.047   0.184 -1.3858  0.2745 -0.2884
16194SOL    HW249871   5.021   2.000   0.328 -0.0385  0.8743 -0.1926
16195SOL     OW49872   3.929   7.310   2.602 -0.0262  0.5123  0.1146
16195SOL    HW149873   4.011   7.289   2.558  0.7686  1.9146  0.8639
16195SOL    HW249874   3.893   7.383   2.552  0.0595  1.0318  0.7979
16196SOL     OW49875   4.393   5.402   4.282 -0.0419 -0.0711  0.4581
16196SOL    HW149876   4.397   5.377   4.375 -0.9518  0.5141  0.6647
16196SOL    HW249877   4.357   5.491   4.283  1.8103  0.7211 -0.3511
16197SOL     OW49878   8.700   1.250   0.005 -0.0105  0.0848  0.1292
16197SOL    HW149879   8.764   1.241  -0.065 -0.9552  0.1291 -0.7562
16197SOL    HW249880   8.631   1.304  -0.032 -0.8715 -0.4923  0.8523
16198SOL     OW49881   3.226   5.597   8.239 -0.4212 -0.2139  0.2965
16198SOL    HW149882   3.162   5.598   8.167  0.0834  0.6322 -0.1562
16198SOL    HW249883   3.298   5.652   8.208  1.3581 -2.5042  0.0461
16199SOL     OW49884   6.131   6.983   6.214 -0.4175  0.3396 -0.0849
16199SOL    HW149885   6.082   6.906   6.243 -0.2104 -0.6763 -2.2189
16199SOL    HW249886   6.159   7.026   6.295 -0.0413 -2.1356  1.1968
16200SOL     OW49887   1.595   8.465   0.039  0.3577 -0.1216 -0.2956
16200SOL    HW149888   1.506   8.491   0.061  0.5470  0.0746  0.2472
16200SOL    HW249889   1.648   8.493   0.114  1.0464  0.7404 -1.0716
16201SOL     OW49890   5.893   5.652   2.392 -0.1638  0.1836  0.2701
16201SOL    HW149891   5.902   5.723   2.329  1.6449 -1.9019 -2.0105
16201SOL    HW249892   5.812   5.608   2.368  0.2073 -0.2385 -0.2272
16202SOL     OW49893   0.905   8.141   7.451 -0.3862 -0.1118  0.2430
16202SOL    HW149894   0.967   8.203   7.412  1.0012  0.2913  2.8503
16202SOL    HW249895   0.949   8.056   7.445 -0.0826 -0.0189  1.0073
16203SOL     OW49896   1.094   8.216   2.803  0.1629  0.1774  0.4379
16203SOL    HW149897   1.089   8.186   2.713 -0.4813  1.4545  0.0381
16203SOL    HW249898   1.164   8.163   2.842 -1.8175 -2.8352  0.1785
16204SOL     OW49899   6.188   3.768   5.271 -0.1356 -0.5811  0.3642
16204SOL    HW149900   6.196   3.730   5.358 -1.3242 -1.8926 -0.0728
16204SOL    HW249901   6.114   3.723   5.231  0.3831 -0.0059 -1.3361
16205SOL     OW49902   2.578   1.957   1.680  0.6009 -0.2608 -0.3529
16205SOL    HW149903   2.539   2.004   1.753  0.5734 -1.2028  0.2547
16205SOL    HW249904   2.635   1.892   1.721  1.3264 -0.1701 -1.1912
16206SOL     OW49905   5.043   3.900   5.936  0.0664 -0.1807  0.3224
16206SOL    HW149906   5.028   3.892   6.030 -1.1746  0.2153  0.1809
16206SOL    HW249907   5.077   3.815   5.909 -0.7121 -0.6911  0.9368
16207SOL     OW49908   5.375   2.961   1.823  0.0491 -0.4274 -0.0061
16207SOL    HW149909   5.459   2.948   1.867 -0.0007  0.7747  0.4749
16207SOL    HW249910   5.399   2.988   1.734  0.2061  0.8093  0.3910
16208SOL     OW49911   4.284   0.089   0.584 -0.4052 -0.4153  0.5232
16208SOL    HW149912   4.354   0.096   0.648 -1.9718  0.3139  2.2663
16208SOL    HW249913   4.274   0.178   0.550  0.5541 -0.8348 -0.9609
16209SOL     OW49914   2.557   5.002   0.065  0.0235  0.2661 -0.6605
16209SOL    HW149915   2.486   4.989   0.128  1.0922 -1.9342  0.2082
16209SOL    HW249916   2.597   5.085   0.090 -0.9911  0.5376  0.1083
16210SOL     OW49917   1.014   5.280   5.674  0.1359  0.1793 -0.1640
16210SOL    HW149918   1.017   5.309   5.582 -1.9674  1.8494  0.2163
16210SOL    HW249919   1.001   5.185   5.668 -0.9016  0.3625 -1.6635
16211SOL     OW49920   6.717   0.515   2.488  0.4729  0.3262 -0.3378
16211SOL    HW149921   6.733   0.446   2.423  0.9665 -0.0159  0.1469
16211SOL    HW249922   6.762   0.485   2.567 -0.5031  0.5230  0.3083
16212SOL     OW49923   7.493   5.057   4.371 -0.0179 -0.3323 -0.7310
16212SOL    HW149924   7.425   5.123   4.360  0.6502  0.7508  1.1887
16212SOL    HW249925   7.446   4.973   4.369 -1.2710  0.3373 -0.4722
16213SOL     OW49926   5.878   1.493   3.971  0.5430 -0.0221 -0.5326
16213SOL    HW149927   5.847   1.444   4.048  0.7811  2.6644  1.3957
16213SOL    HW249928   5.963   1.454   3.951  0.4573 -0.8170  0.5298
16214SOL     OW49929   1.501   6.944   3.563 -0.3731  0.3838  0.0035
16214SOL    HW149930   1.426   6.887   3.583  0.5839 -0.7855  0.3826
16214SOL    HW249931   1.519   6.928   3.470  1.7865 -2.3882  0.7497
16215SOL     OW49932   2.675   1.711   0.473  0.0304 -0.5504  0.4917
16215SOL    HW149933   2.585   1.726   0.501 -0.1503  0.2691 -0.4514
16215SOL    HW249934   2.693   1.620   0.495 -1.0844 -0.7732  0.5353
16216SOL     OW49935   5.758   0.170   5.670 -0.0024  0.0405 -0.6726
16216SOL    HW149936   5.734   0.083   5.636  0.8007  0.5440 -2.6620
16216SOL    HW249937   5.844   0.187   5.632  0.3039  1.2836  0.5415
16217SOL     OW49938   4.000   1.833   4.587 -0.0516  0.3203  0.6338
16217SOL    HW149939   4.013   1.925   4.564 -0.1076 -0.4683 -3.1498
16217SOL    HW249940   3.907   1.817   4.570  0.0784 -0.5717  0.7381
16218SOL     OW49941   1.234   3.337   6.060  0.1066 -0.0465  0.1374
16218SOL    HW149942   1.188   3.294   5.988 -0.3352  0.1043  0.3248
16218SOL    HW249943   1.257   3.266   6.120  0.6081 -0.1911 -0.2195
16219SOL     OW49944   0.770   3.444   0.942 -0.2916  0.3175 -0.3969
16219SOL    HW149945   0.821   3.458   0.862 -0.4013  0.0522 -0.5135
16219SOL    HW249946   0.778   3.526   0.990 -1.5638  1.0948 -1.4313
16220SOL     OW49947   4.270   1.432   4.134  0.1796  0.3595 -0.3777
16220SOL    HW149948   4.235   1.360   4.187 -0.9952  0.7405 -0.6111
16220SOL    HW249949   4.218   1.508   4.160  1.3015  1.1096 -0.2434
16221SOL     OW49950   8.120   0.637   1.258  0.2403  0.4664 -0.0170
16221SOL    HW149951   8.076   0.561   1.221 -0.2696  1.1551 -0.8495
16221SOL    HW249952   8.210   0.631   1.227  0.3077 -0.0240  0.2725
16222SOL     OW49953   0.586   2.357   2.088  0.4767  0.3152 -0.4550
16222SOL    HW149954   0.576   2.354   1.993 -0.4524 -0.2986 -0.3560
16222SOL    HW249955   0.657   2.419   2.103  0.0232  1.1213 -1.5093
16223SOL     OW49956   8.364   2.839   7.585 -0.2505  0.3662 -0.1730
16223SOL    HW149957   8.331   2.928   7.599 -1.0996  0.0319  0.0306
16223SOL    HW249958   8.299   2.798   7.527  1.2608  0.5431 -2.0855
16224SOL     OW49959   1.981   8.654   1.291 -0.9740  0.6459 -0.2859
16224SOL    HW149960   2.057   8.700   1.328 -2.2214  0.6443  2.5196
16224SOL    HW249961   1.935   8.722   1.241 -0.3793  1.2862  0.0094
16225SOL     OW49962   0.351   7.385   3.423  0.8294  0.2500  0.3006
16225SOL    HW149963   0.288   7.314   3.410 -0.3157  1.2507  0.1917
16225SOL    HW249964   0.337   7.412   3.514  1.1258  0.4523  0.2854
16226SOL     OW49965   5.315   1.713   6.812 -0.7618  0.0417 -0.6970
16226SOL    HW149966   5.254   1.765   6.760 -1.9411  0.0250  0.6215
16226SOL    HW249967   5.353   1.651   6.749 -0.7755  1.2036 -1.8887
16227SOL     OW49968   8.439   4.014   0.536  0.2719 -0.4578  0.3019
16227SOL    HW149969   8.531   4.022   0.557 -0.0705  1.7400  1.1643
16227SOL    HW249970   8.414   4.099   0.500 -2.1224  0.2599  3.1875
16228SOL     OW49971   7.150   5.634   1.488 -0.8042 -0.4508  0.4354
16228SOL    HW149972   7.170   5.541   1.479  3.5154  0.2475  0.8919
16228SOL    HW249973   7.102   5.656   1.408  0.0618 -2.6286 -0.7596
16229SOL     OW49974   1.029   5.831   0.896  0.1183 -0.3319 -0.2405
16229SOL    HW149975   0.990   5.832   0.808  0.8635 -0.7921 -0.5936
16229SOL    HW249976   1.039   5.924   0.919  1.3422 -0.1486 -1.3244
16230SOL     OW49977   8.041   2.499   2.764 -0.1513  0.2966  0.2045
16230SOL    HW149978   7.988   2.423   2.740 -0.2946 -0.0381  1.5068
16230SOL    HW249979   7.979   2.557   2.808  0.3961  0.2493  1.0451
16231SOL     OW49980   3.192   5.479   6.041  0.7141 -0.4689  0.5514
16231SOL    HW149981   3.245   5.491   6.120 -0.2196  0.9988  0.9955
16231SOL    HW249982   3.108   5.520   6.062  0.0580 -1.0426 -0.8172
16232SOL     OW49983   3.488   0.523   3.742  0.1158  0.6448 -0.2641
16232SOL    HW149984   3.522   0.435   3.725  0.5436  0.1810  2.5265
16232SOL    HW249985   3.519   0.576   3.669  0.2068 -1.4072 -1.7882
16233SOL     OW49986   2.358   5.007   8.479 -0.2650  0.1571 -0.1412
16233SOL    HW149987   2.424   5.060   8.434  1.4519 -0.1185  1.8968
16233SOL    HW249988   2.407   4.932   8.513 -1.1649  0.8501  2.9960
16234SOL     OW49989   4.493   0.365   2.148  0.6408 -0.1587  0.1084
16234SOL    HW149990   4.566   0.393   2.203  1.1990 -1.3650  0.0183
16234SOL    HW249991   4.415   0.387   2.198  1.1072 -0.0790  0.8114
16235SOL     OW49992   3.044   8.631   8.133  0.8715 -0.0213  0.3609
16235SOL    HW149993   2.973   8.678   8.090  3.2017  2.0782 -1.4534
16235SOL    HW249994   3.055   8.552   8.080  1.4550  0.8640 -0.8835
16236SOL     OW49995   2.480   7.605   5.421 -0.1571  0.2600 -0.8908
16236SOL    HW149996   2.531   7.544   5.367 -1.9633 -1.1202 -1.1635
16236SOL    HW249997   2.391   7.600   5.384 -0.8642  1.2686  0.5946
16237SOL     OW49998   1.723   7.868   1.782  0.0743 -0.1237 -0.0863
16237SOL    HW149999   1.674   7.938   1.824 -0.7667 -0.1346 -1.0188
16237SOL    HW250000   1.658   7.819   1.732  0.9819 -0.2925 -1.1437
16238SOL     OW50001   1.803   2.776   2.272  0.3496  0.6767  0.3390
16238SOL    HW150002   1.817   2.682   2.262  0.3885  0.0809  4.4320
16238SOL    HW250003   1.708   2.787   2.259  0.0790 -0.2214  1.4569
16239SOL     OW50004   5.475   0.985   6.336  0.4893  0.1287  0.1700
16239SOL    HW150005   5.473   0.891   6.351  0.6468  0.4824  2.9421
16239SOL    HW250006   5.402   1.001   6.276  0.2090 -1.7082 -0.0324
16240SOL     OW50007   6.899   0.562   4.021 -0.0154  0.2680 -0.2010
16240SOL    HW150008   6.920   0.640   4.072  0.7406  0.2274 -0.4390
16240SOL    HW250009   6.956   0.494   4.057 -1.0175 -0.3027  0.3319
16241SOL     OW50010   7.409   7.654   7.347 -0.1734  0.5819  0.2962
16241SOL    HW150011   7.320   7.645   7.313 -0.0067  0.4845 -0.1319
16241SOL    HW250012   7.401   7.712   7.422 -0.3157  2.2866 -0.9720
16242SOL     OW50013   7.783   5.198   6.211 -0.4003 -0.1827 -0.3744
16242SOL    HW150014   7.865   5.149   6.213  0.5338  1.2703 -1.2516
16242SOL    HW250015   7.721   5.143   6.260  0.7634 -1.8677 -0.6986
16243SOL     OW50016   4.022   2.304   1.175  0.1870 -0.4478  0.4676
16243SOL    HW150017   3.952   2.314   1.239  0.6372  1.0755  0.7523
16243SOL    HW250018   4.010   2.376   1.113  0.3709 -1.2953 -0.5903
16244SOL     OW50019   4.461   7.770   7.541 -0.2945  0.5963 -0.2855
16244SOL    HW150020   4.457   7.753   7.635 -0.6582  0.9349 -0.2342
16244SOL    HW250021   4.480   7.864   7.535 -0.5162  0.6247 -0.5491
16245SOL     OW50022   3.337   6.929   2.357  0.4434  0.1862 -0.0672
16245SOL    HW150023   3.342   6.898   2.266  1.3057 -0.8702  0.3229
16245SOL    HW250024   3.410   6.990   2.365  0.7476 -0.2035  0.1007
16246SOL     OW50025   1.963   8.236   5.875  0.1496  0.1925  0.2597
16246SOL    HW150026   1.923   8.310   5.921  0.1285  1.0182 -1.0266
16246SOL    HW250027   1.895   8.168   5.875 -0.8621  1.1521 -0.8624
16247SOL     OW50028   3.276   3.959   0.944  0.0630  0.1209  0.1678
16247SOL    HW150029   3.358   3.994   0.978  0.8588 -1.6495  0.1873
16247SOL    HW250030   3.269   3.995   0.856  0.1759  1.3213  0.6360
16248SOL     OW50031   0.807   4.047   1.183 -0.0759 -0.4729 -0.0653
16248SOL    HW150032   0.737   4.048   1.248  0.2843 -0.6015  0.3304
16248SOL    HW250033   0.815   4.138   1.155  0.3779 -0.2584  0.7399
16249SOL     OW50034   4.743   0.853   0.286  0.1369 -0.1108 -0.2940
16249SOL    HW150035   4.688   0.905   0.344 -0.4586 -1.5917  0.5336
16249SOL    HW250036   4.685   0.826   0.215 -0.2446 -1.6185  0.5433
16250SOL     OW50037   6.917   7.183   3.324 -0.5224  0.5798 -0.5786
16250SOL    HW150038   6.981   7.174   3.254 -0.0135 -0.6818  0.0269
16250SOL    HW250039   6.833   7.163   3.282 -0.1799 -0.5110 -0.7623
16251SOL     OW50040   7.950   2.853   0.126  0.4141  0.0710  0.3420
16251SOL    HW150041   7.973   2.925   0.067 -3.4453 -1.0914 -3.0270
16251SOL    HW250042   7.911   2.895   0.202  1.5335  1.5578  0.1343
16252SOL     OW50043   6.416   4.993   7.545  0.1910 -0.2537  0.4380
16252SOL    HW150044   6.439   4.969   7.635 -0.1643  0.8582  0.8385
16252SOL    HW250045   6.383   5.083   7.551  1.2066  0.2445 -0.9733
16253SOL     OW50046   4.776   0.672   6.836  0.2676  0.6028  0.3270
16253SOL    HW150047   4.868   0.684   6.860  0.4710 -1.9470  1.2071
16253SOL    HW250048   4.779   0.642   6.745  0.1558  1.9428 -0.1388
16254SOL     OW50049   6.309   6.047   4.162 -0.0932 -0.0145 -0.0464
16254SOL    HW150050   6.343   6.134   4.144 -0.5667  0.0829 -0.4898
16254SOL    HW250051   6.315   6.038   4.257  2.2128 -0.4488 -0.1667
16255SOL     OW50052   6.487   3.779   4.189 -0.6318 -0.2441 -0.1266
16255SOL    HW150053   6.469   3.724   4.265 -0.0239 -0.1795  0.0740
16255SOL    HW250054   6.580   3.762   4.170  0.6316  3.2010  2.0039
16256SOL     OW50055   5.938   2.502   6.106  0.4052  0.0362  0.3972
16256SOL    HW150056   5.961   2.543   6.190  0.7051  0.9724 -0.1237
16256SOL    HW250057   5.978   2.415   6.110  0.8182  0.2480  1.0292
16257SOL     OW50058   1.851   3.338   1.953 -0.7164  0.7157  0.0210
16257SOL    HW150059   1.871   3.420   1.908 -2.6561  0.3948 -1.5218
16257SOL    HW250060   1.805   3.365   2.033 -1.4114  1.1288 -0.5166
16258SOL     OW50061   1.052   4.454   6.942  0.0637  0.6788 -0.0029
16258SOL    HW150062   1.010   4.469   6.857 -0.2087 -0.9463 -0.2007
16258SOL    HW250063   0.981   4.458   7.006 -0.4566 -1.7969 -0.3082
16259SOL     OW50064   3.113   0.762   2.279  0.2245 -0.2787 -0.4347
16259SOL    HW150065   3.035   0.736   2.328  0.8245  1.6875  1.7703
16259SOL    HW250066   3.080   0.826   2.215 -0.2102 -0.8123 -0.7492
16260SOL     OW50067   2.530   0.320   0.416 -0.2090 -0.1563  0.5484
16260SOL    HW150068   2.594   0.367   0.362  0.0251 -0.4099  0.6018
16260SOL    HW250069   2.555   0.228   0.407 -0.8274 -0.2966  0.2327
16261SOL     OW50070   7.534   6.945   0.695 -0.3226  0.4762 -0.1591
16261SOL    HW150071   7.622   6.908   0.690  0.1624  1.6130 -0.2509
16261SOL    HW250072   7.479   6.884   0.645  0.9342  1.2989 -2.6785
16262SOL     OW50073   7.683   8.669   2.788 -0.2708  0.5389 -0.2505
16262SOL    HW150074   7.683   8.582   2.827 -1.0297  1.4492  1.9367
16262SOL    HW250075   7.727   8.725   2.852 -0.6762  1.9481 -1.1498
16263SOL     OW50076   0.160   8.292   2.599  0.0659  0.1763 -0.0864
16263SOL    HW150077   0.215   8.367   2.618  0.7116 -0.4532  0.5517
16263SOL    HW250078   0.151   8.293   2.503  0.1445  0.9982 -0.0908
16264SOL     OW50079   0.129   2.255   2.054 -0.5759  0.5385  0.2660
16264SOL    HW150080   0.062   2.196   2.019  0.9149 -2.2463  1.7685
16264SOL    HW250081   0.136   2.230   2.146  1.8825  1.3748  0.3600
16265SOL     OW50082   3.245   0.114   7.909  0.4448 -0.1696 -0.2404
16265SOL    HW150083   3.198   0.042   7.866 -0.2715  0.5725 -0.7346
16265SOL    HW250084   3.318   0.133   7.851  1.6240 -1.5887  0.7248
16266SOL     OW50085   5.945   2.415   2.823  0.3444  0.1820  0.3205
16266SOL    HW150086   5.903   2.499   2.843 -1.6904 -0.5616 -0.5330
16266SOL    HW250087   5.880   2.368   2.770  1.8554 -1.5196 -0.1174
16267SOL     OW50088   0.563   0.858   0.620  0.2617 -0.0953 -0.2756
16267SOL    HW150089   0.584   0.772   0.657 -0.8282  0.4261  1.6764
16267SOL    HW250090   0.502   0.840   0.548 -0.3390 -0.9294  0.4298
16268SOL     OW50091   8.510   7.089   5.818  0.5484 -0.2260  0.1218
16268SOL    HW150092   8.558   7.172   5.824 -0.5204  0.3267  1.6227
16268SOL    HW250093   8.475   7.088   5.728  1.1635  0.5997 -0.1388
16269SOL     OW50094   0.432   0.373   1.566  0.4157  0.4511 -0.4171
16269SOL    HW150095   0.509   0.423   1.538  0.6098 -0.6848 -2.0536
16269SOL    HW250096   0.363   0.401   1.506  0.5015 -1.1104 -1.2988
16270SOL     OW50097   8.455   3.117   7.444  0.0715 -0.1659 -0.3657
16270SOL    HW150098   8.474   3.122   7.351  0.7768 -1.5269 -0.3121
16270SOL    HW250099   8.461   3.024   7.466 -1.7170 -0.0844  0.7168
16271SOL     OW50100   1.106   2.639   2.995  0.2374  0.6301 -0.4623
16271SOL    HW150101   1.065   2.674   3.075  0.7282 -0.8859  0.5045
16271SOL    HW250102   1.200   2.653   3.009  0.3427  0.1241 -0.6460
16272SOL     OW50103   5.746   1.819   8.166  0.8122 -0.3999 -0.5363
16272SOL    HW150104   5.810   1.815   8.237  0.1806  0.7993  0.1574
16272SOL    HW250105   5.663   1.793   8.208  0.0564  2.0953 -0.2619
16273SOL     OW50106   1.590   4.626   1.888  0.1748  0.0398  0.1904
16273SOL    HW150107   1.515   4.671   1.849 -0.6235  0.1168  1.7362
16273SOL    HW250108   1.564   4.533   1.889  0.9899 -0.2352 -1.1571
16274SOL     OW50109   2.855   3.069   7.114 -0.3189  0.4204 -0.3415
16274SOL    HW150110   2.822   2.982   7.092  2.0985 -0.2347 -1.6493
16274SOL    HW250111   2.776   3.119   7.136 -1.7400 -2.2389  1.1800
16275SOL     OW50112   5.182   5.875   7.719  0.6747 -0.1077 -0.2892
16275SOL    HW150113   5.120   5.877   7.646  0.5663  0.0290 -0.1948
16275SOL    HW250114   5.238   5.951   7.705 -0.3027  0.8276  0.5878
16276SOL     OW50115   5.225   0.486   1.007  0.0195 -0.4658  0.3118
16276SOL    HW150116   5.149   0.543   1.011  0.7594  0.4760  2.2126
16276SOL    HW250117   5.219   0.431   1.085  1.6185  0.1171  0.8945
16277SOL     OW50118   0.367   5.034   7.766 -0.3000 -0.2052 -0.0695
16277SOL    HW150119   0.449   4.986   7.761 -0.3647 -0.5110  1.3757
16277SOL    HW250120   0.354   5.070   7.678  1.3985 -0.1072 -0.3012
16278SOL     OW50121   3.997   2.684   4.947  0.4108  0.4302 -0.2817
16278SOL    HW150122   3.998   2.780   4.943 -1.1594  0.5233  0.8702
16278SOL    HW250123   3.993   2.664   5.041 -0.8836 -0.7091 -0.5494
16279SOL     OW50124   3.369   8.689   8.640 -0.3437 -0.7728 -0.0601
16279SOL    HW150125   3.334   8.778   8.636  0.0910 -0.6121 -0.3595
16279SOL    HW250126   3.364   8.657   8.550 -1.9471 -1.6285  0.2832
16280SOL     OW50127   5.931   5.438   6.784 -0.0079  0.1942 -0.0831
16280SOL    HW150128   5.854   5.386   6.759  0.3994 -0.3631 -0.1981
16280SOL    HW250129   5.898   5.496   6.853 -0.7693  0.6830 -0.8314
16281SOL     OW50130   0.862   8.687   4.583  0.3057 -0.6177  0.5997
16281SOL    HW150131   0.906   8.638   4.513 -0.2939 -0.1401 -0.1357
16281SOL    HW250132   0.931   8.739   4.623  0.9349 -1.9752  1.3331
16282SOL     OW50133   3.782   3.686   6.483  0.0457  0.0631 -0.1479
16282SOL    HW150134   3.824   3.655   6.403  1.6778 -0.9234  1.0215
16282SOL    HW250135   3.838   3.758   6.513 -0.4461  0.3095  0.1931
16283SOL     OW50136   1.246   6.191   4.863 -0.7046 -0.0576  0.1921
16283SOL    HW150137   1.263   6.179   4.769 -1.9480  0.0184 -0.0670
16283SOL    HW250138   1.254   6.286   4.876 -0.5803 -0.0625  0.1559
16284SOL     OW50139   4.371   6.641   8.544 -0.2704 -0.5808  0.0942
16284SOL    HW150140   4.391   6.548   8.530 -0.1904 -0.9189  2.1366
16284SOL    HW250141   4.300   6.641   8.607 -1.3929  0.7701 -1.0889
16285SOL     OW50142   1.087   7.528   6.545 -0.2890 -0.2218  0.2230
16285SOL    HW150143   1.180   7.511   6.559 -0.4541 -0.5122  1.0420
16285SOL    HW250144   1.084   7.592   6.474  0.5842  0.5907  0.8940
16286SOL     OW50145   0.347   8.464   0.114 -0.4516  0.9156 -0.3183
16286SOL    HW150146   0.385   8.467   0.026 -0.0103 -0.8931 -0.2119
16286SOL    HW250147   0.292   8.543   0.118 -2.2441 -0.0592 -3.0300
16287SOL     OW50148   8.461   4.934   0.513  0.1451  0.8014  0.2891
16287SOL    HW150149   8.478   4.950   0.420 -0.5904  2.2373  0.3650
16287SOL    HW250150   8.463   4.839   0.522 -0.2610  0.6111 -1.2917
16288SOL     OW50151   3.745   6.789   6.929 -0.2710 -0.6661 -0.0278
16288SOL    HW150152   3.745   6.884   6.945  1.4426 -0.5602 -0.3555
16288SOL    HW250153   3.655   6.768   6.908 -1.1565  0.4930  2.2417
16289SOL     OW50154   0.447   2.739   6.896 -0.1789  0.1583  0.1025
16289SOL    HW150155   0.358   2.759   6.868  0.5746  1.0216 -1.8564
16289SOL    HW250156   0.486   2.824   6.918  0.3025 -0.1545  0.4940
16290SOL     OW50157   6.772   3.979   3.750 -0.0506  0.1434  0.2170
16290SOL    HW150158   6.745   3.974   3.659  0.8980 -2.1160  0.0090
16290SOL    HW250159   6.859   4.018   3.747 -0.4678  1.1160  0.2908
16291SOL     OW50160   0.199   8.040   8.377  0.2118  0.1685  0.0060
16291SOL    HW150161   0.151   7.986   8.439 -0.8733 -0.1387 -1.0674
16291SOL    HW250162   0.131   8.090   8.331  0.9503  0.0955 -1.2001
16292SOL     OW50163   4.373   1.905   3.987 -0.6358  0.2966  0.6088
16292SOL    HW150164   4.390   1.815   3.963  0.0732 -0.1760  2.6737
16292SOL    HW250165   4.449   1.932   4.038 -1.4906  1.5624  1.2962
16293SOL     OW50166   7.306   7.289   6.714 -0.2378  0.1562 -0.5939
16293SOL    HW150167   7.339   7.233   6.643  0.1034  0.9313 -1.0558
16293SOL    HW250168   7.350   7.373   6.700  0.3112  0.1409  0.8986
16294SOL     OW50169   0.872   0.757   3.589 -0.3079 -0.3497  0.3650
16294SOL    HW150170   0.906   0.669   3.607  1.6784  0.4224  0.7185
16294SOL    HW250171   0.852   0.793   3.675  0.9240  0.2636  0.4210
16295SOL     OW50172   5.618   1.501   5.549  0.1650 -0.9976 -0.1031
16295SOL    HW150173   5.584   1.450   5.475  0.0203  1.2204 -1.6700
16295SOL    HW250174   5.709   1.520   5.525  0.0218  0.0181  0.1083
16296SOL     OW50175   0.917   2.856   5.743 -0.1543  0.0945 -0.5157
16296SOL    HW150176   0.838   2.805   5.724 -1.5928  2.4379 -1.2299
16296SOL    HW250177   0.886   2.931   5.793  1.7259  0.7661 -0.2748
16297SOL     OW50178   3.345   8.189   3.185 -0.4740 -0.6527  0.3590
16297SOL    HW150179   3.290   8.111   3.186  0.1758 -1.1183  1.6339
16297SOL    HW250180   3.374   8.200   3.276  0.6157  0.2294 -0.0650
16298SOL     OW50181   0.032   6.760   0.441  0.0390 -0.0819 -0.3344
16298SOL    HW150182   0.001   6.695   0.503  4.2201 -1.5834  0.5018
16298SOL    HW250183   0.005   6.844   0.478 -1.7490 -1.1124  0.8363
16299SOL     OW50184   0.364   0.818   3.963  0.0585  0.1829 -0.2522
16299SOL    HW150185   0.391   0.895   3.913  1.2100  0.7447  1.1622
16299SOL    HW250186   0.398   0.833   4.052  2.6998 -3.0883 -0.4736
16300SOL     OW50187   4.268   4.507   4.554 -0.0039 -0.1929 -0.2325
16300SOL    HW150188   4.240   4.483   4.642  0.0302  0.0911 -0.1415
16300SOL    HW250189   4.363   4.520   4.562 -0.1404  0.8150 -0.0747
16301SOL     OW50190   5.815   4.481   1.663  0.1124  0.0078 -0.1051
16301SOL    HW150191   5.884   4.547   1.663 -0.1393  0.3398  1.6450
16301SOL    HW250192   5.861   4.397   1.658  0.3864  0.2145 -3.7180
16302SOL     OW50193   5.043   7.076   3.312 -0.6177 -0.0788  0.0695
16302SOL    HW150194   5.017   6.987   3.288 -0.3569 -0.0571 -0.3094
16302SOL    HW250195   5.038   7.078   3.408  1.1113 -1.0544  0.2292
16303SOL     OW50196   7.529   4.948   3.850  0.0028  0.0657  0.3967
16303SOL    HW150197   7.519   4.873   3.908 -1.3235  0.7392  1.1140
16303SOL    HW250198   7.560   5.018   3.907  0.6545  0.2272 -0.1422
16304SOL     OW50199   3.331   2.620   7.324 -0.7726 -0.1119 -0.0061
16304SOL    HW150200   3.243   2.582   7.312 -0.0720 -1.3243 -1.7000
16304SOL    HW250201   3.342   2.677   7.248  0.2104 -0.6132 -0.2500
16305SOL     OW50202   2.184   8.085   0.948 -0.6252 -0.4259  0.6813
16305SOL    HW150203   2.224   8.094   1.034 -0.9830  1.3707  0.7025
16305SOL    HW250204   2.255   8.103   0.886 -1.0062  1.2593  0.6907
16306SOL     OW50205   0.449   4.318   6.052  0.3566  0.0469 -0.8921
16306SOL    HW150206   0.498   4.274   5.982 -1.9285  2.0645 -4.0768
16306SOL    HW250207   0.357   4.308   6.026 -0.5703  1.5342  1.4984
16307SOL     OW50208   2.362   1.381   8.312  0.1200 -0.2527  0.2687
16307SOL    HW150209   2.439   1.429   8.281 -0.7112  2.1014  1.6166
16307SOL    HW250210   2.288   1.435   8.284 -0.9471 -1.4058  0.7853
16308SOL     OW50211   2.101   5.679   1.920 -0.5576  0.1505  0.1696
16308SOL    HW150212   2.109   5.588   1.892  0.9672  0.3776 -0.2496
16308SOL    HW250213   2.104   5.729   1.839  0.1231  0.6301  0.4830
16309SOL     OW50214   5.497   7.734   7.933 -0.2090 -0.4072 -0.0485
16309SOL    HW150215   5.572   7.677   7.951 -0.1830 -0.9534 -1.7572
16309SOL    HW250216   5.421   7.681   7.957 -0.0953  0.7516  3.3522
16310SOL     OW50217   1.943   6.822   8.570  0.1742  0.2109  0.3393
16310SOL    HW150218   1.931   6.917   8.560  1.5780  0.2828 -1.0980
16310SOL    HW250219   2.014   6.814   8.634  0.2033  0.1311  0.2965
16311SOL     OW50220   6.488   1.453   1.532 -0.1804  0.2100  0.3073
16311SOL    HW150221   6.403   1.424   1.563 -0.5698  0.7490 -0.2371
16311SOL    HW250222   6.468   1.514   1.461  0.6638 -0.3048 -0.3907
16312SOL     OW50223   4.248   2.660   5.878 -0.0656 -0.2330  0.3455
16312SOL    HW150224   4.157   2.665   5.908 -0.0867  0.0543  0.2294
16312SOL    HW250225   4.264   2.742   5.832  0.0599 -0.5439 -0.1815
16313SOL     OW50226   1.595   8.113   7.510  0.6341 -0.5627  0.0794
16313SOL    HW150227   1.557   8.170   7.444 -0.9814 -2.7885 -1.0649
16313SOL    HW250228   1.581   8.024   7.476  1.9928 -1.7109  2.2604
16314SOL     OW50229   5.233   4.645   5.222 -0.1407 -0.2685 -0.0189
16314SOL    HW150230   5.186   4.664   5.303 -1.2773  1.3187 -0.9959
16314SOL    HW250231   5.175   4.588   5.173 -0.3214  0.3134 -0.5022
16315SOL     OW50232   7.290   5.156   0.539 -0.0042  0.0602  0.0635
16315SOL    HW150233   7.346   5.222   0.580  2.3769 -1.5059 -0.4629
16315SOL    HW250234   7.329   5.072   0.564 -1.4581 -1.0918 -1.2775
16316SOL     OW50235   1.395   7.998   6.598  0.1202 -0.1529  0.2627
16316SOL    HW150236   1.467   7.995   6.661 -0.7616 -1.2265  1.2725
16316SOL    HW250237   1.433   8.039   6.520  1.5183  0.2831  1.1339
16317SOL     OW50238   8.469   3.264   3.692 -0.3455 -0.4382  0.6112
16317SOL    HW150239   8.436   3.177   3.717  0.3224 -1.0276 -0.4729
16317SOL    HW250240   8.418   3.325   3.745 -1.0089 -1.4801  1.2112
16318SOL     OW50241   1.071   1.039   5.033  0.7122 -0.2144  0.3351
16318SOL    HW150242   1.138   1.107   5.034  1.7401 -1.1971  0.1540
16318SOL    HW250243   1.016   1.060   4.958  0.7601  0.6507  0.5317
16319SOL     OW50244   1.401   1.267   3.892  0.8275  0.2084 -0.3524
16319SOL    HW150245   1.419   1.317   3.972 -1.7386 -2.2852  2.0027
16319SOL    HW250246   1.311   1.289   3.869  0.3659 -1.6137 -0.4818
16320SOL     OW50247   2.974   4.705   3.273  0.1109  0.0421  0.2558
16320SOL    HW150248   3.042   4.760   3.315 -0.4457  1.1001 -0.1920
16320SOL    HW250249   3.014   4.676   3.191 -0.1313  1.1024 -0.2635
16321SOL     OW50250   4.641   4.146   0.228  0.1577 -0.3300  0.2316
16321SOL    HW150251   4.623   4.102   0.145  0.1148  2.5928 -1.4250
16321SOL    HW250252   4.592   4.095   0.293 -2.1247 -1.1202 -1.9470
16322SOL     OW50253   3.986   6.097   7.570  0.1336  0.1700  0.4018
16322SOL    HW150254   3.952   6.012   7.600 -1.9413  0.6629 -0.3910
16322SOL    HW250255   4.010   6.082   7.479  0.6841  0.1994  0.5401
16323SOL     OW50256   5.712   8.063   0.643 -0.4135  0.4740  0.3925
16323SOL    HW150257   5.707   8.053   0.738  0.5622 -1.3830  0.3056
16323SOL    HW250258   5.799   8.098   0.627  0.9633 -2.6996  0.0871
16324SOL     OW50259   5.782   2.833   5.948  0.1258 -0.0002  0.2246
16324SOL    HW150260   5.704   2.844   6.003 -1.0547 -0.0136 -1.3651
16324SOL    HW250261   5.810   2.743   5.964  0.6541  0.4247  1.8277
16325SOL     OW50262   1.435   1.741   1.325  0.1127  0.7137 -0.5855
16325SOL    HW150263   1.353   1.693   1.316  0.6073 -0.0101 -1.3243
16325SOL    HW250264   1.496   1.696   1.266  1.2275  0.8314  0.4484
16326SOL     OW50265   1.269   0.581   7.335 -0.5389  0.2799  0.5331
16326SOL    HW150266   1.199   0.598   7.272 -0.7975 -0.7777  0.5166
16326SOL    HW250267   1.338   0.643   7.311 -1.1399  0.7770  0.0347
16327SOL     OW50268   7.476   1.484   5.059 -0.3852 -0.4270  0.2297
16327SOL    HW150269   7.398   1.536   5.075 -1.2041 -1.3053 -0.7078
16327SOL    HW250270   7.468   1.409   5.118 -0.3416 -0.6082  0.0072
16328SOL     OW50271   1.830   3.901   0.412 -0.0466 -0.3901  0.3856
16328SOL    HW150272   1.921   3.928   0.401  0.2170 -0.8436  1.3283
16328SOL    HW250273   1.780   3.982   0.411  0.5968  0.0651  1.9361
16329SOL     OW50274   0.373   1.246   8.195  0.1714 -0.0277  0.0999
16329SOL    HW150275   0.426   1.188   8.251 -1.2913 -0.2759  1.2968
16329SOL    HW250276   0.296   1.267   8.249 -1.9461 -1.2564 -2.2541
16330SOL     OW50277   2.083   8.566   2.586  0.2350 -0.0150  0.0857
16330SOL    HW150278   2.022   8.638   2.604  1.5113  1.7595 -2.1056
16330SOL    HW250279   2.067   8.503   2.656 -1.0900  2.2964  2.0282
16331SOL     OW50280   5.791   4.580   7.103  0.2807 -0.1449 -0.4033
16331SOL    HW150281   5.864   4.641   7.095 -0.3970  0.6055 -1.1566
16331SOL    HW250282   5.771   4.555   7.013  0.1496 -1.0213 -0.1461
16332SOL     OW50283   6.724   2.787   7.185  0.7003 -0.1548  0.1005
16332SOL    HW150284   6.726   2.710   7.128 -1.0586  0.2784 -0.6249
16332SOL    HW250285   6.759   2.756   7.269  3.0123 -0.8985 -1.0603
16333SOL     OW50286   4.718   4.209   5.332  0.0674  0.0889  0.3827
16333SOL    HW150287   4.801   4.193   5.287 -1.2818  0.6972 -2.5061
16333SOL    HW250288   4.704   4.304   5.322 -1.5943 -0.2142 -0.3866
16334SOL     OW50289   5.393   1.711   5.417  0.2463  0.7319 -0.3408
16334SOL    HW150290   5.449   1.640   5.446 -0.6215 -0.0466 -0.5220
16334SOL    HW250291   5.354   1.680   5.335 -0.7970  1.0493  0.0115
16335SOL     OW50292   0.163   2.912   5.523  0.3076  0.5060  0.3888
16335SOL    HW150293   0.173   2.825   5.562  0.5932  0.5488  0.4158
16335SOL    HW250294   0.252   2.946   5.520  0.3096  0.4304 -0.4797
16336SOL     OW50295   4.895   7.242   3.133  0.1784 -0.1226  0.1339
16336SOL    HW150296   4.952   7.205   3.201  0.3674 -1.8249 -0.8928
16336SOL    HW250297   4.935   7.326   3.111  0.0103  0.5746  2.2184
16337SOL     OW50298   5.295   6.400   4.307 -0.3442  0.1424  0.3415
16337SOL    HW150299   5.279   6.393   4.213 -0.6502 -1.2532  0.4669
16337SOL    HW250300   5.384   6.435   4.314  1.0792 -2.9230 -0.5795
16338SOL     OW50301   3.766   0.289   4.259  0.4404  0.5614 -0.2696
16338SOL    HW150302   3.789   0.197   4.247 -0.9709  0.0700  0.4814
16338SOL    HW250303   3.750   0.297   4.354 -0.1037  1.3956 -0.4207
16339SOL     OW50304   0.140   7.768   5.233  0.4845 -0.1671 -0.0338
16339SOL    HW150305   0.157   7.742   5.142 -0.8184  0.3076 -0.4506
16339SOL    HW250306   0.108   7.688   5.275 -0.1133 -0.1041 -0.3500
16340SOL     OW50307   0.267   5.201   3.926 -0.5780 -0.1521  0.1436
16340SOL    HW150308   0.246   5.215   3.834 -0.5971 -2.0787 -0.1809
16340SOL    HW250309   0.182   5.194   3.970 -0.5691  0.7562  0.3299
16341SOL     OW50310   6.058   1.744   0.087 -0.1126  0.1597  0.0023
16341SOL    HW150311   6.029   1.832   0.062 -1.0250 -0.1426 -0.0365
16341SOL    HW250312   6.056   1.694   0.006  2.5835  0.6329 -0.4416
16342SOL     OW50313   4.518   0.523   6.192 -0.2049 -0.1545  0.0616
16342SOL    HW150314   4.425   0.538   6.209  0.3972  2.1859  1.6942
16342SOL    HW250315   4.535   0.567   6.109 -0.2863  0.7396  0.5042
16343SOL     OW50316   7.917   4.230   4.453  0.9115  0.4489  0.1105
16343SOL    HW150317   7.921   4.182   4.371  2.7501 -1.7081  1.3420
16343SOL    HW250318   7.839   4.198   4.497 -0.1730  1.7334 -0.7867
16344SOL     OW50319   2.389   5.616   1.013  0.1614 -0.6644 -0.3497
16344SOL    HW150320   2.457   5.678   0.986  0.2194  0.4765  2.1843
16344SOL    HW250321   2.399   5.609   1.108 -2.2067 -1.7776 -0.1186
16345SOL     OW50322   0.506   3.462   5.575 -0.3527 -0.2310 -0.4588
16345SOL    HW150323   0.569   3.396   5.602 -0.8652 -0.3724  0.4291
16345SOL    HW250324   0.479   3.505   5.656 -1.7727 -0.5217 -0.7537
16346SOL     OW50325   7.525   1.865   6.840 -0.5903 -0.5498  0.2853
16346SOL    HW150326   7.448   1.896   6.793  0.6358  0.0779 -1.4127
16346SOL    HW250327   7.515   1.900   6.929 -1.5688  0.7060 -0.2878
16347SOL     OW50328   7.194   2.042   2.959  0.4036  0.2309  0.1090
16347SOL    HW150329   7.170   2.114   2.901  0.8376 -0.6646 -1.2455
16347SOL    HW250330   7.132   1.972   2.938  1.2726 -0.5017 -0.1150
16348SOL     OW50331   1.790   5.677   0.417  0.0174  0.4921 -0.2741
16348SOL    HW150332   1.769   5.586   0.398  1.1119  0.3688 -0.9757
16348SOL    HW250333   1.758   5.726   0.341 -0.6936  0.7202  0.1629
16349SOL     OW50334   6.582   1.458   7.676  0.2023 -0.1038 -0.0855
16349SOL    HW150335   6.677   1.446   7.680  0.0638 -1.3876 -0.1533
16349SOL    HW250336   6.552   1.438   7.764 -0.0389  0.0068 -0.1425
16350SOL     OW50337   4.945   4.569   3.222 -0.6450  0.5555 -0.6579
16350SOL    HW150338   5.030   4.581   3.181 -0.5434 -0.6552 -0.8467
16350SOL    HW250339   4.894   4.646   3.195  0.4443  1.3979 -0.3568
16351SOL     OW50340   0.777   0.807   8.482 -0.3549  0.1633  0.3346
16351SOL    HW150341   0.851   0.835   8.429 -0.8330  1.0732  0.1244
16351SOL    HW250342   0.776   0.867   8.557 -0.5322 -0.2107  0.6426
16352SOL     OW50343   4.188   0.783   2.691  0.2330 -0.7246 -0.4208
16352SOL    HW150344   4.190   0.826   2.776 -0.7816 -0.2177 -0.6423
16352SOL    HW250345   4.120   0.717   2.699  1.2950 -1.8552 -0.3121
16353SOL     OW50346   1.094   4.041   0.954  0.3196 -0.1541 -0.4274
16353SOL    HW150347   1.049   3.971   1.001  0.9202  0.8335  1.7571
16353SOL    HW250348   1.151   4.081   1.020  1.0174  1.5164 -1.9568
16354SOL     OW50349   5.732   3.996   3.403  0.1148 -0.1393 -0.0297
16354SOL    HW150350   5.693   3.918   3.443 -1.3178  0.6823  0.2576
16354SOL    HW250351   5.660   4.059   3.399  1.0038  0.8433 -1.1380
16355SOL     OW50352   5.196   5.200   3.658 -0.0242 -0.6092 -0.7149
16355SOL    HW150353   5.202   5.245   3.574 -0.1623  0.1144 -0.3441
16355SOL    HW250354   5.222   5.110   3.639  1.3862 -0.1198 -1.2563
16356SOL     OW50355   6.610   5.318   0.153 -0.3656 -0.2651  0.0918
16356SOL    HW150356   6.526   5.361   0.164 -0.0776  0.3268  0.0236
16356SOL    HW250357   6.674   5.389   0.161  0.2566 -0.9700  2.1726
16357SOL     OW50358   2.279   5.697   5.610  0.8462  0.1886 -0.1284
16357SOL    HW150359   2.287   5.610   5.650  1.8324  0.3079 -0.0428
16357SOL    HW250360   2.339   5.695   5.535 -1.6114 -0.3403 -2.2281
16358SOL     OW50361   7.477   2.318   5.454 -0.3054 -0.2801 -0.5148
16358SOL    HW150362   7.460   2.225   5.466 -0.5587  0.0530  2.2653
16358SOL    HW250363   7.549   2.338   5.514 -0.7893  1.4670 -0.4580
16359SOL     OW50364   0.223   5.981   2.114  0.4135 -0.3305  0.7042
16359SOL    HW150365   0.283   6.044   2.075  2.4317 -1.6099  1.5795
16359SOL    HW250366   0.190   6.024   2.193  0.2743  0.3301  0.2904
16360SOL     OW50367   7.146   2.979   3.417  0.2562 -0.4286  0.3189
16360SOL    HW150368   7.097   3.026   3.484  1.7767  0.6186  0.7346
16360SOL    HW250369   7.162   3.044   3.349  1.7849 -0.5022  0.5778
16361SOL     OW50370   6.366   5.307   0.293  0.0903 -0.0254  0.7193
16361SOL    HW150371   6.327   5.310   0.380  0.9524 -0.0384  1.1155
16361SOL    HW250372   6.371   5.214   0.271  1.4602 -0.1487  1.4114
16362SOL     OW50373   0.135   3.705   7.414 -0.0289  0.0380 -0.5875
16362SOL    HW150374   0.163   3.781   7.363  1.5657 -0.1554 -0.0309
16362SOL    HW250375   0.117   3.638   7.348  1.9842 -0.1967 -0.9586
16363SOL     OW50376   3.007   4.931   4.601 -0.2880  0.1519 -0.4544
16363SOL    HW150377   2.985   5.020   4.572  1.5324  0.8578  0.1350
16363SOL    HW250378   2.939   4.909   4.664 -0.8827  1.0458 -0.7528
16364SOL     OW50379   0.100   1.961   7.767 -0.2453  0.5748  0.3309
16364SOL    HW150380   0.079   2.048   7.733  1.7245 -0.2687 -3.6668
16364SOL    HW250381   0.046   1.901   7.716  0.3226 -0.6875  1.1560
16365SOL     OW50382   1.166   4.971   0.435  0.4118  0.1592  0.3176
16365SOL    HW150383   1.130   5.036   0.496 -0.7624 -1.1105  1.0506
16365SOL    HW250384   1.089   4.928   0.398  1.1235 -1.8097  0.9795
16366SOL     OW50385   8.012   6.455   4.955  0.5526  0.2645  0.1928
16366SOL    HW150386   8.067   6.527   4.924 -0.3949 -0.1059 -2.6334
16366SOL    HW250387   7.944   6.498   5.008  1.5632  1.0985  0.8477
16367SOL     OW50388   1.539   5.978   4.446  0.1246  0.0089  0.0190
16367SOL    HW150389   1.611   5.917   4.460 -1.5964 -1.9125  0.9770
16367SOL    HW250390   1.518   5.969   4.353  1.2500  0.8103 -0.3421
16368SOL     OW50391   5.012   3.592   6.051  0.4638  0.1235  0.0602
16368SOL    HW150392   5.010   3.502   6.019  0.2852 -0.7656  2.4219
16368SOL    HW250393   5.087   3.632   6.006 -1.0590 -0.2772 -3.1528
16369SOL     OW50394   2.123   1.349   0.303 -0.2047  0.3266 -0.2659
16369SOL    HW150395   2.175   1.358   0.382 -2.1522  0.9019  1.0197
16369SOL    HW250396   2.033   1.343   0.334 -0.8387 -2.7816 -2.2404
16370SOL     OW50397   2.855   3.551   1.425 -0.0661 -0.1101  0.2711
16370SOL    HW150398   2.820   3.640   1.427  1.1132  0.3884 -0.2925
16370SOL    HW250399   2.873   3.534   1.333  1.1342 -0.3398  0.5219
16371SOL     OW50400   8.282   3.450   7.717  0.3735  0.6889  0.3642
16371SOL    HW150401   8.234   3.532   7.719  0.7579  0.9275  0.0828
16371SOL    HW250402   8.358   3.468   7.661  0.5790  0.2090  0.4788
16372SOL     OW50403   1.475   6.629   3.347 -0.2481 -0.1115 -0.0038
16372SOL    HW150404   1.430   6.686   3.409  1.0656  0.6533  0.2809
16372SOL    HW250405   1.539   6.581   3.399  0.9895  0.6616 -0.7569
16373SOL     OW50406   7.741   6.557   3.717 -0.0253 -0.0023 -0.0152
16373SOL    HW150407   7.752   6.630   3.778 -0.7892  0.9053 -0.9372
16373SOL    HW250408   7.822   6.556   3.666  1.1372 -1.4996  1.7051
16374SOL     OW50409   5.254   7.767   2.692 -0.3776  0.3816 -0.2635
16374SOL    HW150410   5.173   7.785   2.739 -1.7334 -0.4747 -2.1311
16374SOL    HW250411   5.275   7.848   2.647 -0.6375  0.3705 -0.4033
16375SOL     OW50412   2.647   7.272   8.547  0.2015 -0.0688  0.1674
16375SOL    HW150413   2.592   7.195   8.561 -0.1734  0.2635  0.5094
16375SOL    HW250414   2.586   7.345   8.541  0.6016  0.2944  0.5052
16376SOL     OW50415   3.885   6.210   2.763 -0.5976  0.3730  0.3704
16376SOL    HW150416   3.940   6.156   2.819 -1.6624 -0.0417  1.0504
16376SOL    HW250417   3.803   6.161   2.756 -1.1545  1.3283  0.0153
16377SOL     OW50418   0.802   1.315   5.990  0.3784  0.2237 -0.1948
16377SOL    HW150419   0.729   1.377   5.990 -0.3931 -0.6574 -1.0064
16377SOL    HW250420   0.841   1.324   6.077  0.0306  1.5424 -0.1575
16378SOL     OW50421   0.263   1.724   7.596  0.0634 -0.0583  0.3253
16378SOL    HW150422   0.171   1.715   7.622 -0.2294  0.6445 -0.4217
16378SOL    HW250423   0.303   1.773   7.667  0.1822 -1.5146  1.2950
16379SOL     OW50424   8.056   5.165   4.534  0.1874 -0.0249 -0.0939
16379SOL    HW150425   8.023   5.182   4.446  2.0230  0.5401 -0.7248
16379SOL    HW250426   8.054   5.250   4.578 -0.4471 -0.2478  0.3111
16380SOL     OW50427   0.597   8.662   6.328  0.1288  0.3191 -0.3263
16380SOL    HW150428   0.536   8.640   6.257  0.4231  0.9769 -0.7866
16380SOL    HW250429   0.670   8.600   6.317 -0.5277 -0.6121  0.3533
16381SOL     OW50430   5.678   0.442   2.354 -0.0581  0.2171  0.2846
16381SOL    HW150431   5.732   0.365   2.336 -1.4287 -1.0656  1.3567
16381SOL    HW250432   5.733   0.516   2.331  1.5841 -1.0588 -0.0949
16382SOL     OW50433   7.153   5.446   7.528 -0.1257  0.3159  0.4409
16382SOL    HW150434   7.156   5.449   7.433  0.8149 -0.5128  0.4169
16382SOL    HW250435   7.060   5.436   7.550 -0.1673 -2.1822 -0.5359
16383SOL     OW50436   3.317   7.213   4.695  0.0565 -0.1159 -0.0795
16383SOL    HW150437   3.380   7.163   4.746  0.1029  0.0887  0.0640
16383SOL    HW250438   3.255   7.147   4.663 -1.0658 -0.0706  1.7954
16384SOL     OW50439   5.395   3.187   3.294 -0.6339 -0.0612  0.6434
16384SOL    HW150440   5.338   3.261   3.276  0.8131  0.4891 -2.3333
16384SOL    HW250441   5.482   3.226   3.304 -0.1363 -1.1976  0.9146
16385SOL     OW50442   3.295   7.000   3.598  0.7206 -0.1264 -0.9722
16385SOL    HW150443   3.293   7.008   3.502 -1.1298  2.0435 -0.8375
16385SOL    HW250444   3.328   7.085   3.628  1.7430 -0.9537  0.3360
16386SOL     OW50445   0.469   0.144   7.608 -0.4003  0.3247  0.2623
16386SOL    HW150446   0.392   0.175   7.656 -0.9688 -1.4700  0.5627
16386SOL    HW250447   0.435   0.115   7.523  0.5082  2.8628 -1.0943
16387SOL     OW50448   8.530   6.705   4.789  0.3916 -0.2365 -0.0356
16387SOL    HW150449   8.611   6.753   4.809 -0.9617  1.8465  0.7485
16387SOL    HW250450   8.542   6.621   4.833  2.5540 -0.4209 -0.8383
16388SOL     OW50451   7.836   6.482   8.118  0.1418 -0.3991 -0.0867
16388SOL    HW150452   7.822   6.542   8.045 -2.0949 -0.5979  0.1341
16388SOL    HW250453   7.907   6.425   8.089 -0.5685 -0.3579 -2.0200
16389SOL     OW50454   3.347   3.700   5.608 -0.4181 -0.3037  0.2204
16389SOL    HW150455   3.288   3.634   5.571 -0.1523 -0.9756  0.9749
16389SOL    HW250456   3.430   3.687   5.562 -0.7142  0.3492 -0.5250
16390SOL     OW50457   0.481   7.420   2.241  0.1703  0.0546 -0.2358
16390SOL    HW150458   0.504   7.502   2.284  1.7008 -0.7485  0.5708
16390SOL    HW250459   0.564   7.386   2.208 -0.6161 -0.5991 -1.6135
16391SOL     OW50460   5.104   4.754   0.637 -0.3474 -0.7112 -0.5259
16391SOL    HW150461   5.094   4.841   0.599 -0.9819 -1.5118 -2.2896
16391SOL    HW250462   5.019   4.712   0.625  0.3498 -2.0542 -0.9819
16392SOL     OW50463   2.337   5.580   2.801 -0.2512 -0.0065  0.4396
16392SOL    HW150464   2.346   5.644   2.872  0.1319 -0.3283  0.6850
16392SOL    HW250465   2.359   5.497   2.841  0.6945 -0.0961 -0.2356
16393SOL     OW50466   8.540   4.591   3.680 -0.1461  0.2109  0.5664
16393SOL    HW150467   8.574   4.636   3.758 -3.5403  0.6840  1.9341
16393SOL    HW250468   8.595   4.513   3.672  1.2224  0.8764  2.5470
16394SOL     OW50469   4.316   5.304   6.275 -0.6109  0.7206 -0.0110
16394SOL    HW150470   4.398   5.338   6.309  0.1014 -0.0530 -0.8877
16394SOL    HW250471   4.251   5.373   6.293  0.3735  1.6532  0.0463
16395SOL     OW50472   6.916   3.831   0.206  0.3385 -0.3470 -0.4287
16395SOL    HW150473   6.821   3.833   0.190  0.5539  0.5283 -1.7879
16395SOL    HW250474   6.945   3.921   0.189  1.5922 -0.8896 -1.3373
16396SOL     OW50475   2.826   8.666   1.992  0.5241  0.0144  0.4270
16396SOL    HW150476   2.909   8.695   2.031  0.7562 -0.9543  0.6809
16396SOL    HW250477   2.788   8.608   2.058 -0.7245  1.0282  0.6229
16397SOL     OW50478   7.486   4.947   0.848  0.1985  0.3483  0.5838
16397SOL    HW150479   7.450   4.935   0.760 -0.6283 -1.6320  1.1381
16397SOL    HW250480   7.580   4.960   0.834  0.4736 -2.1815 -0.5210
16398SOL     OW50481   1.705   4.956   8.055 -0.6426 -0.5960  0.2191
16398SOL    HW150482   1.657   4.874   8.042 -2.1569  0.5292 -1.8796
16398SOL    HW250483   1.795   4.936   8.031 -0.1813 -2.4472  3.0478
16399SOL     OW50484   0.477   2.739   4.355 -0.1240  0.4063  0.3839
16399SOL    HW150485   0.525   2.822   4.358 -0.6790  0.8883 -1.9720
16399SOL    HW250486   0.410   2.752   4.288 -0.1210 -1.9974 -0.1845
16400SOL     OW50487   6.067   6.195   4.376 -0.3106 -0.6600  0.0982
16400SOL    HW150488   6.046   6.263   4.440 -1.6423  0.3483 -1.3369
16400SOL    HW250489   6.158   6.172   4.394  0.0783  1.2822  0.8253
16401SOL     OW50490   4.554   6.390   7.452 -0.6246 -0.7476 -0.3994
16401SOL    HW150491   4.538   6.298   7.472 -0.8608 -0.5718  0.2455
16401SOL    HW250492   4.557   6.433   7.537 -0.2526 -0.1989 -0.6864
16402SOL     OW50493   6.003   1.510   7.262  0.0250 -0.2482  0.2311
16402SOL    HW150494   6.025   1.600   7.240  1.4304 -0.2349  1.5637
16402SOL    HW250495   6.023   1.502   7.355 -1.3047 -1.5914  0.4449
16403SOL     OW50496   1.243   0.323   7.776 -0.1399  0.0330  0.6278
16403SOL    HW150497   1.238   0.410   7.815 -0.0621  0.2906  0.0626
16403SOL    HW250498   1.152   0.297   7.764 -0.1612  0.2485  0.3223
16404SOL     OW50499   2.632   0.402   7.706  0.5015  0.0129  0.8932
16404SOL    HW150500   2.720   0.410   7.741  0.3304  1.3648  1.0537
16404SOL    HW250501   2.611   0.489   7.672 -0.5943 -0.4065  0.4292
16405SOL     OW50502   1.679   1.071   2.698 -0.3616 -0.2300 -0.1419
16405SOL    HW150503   1.732   1.038   2.625 -0.4150 -2.0721  0.5963
16405SOL    HW250504   1.592   1.082   2.660  0.1840  1.4022 -0.9951
16406SOL     OW50505   7.498   2.775   0.194 -0.4733  0.2595 -0.0408
16406SOL    HW150506   7.510   2.869   0.207  0.5545  0.2525 -0.8269
16406SOL    HW250507   7.448   2.768   0.113  0.9502  0.1179 -0.9485
16407SOL     OW50508   8.635   0.662   3.972  0.6293  0.4172 -0.1797
16407SOL    HW150509   8.714   0.629   4.015  1.0972  1.3774 -0.2873
16407SOL    HW250510   8.665   0.736   3.920 -0.3159  0.6829 -0.3604
16408SOL     OW50511   6.663   1.007   8.614 -0.3838 -0.1456  0.3346
16408SOL    HW150512   6.744   0.997   8.665 -0.9793 -0.7376  1.1903
16408SOL    HW250513   6.667   0.936   8.549 -0.4086 -0.4350  0.6446
16409SOL     OW50514   0.833   8.677   2.058  0.4511 -0.1522 -0.2713
16409SOL    HW150515   0.820   8.647   2.148 -0.0655  0.9322  0.0361
16409SOL    HW250516   0.912   8.632   2.029 -0.9581 -2.7766 -0.3136
16410SOL     OW50517   2.172   1.314   4.510  0.6732  0.6104 -0.5026
16410SOL    HW150518   2.156   1.310   4.605  2.2531 -2.4331 -0.2325
16410SOL    HW250519   2.088   1.340   4.473 -0.5532 -0.0523  1.6152
16411SOL     OW50520   4.542   2.520   5.752 -0.4652 -0.1566  0.1639
16411SOL    HW150521   4.600   2.505   5.677  0.3381 -3.4135  1.2918
16411SOL    HW250522   4.591   2.580   5.808  1.4977 -2.0414  0.6026
16412SOL     OW50523   7.646   3.364   6.235 -0.0626  0.1480  0.0690
16412SOL    HW150524   7.577   3.348   6.171  0.2232  3.0005 -1.1001
16412SOL    HW250525   7.709   3.420   6.189  2.8312 -1.8799  1.2579
16413SOL     OW50526   0.285   1.636   0.416 -0.3212  0.6423 -0.0814
16413SOL    HW150527   0.261   1.622   0.508  0.9129 -1.6659 -0.0447
16413SOL    HW250528   0.210   1.602   0.367  0.1464 -0.6879  0.0835
16414SOL     OW50529   7.422   3.430   4.314 -0.1291 -0.3585 -0.8110
16414SOL    HW150530   7.393   3.348   4.274 -0.9671 -0.7408  0.5424
16414SOL    HW250531   7.518   3.426   4.308 -0.0950 -1.9728  0.2360
16415SOL     OW50532   6.376   4.859   3.474  0.0961  0.1372 -0.2688
16415SOL    HW150533   6.437   4.842   3.402 -0.6514  1.1541 -1.1711
16415SOL    HW250534   6.358   4.953   3.469 -1.0525 -0.0319  0.3757
16416SOL     OW50535   5.377   6.920   4.867 -0.0782 -0.4103 -0.1994
16416SOL    HW150536   5.310   6.899   4.801  0.1464 -2.0490  0.0628
16416SOL    HW250537   5.453   6.869   4.841  1.1293  1.4197 -0.4853
16417SOL     OW50538   0.606   7.588   2.424  0.3948 -0.4649  0.4091
16417SOL    HW150539   0.607   7.540   2.507  1.9781 -1.2603 -0.0530
16417SOL    HW250540   0.692   7.573   2.386 -0.5016 -0.5927 -1.6745
16418SOL     OW50541   3.647   7.716   1.121  0.0581 -0.3541 -0.5425
16418SOL    HW150542   3.648   7.640   1.179 -2.4032 -0.5975 -0.6802
16418SOL    HW250543   3.714   7.698   1.055  0.9974 -1.3627  0.6468
16419SOL     OW50544   8.180   5.601   1.356 -0.2877  0.3071  0.0376
16419SOL    HW150545   8.169   5.574   1.264 -0.3449  0.9831 -0.1545
16419SOL    HW250546   8.256   5.551   1.386  0.5471  1.0550 -0.7652
16420SOL     OW50547   5.103   3.171   1.018  0.4797 -0.7809 -0.7506
16420SOL    HW150548   5.088   3.105   0.950 -0.7872 -0.1260 -1.1329
16420SOL    HW250549   5.104   3.254   0.972 -2.4464 -0.1013  0.1686
16421SOL     OW50550   7.619   0.840   3.275  0.1671  0.0043  0.8190
16421SOL    HW150551   7.609   0.925   3.317  0.1833 -0.0540  0.9391
16421SOL    HW250552   7.554   0.784   3.317  0.3544 -0.1211  0.9434
16422SOL     OW50553   4.853   1.098   5.422 -0.4247  0.1283 -0.2001
16422SOL    HW150554   4.803   1.146   5.488 -0.3688  0.0536 -0.1020
16422SOL    HW250555   4.787   1.043   5.378 -0.6158  0.8454 -0.8204
16423SOL     OW50556   8.618   5.117   2.085  0.0370 -0.0073  0.2337
16423SOL    HW150557   8.621   5.175   2.161 -2.6137 -1.7470  1.8179
16423SOL    HW250558   8.674   5.043   2.110 -0.0170 -0.1177  0.0272
16424SOL     OW50559   7.467   7.268   3.583 -0.4715 -0.0556  0.0692
16424SOL    HW150560   7.518   7.255   3.663 -0.0986 -0.7727 -0.2720
16424SOL    HW250561   7.458   7.180   3.546  0.7471  0.4565 -1.5264
16425SOL     OW50562   0.837   5.809   0.653 -0.0227 -0.0101  0.1697
16425SOL    HW150563   0.776   5.883   0.653 -0.4910 -0.3904  0.2387
16425SOL    HW250564   0.861   5.799   0.561  1.3773  1.2911  0.3464
16426SOL     OW50565   8.630   2.459   6.349  0.0439  0.2373 -0.1297
16426SOL    HW150566   8.688   2.522   6.305 -0.1847  1.0047  0.6382
16426SOL    HW250567   8.545   2.502   6.349  0.2628  0.7814  2.0380
16427SOL     OW50568   5.484   5.484   7.979 -0.3134  0.0892  0.0096
16427SOL    HW150569   5.414   5.538   7.943 -1.2638 -2.1173 -1.7084
16427SOL    HW250570   5.563   5.514   7.935 -0.2017  2.0683  1.3849
16428SOL     OW50571   5.190   7.677   3.612 -0.2786  0.5119 -0.1804
16428SOL    HW150572   5.233   7.692   3.696  0.1292 -0.5668 -0.1703
16428SOL    HW250573   5.101   7.651   3.635  0.4901 -2.2074  0.1167
16429SOL     OW50574   1.916   5.534   6.116  0.3092  0.0417 -0.0201
16429SOL    HW150575   1.983   5.589   6.075 -1.0424 -0.2137 -2.8486
16429SOL    HW250576   1.898   5.577   6.199  2.6655  1.1302  0.0210
16430SOL     OW50577   4.067   8.475   3.671 -0.0867  0.2968  0.3718
16430SOL    HW150578   4.157   8.475   3.638 -0.5187 -0.8847 -0.8980
16430SOL    HW250579   4.012   8.465   3.592 -1.2574 -0.3643  1.2356
16431SOL     OW50580   3.336   3.685   6.999 -0.4010  0.1376 -0.4262
16431SOL    HW150581   3.351   3.752   6.933  0.9851  3.9025  3.2336
16431SOL    HW250582   3.243   3.694   7.021 -0.7284 -0.7264 -1.3916
16432SOL     OW50583   6.006   7.428   4.542  0.2600 -0.2093 -0.0442
16432SOL    HW150584   6.080   7.407   4.485  0.2057 -1.2355  0.2359
16432SOL    HW250585   6.037   7.408   4.631 -0.1099  0.0515  0.1492
16433SOL     OW50586   2.800   8.371   8.220 -0.5588 -0.0800 -0.1330
16433SOL    HW150587   2.759   8.374   8.133 -0.3210 -1.7291 -0.3369
16433SOL    HW250588   2.829   8.461   8.236 -1.3548  0.4284 -1.3928
16434SOL     OW50589   4.679   8.409   4.446 -0.4941  0.5821 -0.2193
16434SOL    HW150590   4.719   8.458   4.374 -0.5230  0.9938  0.0465
16434SOL    HW250591   4.586   8.403   4.422 -0.5291  0.8417 -0.1426
16435SOL     OW50592   5.548   2.307   3.346  0.1089  0.0374  0.2271
16435SOL    HW150593   5.578   2.322   3.436 -1.6534 -0.1799  0.8927
16435SOL    HW250594   5.595   2.371   3.294  1.3306  0.0331  1.2549
16436SOL     OW50595   2.093   2.167   2.608 -0.2674 -0.7773  0.2207
16436SOL    HW150596   2.033   2.175   2.533 -0.1199  0.3612  0.1929
16436SOL    HW250597   2.076   2.246   2.660  2.0773  0.2592 -0.4624
16437SOL     OW50598   7.391   2.021   3.879 -0.5503  0.7436  0.2291
16437SOL    HW150599   7.399   2.059   3.966 -0.2270 -1.3103  1.1495
16437SOL    HW250600   7.478   2.030   3.841 -0.5865  1.2737  0.2617
16438SOL     OW50601   5.358   7.992   2.942 -0.6587  0.2635 -0.0554
16438SOL    HW150602   5.394   8.069   2.896  1.8210 -0.7384  0.0326
16438SOL    HW250603   5.284   7.965   2.888 -0.2923  1.4870 -1.2619
16439SOL     OW50604   1.008   8.518   4.401  0.1948 -0.4623 -0.5912
16439SOL    HW150605   1.001   8.485   4.311  3.2143 -1.3386 -0.6292
16439SOL    HW250606   1.082   8.579   4.398  0.8923 -1.1421  1.4435
16440SOL     OW50607   4.863   1.691   8.383  0.8286 -0.2300 -0.2245
16440SOL    HW150608   4.833   1.731   8.301 -1.0466  0.5835  0.7947
16440SOL    HW250609   4.881   1.599   8.360  0.9401  0.1310 -1.6581
16441SOL     OW50610   2.019   2.659   5.918  0.0915  0.1520  0.0406
16441SOL    HW150611   2.023   2.695   6.006 -0.9302 -0.4619  0.3612
16441SOL    HW250612   2.070   2.578   5.922  0.8730  0.6300 -0.1982
16442SOL     OW50613   7.286   5.112   3.812  0.0538  0.2466  0.3502
16442SOL    HW150614   7.373   5.077   3.796 -0.2836 -0.3437 -0.2402
16442SOL    HW250615   7.229   5.035   3.816 -0.7420  0.7010 -1.2175
16443SOL     OW50616   4.972   7.400   4.180  0.0897  0.1488 -0.3044
16443SOL    HW150617   4.961   7.358   4.095  0.3068  0.9102 -0.7176
16443SOL    HW250618   5.066   7.398   4.197 -0.0325 -0.8034  0.3449
16444SOL     OW50619   4.449   1.441   7.107 -0.3688  0.1622  0.3169
16444SOL    HW150620   4.457   1.369   7.170 -0.0505 -0.3857 -0.3368
16444SOL    HW250621   4.439   1.398   7.023  2.4337  0.8145 -0.4505
16445SOL     OW50622   8.710   7.667   3.305 -0.2810 -0.0480  0.0133
16445SOL    HW150623   8.675   7.741   3.256  0.4011 -0.3370 -0.9281
16445SOL    HW250624   8.786   7.703   3.351  0.7282 -0.3792 -1.3197
16446SOL     OW50625   0.167   7.117   3.818  0.2050 -0.2705  0.6003
16446SOL    HW150626   0.123   7.093   3.737 -0.8973  2.7069  0.2018
16446SOL    HW250627   0.117   7.074   3.886  0.6345 -2.1159 -0.1887
16447SOL     OW50628   6.690   6.786   5.573  0.2397 -0.1849 -0.2403
16447SOL    HW150629   6.690   6.719   5.641  1.1051  1.0643  1.0587
16447SOL    HW250630   6.676   6.738   5.491 -0.8491 -1.7284  0.8024
16448SOL     OW50631   0.718   1.585   2.705 -0.1122 -0.5911 -0.3796
16448SOL    HW150632   0.641   1.531   2.727  0.4256 -0.6353  1.5982
16448SOL    HW250633   0.714   1.658   2.766  2.0479 -1.2356  0.6523
16449SOL     OW50634   2.693   6.774   7.728  0.1982  0.0247  0.4292
16449SOL    HW150635   2.652   6.832   7.664  0.0855  0.5906  1.0013
16449SOL    HW250636   2.786   6.776   7.707  0.0055 -0.8735 -0.5682
16450SOL     OW50637   7.033   3.183   5.488  0.0068 -0.4565 -0.4983
16450SOL    HW150638   7.106   3.240   5.512  0.0868 -1.2968  1.3807
16450SOL    HW250639   6.962   3.209   5.546 -0.7708 -0.5438 -1.3969
16451SOL     OW50640   6.349   4.596   3.201 -0.3415  0.2001  0.4560
16451SOL    HW150641   6.272   4.628   3.248 -0.2288  0.6745  0.3165
16451SOL    HW250642   6.369   4.512   3.243 -1.8605 -0.7034 -0.5134
16452SOL     OW50643   6.232   7.356   7.164 -0.1930  0.0401 -0.2820
16452SOL    HW150644   6.147   7.311   7.169 -0.0999 -0.0776  0.3330
16452SOL    HW250645   6.290   7.291   7.124 -0.7176  0.6317 -2.1004
16453SOL     OW50646   6.714   7.190   3.627  0.4838 -0.2713  0.7010
16453SOL    HW150647   6.710   7.281   3.655  0.7476 -0.4978  1.4933
16453SOL    HW250648   6.758   7.144   3.699 -0.6169 -1.2104  0.8020
16454SOL     OW50649   5.868   1.754   1.618 -0.5601 -0.5567 -0.4449
16454SOL    HW150650   5.773   1.759   1.619 -0.6424 -1.6593 -1.3385
16454SOL    HW250651   5.890   1.742   1.526  0.6360  2.7144 -0.7280
16455SOL     OW50652   0.651   3.398   2.640 -0.3339  0.1615 -0.7801
16455SOL    HW150653   0.742   3.414   2.667 -0.4768  0.1194 -0.2529
16455SOL    HW250654   0.657   3.373   2.548  0.1235  0.8248 -0.9368
16456SOL     OW50655   6.130   4.462   5.569 -0.2997 -0.1291 -0.1237
16456SOL    HW150656   6.139   4.530   5.502  0.1667  0.0067  0.0696
16456SOL    HW250657   6.059   4.406   5.538 -1.6065  1.1950  0.3407
16457SOL     OW50658   7.567   7.189   5.955  0.5005 -0.1126 -0.0745
16457SOL    HW150659   7.645   7.144   5.986 -0.1179 -0.8681  0.4292
16457SOL    HW250660   7.587   7.213   5.865  0.2712 -2.8931 -0.9652
16458SOL     OW50661   6.093   6.101   3.321 -0.5665 -0.2857  0.8243
16458SOL    HW150662   6.181   6.063   3.311 -0.3675  0.2585  0.4219
16458SOL    HW250663   6.104   6.168   3.389 -0.0691  1.4938 -0.9097
16459SOL     OW50664   4.145   8.504   5.385  0.2577  0.1849  0.0841
16459SOL    HW150665   4.091   8.438   5.341  0.0372  0.4145  0.0097
16459SOL    HW250666   4.199   8.453   5.446  0.3613 -0.1032 -0.2459
16460SOL     OW50667   1.917   3.213   0.384 -0.0535 -0.0168 -0.2581
16460SOL    HW150668   1.929   3.118   0.374 -2.7168 -0.5959  1.0041
16460SOL    HW250669   1.888   3.224   0.475  0.8843  2.1374 -0.1565
16461SOL     OW50670   2.277   8.058   5.339  0.6225 -0.0596  0.0327
16461SOL    HW150671   2.194   8.012   5.322  1.5625 -0.7309 -3.5723
16461SOL    HW250672   2.300   8.033   5.428 -1.5193 -2.3881  0.0499
16462SOL     OW50673   5.926   5.351   7.273  0.7713  0.0571  0.2648
16462SOL    HW150674   5.924   5.258   7.296 -0.3363  0.3946  1.7165
16462SOL    HW250675   5.976   5.355   7.192 -3.5409 -2.4968 -2.9355
16463SOL     OW50676   6.142   0.149   0.812  0.1362  0.4719  0.1695
16463SOL    HW150677   6.076   0.117   0.751  0.6350 -0.1046 -0.0774
16463SOL    HW250678   6.189   0.070   0.840  0.1221  0.7652  1.0516
16464SOL     OW50679   4.652   7.707   6.998 -0.2921  0.0647 -0.0072
16464SOL    HW150680   4.586   7.741   7.058  0.2562  0.7858  0.1900
16464SOL    HW250681   4.682   7.783   6.949 -0.2845 -0.4133 -0.7727
16465SOL     OW50682   7.267   2.886   1.803 -0.6253  0.5498  0.1849
16465SOL    HW150683   7.216   2.936   1.867 -0.7940 -0.3024  0.7289
16465SOL    HW250684   7.235   2.916   1.718 -1.6281  0.4482  0.5173
16466SOL     OW50685   7.268   3.048   6.691 -0.6996  0.2695 -0.3551
16466SOL    HW150686   7.246   2.974   6.635  1.1090 -0.6861  0.1488
16466SOL    HW250687   7.362   3.060   6.680 -0.3409  0.2794  2.1600
16467SOL     OW50688   1.571   5.475   5.011 -0.2830 -0.9466 -0.4877
16467SOL    HW150689   1.549   5.466   4.918 -0.7709 -2.2861 -0.2722
16467SOL    HW250690   1.491   5.510   5.051  0.2716  0.6409 -0.7078
16468SOL     OW50691   4.123   3.768   7.856  0.0311  0.1588  0.0870
16468SOL    HW150692   4.145   3.700   7.920  1.8355  0.5235 -0.0953
16468SOL    HW250693   4.029   3.759   7.843  0.1228 -1.9402  0.4844
16469SOL     OW50694   7.695   5.766   4.152  0.1549 -0.0905  0.7456
16469SOL    HW150695   7.742   5.752   4.070  0.2870  2.2049  0.3557
16469SOL    HW250696   7.695   5.861   4.163 -0.8973 -0.2800  2.8127
16470SOL     OW50697   2.725   7.879   1.528  0.2220  0.3953  0.1435
16470SOL    HW150698   2.679   7.917   1.603  0.5415  0.9580  0.0615
16470SOL    HW250699   2.812   7.919   1.531  0.6453 -0.4926  0.1708
16471SOL     OW50700   8.646   1.807   7.586 -0.0487 -0.9483 -0.0259
16471SOL    HW150701   8.601   1.736   7.539 -2.4705  0.4304  0.0228
16471SOL    HW250702   8.663   1.873   7.518  0.9618 -0.9877  0.1726
16472SOL     OW50703   3.117   0.553   1.157 -0.4561 -0.7869  0.0756
16472SOL    HW150704   3.033   0.586   1.190  0.8777  2.0794  0.8738
16472SOL    HW250705   3.175   0.557   1.232  0.6329 -2.0040 -0.6657
16473SOL     OW50706   5.892   0.602   1.435  0.1806  0.4086  0.0493
16473SOL    HW150707   5.916   0.521   1.480  1.0895  0.2255 -0.7463
16473SOL    HW250708   5.892   0.579   1.342  1.6844  1.6173 -0.2893
16474SOL     OW50709   8.680   8.659   4.109  0.0141 -0.4188  0.1179
16474SOL    HW150710   8.638   8.574   4.122 -0.6713 -0.1683 -0.4002
16474SOL    HW250711   8.773   8.643   4.129  0.0238 -1.4606 -0.6667
16475SOL     OW50712   0.843   7.053   0.863 -1.2509 -0.1934 -0.2677
16475SOL    HW150713   0.791   6.987   0.816 -0.7157 -0.9578  0.1875
16475SOL    HW250714   0.897   7.094   0.795 -2.6265  0.8173 -0.7944
16476SOL     OW50715   7.272   3.843   1.354  0.5785 -0.3802  0.2480
16476SOL    HW150716   7.224   3.894   1.420  0.7174  0.7141 -0.4643
16476SOL    HW250717   7.260   3.892   1.273 -0.7618 -2.4562 -0.8816
16477SOL     OW50718   7.054   3.866   4.861  0.2007  0.1743 -0.8149
16477SOL    HW150719   7.022   3.899   4.946 -0.6113 -2.7454  0.1171
16477SOL    HW250720   6.987   3.893   4.799 -0.7318 -0.1586  0.0095
16478SOL     OW50721   6.765   8.553   0.651  0.3051  0.3986  0.1369
16478SOL    HW150722   6.845   8.585   0.610  0.6754  0.1517  0.6519
16478SOL    HW250723   6.705   8.627   0.648  0.2755  0.3444 -0.9619
16479SOL     OW50724   7.753   7.858   6.691  0.3274  0.2019 -0.4025
16479SOL    HW150725   7.729   7.765   6.702  1.4242 -0.0058  0.3343
16479SOL    HW250726   7.688   7.891   6.629  0.8679 -1.4611 -1.9710
16480SOL     OW50727   6.642   8.646   2.646  0.1749 -0.0453  0.2433
16480SOL    HW150728   6.617   8.628   2.736  0.3249  0.4927  0.4001
16480SOL    HW250729   6.727   8.691   2.653  0.6155 -0.7735 -0.2131
16481SOL     OW50730   7.887   7.678   4.780  0.5009  0.3486 -0.2030
16481SOL    HW150731   7.881   7.618   4.854 -1.2129 -1.9604 -2.0236
16481SOL    HW250732   7.971   7.658   4.739  0.3518 -0.1743 -0.2625
16482SOL     OW50733   5.653   7.488   0.148  0.1566  0.1228 -0.8310
16482SOL    HW150734   5.695   7.475   0.233 -1.0260  1.8653  0.0906
16482SOL    HW250735   5.672   7.579   0.125 -2.4209  0.7946 -0.6708
16483SOL     OW50736   8.629   5.281   8.032  0.3899  0.2453  0.0714
16483SOL    HW150737   8.693   5.236   7.977 -0.8112  0.4738 -1.6091
16483SOL    HW250738   8.570   5.212   8.062  0.2403  0.2944 -0.1043
16484SOL     OW50739   2.971   6.810   2.833  0.1627  0.2981  0.4244
16484SOL    HW150740   2.994   6.901   2.818 -2.0394  0.5850 -1.7371
16484SOL    HW250741   3.036   6.760   2.782  0.1241  0.7658 -0.0885
16485SOL     OW50742   0.387   6.141   5.359 -0.0529  0.5139  0.1336
16485SOL    HW150743   0.374   6.162   5.452  1.2346  1.2021  0.1858
16485SOL    HW250744   0.302   6.108   5.330 -2.0178  4.6401  0.3832
16486SOL     OW50745   2.937   4.095   6.195 -0.3341  0.2363 -0.6561
16486SOL    HW150746   2.875   4.154   6.151  0.2416  0.7785 -0.7658
16486SOL    HW250747   2.940   4.128   6.285 -1.3958 -0.7775 -0.2300
16487SOL     OW50748   7.690   1.945   1.690 -0.0929  1.0010 -0.0129
16487SOL    HW150749   7.654   1.967   1.775  0.5405 -1.6096  1.0384
16487SOL    HW250750   7.785   1.951   1.702  0.0738 -0.9111  0.0290
16488SOL     OW50751   6.039   1.203   7.251 -0.4082 -0.1673  0.1909
16488SOL    HW150752   5.965   1.143   7.246 -1.0715  0.7023 -1.0594
16488SOL    HW250753   6.080   1.184   7.335 -1.7350 -1.0402  0.6735
16489SOL     OW50754   0.699   4.485   1.746  0.2795  0.0595 -0.0935
16489SOL    HW150755   0.616   4.454   1.710 -0.6087  2.3386 -0.2219
16489SOL    HW250756   0.766   4.441   1.694 -0.9180  0.1477 -1.8130
16490SOL     OW50757   1.839   8.372   6.094 -0.1440  0.3398 -0.1495
16490SOL    HW150758   1.817   8.360   6.187 -1.0907  1.5145 -0.1948
16490SOL    HW250759   1.783   8.444   6.065 -0.3040 -0.4015 -1.8042
16491SOL     OW50760   7.392   3.245   5.257  0.1609 -0.0394 -0.2356
16491SOL    HW150761   7.309   3.271   5.216  0.3600  2.0202  0.5054
16491SOL    HW250762   7.400   3.152   5.240 -1.1982  0.1519 -2.2870
16492SOL     OW50763   6.843   2.082   1.674 -0.3579  0.1166  0.2765
16492SOL    HW150764   6.773   2.130   1.631 -0.2177  0.9901  0.9935
16492SOL    HW250765   6.813   2.070   1.764  1.1020  2.0653  1.1041
16493SOL     OW50766   5.239   1.011   2.429 -0.0030 -0.2929 -0.3083
16493SOL    HW150767   5.269   0.923   2.409  2.3179  0.3970 -0.1191
16493SOL    HW250768   5.297   1.041   2.499 -1.4258  1.0221  0.3678
16494SOL     OW50769   2.882   0.714   2.486  0.4744 -0.5096  0.4167
16494SOL    HW150770   2.821   0.732   2.558 -0.3177 -2.7340  0.3819
16494SOL    HW250771   2.892   0.619   2.486  0.4332 -0.6046 -2.4257
16495SOL     OW50772   4.760   6.627   8.626  0.2525  0.0065  0.2988
16495SOL    HW150773   4.748   6.571   8.703 -0.0329  1.0600  1.0497
16495SOL    HW250774   4.838   6.678   8.647  1.2679 -0.9807 -0.9356
16496SOL     OW50775   8.516   3.190   3.419  0.9837 -0.0894 -0.2548
16496SOL    HW150776   8.566   3.269   3.396 -0.3295  0.8896  0.0959
16496SOL    HW250777   8.483   3.208   3.507  0.9014 -1.1743 -0.0497
16497SOL     OW50778   6.742   6.051   2.986 -0.5389 -0.0636  0.4340
16497SOL    HW150779   6.735   6.146   2.993 -1.0118  0.1867 -2.2670
16497SOL    HW250780   6.820   6.029   3.037 -1.5691  1.4513  2.8201
16498SOL     OW50781   2.226   3.084   6.401  0.5448 -0.4809 -0.6130
16498SOL    HW150782   2.227   3.141   6.324  0.8142  0.8615  0.3530
16498SOL    HW250783   2.148   3.030   6.390 -1.1485  1.7751 -0.3901
16499SOL     OW50784   5.414   1.120   7.750 -0.1173 -0.1712 -0.0322
16499SOL    HW150785   5.509   1.117   7.743  0.0055  1.1659  0.7531
16499SOL    HW250786   5.386   1.172   7.675 -0.1307  0.2703  0.2706
16500SOL     OW50787   2.750   3.520   5.348 -0.3877  0.1300  0.0766
16500SOL    HW150788   2.742   3.427   5.325  1.2763 -0.0410  0.0884
16500SOL    HW250789   2.815   3.555   5.287 -0.0123  0.9727  0.9231
16501SOL     OW50790   5.989   1.726   4.131  0.2553 -0.0369  0.0277
16501SOL    HW150791   6.047   1.718   4.055 -0.0157 -1.6732 -0.0473
16501SOL    HW250792   5.901   1.715   4.095 -0.2816  3.3283 -0.0050
16502SOL     OW50793   7.013   7.299   1.286 -0.2074 -0.5196 -0.2561
16502SOL    HW150794   6.966   7.299   1.369 -1.2063 -0.6419 -0.8042
16502SOL    HW250795   6.949   7.330   1.222  0.7932  0.3988 -0.8534
16503SOL     OW50796   7.342   4.595   6.736 -0.1286  0.1759 -0.5539
16503SOL    HW150797   7.289   4.674   6.746 -0.5128 -0.1071 -0.3679
16503SOL    HW250798   7.385   4.606   6.651 -0.8809  0.1679 -0.9428
16504SOL     OW50799   8.371   2.688   7.818  0.5097  0.2213 -0.1371
16504SOL    HW150800   8.392   2.743   7.742 -0.8878  1.0877  0.0814
16504SOL    HW250801   8.353   2.602   7.779 -0.9211  0.8349 -0.8939
16505SOL     OW50802   4.600   4.001   0.012  0.4295 -0.4015 -0.3523
16505SOL    HW150803   4.625   4.033  -0.075  4.8660 -1.1251  0.4082
16505SOL    HW250804   4.576   3.910  -0.003 -1.4791  0.1770 -1.0827
16506SOL     OW50805   0.654   8.149   0.088 -0.0815  0.2178 -0.7562
16506SOL    HW150806   0.632   8.057   0.107  3.5666 -0.2975  2.1410
16506SOL    HW250807   0.627   8.196   0.167  1.9037  0.8130 -0.3844
16507SOL     OW50808   2.903   4.137   5.483 -0.4165  0.5666 -0.0927
16507SOL    HW150809   2.958   4.194   5.536  0.2070 -0.0700 -0.0452
16507SOL    HW250810   2.911   4.172   5.394  1.5587 -0.6038 -0.4233
16508SOL     OW50811   4.899   1.827   0.529  0.3033  0.4238 -0.7184
16508SOL    HW150812   4.814   1.854   0.495 -0.3819 -0.4785  0.2252
16508SOL    HW250813   4.956   1.902   0.514 -0.1438  0.3575 -3.1195
16509SOL     OW50814   7.285   8.469   1.907 -0.2665  0.7218  0.1023
16509SOL    HW150815   7.214   8.516   1.864  0.5803 -1.0418 -3.5495
16509SOL    HW250816   7.364   8.518   1.885  0.2122 -0.3326 -0.6092
16510SOL     OW50817   7.181   0.877   4.086 -0.0653 -0.6712  0.3048
16510SOL    HW150818   7.258   0.929   4.109  0.2230 -0.9118 -0.1044
16510SOL    HW250819   7.123   0.939   4.042  1.3837 -1.1728 -2.6336
16511SOL     OW50820   1.806   1.716   6.431 -0.6134 -0.2367 -0.4037
16511SOL    HW150821   1.899   1.733   6.416 -0.3562 -1.1644  0.0380
16511SOL    HW250822   1.763   1.738   6.348  0.1472 -0.8207 -0.9653
16512SOL     OW50823   3.179   2.587   0.362  0.0306 -0.6589  0.2035
16512SOL    HW150824   3.118   2.528   0.406 -0.2503  0.0915  0.8449
16512SOL    HW250825   3.158   2.578   0.269 -1.3611 -0.1175  0.4266
16513SOL     OW50826   2.733   1.047   5.005  0.6503 -0.0378  1.0291
16513SOL    HW150827   2.786   1.099   4.945 -0.2665 -0.4704 -0.2012
16513SOL    HW250828   2.758   0.956   4.987 -0.9236 -0.3008 -0.0429
16514SOL     OW50829   0.838   6.864   3.500  0.0014 -0.2943 -0.4470
16514SOL    HW150830   0.744   6.880   3.484 -0.1167 -0.4840  0.0379
16514SOL    HW250831   0.876   6.952   3.506 -0.3746 -0.1964  0.6594
16515SOL     OW50832   7.707   3.743   7.471 -0.4640 -0.1868  0.2304
16515SOL    HW150833   7.678   3.802   7.401  2.4386  3.6985  1.9296
16515SOL    HW250834   7.631   3.738   7.529 -1.4943  0.0528 -1.0246
16516SOL     OW50835   6.713   0.616   6.129 -0.4467  0.4265  0.2463
16516SOL    HW150836   6.713   0.522   6.109 -0.5862  0.9056 -2.3720
16516SOL    HW250837   6.766   0.655   6.060 -0.7203  2.3346  1.0620
16517SOL     OW50838   3.623   0.252   5.905 -0.1832 -0.2763 -0.5953
16517SOL    HW150839   3.663   0.338   5.917  0.2156 -0.4333 -0.7814
16517SOL    HW250840   3.697   0.191   5.906 -0.5801 -0.7972  1.2223
16518SOL     OW50841   4.807   1.294   6.803 -0.0756  0.8080 -0.1138
16518SOL    HW150842   4.866   1.228   6.768  0.9333  1.7470 -0.2407
16518SOL    HW250843   4.859   1.375   6.806 -1.5322  1.8267 -0.8357
16519SOL     OW50844   5.100   8.645   8.567 -0.6107 -0.3617 -0.4899
16519SOL    HW150845   5.181   8.608   8.602 -0.6374  0.5339  0.5386
16519SOL    HW250846   5.118   8.738   8.554 -1.4906 -0.1299 -0.1617
16520SOL     OW50847   7.404   8.294   0.914  0.2690  0.6350 -0.2954
16520SOL    HW150848   7.354   8.266   0.837  2.7089  0.3086 -1.8691
16520SOL    HW250849   7.379   8.232   0.982 -1.4767  0.5276 -0.9674
16521SOL     OW50850   4.022   6.448   2.142 -0.9082 -0.2028 -0.0280
16521SOL    HW150851   3.986   6.444   2.053 -0.6787 -2.0980 -0.0772
16521SOL    HW250852   3.951   6.414   2.197 -0.5205 -0.4561  0.3165
16522SOL     OW50853   4.878   5.118   5.474 -0.2887 -0.0068 -0.3381
16522SOL    HW150854   4.861   5.072   5.556  2.0936 -0.1017  0.1703
16522SOL    HW250855   4.914   5.050   5.416 -1.0110  0.2744 -1.1304
16523SOL     OW50856   3.693   5.863   7.552  0.0059 -0.3853  0.1380
16523SOL    HW150857   3.668   5.953   7.573  0.2064 -0.4555  0.6922
16523SOL    HW250858   3.650   5.845   7.468 -0.7695 -0.0824  0.4618
16524SOL     OW50859   0.626   1.387   5.029 -0.5567  0.2636  0.0263
16524SOL    HW150860   0.546   1.351   4.990  0.5413 -0.8976 -1.2249
16524SOL    HW250861   0.651   1.460   4.973  0.7423 -1.0942 -1.2572
16525SOL     OW50862   7.286   1.719   4.179  0.2994 -0.5303  0.3671
16525SOL    HW150863   7.261   1.804   4.216  0.1463  0.0736 -1.0322
16525SOL    HW250864   7.335   1.675   4.248  1.6533  1.2985  0.6429
16526SOL     OW50865   7.789   0.779   5.247 -0.3274 -0.8090 -0.2148
16526SOL    HW150866   7.871   0.729   5.248  0.0663 -0.2068 -0.9745
16526SOL    HW250867   7.740   0.746   5.322  0.7523 -0.9388  0.4542
16527SOL     OW50868   4.263   7.093   5.930  0.0183  0.3956 -0.0464
16527SOL    HW150869   4.193   7.157   5.942 -0.3821 -0.0707  0.1636
16527SOL    HW250870   4.231   7.037   5.859  0.7505  0.9447 -0.8277
16528SOL     OW50871   0.422   7.783   3.733  0.4400 -0.2104  0.5765
16528SOL    HW150872   0.470   7.844   3.677  1.2076 -0.6871  0.6966
16528SOL    HW250873   0.483   7.711   3.748 -0.2492 -0.7397  0.9041
16529SOL     OW50874   2.284   4.416   3.140  0.2633 -0.2292 -0.1612
16529SOL    HW150875   2.317   4.504   3.121  1.4326 -0.2289  1.6257
16529SOL    HW250876   2.284   4.411   3.236 -1.6900 -1.4937 -0.1586
16530SOL     OW50877   3.986   3.618   6.276  0.4417 -0.5372 -0.2702
16530SOL    HW150878   4.050   3.590   6.341  1.3920  1.1131 -0.4405
16530SOL    HW250879   4.007   3.710   6.260 -3.6563  0.9390  1.6618
16531SOL     OW50880   5.746   2.198   2.057  0.1963  0.1748 -0.3195
16531SOL    HW150881   5.799   2.276   2.076  0.1747 -0.2522  1.7171
16531SOL    HW250882   5.754   2.144   2.135  2.4300 -3.2164 -2.6590
16532SOL     OW50883   8.103   0.979   6.325  0.5899 -0.8793 -0.0219
16532SOL    HW150884   8.198   0.973   6.310  0.2289 -3.2458 -2.0442
16532SOL    HW250885   8.090   0.939   6.411  1.4861  0.1438  0.6063
16533SOL     OW50886   4.510   6.475   3.629 -0.1163 -0.3354  0.4278
16533SOL    HW150887   4.476   6.451   3.542 -0.0141 -1.2490  0.6309
16533SOL    HW250888   4.447   6.540   3.662  0.3256  0.7023 -0.6838
16534SOL     OW50889   7.515   0.991   5.445 -0.5531  0.5695 -0.3065
16534SOL    HW150890   7.438   1.048   5.452  1.0787  2.8407  0.8926
16534SOL    HW250891   7.510   0.935   5.523 -2.0630 -0.8712 -1.3775
16535SOL     OW50892   4.459   0.366   1.567  0.6540  0.0310  0.1138
16535SOL    HW150893   4.388   0.314   1.604  1.1165 -0.1753  0.7208
16535SOL    HW250894   4.416   0.446   1.535 -0.3182 -1.3424 -2.2480
16536SOL     OW50895   4.881   5.218   8.486  0.1393  0.0642 -0.1001
16536SOL    HW150896   4.823   5.176   8.549  2.9395 -1.5245  1.6438
16536SOL    HW250897   4.899   5.304   8.523 -1.1358  0.6249 -0.7259
16537SOL     OW50898   7.417   6.698   5.275 -0.2115  0.1345  0.1074
16537SOL    HW150899   7.384   6.730   5.191 -0.7074  0.5931  0.4678
16537SOL    HW250900   7.504   6.664   5.256 -1.2129 -1.9611 -1.0659
16538SOL     OW50901   4.091   0.001   5.157  0.1612  0.4133  0.2745
16538SOL    HW150902   4.131   0.086   5.138 -0.0129  0.4926  0.2643
16538SOL    HW250903   4.162  -0.062   5.143 -0.0379  0.4381 -0.9530
16539SOL     OW50904   0.021   6.571   4.237  0.0835  0.1750 -0.2461
16539SOL    HW150905   0.099   6.531   4.197  0.3463 -1.0066  1.3289
16539SOL    HW250906  -0.046   6.567   4.169  0.8775 -0.5358 -1.0071
16540SOL     OW50907   6.426   7.943   8.130 -0.2898 -0.0145  0.8285
16540SOL    HW150908   6.497   8.007   8.139  0.1221 -0.2398 -0.5364
16540SOL    HW250909   6.459   7.864   8.173 -0.5224  0.4755  1.9187
16541SOL     OW50910   0.562   1.558   2.435 -0.2042 -0.7431 -0.2731
16541SOL    HW150911   0.476   1.586   2.467 -0.7111 -0.8288 -1.5164
16541SOL    HW250912   0.621   1.574   2.509 -1.0827  0.3695  0.2152
16542SOL     OW50913   1.777   1.396   4.189 -0.0859  0.2666  0.0490
16542SOL    HW150914   1.736   1.406   4.275 -1.0049  0.5995 -0.4137
16542SOL    HW250915   1.716   1.341   4.140  0.3490  0.2159 -0.4423
16543SOL     OW50916   0.087   5.551   0.250 -0.5853 -0.2513 -0.9476
16543SOL    HW150917   0.040   5.536   0.331  1.5133  1.6664  0.7446
16543SOL    HW250918   0.023   5.534   0.181 -3.0644  0.1461  1.1359
16544SOL     OW50919   4.758   4.927   2.531  0.2128  0.5003  0.3473
16544SOL    HW150920   4.672   4.966   2.513  0.7237  1.2208 -0.6726
16544SOL    HW250921   4.803   4.930   2.447  1.0612 -0.3346  0.7587
16545SOL     OW50922   6.893   2.507   5.174 -0.4116  0.5396 -0.2592
16545SOL    HW150923   6.958   2.483   5.108 -0.2048 -2.4581  0.8837
16545SOL    HW250924   6.929   2.586   5.216  3.0648 -1.4492  0.9230
16546SOL     OW50925   2.774   3.797   1.397 -0.2999  0.7674  0.5591
16546SOL    HW150926   2.702   3.809   1.459 -1.2020  1.3779 -0.5703
16546SOL    HW250927   2.747   3.846   1.320  2.1547  2.5731  0.7339
16547SOL     OW50928   5.421   0.785   7.861  0.2044  0.5228  0.6015
16547SOL    HW150929   5.479   0.731   7.914  0.3655 -1.3470 -1.3371
16547SOL    HW250930   5.387   0.850   7.922  1.9100 -0.2426  2.5013
16548SOL     OW50931   0.779   8.229   0.756 -0.0965 -0.4765 -0.0103
16548SOL    HW150932   0.782   8.180   0.674  1.7308  0.5422 -0.6146
16548SOL    HW250933   0.839   8.182   0.814 -1.6558 -1.4046  0.9184
16549SOL     OW50934   0.693   5.197   8.051  0.4868 -0.5421  0.7996
16549SOL    HW150935   0.782   5.218   8.081  0.1315  1.1950  0.7389
16549SOL    HW250936   0.707   5.137   7.977  1.5516 -1.1366  1.4561
16550SOL     OW50937   4.320   3.508   1.074  0.2715  0.3129  0.5215
16550SOL    HW150938   4.232   3.520   1.109  0.2595 -1.4363  1.1715
16550SOL    HW250939   4.347   3.421   1.104  2.4472  1.0085  0.8020
16551SOL     OW50940   7.098   7.340   4.447  0.4085  0.1226 -0.4549
16551SOL    HW150941   7.022   7.338   4.505 -0.6615  0.0504 -1.8245
16551SOL    HW250942   7.128   7.249   4.443  0.2478  0.0636 -0.3184
16552SOL     OW50943   7.142   1.999   7.957 -0.1376  0.3163  0.1335
16552SOL    HW150944   7.067   2.058   7.962  0.9888  1.7283  2.0375
16552SOL    HW250945   7.210   2.050   7.914 -0.6387 -1.5122 -3.0957
16553SOL     OW50946   8.228   4.897   1.010 -0.2238 -0.4408  0.2496
16553SOL    HW150947   8.164   4.918   0.942 -0.3108 -1.6851 -0.0744
16553SOL    HW250948   8.240   4.979   1.058 -1.2736  0.0716 -0.3354
16554SOL     OW50949   1.576   1.421   6.672  0.2256 -0.4444  0.0669
16554SOL    HW150950   1.559   1.512   6.649  0.9663 -0.7029 -1.7126
16554SOL    HW250951   1.632   1.388   6.601  0.7995 -2.0125  1.1744
16555SOL     OW50952   1.976   0.976   5.513 -0.0887  0.3071 -0.4146
16555SOL    HW150953   1.893   0.949   5.474  1.0558 -0.9676 -2.1034
16555SOL    HW250954   1.981   1.070   5.496 -0.7511  0.2180 -1.1529
16556SOL     OW50955   5.648   3.371   6.962 -0.0522 -0.0176  0.5202
16556SOL    HW150956   5.585   3.438   6.988 -0.5814 -0.6929  1.0241
16556SOL    HW250957   5.614   3.290   7.000  0.4529 -0.6149 -0.2576
16557SOL     OW50958   0.290   6.761   7.603 -0.5670  0.4979  0.2238
16557SOL    HW150959   0.314   6.780   7.694  1.5736 -3.0728  0.6147
16557SOL    HW250960   0.374   6.750   7.558 -1.5902  1.3505 -2.0206
16558SOL     OW50961   1.895   6.197   3.992 -0.0454  0.2048  1.0842
16558SOL    HW150962   1.970   6.181   3.935 -0.0221  1.0279  0.8652
16558SOL    HW250963   1.879   6.291   3.985  0.0570  0.3572  2.5786
16559SOL     OW50964   7.839   2.276   5.507  0.0887  0.2041  0.0693
16559SOL    HW150965   7.920   2.308   5.546 -0.0987  2.2780 -1.0497
16559SOL    HW250966   7.770   2.327   5.551 -0.6200 -1.3316  0.8151
16560SOL     OW50967   0.749   3.666   4.594 -0.1414  0.0523  0.7613
16560SOL    HW150968   0.726   3.694   4.683 -2.9566 -0.6612  0.3215
16560SOL    HW250969   0.826   3.610   4.606  0.7214  1.4704  2.4840
16561SOL     OW50970   3.419   6.721   7.060 -0.0673  0.1696  0.2819
16561SOL    HW150971   3.349   6.678   7.108  1.1407 -0.7669  1.2502
16561SOL    HW250972   3.462   6.650   7.011  1.1578  0.4352  0.9192
16562SOL     OW50973   0.737   0.210   5.889  0.6899 -0.0415 -0.0229
16562SOL    HW150974   0.694   0.164   5.817  1.0443  0.1490 -0.3588
16562SOL    HW250975   0.786   0.280   5.847  0.0828  0.7034  0.4906
16563SOL     OW50976   8.104   0.825   0.538 -0.0275  0.0094 -0.2939
16563SOL    HW150977   8.048   0.838   0.615 -0.2273 -0.3701 -0.3728
16563SOL    HW250978   8.127   0.914   0.510  1.1252  0.1392  0.9742
16564SOL     OW50979   6.574   3.231   8.381 -0.0624 -0.6799  0.4135
16564SOL    HW150980   6.495   3.251   8.332 -0.4919 -0.3550  1.2179
16564SOL    HW250981   6.643   3.280   8.336 -0.1634 -1.5710 -0.7524
16565SOL     OW50982   2.148   6.456   0.659  0.0697 -0.1906 -0.2876
16565SOL    HW150983   2.090   6.384   0.637  0.9759 -0.6237 -1.3932
16565SOL    HW250984   2.166   6.446   0.753  0.6852 -1.8037 -0.5454
16566SOL     OW50985   4.615   6.128   7.476  0.3701 -0.3719  0.5140
16566SOL    HW150986   4.575   6.051   7.435 -0.3528 -0.7090  1.8175
16566SOL    HW250987   4.708   6.105   7.484  0.3297 -0.7214  0.0586
16567SOL     OW50988   4.723   2.561   5.516  0.4116 -0.1371  0.4987
16567SOL    HW150989   4.801   2.529   5.562  1.2514  1.5430  0.2938
16567SOL    HW250990   4.717   2.506   5.438  1.1857 -0.4932  0.6853
16568SOL     OW50991   5.733   6.076   6.357 -0.2664 -0.3139 -0.2551
16568SOL    HW150992   5.671   6.135   6.401  2.0435  1.0446  1.3708
16568SOL    HW250993   5.716   5.991   6.397 -1.2191 -0.0316 -0.0145
16569SOL     OW50994   7.204   7.637   7.164  0.4235  0.6785 -0.1884
16569SOL    HW150995   7.169   7.670   7.081 -0.0935  1.2996  0.2682
16569SOL    HW250996   7.299   7.650   7.156  0.4432  0.1733 -0.9192
16570SOL     OW50997   5.941   2.529   6.389  0.0072 -0.8734 -0.1266
16570SOL    HW150998   5.919   2.450   6.439 -1.5097 -0.4103 -0.0254
16570SOL    HW250999   6.021   2.562   6.430  1.0479 -2.6894 -0.5731
16571SOL     OW51000   1.982   8.061   2.618 -0.0656  0.1737 -0.1329
16571SOL    HW151001   2.029   7.999   2.674 -0.7409 -0.1900  0.0388
16571SOL    HW251002   1.906   8.087   2.670  0.1507  1.0674 -0.2442
16572SOL     OW51003   6.265   8.644   0.884  0.1334 -0.0427  0.1919
16572SOL    HW151004   6.335   8.705   0.911  0.9834 -0.8360 -0.1684
16572SOL    HW251005   6.269   8.573   0.948  1.8686 -1.7154 -1.6214
16573SOL     OW51006   6.207   1.807   2.579  0.2108 -0.2518  0.8892
16573SOL    HW151007   6.253   1.808   2.663 -1.9627 -1.5556  2.1777
16573SOL    HW251008   6.172   1.719   2.571 -2.4122  0.7669  0.2087
16574SOL     OW51009   3.914   1.027   5.823 -0.2328 -0.3358  0.5162
16574SOL    HW151010   3.883   1.089   5.889  1.8504  0.4757  0.7980
16574SOL    HW251011   4.008   1.043   5.816  0.3624 -3.2778  0.3919
16575SOL     OW51012   4.935   6.214   5.495  0.3844  0.5295 -0.4079
16575SOL    HW151013   4.977   6.175   5.419  0.9018  1.7033 -0.7440
16575SOL    HW251014   4.855   6.254   5.461 -2.2568 -3.3773  0.5151
16576SOL     OW51015   0.285   2.686   2.547 -0.0109 -0.8024  0.0843
16576SOL    HW151016   0.280   2.610   2.489  2.0983 -1.8083  1.0934
16576SOL    HW251017   0.344   2.658   2.617 -0.1080  1.3944  1.1244
16577SOL     OW51018   2.585   7.679   7.792 -0.0889  0.2206 -0.3625
16577SOL    HW151019   2.654   7.705   7.853 -0.7169 -0.2584  0.5714
16577SOL    HW251020   2.578   7.752   7.731 -0.9764  1.7565  1.4672
16578SOL     OW51021   7.792   7.950   6.095 -0.1846 -0.4605 -0.0395
16578SOL    HW151022   7.717   7.895   6.118 -0.5489 -0.1617 -0.4945
16578SOL    HW251023   7.769   7.987   6.010  0.9409 -1.1984 -0.6900
16579SOL     OW51024   5.900   4.857   8.308 -0.4448 -0.3521  0.7119
16579SOL    HW151025   5.840   4.785   8.292 -0.2622 -0.0037 -1.9903
16579SOL    HW251026   5.845   4.935   8.310 -0.2186 -0.0626 -1.5098
16580SOL     OW51027   7.248   4.594   8.533 -0.4259  0.6132 -0.7226
16580SOL    HW151028   7.217   4.541   8.459 -0.7372  1.0961 -0.9420
16580SOL    HW251029   7.201   4.558   8.609 -0.8862  0.7787 -0.9221
16581SOL     OW51030   0.101   3.623   3.701 -0.3286  0.2368  0.0755
16581SOL    HW151031   0.105   3.645   3.794  0.5345 -1.5383  0.4954
16581SOL    HW251032   0.013   3.586   3.689 -1.3078  2.5104 -0.3647
16582SOL     OW51033   1.676   5.426   7.444  0.3168 -0.0254  0.7047
16582SOL    HW151034   1.758   5.474   7.448  0.3641  0.0216 -0.4366
16582SOL    HW251035   1.702   5.336   7.425  0.0820  0.2204 -0.9577
16583SOL     OW51036   3.654   6.817   5.763 -0.3535 -0.5956 -0.2558
16583SOL    HW151037   3.562   6.820   5.734 -0.5579 -0.4484  0.3941
16583SOL    HW251038   3.649   6.806   5.858  0.3012  0.0985 -0.1344
16584SOL     OW51039   4.580   8.235   7.465  0.0137  0.8214 -0.0047
16584SOL    HW151040   4.548   8.293   7.535  2.4257  1.3579  0.7659
16584SOL    HW251041   4.625   8.294   7.405 -1.4451  0.2654 -1.7158
16585SOL     OW51042   6.482   3.155   7.639 -0.2121 -0.1159 -0.2399
16585SOL    HW151043   6.481   3.075   7.586 -2.5539 -0.3876  0.1477
16585SOL    HW251044   6.560   3.202   7.608  0.4895 -1.9148 -1.3882
16586SOL     OW51045   7.443   3.880   6.843  0.3559  0.0057  0.0351
16586SOL    HW151046   7.499   3.855   6.917  0.6129 -1.5804 -0.6476
16586SOL    HW251047   7.431   3.799   6.793 -0.8992  0.7499 -0.9519
16587SOL     OW51048   1.161   5.366   4.573  0.0100  0.1083  0.5453
16587SOL    HW151049   1.109   5.298   4.616 -0.4208 -0.8695 -1.4267
16587SOL    HW251050   1.251   5.346   4.597 -0.3097  0.4693  2.1572
16588SOL     OW51051   7.389   4.881   0.607  0.1312 -0.0075  0.0109
16588SOL    HW151052   7.451   4.873   0.534 -1.1979  1.0131 -1.2847
16588SOL    HW251053   7.319   4.820   0.586 -1.0293  1.4079 -0.4267
16589SOL     OW51054   3.381   8.116   5.829  0.4911 -0.0596 -0.6019
16589SOL    HW151055   3.302   8.069   5.855  1.4097 -1.0416  0.5017
16589SOL    HW251056   3.410   8.073   5.748  0.7169 -0.7029 -0.1879
16590SOL     OW51057   5.824   3.376   0.019  0.3088  0.2138 -0.3838
16590SOL    HW151058   5.746   3.330  -0.013 -0.5915 -0.2150  2.2010
16590SOL    HW251059   5.896   3.314   0.007 -0.8808 -2.1478  3.1329
16591SOL     OW51060   1.490   3.140   2.514 -0.1333 -0.2102 -0.8431
16591SOL    HW151061   1.584   3.157   2.524 -0.0838 -0.1929 -1.3421
16591SOL    HW251062   1.460   3.122   2.603  0.9498 -3.2733 -0.9702
16592SOL     OW51063   2.241   0.370   1.037  0.4299  0.0595  0.1706
16592SOL    HW151064   2.271   0.339   0.951  1.7127  1.2223  0.1647
16592SOL    HW251065   2.172   0.433   1.017  0.0764 -0.3585  0.0471
16593SOL     OW51066   3.601   0.570   1.574 -0.1440 -0.5149  0.0180
16593SOL    HW151067   3.547   0.634   1.621  0.7863 -0.9527  1.7784
16593SOL    HW251068   3.623   0.505   1.640  0.6566 -1.5537 -1.2315
16594SOL     OW51069   6.889   2.893   3.681  0.1637 -0.1596  0.3142
16594SOL    HW151070   6.869   2.898   3.775 -1.7548 -0.5600 -0.0355
16594SOL    HW251071   6.854   2.974   3.645 -1.4686 -1.1549 -0.4237
16595SOL     OW51072   6.350   1.819   8.454  0.1826 -0.3974  0.2603
16595SOL    HW151073   6.412   1.829   8.381 -2.1128 -2.1217 -2.1449
16595SOL    HW251074   6.374   1.735   8.493  0.9978  0.2155  1.1169
16596SOL     OW51075   8.387   5.145   8.063 -0.3103  0.6068  0.0408
16596SOL    HW151076   8.368   5.236   8.043  3.4390  1.1814 -1.7415
16596SOL    HW251077   8.391   5.102   7.978  3.8209  0.2504  0.2486
16597SOL     OW51078   0.286   3.171   5.129  0.7649 -0.1326  0.1551
16597SOL    HW151079   0.378   3.188   5.110  1.0414 -0.1274  1.4475
16597SOL    HW251080   0.266   3.090   5.082  1.7245 -0.7005  0.7049
16598SOL     OW51081   5.023   6.510   4.186 -0.4748  0.0002 -0.4273
16598SOL    HW151082   5.062   6.551   4.108 -0.2482  2.2469  0.7789
16598SOL    HW251083   4.942   6.559   4.200 -1.8623 -2.1008 -0.6785
16599SOL     OW51084   7.350   8.203   6.748 -0.2129 -0.3764 -0.5996
16599SOL    HW151085   7.386   8.173   6.832 -0.8806 -0.6719 -0.4096
16599SOL    HW251086   7.315   8.290   6.767  0.2481 -0.1561 -0.7449
16600SOL     OW51087   6.599   4.802   3.293 -0.0177  0.0124 -0.1640
16600SOL    HW151088   6.619   4.714   3.263 -0.0639 -0.0450 -0.0252
16600SOL    HW251089   6.608   4.857   3.215 -0.6568 -0.2123 -0.3958
16601SOL     OW51090   1.302   0.490   4.371  0.4792  0.3987  0.1122
16601SOL    HW151091   1.374   0.545   4.340  0.9353  0.1297  0.6601
16601SOL    HW251092   1.291   0.516   4.463  1.1617 -0.8759  0.5884
16602SOL     OW51093   1.226   0.443   6.247  0.1390 -0.5599 -0.2094
16602SOL    HW151094   1.251   0.531   6.276 -0.8300  1.0656 -3.7541
16602SOL    HW251095   1.133   0.436   6.271  0.3916 -0.9653  0.7052
16603SOL     OW51096   3.652   1.894   6.025  0.8717 -0.2739 -0.5737
16603SOL    HW151097   3.680   1.872   5.936  0.1571  1.7360 -1.3610
16603SOL    HW251098   3.720   1.953   6.057 -0.2163  1.2178 -0.8875
16604SOL     OW51099   1.788   0.220   5.215 -0.0420 -0.0675 -0.0637
16604SOL    HW151100   1.714   0.160   5.216  1.2434 -1.7641  2.2917
16604SOL    HW251101   1.850   0.184   5.279  2.0831  2.2054 -0.6632
16605SOL     OW51102   1.910   8.229   8.410  0.2007 -0.2000  0.3482
16605SOL    HW151103   1.874   8.224   8.499  1.3068 -1.2290  0.7620
16605SOL    HW251104   1.951   8.144   8.396  1.0780  0.3728 -0.6981
16606SOL     OW51105   2.301   7.789   3.359  0.0262 -0.1644 -0.6462
16606SOL    HW151106   2.219   7.774   3.313 -0.1070  0.1852 -0.5249
16606SOL    HW251107   2.277   7.842   3.435 -0.1541 -2.7406  1.2258
16607SOL     OW51108   0.305   1.317   3.474  0.0295  0.1902 -0.0481
16607SOL    HW151109   0.327   1.226   3.492 -0.2337 -0.0276 -0.7851
16607SOL    HW251110   0.218   1.329   3.513  0.2448  0.2552  0.4223
16608SOL     OW51111   0.253   5.297   8.698  0.1894 -0.6136  0.3831
16608SOL    HW151112   0.184   5.231   8.697 -1.9049  1.4138 -1.3659
16608SOL    HW251113   0.260   5.322   8.790 -0.8008 -1.5068  0.7246
16609SOL     OW51114   4.259   1.759   3.332  0.0536  0.1511  0.4070
16609SOL    HW151115   4.216   1.816   3.268 -0.6298 -0.4051  0.3530
16609SOL    HW251116   4.351   1.762   3.308 -0.1432  0.2231 -0.4008
16610SOL     OW51117   2.897   0.727   6.776 -0.1456  0.2266 -0.2767
16610SOL    HW151118   2.920   0.688   6.860  1.6192  0.4396 -0.6252
16610SOL    HW251119   2.955   0.803   6.768 -0.1360  0.0888 -1.7710
16611SOL     OW51120   6.630   7.136   1.341 -0.1885 -0.0940 -0.6845
16611SOL    HW151121   6.704   7.076   1.346 -0.5927 -0.5520 -0.0398
16611SOL    HW251122   6.576   7.102   1.270  0.1459  0.1651 -1.0687
16612SOL     OW51123   8.661   0.538   2.080 -0.7234 -0.3957  0.6049
16612SOL    HW151124   8.611   0.470   2.123 -1.0235  0.7147  2.1033
16612SOL    HW251125   8.646   0.616   2.133  0.9515  0.4447 -0.0748
16613SOL     OW51126   6.979   2.394   4.166 -0.6542  0.3262  0.1317
16613SOL    HW151127   6.951   2.317   4.117 -0.6781 -0.1419  0.8666
16613SOL    HW251128   7.059   2.422   4.122 -1.0406  0.3332 -0.5954
16614SOL     OW51129   3.322   3.641   2.791 -0.3896 -0.3812 -0.2179
16614SOL    HW151130   3.240   3.653   2.840 -1.5671 -0.8661 -1.9800
16614SOL    HW251131   3.371   3.722   2.806 -0.5681 -0.6251  1.9575
16615SOL     OW51132   8.215   4.263   1.170  0.1509 -0.6587 -0.7437
16615SOL    HW151133   8.237   4.304   1.086 -0.3214 -0.9417 -1.0079
16615SOL    HW251134   8.128   4.227   1.156 -0.5891  0.6117  0.3374
16616SOL     OW51135   6.569   6.604   0.590  0.0643  0.3926 -0.6782
16616SOL    HW151136   6.518   6.551   0.651 -2.1905  2.5735 -0.5029
16616SOL    HW251137   6.580   6.548   0.513  0.1765 -1.2561  0.4751
16617SOL     OW51138   5.767   1.665   3.561  0.1453 -0.5304  0.2317
16617SOL    HW151139   5.729   1.579   3.543 -4.5187  1.5898 -1.6376
16617SOL    HW251140   5.769   1.670   3.657  4.1803 -3.8184  0.6363
16618SOL     OW51141   7.945   3.082   2.091  0.1240  0.1327 -0.1401
16618SOL    HW151142   7.927   3.038   2.008 -5.3232 -0.1832  0.8230
16618SOL    HW251143   7.955   3.174   2.068  1.2490 -0.2489 -1.2771
16619SOL     OW51144   8.421   4.428   6.702  0.1999  0.2647 -0.1352
16619SOL    HW151145   8.449   4.507   6.748 -0.5356  0.8350 -0.6525
16619SOL    HW251146   8.370   4.379   6.767  0.1956  0.4801  0.0237
16620SOL     OW51147   7.663   6.149   5.940 -0.1407 -0.3434  0.1872
16620SOL    HW151148   7.606   6.203   5.885 -0.2723 -0.4231  0.2423
16620SOL    HW251149   7.751   6.165   5.908 -0.3342 -1.4585 -0.9924
16621SOL     OW51150   4.601   6.581   5.944 -0.1680  0.2544 -0.3110
16621SOL    HW151151   4.660   6.554   5.873 -1.7209  0.8253 -1.8837
16621SOL    HW251152   4.589   6.675   5.930  1.4643  0.9429  2.2732
16622SOL     OW51153   4.263   7.278   1.373 -0.4672 -0.6228  0.8025
16622SOL    HW151154   4.241   7.194   1.334 -0.4817 -0.0820 -0.3736
16622SOL    HW251155   4.358   7.283   1.368 -0.3726 -1.0076  1.8357
16623SOL     OW51156   0.911   6.563   0.527  0.6760 -0.2747 -0.1551
16623SOL    HW151157   0.857   6.640   0.507 -1.1438 -0.8605  2.0348
16623SOL    HW251158   0.973   6.595   0.593  1.4155 -0.1994 -0.8677
16624SOL     OW51159   4.370   4.303   5.956  0.4081  0.4980  0.7089
16624SOL    HW151160   4.378   4.376   6.017 -1.5050  0.3406  1.2289
16624SOL    HW251161   4.455   4.260   5.958  1.0355  1.7240  1.6744
16625SOL     OW51162   0.023   1.342   5.233  0.0475  0.3459  0.4628
16625SOL    HW151163   0.109   1.342   5.275 -0.3739  1.0944  1.3798
16625SOL    HW251164  -0.013   1.429   5.253 -1.9021 -0.7670  2.1702
16626SOL     OW51165   2.905   8.301   0.358 -0.0519  0.1646 -0.0086
16626SOL    HW151166   2.933   8.290   0.267 -1.9208 -1.1151 -0.4625
16626SOL    HW251167   2.912   8.396   0.373 -1.9694  0.7548 -2.2753
16627SOL     OW51168   1.386   4.327   2.531 -0.8176 -0.1790  0.2198
16627SOL    HW151169   1.321   4.396   2.518 -1.6086 -0.7936  0.8391
16627SOL    HW251170   1.398   4.322   2.625 -0.0474 -0.2374  0.1219
16628SOL     OW51171   8.237   2.027   1.766 -0.4397 -0.6963 -0.2330
16628SOL    HW151172   8.268   2.115   1.788 -0.2893 -0.6018 -0.8224
16628SOL    HW251173   8.300   1.995   1.701 -0.6018 -1.1667 -0.1593
16629SOL     OW51174   1.197   3.196   5.643  0.0266  0.0805  0.0011
16629SOL    HW151175   1.185   3.114   5.595 -1.0585  0.2013  0.0562
16629SOL    HW251176   1.135   3.191   5.715 -1.2078  1.6254 -0.8959
16630SOL     OW51177   7.363   1.796   0.431  0.6681  0.0592  0.0444
16630SOL    HW151178   7.347   1.858   0.502 -0.0211  0.4868 -0.4680
16630SOL    HW251179   7.375   1.852   0.354  1.6714 -0.3839 -0.1371
16631SOL     OW51180   2.846   7.470   8.511  0.5839 -0.3072 -0.1168
16631SOL    HW151181   2.788   7.399   8.482  0.3635  0.2092 -0.9606
16631SOL    HW251182   2.845   7.463   8.606 -0.9731 -0.2402 -0.0962
16632SOL     OW51183   8.133   4.203   0.628  0.5416 -0.1517 -0.1532
16632SOL    HW151184   8.114   4.147   0.553 -0.4872  1.8192 -1.4864
16632SOL    HW251185   8.190   4.272   0.593  2.3532 -0.6591  1.5807
16633SOL     OW51186   6.287   5.789   7.954 -0.3883  0.8841  0.5526
16633SOL    HW151187   6.284   5.761   8.045  0.2597 -0.2744  0.2479
16633SOL    HW251188   6.221   5.735   7.910 -0.7946  1.5321  0.3521
16634SOL     OW51189   1.055   5.457   4.094  0.5511  0.1348  0.4387
16634SOL    HW151190   1.030   5.544   4.124  0.6123  0.3252 -0.0492
16634SOL    HW251191   1.011   5.448   4.009  0.5347 -0.3146  0.4936
16635SOL     OW51192   7.556   3.538   2.723 -0.4344 -0.2895 -0.1017
16635SOL    HW151193   7.535   3.631   2.732 -0.2343 -0.0580 -1.6511
16635SOL    HW251194   7.630   3.524   2.782 -0.6057  0.4790  0.3069
16636SOL     OW51195   8.428   0.592   3.832 -0.5808  0.4350 -0.4964
16636SOL    HW151196   8.489   0.585   3.905 -0.7077  0.8432 -0.3525
16636SOL    HW251197   8.477   0.557   3.757  0.4679  2.3323 -0.7621
16637SOL     OW51198   5.768   5.055   0.685  0.7510 -0.1654 -0.2431
16637SOL    HW151199   5.676   5.042   0.705  0.8095 -0.6179 -0.2680
16637SOL    HW251200   5.800   4.969   0.658  0.9759  0.1700 -1.0606
16638SOL     OW51201   1.306   5.852   6.442 -0.1505  0.3488  0.0522
16638SOL    HW151202   1.273   5.767   6.471 -1.4306  0.3688 -1.2536
16638SOL    HW251203   1.270   5.864   6.354  0.1439  2.1638  0.1322
16639SOL     OW51204   3.009   1.006   6.602 -0.2937  0.9264 -0.7385
16639SOL    HW151205   3.039   1.094   6.622 -0.1876  0.8521 -0.5733
16639SOL    HW251206   3.085   0.950   6.618 -0.4236  0.7784 -0.6357
16640SOL     OW51207   6.627   2.228   0.299  0.6559  0.1381  0.9105
16640SOL    HW151208   6.536   2.229   0.328  1.0604  0.3047  2.2887
16640SOL    HW251209   6.634   2.151   0.243 -0.1946 -0.2378  1.2983
16641SOL     OW51210   5.806   5.033   4.821 -0.3135 -0.1490  0.4596
16641SOL    HW151211   5.879   5.006   4.765 -1.2427  0.6258 -1.2121
16641SOL    HW251212   5.746   4.959   4.819 -0.2723 -0.1853  0.5690
16642SOL     OW51213   3.071   4.335   5.260 -0.1970  0.8635  0.0895
16642SOL    HW151214   3.041   4.425   5.275 -0.0302  1.1293 -1.0241
16642SOL    HW251215   3.152   4.329   5.311  0.9637  2.0913 -1.4725
16643SOL     OW51216   2.725   4.638   7.005  0.1419 -0.1652 -0.0418
16643SOL    HW151217   2.819   4.642   7.023  0.1380  3.7792 -0.1144
16643SOL    HW251218   2.714   4.686   6.923 -1.6932 -3.4172 -1.9223
16644SOL     OW51219   2.070   8.223   4.804 -0.5565  0.1117 -0.1173
16644SOL    HW151220   2.000   8.167   4.772 -2.0945  2.1782 -0.5732
16644SOL    HW251221   2.044   8.246   4.893  0.4419 -0.4882  0.3422
16645SOL     OW51222   1.435   3.417   1.849  0.4169  0.1785  0.3430
16645SOL    HW151223   1.507   3.422   1.786  0.9373  2.9879  1.0411
16645SOL    HW251224   1.461   3.347   1.909  0.6563 -1.4802 -1.5798
16646SOL     OW51225   3.175   2.868   0.115 -0.2229 -0.1211  0.5082
16646SOL    HW151226   3.127   2.892   0.035  0.6746 -1.2989 -0.4114
16646SOL    HW251227   3.129   2.791   0.148  0.7008 -0.9553 -0.1042
16647SOL     OW51228   6.343   4.800   8.425  0.4612  0.1065  0.2194
16647SOL    HW151229   6.413   4.739   8.401 -0.2750 -1.2956  1.4647
16647SOL    HW251230   6.276   4.787   8.358  1.4095  1.6461 -1.1344
16648SOL     OW51231   3.314   5.789   5.258 -0.4422 -0.2331 -0.3189
16648SOL    HW151232   3.312   5.835   5.174 -0.0862  0.7167  0.1784
16648SOL    HW251233   3.354   5.705   5.238 -0.9905 -0.2983 -1.2285
16649SOL     OW51234   8.699   1.641   8.331 -0.3303  0.5980  0.5050
16649SOL    HW151235   8.666   1.703   8.265  1.1603 -1.4436 -2.4026
16649SOL    HW251236   8.767   1.689   8.377  0.4890  1.3604 -1.3838
16650SOL     OW51237   0.488   5.054   3.746 -0.4336 -0.0261  0.1020
16650SOL    HW151238   0.532   5.119   3.691 -0.9694 -0.3966 -0.7884
16650SOL    HW251239   0.395   5.064   3.725 -0.4725 -1.5842 -0.6559
16651SOL     OW51240   3.126   6.352   2.092 -0.3356 -0.5039 -0.8378
16651SOL    HW151241   3.079   6.277   2.127  1.1786 -1.3469 -0.5372
16651SOL    HW251242   3.059   6.403   2.045 -1.4710 -1.7802 -0.6470
16652SOL     OW51243   8.475   7.657   6.298 -0.4709 -0.7899  0.3362
16652SOL    HW151244   8.445   7.597   6.367  0.0098 -2.3095 -0.7227
16652SOL    HW251245   8.476   7.603   6.218 -1.8997  1.1538 -1.0779
16653SOL     OW51246   4.030   7.126   6.201  0.1784 -0.0275  0.0628
16653SOL    HW151247   4.048   7.219   6.213 -1.6613  0.5892 -1.5366
16653SOL    HW251248   3.944   7.113   6.241 -0.1994 -0.7235 -0.9440
16654SOL     OW51249   6.587   3.201   4.526 -0.5685 -0.0403  0.4822
16654SOL    HW151250   6.582   3.284   4.574 -0.2867 -0.6830  1.6830
16654SOL    HW251251   6.496   3.170   4.523 -0.6894  0.3694 -0.0741
16655SOL     OW51252   8.470   1.144   0.254 -0.1461 -0.1741 -0.0368
16655SOL    HW151253   8.435   1.067   0.209  2.4842 -0.3080 -2.0676
16655SOL    HW251254   8.449   1.217   0.196  0.0552  0.2072  0.3613
16656SOL     OW51255   4.209   3.666   7.350 -0.4321  0.1327  0.1217
16656SOL    HW151256   4.280   3.686   7.290 -0.7591  0.4631 -0.1554
16656SOL    HW251257   4.216   3.732   7.419 -1.5506  1.3079 -0.8257
16657SOL     OW51258   3.696   1.593   3.083  0.0572 -0.8118  0.1018
16657SOL    HW151259   3.648   1.667   3.119  1.4826 -0.1240  0.6491
16657SOL    HW251260   3.787   1.609   3.106  0.4468 -2.6071  0.0179
16658SOL     OW51261   3.636   8.003   8.483 -0.2677 -0.1323  0.4315
16658SOL    HW151262   3.677   7.931   8.436 -0.7851  0.9210 -1.7815
16658SOL    HW251263   3.706   8.067   8.496 -0.0121 -0.6219  1.6065
16659SOL     OW51264   5.808   8.169   2.485  0.1544  0.0550  0.4127
16659SOL    HW151265   5.769   8.215   2.559 -1.2238 -0.8246  0.2737
16659SOL    HW251266   5.877   8.227   2.453 -0.3557  1.1920  1.3360
16660SOL     OW51267   3.659   3.298   8.156 -0.2439 -0.6353 -0.5428
16660SOL    HW151268   3.659   3.205   8.136 -1.0999 -0.7190 -0.2075
16660SOL    HW251269   3.588   3.309   8.219  0.5573  0.0685  0.2688
16661SOL     OW51270   4.127   8.073   0.850  0.0527 -0.1329 -0.4361
16661SOL    HW151271   4.078   8.037   0.924 -1.2393  2.7988  0.2977
16661SOL    HW251272   4.066   8.069   0.777 -0.4141  1.1885 -0.1480
16662SOL     OW51273   4.131   2.735   1.043  0.0412  0.1598  0.5600
16662SOL    HW151274   4.060   2.795   1.063 -2.2503 -2.0032 -0.5591
16662SOL    HW251275   4.149   2.748   0.950 -0.1206 -0.5016  0.4290
16663SOL     OW51276   6.859   2.257   8.531  0.2795  0.2840 -0.1771
16663SOL    HW151277   6.799   2.188   8.557 -0.2142  0.6851 -0.2439
16663SOL    HW251278   6.897   2.227   8.449 -0.7594  0.5836 -0.7764
16664SOL     OW51279   5.230   7.230   1.705 -0.2633  0.2098 -0.6506
16664SOL    HW151280   5.296   7.300   1.710  0.5981 -0.5817 -0.6480
16664SOL    HW251281   5.185   7.246   1.623 -1.7977  2.2325  0.4768
16665SOL     OW51282   4.720   4.785   5.345 -0.0038 -0.0452  0.6168
16665SOL    HW151283   4.741   4.755   5.257 -0.5371  3.4827 -0.8871
16665SOL    HW251284   4.643   4.734   5.370  0.9186 -2.0192 -0.3629
16666SOL     OW51285   7.736   2.825   6.718 -0.0625  0.7029  0.6055
16666SOL    HW151286   7.826   2.858   6.713  0.3820 -0.6915 -1.3928
16666SOL    HW251287   7.738   2.741   6.673 -1.7506 -0.8475  3.1931
16667SOL     OW51288   6.807   4.048   1.620 -0.2877 -0.5982 -0.3344
16667SOL    HW151289   6.885   4.101   1.636 -0.5613  0.3684 -1.9787
16667SOL    HW251290   6.788   4.008   1.705  1.2652  0.1155  0.4004
16668SOL     OW51291   6.713   1.198   7.856 -0.2109  0.1809  0.0697
16668SOL    HW151292   6.781   1.248   7.900 -0.3825  0.1168  0.4080
16668SOL    HW251293   6.749   1.180   7.769 -0.0150  0.6022  0.0616
16669SOL     OW51294   0.735   3.869   3.636  0.2931 -0.1013 -0.4068
16669SOL    HW151295   0.646   3.884   3.605  0.9426  1.9085 -1.4265
16669SOL    HW251296   0.763   3.789   3.590 -0.1091  0.6782 -2.0599
16670SOL     OW51297   8.708   2.998   3.323  0.5563  0.4014  0.3314
16670SOL    HW151298   8.774   3.064   3.344  0.8246 -0.3896  2.1613
16670SOL    HW251299   8.627   3.033   3.360 -0.6335  2.3148 -3.6008
16671SOL     OW51300   7.082   2.211   2.790  0.6257  0.3794  0.1643
16671SOL    HW151301   7.124   2.297   2.783  2.7309 -0.6186 -0.0554
16671SOL    HW251302   7.009   2.215   2.727  0.7835  1.9247  0.0334
16672SOL     OW51303   5.086   5.403   0.925  0.5150 -0.3274 -0.2703
16672SOL    HW151304   4.996   5.371   0.927 -0.1699  1.4513 -0.4685
16672SOL    HW251305   5.131   5.352   0.993 -1.0181 -0.2294  0.8795
16673SOL     OW51306   0.454   2.522   2.697  0.0054 -0.1955 -0.0234
16673SOL    HW151307   0.535   2.561   2.729 -0.7453  0.3651  1.2540
16673SOL    HW251308   0.429   2.459   2.764 -1.5280  0.8970  0.4724
16674SOL     OW51309   1.384   2.450   8.322  0.6962  0.1068  0.0304
16674SOL    HW151310   1.374   2.470   8.415 -1.2258  0.2078 -0.1728
16674SOL    HW251311   1.337   2.520   8.277 -0.7026 -1.3787 -0.9240
16675SOL     OW51312   0.393   1.717   5.056  0.1016 -0.2276  0.1139
16675SOL    HW151313   0.392   1.622   5.063 -1.4411 -0.1671  1.2420
16675SOL    HW251314   0.409   1.747   5.146  1.2437  0.6051 -0.3309
16676SOL     OW51315   0.879   8.460   7.293  0.3412 -0.0518  0.1556
16676SOL    HW151316   0.950   8.405   7.327  2.2100  1.7119 -0.6739
16676SOL    HW251317   0.914   8.498   7.213 -1.7309  0.5867 -0.5157
16677SOL     OW51318   0.788   4.240   8.644  0.0636 -0.2691  0.7063
16677SOL    HW151319   0.760   4.330   8.657  2.5906  0.7339 -0.1042
16677SOL    HW251320   0.853   4.224   8.713  0.1341 -1.2319  0.4356
16678SOL     OW51321   1.062   5.540   7.787 -0.2773 -0.1647 -0.0575
16678SOL    HW151322   1.141   5.593   7.781 -0.9821  1.0097  0.4974
16678SOL    HW251323   1.016   5.576   7.864 -1.5613 -0.4986 -0.6459
16679SOL     OW51324   5.630   5.819   6.390  0.1437 -0.3933 -0.5002
16679SOL    HW151325   5.554   5.834   6.333  1.7188  3.4491 -1.8943
16679SOL    HW251326   5.698   5.786   6.331  1.4622  2.5923 -0.8059
16680SOL     OW51327   6.704   4.386   2.997  0.4003  0.2550 -0.8302
16680SOL    HW151328   6.721   4.300   3.036 -0.1686  0.5554  0.1054
16680SOL    HW251329   6.689   4.368   2.904  1.7328 -0.4824 -0.9364
16681SOL     OW51330   3.241   8.410   3.352 -0.3870  0.7104  0.2230
16681SOL    HW151331   3.217   8.468   3.280  0.9100  1.3593  0.2870
16681SOL    HW251332   3.323   8.446   3.387  0.4265 -1.1034  0.3166
16682SOL     OW51333   5.594   4.338   2.486 -0.6572  0.2423 -0.1330
16682SOL    HW151334   5.511   4.376   2.511 -1.1224  0.3643 -1.7462
16682SOL    HW251335   5.647   4.411   2.455  0.0539  0.1605  0.8289
16683SOL     OW51336   4.209   8.404   1.186 -0.3440 -0.2844 -0.2377
16683SOL    HW151337   4.267   8.339   1.227 -2.1597 -2.1455 -0.4810
16683SOL    HW251338   4.245   8.488   1.215  3.0856 -1.2389 -1.2079
16684SOL     OW51339   7.905   3.744   2.267  0.2140 -0.2426 -0.0521
16684SOL    HW151340   7.889   3.710   2.355 -1.7256 -1.2656 -0.7588
16684SOL    HW251341   7.925   3.667   2.214 -1.6552 -0.0451 -1.1246
16685SOL     OW51342   0.309   4.918   1.985 -0.0836  0.1253  0.3063
16685SOL    HW151343   0.340   4.875   1.906 -1.6344 -0.4081 -0.0226
16685SOL    HW251344   0.378   4.982   2.005  1.5703 -1.4783  0.0008
16686SOL     OW51345   8.035   2.756   2.130  0.3714  0.3511 -0.1111
16686SOL    HW151346   7.990   2.836   2.155  0.0975  0.2266 -0.2073
16686SOL    HW251347   8.000   2.733   2.044  0.5447  0.2008 -0.1441
16687SOL     OW51348   0.972   8.712   6.148  0.3525  0.1806  1.1190
16687SOL    HW151349   0.886   8.703   6.107  1.0739 -0.4097 -0.3584
16687SOL    HW251350   0.956   8.763   6.227 -1.2551  0.6422  0.5334
16688SOL     OW51351   3.396   4.015   8.184  0.1990  0.2739  0.6676
16688SOL    HW151352   3.371   4.012   8.092  0.0157 -0.8788  0.7359
16688SOL    HW251353   3.338   3.952   8.226  1.4591 -0.5173  1.2710
16689SOL     OW51354   1.933   5.879   0.525 -0.3034 -0.0990  0.3037
16689SOL    HW151355   1.881   5.800   0.512 -0.8919  0.4124 -0.5020
16689SOL    HW251356   2.005   5.871   0.463 -0.0919 -0.2289  0.5638
16690SOL     OW51357   2.618   2.141   8.699 -0.1441 -0.1011  0.4384
16690SOL    HW151358   2.640   2.124   8.607 -2.4226  0.8848 -0.3795
16690SOL    HW251359   2.633   2.235   8.710 -0.9651  0.0011  0.7306
16691SOL     OW51360   0.131   6.596   0.804 -0.5727 -0.0358  0.2701
16691SOL    HW151361   0.132   6.541   0.882 -0.6194  0.3906  0.5781
16691SOL    HW251362   0.100   6.539   0.734 -0.1707 -0.5220  0.4871
16692SOL     OW51363   6.518   1.551   6.837 -0.7550 -0.5657  0.2451
16692SOL    HW151364   6.470   1.632   6.854 -0.9873 -0.8343  0.8958
16692SOL    HW251365   6.609   1.579   6.828 -1.1812  0.1700 -2.6636
16693SOL     OW51366   1.621   5.528   2.972  0.5175  0.3221 -0.0288
16693SOL    HW151367   1.584   5.518   3.059  0.6140 -1.2590 -0.1475
16693SOL    HW251368   1.645   5.621   2.967  0.1261  0.5312  1.4510
16694SOL     OW51369   8.251   2.345   5.942 -0.3038 -0.5358  0.1225
16694SOL    HW151370   8.237   2.439   5.938 -2.9779 -0.8201  0.5985
16694SOL    HW251371   8.323   2.333   6.004  0.2267  1.1664 -0.1287
16695SOL     OW51372   2.951   1.488   5.876  0.3620  0.8372  0.4038
16695SOL    HW151373   3.002   1.454   5.949  1.5918 -1.4141 -1.3505
16695SOL    HW251374   3.016   1.531   5.819  0.8343 -3.0240 -2.4172
16696SOL     OW51375   1.645   4.849   0.707  0.1156 -0.6287 -1.0205
16696SOL    HW151376   1.740   4.834   0.711  0.0373 -1.0035 -0.5768
16696SOL    HW251377   1.606   4.773   0.750 -0.3918 -0.4962 -1.2352
16697SOL     OW51378   2.942   0.258   1.197 -0.0139  0.4364 -0.1867
16697SOL    HW151379   2.946   0.184   1.137 -1.5293 -0.2553  0.5064
16697SOL    HW251380   3.027   0.301   1.188  0.9119 -1.3782 -0.5994
16698SOL     OW51381   3.505   8.155   3.510  0.0477 -0.2043  0.3588
16698SOL    HW151382   3.543   8.068   3.519  0.4561  0.1342  2.1476
16698SOL    HW251383   3.574   8.215   3.538 -1.2991  0.4913  2.4261
16699SOL     OW51384   3.816   8.625   3.445 -0.1766 -0.2001 -0.3395
16699SOL    HW151385   3.858   8.675   3.375 -0.3669  1.2895  0.5681
16699SOL    HW251386   3.861   8.541   3.445 -0.8086 -0.6137 -2.8619
16700SOL     OW51387   5.258   7.939   6.958 -0.1631 -0.2017 -0.2150
16700SOL    HW151388   5.265   8.007   7.025  0.5993  1.4884 -1.9200
16700SOL    HW251389   5.316   7.869   6.989  2.4275  1.7177 -0.4088
16701SOL     OW51390   4.562   1.094   2.202  0.8039  0.1443  0.6056
16701SOL    HW151391   4.495   1.056   2.145  2.5592  0.8412 -2.0820
16701SOL    HW251392   4.614   1.019   2.230  0.6693 -0.0895  0.2462
16702SOL     OW51393   0.680   2.789   7.833 -0.3875  0.0395  0.3377
16702SOL    HW151394   0.735   2.730   7.782  0.7205  0.5978  0.8593
16702SOL    HW251395   0.684   2.756   7.922 -2.4406 -1.0201  0.0932
16703SOL     OW51396   3.813   6.726   6.436  0.5511 -0.1450  0.1664
16703SOL    HW151397   3.758   6.734   6.358 -0.0351 -0.0560  0.5837
16703SOL    HW251398   3.902   6.726   6.402  0.2935 -0.4165 -0.5315
16704SOL     OW51399   0.385   5.983   0.051 -0.4239 -1.0964 -0.1955
16704SOL    HW151400   0.385   6.038  -0.028 -0.4938 -0.8823 -0.0458
16704SOL    HW251401   0.456   6.019   0.105 -2.6668  1.1305  1.5000
16705SOL     OW51402   4.699   2.278   6.997  0.0136  0.0377 -0.4175
16705SOL    HW151403   4.758   2.338   6.952  1.0437 -0.8818 -0.3538
16705SOL    HW251404   4.758   2.220   7.046 -0.9749 -0.6066  0.0282
16706SOL     OW51405   1.896   0.091   1.645  0.8533 -0.4552  0.2053
16706SOL    HW151406   1.810   0.132   1.654  0.2392 -1.8363  0.9561
16706SOL    HW251407   1.958   0.164   1.651 -0.1810  0.3554  1.7036
16707SOL     OW51408   4.325   1.910   1.520 -0.2482  0.1113  0.1975
16707SOL    HW151409   4.399   1.886   1.576 -1.3322 -1.2201  1.1195
16707SOL    HW251410   4.289   1.827   1.491 -2.0178  0.6889  0.6276
16708SOL     OW51411   0.766   2.470   3.145 -0.3444 -0.0072 -0.1875
16708SOL    HW151412   0.859   2.490   3.154 -0.0854 -1.2643  0.1219
16708SOL    HW251413   0.764   2.387   3.097 -1.3600  0.6201 -1.3020
16709SOL     OW51414   0.110   1.469   2.148  0.0841  0.3020  0.4530
16709SOL    HW151415   0.036   1.527   2.132 -0.5522 -0.4334  0.6594
16709SOL    HW251416   0.103   1.446   2.240  0.3748 -0.0444  0.3922
16710SOL     OW51417   3.088   8.523   6.442  0.2066  0.1158  0.5648
16710SOL    HW151418   3.077   8.581   6.367 -0.3735  0.3234  0.8022
16710SOL    HW251419   3.001   8.488   6.458  0.0670  0.9801  1.8566
16711SOL     OW51420   6.156   2.908   1.636 -0.0938 -0.1672  0.4729
16711SOL    HW151421   6.237   2.858   1.625  0.2914  0.1915  1.5354
16711SOL    HW251422   6.174   2.966   1.710 -0.9044  0.7786 -0.0483
16712SOL     OW51423   2.084   3.927   0.314 -0.6656  0.3682 -0.0754
16712SOL    HW151424   2.097   3.892   0.226  0.2574 -0.7969  0.5035
16712SOL    HW251425   2.162   3.981   0.329  0.0678 -0.8760  0.6914
16713SOL     OW51426   0.051   0.052   4.431 -0.0729 -0.0702 -0.3560
16713SOL    HW151427   0.042  -0.032   4.476 -1.7673 -0.5452 -1.4856
16713SOL    HW251428  -0.037   0.072   4.400  0.4373  1.8064 -0.6914
16714SOL     OW51429   7.732   5.512   5.425 -0.0955  0.0027 -0.2241
16714SOL    HW151430   7.660   5.457   5.393 -1.1937  0.8651  0.6962
16714SOL    HW251431   7.692   5.597   5.441  1.4911  0.9658 -1.1941
16715SOL     OW51432   8.690   3.745   5.055  0.0441 -0.1975 -0.2130
16715SOL    HW151433   8.763   3.804   5.071  0.1256 -0.2450 -0.4017
16715SOL    HW251434   8.614   3.802   5.042 -0.1622 -0.1753  0.9905
16716SOL     OW51435   2.864   2.478   3.726  0.0822 -0.1267 -0.0848
16716SOL    HW151436   2.863   2.498   3.632  1.2859  1.1384  0.1388
16716SOL    HW251437   2.775   2.497   3.755  0.0884  0.9545 -0.6965
16717SOL     OW51438   4.062   5.832   4.204 -0.0868 -0.3059  0.2923
16717SOL    HW151439   3.976   5.796   4.179 -0.4873  1.3238 -0.8101
16717SOL    HW251440   4.117   5.817   4.127 -0.5864  2.3538 -0.6905
16718SOL     OW51441   7.059   7.830   2.331 -0.0351 -0.1738  0.6691
16718SOL    HW151442   7.151   7.835   2.354  0.3116  1.3468 -0.7823
16718SOL    HW251443   7.059   7.821   2.235 -1.3649  1.2791  0.4925
16719SOL     OW51444   4.905   3.662   0.206  0.1227  0.1302  0.0699
16719SOL    HW151445   4.827   3.610   0.187 -0.5919  0.3997  1.9906
16719SOL    HW251446   4.977   3.599   0.207 -0.2733 -0.3366 -0.4499
16720SOL     OW51447   3.519   7.544   6.177  0.3679  0.7163  0.2960
16720SOL    HW151448   3.457   7.615   6.160  0.9189  1.0316 -0.4780
16720SOL    HW251449   3.473   7.485   6.236 -0.0167  1.8276  1.1282
16721SOL     OW51450   5.418   8.036   8.595 -0.2864 -0.2366  0.5360
16721SOL    HW151451   5.440   8.062   8.505  0.7272 -0.5600  0.6782
16721SOL    HW251452   5.342   8.090   8.617 -0.9698 -0.6241 -0.7500
16722SOL     OW51453   6.634   5.910   0.202 -0.5796  0.6452 -0.5330
16722SOL    HW151454   6.710   5.963   0.226 -0.1789 -0.2850  0.3146
16722SOL    HW251455   6.559   5.967   0.216 -0.1250  1.1222 -0.0267
16723SOL     OW51456   8.468   2.859   2.191 -0.1972 -0.3436  0.0502
16723SOL    HW151457   8.393   2.856   2.250  0.2283  0.7896  0.6836
16723SOL    HW251458   8.538   2.900   2.242  0.5685 -0.5105 -0.8253
16724SOL     OW51459   3.262   2.645   0.676  0.3821  0.3251  0.1747
16724SOL    HW151460   3.216   2.600   0.747  0.9831  1.8194  1.5659
16724SOL    HW251461   3.295   2.574   0.621 -2.2228 -0.8367 -0.0457
16725SOL     OW51462   0.847   6.522   2.337  0.0901 -0.0055  0.1452
16725SOL    HW151463   0.870   6.550   2.426  0.8813 -1.3043  0.3838
16725SOL    HW251464   0.865   6.428   2.336  0.2928  0.0154 -1.4496
16726SOL     OW51465   5.808   6.299   0.383  0.0726 -0.3374 -0.1863
16726SOL    HW151466   5.750   6.225   0.365 -1.0309  0.5828 -0.5039
16726SOL    HW251467   5.889   6.259   0.415  0.7373 -1.8670 -3.4223
16727SOL     OW51468   3.379   6.452   0.748  0.4043 -0.0989  1.3092
16727SOL    HW151469   3.447   6.403   0.794 -0.6365 -2.0098  0.9221
16727SOL    HW251470   3.299   6.400   0.760 -0.3561  0.4906 -0.7646
16728SOL     OW51471   1.443   1.230   5.939 -0.0238  0.1320 -0.2860
16728SOL    HW151472   1.404   1.165   5.881  0.3339 -0.6490  0.3266
16728SOL    HW251473   1.370   1.286   5.966 -0.8840 -1.6288  1.2686
16729SOL     OW51474   1.386   5.537   5.704  0.0372 -0.3498  0.1724
16729SOL    HW151475   1.350   5.503   5.785 -0.5697 -0.1426 -0.0051
16729SOL    HW251476   1.342   5.621   5.691  2.0253  0.8946  0.9777
16730SOL     OW51477   0.634   4.417   3.573 -0.1302 -0.9175  0.2044
16730SOL    HW151478   0.585   4.422   3.491  0.2518  0.8853  0.0456
16730SOL    HW251479   0.719   4.382   3.548 -0.0204 -0.3867 -0.1635
16731SOL     OW51480   4.880   2.137   7.133 -0.5319  0.5397  0.0871
16731SOL    HW151481   4.975   2.127   7.129 -0.8072 -2.6343 -0.5129
16731SOL    HW251482   4.856   2.110   7.222 -1.0380 -1.1553 -0.5265
16732SOL     OW51483   8.053   2.104   7.094 -0.1110  0.1824  0.4357
16732SOL    HW151484   7.999   2.137   7.165  0.2867  0.8069  0.4508
16732SOL    HW251485   7.991   2.071   7.029 -0.4738 -0.7054  1.2128
16733SOL     OW51486   8.318   2.287   3.384 -0.1557 -0.0310  0.6847
16733SOL    HW151487   8.234   2.250   3.409 -1.2951  1.7371 -0.3269
16733SOL    HW251488   8.324   2.272   3.289  1.0851 -0.8819  0.8678
16734SOL     OW51489   1.676   3.493   4.196  0.1059 -0.1439 -0.1995
16734SOL    HW151490   1.642   3.464   4.280 -0.6458  0.2726 -0.3557
16734SOL    HW251491   1.609   3.551   4.161 -0.1560 -1.2263 -1.6306
16735SOL     OW51492   3.158   0.870   3.215  0.0267  0.3436 -0.4342
16735SOL    HW151493   3.090   0.827   3.266 -0.6106  1.1418 -0.5930
16735SOL    HW251494   3.189   0.802   3.154 -1.5899  0.3451 -1.3080
16736SOL     OW51495   4.167   1.961   7.508 -0.2797 -0.0690  0.0306
16736SOL    HW151496   4.195   1.934   7.421 -2.3340 -0.4904 -0.5697
16736SOL    HW251497   4.077   1.994   7.495 -1.0597 -1.1605  2.1353
16737SOL     OW51498   0.316   5.337   6.203 -0.5021  0.1710 -0.4349
16737SOL    HW151499   0.289   5.276   6.134  0.5860  0.0898 -0.8113
16737SOL    HW251500   0.311   5.423   6.161  1.7090  0.0028 -1.1943
16738SOL     OW51501   5.790   3.094   1.107  0.0423  0.2193  0.7094
16738SOL    HW151502   5.848   3.019   1.097  0.6931  0.4659  2.3531
16738SOL    HW251503   5.815   3.154   1.036  0.7166 -0.3609  0.4477
16739SOL     OW51504   0.939   1.570   0.759  0.1044  0.0899  0.2768
16739SOL    HW151505   0.882   1.571   0.836  0.8612 -0.3911  0.8601
16739SOL    HW251506   0.888   1.614   0.691 -1.5717 -1.6918  0.3097
16740SOL     OW51507   3.527   4.293   5.804 -0.4386  0.1083 -0.3009
16740SOL    HW151508   3.607   4.243   5.788  0.4107  1.3164 -0.0066
16740SOL    HW251509   3.516   4.291   5.899 -0.2421  0.6944 -0.2617
16741SOL     OW51510   2.248   5.235   2.778  0.3567  0.1554 -0.8985
16741SOL    HW151511   2.287   5.189   2.703 -0.1309 -1.2321 -0.3374
16741SOL    HW251512   2.312   5.225   2.848 -0.5421 -1.3098 -0.2476
16742SOL     OW51513   4.290   2.444   0.475 -0.4001 -0.5006  0.8649
16742SOL    HW151514   4.372   2.422   0.520  0.0949 -1.2101 -0.3382
16742SOL    HW251515   4.232   2.370   0.492  0.2746 -1.4576 -0.7849
16743SOL     OW51516   0.543   6.526   3.204  0.4815  0.1044 -0.0995
16743SOL    HW151517   0.486   6.490   3.271  0.9033 -1.4115 -0.5127
16743SOL    HW251518   0.533   6.621   3.211 -0.9642 -0.0993  0.7852
16744SOL     OW51519   6.523   4.893   4.093 -0.0591 -0.0857 -0.1414
16744SOL    HW151520   6.512   4.858   4.005  0.9434 -0.5322 -0.1060
16744SOL    HW251521   6.474   4.833   4.149  0.8885 -0.9273 -0.1884
16745SOL     OW51522   1.694   6.754   0.799 -0.3068 -0.6480 -0.3310
16745SOL    HW151523   1.781   6.772   0.833 -1.2067  0.5220  1.5260
16745SOL    HW251524   1.681   6.660   0.815  0.3575 -0.6899 -0.0047
16746SOL     OW51525   8.070   7.902   3.757  0.6265 -0.3169 -0.4939
16746SOL    HW151526   8.038   7.952   3.681  0.9387 -0.7866 -0.9383
16746SOL    HW251527   8.063   7.964   3.830  3.3575  1.2785 -1.4285
16747SOL     OW51528   0.747   5.086   8.360 -0.2019  0.0639  0.1326
16747SOL    HW151529   0.758   5.008   8.305 -1.2711 -0.1936  0.2594
16747SOL    HW251530   0.797   5.067   8.439  2.6826  1.0733 -1.2935
16748SOL     OW51531   1.664   4.252   3.606 -0.3576  0.0945  0.1232
16748SOL    HW151532   1.594   4.304   3.645 -3.0975 -2.6227 -0.7910
16748SOL    HW251533   1.656   4.268   3.512 -1.3703 -1.9413 -0.1946
16749SOL     OW51534   5.830   5.817   5.154  0.2108 -0.1391  0.2577
16749SOL    HW151535   5.754   5.806   5.097  0.2712 -0.3871  0.2219
16749SOL    HW251536   5.823   5.747   5.218 -0.8581  1.2282  1.7243
16750SOL     OW51537   3.525   7.916   1.409  0.2248 -0.5298 -0.1650
16750SOL    HW151538   3.619   7.925   1.427 -0.0213  2.6785  0.0162
16750SOL    HW251539   3.511   7.963   1.327 -1.6754  2.3632  1.6257
16751SOL     OW51540   2.265   7.874   2.287 -0.2310  0.0396  0.4408
16751SOL    HW151541   2.254   7.817   2.211  1.0392 -1.2177  1.1487
16751SOL    HW251542   2.198   7.941   2.277 -0.5235 -0.4865 -1.4272
16752SOL     OW51543   3.435   0.005   3.247 -0.0662  0.0789  0.1688
16752SOL    HW151544   3.351  -0.025   3.212  0.0112  0.4769 -0.3701
16752SOL    HW251545   3.455  -0.056   3.318 -1.8244  1.1713  1.6871
16753SOL     OW51546   7.279   3.504   2.505 -0.3190  0.1231  0.1563
16753SOL    HW151547   7.248   3.568   2.570 -0.2617 -0.8678  1.1928
16753SOL    HW251548   7.361   3.541   2.473 -0.9632  1.2253 -0.2683
16754SOL     OW51549   2.737   8.557   2.219 -0.0923 -0.0695  0.4470
16754SOL    HW151550   2.741   8.614   2.296  1.6638  0.1566  0.2155
16754SOL    HW251551   2.649   8.520   2.222  0.0258 -0.3182  2.7419
16755SOL     OW51552   6.906   3.971   6.264  0.4596  0.1851  0.0954
16755SOL    HW151553   6.983   4.022   6.287  0.4967  0.1402  0.0698
16755SOL    HW251554   6.937   3.906   6.202  0.4085  0.1422  0.1147
16756SOL     OW51555   6.224   0.919   1.329  0.5388 -0.2160  0.1273
16756SOL    HW151556   6.309   0.877   1.318  0.6638 -0.1680  0.8691
16756SOL    HW251557   6.243   1.012   1.328  0.2225 -0.1224 -1.8360
16757SOL     OW51558   0.978   4.088   1.492 -0.5270 -0.3640  0.3226
16757SOL    HW151559   1.059   4.059   1.534  0.4644  0.6558 -0.8140
16757SOL    HW251560   1.007   4.139   1.416 -2.2428 -0.4192 -0.4147
16758SOL     OW51561   6.395   1.301   3.826  0.1501 -0.5317  0.4448
16758SOL    HW151562   6.349   1.223   3.793 -1.6484  0.6860 -0.0810
16758SOL    HW251563   6.452   1.267   3.895 -1.0761 -2.2388  0.6975
16759SOL     OW51564   5.823   0.502   0.182  0.8789  0.6666  0.0144
16759SOL    HW151565   5.770   0.486   0.104  1.1186 -2.1650  0.3256
16759SOL    HW251566   5.771   0.563   0.234 -1.8080 -1.4073 -0.0353
16760SOL     OW51567   2.446   1.592   0.755  0.1568  0.6379 -0.2009
16760SOL    HW151568   2.439   1.497   0.764 -0.5425  0.8813  2.9726
16760SOL    HW251569   2.540   1.610   0.763  0.2035  0.2697  0.1331
16761SOL     OW51570   1.344   7.177   4.598 -0.0005  0.0815 -0.5349
16761SOL    HW151571   1.429   7.207   4.632 -0.3961 -0.8375  1.3741
16761SOL    HW251572   1.355   7.083   4.586 -0.6418  0.0099 -0.6001
16762SOL     OW51573   7.306   0.116   5.154 -0.3640  0.3701  0.1902
16762SOL    HW151574   7.288   0.142   5.064  0.7162 -1.5874 -0.6541
16762SOL    HW251575   7.239   0.050   5.174 -0.3807  0.5365  0.7159
16763SOL     OW51576   6.814   3.055   1.155  0.1928 -0.2713 -0.6013
16763SOL    HW151577   6.803   2.970   1.113  1.7398 -0.7476 -0.1221
16763SOL    HW251578   6.770   3.046   1.240 -0.2129 -0.3714 -0.8229
16764SOL     OW51579   0.379   4.903   4.615 -0.4208  0.2499  0.8170
16764SOL    HW151580   0.309   4.844   4.590  0.6693  0.0642 -2.1992
16764SOL    HW251581   0.408   4.871   4.701 -1.4116 -2.0899  0.3546
16765SOL     OW51582   6.139   7.258   0.849 -0.3955  0.0609  0.5301
16765SOL    HW151583   6.128   7.197   0.776 -0.8212  0.1124  0.5486
16765SOL    HW251584   6.174   7.337   0.810 -0.8195  0.1606  0.3478
16766SOL     OW51585   1.624   6.384   6.244 -0.5613  0.4023  0.4121
16766SOL    HW151586   1.633   6.372   6.339 -0.3536 -1.0746  0.2253
16766SOL    HW251587   1.678   6.315   6.206  1.3856  2.4565 -0.8343
16767SOL     OW51588   5.150   7.554   0.410  0.0440  0.0531 -0.1607
16767SOL    HW151589   5.141   7.552   0.506  1.4521 -1.0364 -0.0325
16767SOL    HW251590   5.059   7.550   0.379 -0.4414  0.3412  1.1120
16768SOL     OW51591   5.924   2.988   4.828  0.0516  0.1215  0.6562
16768SOL    HW151592   5.885   3.064   4.787  2.2355  0.8751 -0.1271
16768SOL    HW251593   5.921   2.919   4.761 -1.4590 -0.3790  1.1950
16769SOL     OW51594   7.591   0.612   6.282  0.2035 -0.9307  0.5705
16769SOL    HW151595   7.580   0.659   6.364  1.4674 -0.2436  0.3724
16769SOL    HW251596   7.552   0.669   6.216 -0.0397 -1.0810  0.5850
16770SOL     OW51597   4.514   7.984   3.369  0.0703 -0.2905  0.2749
16770SOL    HW151598   4.515   8.049   3.298  0.7765 -0.9718 -0.3565
16770SOL    HW251599   4.605   7.980   3.399 -0.0360 -0.7308  0.5495
16771SOL     OW51600   5.988   4.255   4.572  0.2068  0.1871 -0.0050
16771SOL    HW151601   5.964   4.247   4.480  0.0878 -1.3180  0.1210
16771SOL    HW251602   6.072   4.208   4.578 -0.6640 -1.3204  0.9515
16772SOL     OW51603   2.765   3.229   5.351  0.6588  0.4656  0.2121
16772SOL    HW151604   2.819   3.156   5.322 -0.4462 -0.5298  0.5950
16772SOL    HW251605   2.679   3.190   5.370 -0.5010  2.1300 -1.2417
16773SOL     OW51606   6.494   3.197   6.770  0.2387 -0.2679  0.0685
16773SOL    HW151607   6.488   3.162   6.682 -1.5022 -1.2061  0.5140
16773SOL    HW251608   6.480   3.122   6.827 -0.7328  0.6526  1.0977
16774SOL     OW51609   2.122   2.565   0.286  0.2331 -0.3236 -0.1003
16774SOL    HW151610   2.132   2.656   0.311 -1.3733 -0.0606 -0.2861
16774SOL    HW251611   2.198   2.546   0.231  0.3635  1.0288 -0.4164
16775SOL     OW51612   2.607   1.211   4.665  0.6386  0.1669  0.3039
16775SOL    HW151613   2.688   1.234   4.619  0.2328 -2.4442 -2.0630
16775SOL    HW251614   2.583   1.289   4.714  4.6326  1.0059  1.2712
16776SOL     OW51615   2.899   7.060   6.624 -0.0850 -0.2204 -0.0434
16776SOL    HW151616   2.835   7.104   6.680 -1.7124  0.6891 -2.4774
16776SOL    HW251617   2.975   7.117   6.626 -0.6804  0.5801  0.0325
16777SOL     OW51618   8.541   4.977   6.752 -0.1751 -0.5974  1.0405
16777SOL    HW151619   8.459   5.012   6.718  0.9270 -0.3780 -1.5927
16777SOL    HW251620   8.567   4.910   6.689  1.8822 -0.3738  1.5822
16778SOL     OW51621   3.580   1.000   2.282  0.5668  0.1583  0.1845
16778SOL    HW151622   3.607   0.915   2.317  0.6222 -0.5283 -1.4472
16778SOL    HW251623   3.569   0.985   2.188  0.2124  1.8724 -0.0795
16779SOL     OW51624   5.063   1.301   4.381  0.3108  0.2912  0.5831
16779SOL    HW151625   5.132   1.267   4.324  0.7892  0.7759  0.8654
16779SOL    HW251626   5.009   1.224   4.401  0.0538  0.1382 -0.6203
16780SOL     OW51627   7.967   3.494   4.606 -0.2201  0.0062  0.2346
16780SOL    HW151628   8.010   3.433   4.666  0.6676 -0.0742 -0.4642
16780SOL    HW251629   7.932   3.438   4.536 -2.1712 -0.0175  1.1653
16781SOL     OW51630   0.433   7.069   8.363  0.6004  0.0925  0.4841
16781SOL    HW151631   0.444   7.036   8.452 -1.9737 -1.0182  0.4955
16781SOL    HW251632   0.386   6.999   8.317 -0.1914  1.5694 -1.0767
16782SOL     OW51633   2.133   1.662   2.037 -0.1538 -0.2111 -0.1093
16782SOL    HW151634   2.087   1.744   2.022  0.4701  0.3931  1.1944
16782SOL    HW251635   2.226   1.685   2.031  0.0315 -0.7433  0.6017
16783SOL     OW51636   6.097   3.375   5.117 -0.3872 -0.0064 -0.5766
16783SOL    HW151637   6.076   3.286   5.090  1.1134 -0.4487 -0.3774
16783SOL    HW251638   6.077   3.377   5.211  0.3403 -0.3939 -0.4058
16784SOL     OW51639   4.243   6.350   8.253  0.2651 -0.4653  0.7209
16784SOL    HW151640   4.274   6.434   8.220  2.2716 -0.9990  1.0872
16784SOL    HW251641   4.187   6.373   8.327 -1.4181  0.5998 -0.7955
16785SOL     OW51642   3.981   3.510   4.605  0.1177  0.1393  0.2823
16785SOL    HW151643   3.889   3.491   4.624  0.3497  0.7374  2.1490
16785SOL    HW251644   3.979   3.596   4.562 -0.1701  0.3923  0.7914
16786SOL     OW51645   8.224   3.445   3.411  0.2746 -0.1768  0.0679
16786SOL    HW151646   8.303   3.442   3.357 -0.0950  0.4027 -0.5352
16786SOL    HW251647   8.186   3.358   3.403  0.8359 -0.4552  0.3495
16787SOL     OW51648   3.000   5.777   0.233  0.2207  0.0078  0.8149
16787SOL    HW151649   2.949   5.822   0.301 -1.2391  0.2870 -0.4269
16787SOL    HW251650   2.975   5.685   0.242  1.2852 -0.2183  1.6975
16788SOL     OW51651   8.504   2.350   3.580 -0.2698 -0.0150 -0.1744
16788SOL    HW151652   8.525   2.438   3.547  1.2139 -1.0135 -2.1553
16788SOL    HW251653   8.428   2.323   3.529 -1.2141  0.3723  0.9866
16789SOL     OW51654   6.701   2.709   4.111 -0.5432 -0.5494  0.2778
16789SOL    HW151655   6.782   2.742   4.072 -0.9215 -1.4403 -1.3208
16789SOL    HW251656   6.634   2.772   4.084 -0.6462 -0.6523  0.2945
16790SOL     OW51657   2.591   1.422   4.841 -0.0794 -0.4299 -0.0511
16790SOL    HW151658   2.664   1.441   4.900 -0.8057 -1.2661  1.1473
16790SOL    HW251659   2.544   1.505   4.832 -2.0729 -0.9873  3.5186
16791SOL     OW51660   5.950   0.862   1.429  0.2351 -0.0395 -0.3570
16791SOL    HW151661   5.945   0.767   1.445 -0.0302  0.1598  0.8132
16791SOL    HW251662   6.033   0.874   1.384  1.7092 -0.5279  2.0510
16792SOL     OW51663   6.952   0.797   3.491  0.5969 -0.0503 -0.2569
16792SOL    HW151664   6.921   0.875   3.537 -0.0493 -0.6903  0.4220
16792SOL    HW251665   7.046   0.797   3.505  1.1190  2.2368 -2.8257
16793SOL     OW51666   0.416   6.230   4.659 -0.1450  0.5050  0.3872
16793SOL    HW151667   0.469   6.307   4.639 -0.4854  0.5942 -0.1924
16793SOL    HW251668   0.394   6.240   4.751 -1.3373  1.8371 -0.0013
16794SOL     OW51669   3.016   1.678   8.283  0.6524  0.2617 -0.1077
16794SOL    HW151670   3.107   1.690   8.310  0.7239  0.2876 -0.3547
16794SOL    HW251671   2.979   1.619   8.349  0.7945  0.4066  0.0991
16795SOL     OW51672   5.029   6.380   3.650  0.4501 -0.4893  0.3380
16795SOL    HW151673   5.090   6.413   3.584  0.6694 -2.7987 -0.7038
16795SOL    HW251674   4.943   6.406   3.619  0.7571  1.8159  1.2372
16796SOL     OW51675   0.150   3.619   3.233  0.0784  0.0663 -0.0431
16796SOL    HW151676   0.096   3.664   3.299 -0.6912  0.0524 -0.6440
16796SOL    HW251677   0.240   3.635   3.261 -0.1911  1.3012  0.2165
16797SOL     OW51678   3.142   0.039   1.852  0.4153  0.0793  0.5336
16797SOL    HW151679   3.127   0.030   1.946 -0.2234  2.2266  0.7094
16797SOL    HW251680   3.067  -0.004   1.811 -1.3277  2.2746  1.1800
16798SOL     OW51681   0.003   7.265   6.279 -0.8962  0.0654 -0.4727
16798SOL    HW151682  -0.071   7.223   6.235 -1.5111 -1.1115  1.5520
16798SOL    HW251683   0.059   7.192   6.306  0.5741  0.8910 -1.1482
16799SOL     OW51684   1.536   3.345   0.135  0.2588  0.0104 -0.6951
16799SOL    HW151685   1.536   3.440   0.124 -0.3269  0.1531  0.3562
16799SOL    HW251686   1.456   3.315   0.092 -0.2204  0.1539  0.0780
16800SOL     OW51687   1.918   3.419   1.481  0.3931  0.1495  0.1473
16800SOL    HW151688   1.939   3.484   1.548 -0.3825  0.4175  0.1372
16800SOL    HW251689   1.926   3.467   1.398  2.0200 -0.3516 -0.0210
16801SOL     OW51690   3.609   8.710   5.202  0.1135 -0.6135  0.2783
16801SOL    HW151691   3.704   8.721   5.196  0.2811 -2.1971 -0.5456
16801SOL    HW251692   3.574   8.768   5.134  0.5222 -0.3753  0.2674
16802SOL     OW51693   2.785   6.718   4.286  0.3649 -0.2534 -0.0171
16802SOL    HW151694   2.790   6.707   4.191 -3.2071 -0.3214 -0.3510
16802SOL    HW251695   2.796   6.812   4.301  1.7925 -0.3506 -0.3705
16803SOL     OW51696   0.260   2.497   0.790  0.0195 -0.3791  0.2959
16803SOL    HW151697   0.233   2.406   0.802 -1.2185 -0.0890 -0.0865
16803SOL    HW251698   0.188   2.549   0.827  0.0163  0.4361 -0.7840
16804SOL     OW51699   6.094   3.556   3.684 -0.1205  0.2898  0.0123
16804SOL    HW151700   6.007   3.589   3.659 -0.4879  1.1272  2.1460
16804SOL    HW251701   6.155   3.602   3.626 -1.1193 -1.6749 -2.8067
16805SOL     OW51702   4.180   5.701   0.476  0.8273 -0.3267  0.3202
16805SOL    HW151703   4.240   5.687   0.549  0.3357 -1.3492  0.5524
16805SOL    HW251704   4.234   5.688   0.398  1.5713  1.6783  0.4489
16806SOL     OW51705   3.565   8.539   4.267  0.4482  0.1183 -0.0632
16806SOL    HW151706   3.551   8.586   4.349 -0.6619 -1.2217  0.5598
16806SOL    HW251707   3.487   8.558   4.215  0.6462  0.0894 -0.3708
16807SOL     OW51708   1.513   8.094   7.815  0.3483 -0.5193  0.0982
16807SOL    HW151709   1.565   8.083   7.735  0.7455  0.6674  0.1757
16807SOL    HW251710   1.563   8.155   7.868 -1.3151  1.0031 -0.0016
16808SOL     OW51711   7.228   2.338   8.486  0.3075 -0.5168  0.4912
16808SOL    HW151712   7.198   2.327   8.397  0.3089  1.0424  0.2589
16808SOL    HW251713   7.240   2.249   8.520 -4.4780 -1.3320  0.6427
16809SOL     OW51714   5.302   6.467   5.222  0.1519  0.6799 -0.1756
16809SOL    HW151715   5.335   6.496   5.307  2.6185 -0.6307 -0.5761
16809SOL    HW251716   5.303   6.545   5.167  3.7241  0.6125 -0.4103
16810SOL     OW51717   4.883   7.021   8.167  0.3257 -0.3365  0.2776
16810SOL    HW151718   4.852   6.940   8.126 -0.2587  0.2613 -0.4965
16810SOL    HW251719   4.849   7.018   8.256  1.3723 -1.5197  0.6638
16811SOL     OW51720   4.104   6.717   6.848 -0.3949 -0.2742 -0.2669
16811SOL    HW151721   4.008   6.712   6.855 -0.5510  0.9020 -1.2390
16811SOL    HW251722   4.135   6.704   6.937 -1.5656  1.2965  0.4148
16812SOL     OW51723   3.047   5.362   1.434  0.6085  0.3352 -0.0164
16812SOL    HW151724   3.107   5.332   1.366 -0.6602 -0.4014 -0.8570
16812SOL    HW251725   3.054   5.458   1.432 -1.0192  0.4812 -2.7775
16813SOL     OW51726   3.978   2.792   5.656 -0.3219  0.0542  0.3684
16813SOL    HW151727   4.014   2.775   5.743  0.8162  1.1070  0.1207
16813SOL    HW251728   3.883   2.798   5.670 -0.2764 -1.0035  1.3149
16814SOL     OW51729   0.591   1.644   5.801  0.5383 -0.0564 -0.0624
16814SOL    HW151730   0.600   1.739   5.812  0.1942  0.0511 -0.6799
16814SOL    HW251731   0.511   1.633   5.749  1.0101 -0.6475 -0.6855
16815SOL     OW51732   6.183   7.656   6.396 -0.3642  0.0668  0.3485
16815SOL    HW151733   6.184   7.629   6.488 -0.3490 -0.7710  0.1103
16815SOL    HW251734   6.172   7.574   6.347  0.3393  0.4227 -0.4283
16816SOL     OW51735   2.486   2.668   6.974  0.4404 -0.0587 -0.2143
16816SOL    HW151736   2.392   2.686   6.964  0.3848  0.7643  1.4806
16816SOL    HW251737   2.490   2.590   7.029  0.7638 -0.5850 -0.9668
16817SOL     OW51738   6.926   6.209   2.059 -0.2742 -0.0756  0.1270
16817SOL    HW151739   6.977   6.289   2.053 -0.6265  0.1585  0.2378
16817SOL    HW251740   6.915   6.195   2.153 -1.8575  0.8047  0.1002
16818SOL     OW51741   6.073   3.302   7.002  0.3623 -0.0528  0.9634
16818SOL    HW151742   6.016   3.321   7.077 -1.4728  1.3967 -0.6756
16818SOL    HW251743   6.035   3.223   6.964  0.0552  0.3356  0.4531
16819SOL     OW51744   1.969   8.673   2.349  0.5833 -0.0933 -0.6181
16819SOL    HW151745   2.027   8.631   2.412  0.9867  1.4283  0.0666
16819SOL    HW251746   1.955   8.606   2.282  2.7420 -0.6801 -0.5708
16820SOL     OW51747   5.766   3.408   8.231 -0.1520 -0.1911 -0.3686
16820SOL    HW151748   5.782   3.471   8.301  0.8901 -0.1012 -0.6667
16820SOL    HW251749   5.741   3.327   8.276  1.2732 -0.3569  0.1596
16821SOL     OW51750   4.394   5.474   7.519  0.2559 -0.0708  0.4178
16821SOL    HW151751   4.375   5.382   7.540  0.2914 -0.5191 -1.4024
16821SOL    HW251752   4.405   5.516   7.605 -0.1667 -1.6674  1.2936
16822SOL     OW51753   3.088   5.791   4.712 -0.5509 -0.2552 -0.0582
16822SOL    HW151754   3.039   5.753   4.639 -0.4695 -0.2912 -0.0942
16822SOL    HW251755   3.165   5.734   4.721 -0.1156  0.2588 -0.5049
16823SOL     OW51756   0.986   1.758   7.037  0.3118  0.1957 -0.0240
16823SOL    HW151757   0.984   1.814   6.959  2.0435 -1.1436 -1.1198
16823SOL    HW251758   0.959   1.816   7.108  0.6612  2.0508 -1.3053
16824SOL     OW51759   1.585   1.936   7.895  0.0064  0.3322  0.4372
16824SOL    HW151760   1.681   1.926   7.895  0.0266  0.4566 -0.5605
16824SOL    HW251761   1.567   1.985   7.975  0.6563 -0.7540  1.2855
16825SOL     OW51762   7.055   4.087   1.754 -0.2178 -0.1939  0.1728
16825SOL    HW151763   7.042   4.045   1.839  2.7016 -2.3599 -0.2798
16825SOL    HW251764   7.134   4.139   1.764 -1.4339  1.8839 -0.5011
16826SOL     OW51765   3.573   3.049   8.069  0.3500 -0.1144 -0.0006
16826SOL    HW151766   3.502   2.992   8.099  0.2300  0.5192  0.9654
16826SOL    HW251767   3.626   2.993   8.012  0.2394 -1.2085  0.9266
16827SOL     OW51768   1.431   7.387   4.274  0.2028 -0.7089 -0.2348
16827SOL    HW151769   1.345   7.409   4.311  0.0336 -0.8562 -0.5408
16827SOL    HW251770   1.413   7.322   4.207  0.7239 -1.9603  0.7957
16828SOL     OW51771   6.891   8.101   1.801 -0.4626  0.5865  0.4882
16828SOL    HW151772   6.839   8.023   1.823 -0.1668  0.2745  0.0971
16828SOL    HW251773   6.949   8.113   1.877 -0.5062  0.4200  0.5477
16829SOL     OW51774   2.320   1.128   3.006 -0.0218 -0.3232 -0.0925
16829SOL    HW151775   2.342   1.065   3.075 -0.8297  0.7782  1.2244
16829SOL    HW251776   2.225   1.141   3.016  0.3791  2.5178  0.9879
16830SOL     OW51777   5.523   3.787   3.148  0.2559 -0.2362  0.3566
16830SOL    HW151778   5.493   3.795   3.239  1.8629 -0.1197  0.8980
16830SOL    HW251779   5.587   3.858   3.137 -1.6501  1.3192 -1.6418
16831SOL     OW51780   5.918   0.743   7.853 -0.1038 -0.2026 -0.4869
16831SOL    HW151781   5.849   0.745   7.920  0.8286 -0.8098  0.5092
16831SOL    HW251782   5.884   0.799   7.783 -1.6775 -0.6130 -0.0901
16832SOL     OW51783   3.364   3.005   6.174 -0.3701 -0.4935  0.3917
16832SOL    HW151784   3.320   3.077   6.129  1.1991 -0.2452 -0.7939
16832SOL    HW251785   3.441   3.044   6.214  0.3641 -1.4566 -0.0456
16833SOL     OW51786   1.334   1.574   2.651 -0.2529 -0.1029  0.1372
16833SOL    HW151787   1.301   1.629   2.580 -0.6859  1.5907  1.5602
16833SOL    HW251788   1.429   1.576   2.641 -0.3235 -0.1688 -0.5844
16834SOL     OW51789   0.248   5.666   7.848 -0.1516 -0.2772  0.2995
16834SOL    HW151790   0.305   5.725   7.799  0.0801 -0.6652  0.0971
16834SOL    HW251791   0.308   5.616   7.904 -0.2697 -0.8051 -0.0340
16835SOL     OW51792   7.905   2.226   4.639 -0.5302  0.3055 -0.4137
16835SOL    HW151793   7.957   2.302   4.613  1.0327 -0.5794 -0.0686
16835SOL    HW251794   7.815   2.256   4.639 -0.0294  1.8926 -1.1793
16836SOL     OW51795   8.512   0.944   0.636 -0.1299 -0.1148  0.7181
16836SOL    HW151796   8.563   0.867   0.660 -0.6318 -0.1306  1.7889
16836SOL    HW251797   8.538   1.011   0.700  0.9460  0.9054 -0.7089
16837SOL     OW51798   7.685   4.410   1.545  0.3664  0.2751 -0.4451
16837SOL    HW151799   7.727   4.331   1.579  0.6553  1.2459  1.6406
16837SOL    HW251800   7.603   4.379   1.506 -0.2936 -0.9388  1.7489
16838SOL     OW51801   6.361   0.276   0.766 -0.4025 -0.3098  0.1867
16838SOL    HW151802   6.393   0.285   0.856 -1.2197  0.4449  0.4144
16838SOL    HW251803   6.269   0.253   0.776 -0.9513  1.4514 -0.4217
16839SOL     OW51804   4.757   8.001   1.142  0.2622  0.2849  0.0243
16839SOL    HW151805   4.788   7.969   1.057  0.0105 -1.0930  0.4297
16839SOL    HW251806   4.664   7.979   1.144  0.7826 -2.0509  1.6641
16840SOL     OW51807   4.085   2.834   8.136 -0.0184 -0.4938 -0.3764
16840SOL    HW151808   4.065   2.847   8.229  0.3223  1.7675 -0.5490
16840SOL    HW251809   4.003   2.805   8.097  0.2899 -3.3380  0.8770
16841SOL     OW51810   3.960   4.188   4.493  0.4088 -0.2051  0.2152
16841SOL    HW151811   4.008   4.270   4.479  1.5570 -0.8912 -0.0510
16841SOL    HW251812   4.029   4.122   4.502 -0.4817 -1.4164 -1.2764
16842SOL     OW51813   0.482   8.056   6.065 -0.1700  0.4018  0.2573
16842SOL    HW151814   0.406   8.110   6.042 -0.6917 -0.3034  0.3142
16842SOL    HW251815   0.448   7.987   6.121  0.4765 -0.0342  0.1349
16843SOL     OW51816   0.349   7.925   1.364 -0.2291 -0.2293  0.0711
16843SOL    HW151817   0.301   7.906   1.283  1.4754  0.5734 -1.1906
16843SOL    HW251818   0.349   7.842   1.412 -2.3958 -0.3855 -0.0824
16844SOL     OW51819   2.923   8.371   2.250  0.1625  0.1904  0.6503
16844SOL    HW151820   2.857   8.433   2.220  1.4341  0.9593 -0.7260
16844SOL    HW251821   2.986   8.366   2.177  1.3094 -0.9484  1.6650
16845SOL     OW51822   1.320   7.245   6.599 -0.4055 -0.0992 -0.6706
16845SOL    HW151823   1.319   7.339   6.613  0.6676 -0.3453  1.5913
16845SOL    HW251824   1.396   7.231   6.543 -0.2748  0.3608 -0.6164
16846SOL     OW51825   7.530   3.856   8.294 -0.2107 -0.2247 -0.1949
16846SOL    HW151826   7.438   3.885   8.293 -0.5060 -0.8949  1.7390
16846SOL    HW251827   7.580   3.936   8.308 -0.3913  0.2709 -2.1358
16847SOL     OW51828   2.490   5.746   5.947  0.2058  0.0102 -0.2936
16847SOL    HW151829   2.464   5.661   5.910 -0.1316 -0.2789  0.5808
16847SOL    HW251830   2.586   5.741   5.951  0.1369 -0.8007  0.8078
16848SOL     OW51831   4.512   5.059   5.795  0.2365  0.0218 -0.0291
16848SOL    HW151832   4.432   5.009   5.814  0.8652 -1.1694 -0.4465
16848SOL    HW251833   4.561   5.057   5.877 -0.1646  0.7911  0.2408
16849SOL     OW51834   7.650   0.451   1.976 -0.2933 -0.2823 -0.1723
16849SOL    HW151835   7.640   0.368   2.023  1.8183  0.0426  0.9891
16849SOL    HW251836   7.687   0.426   1.892 -0.9234 -0.6161 -0.3538
16850SOL     OW51837   4.345   1.073   7.491  0.0785 -0.3990 -0.1042
16850SOL    HW151838   4.330   1.113   7.576 -0.1295 -0.5196 -0.0806
16850SOL    HW251839   4.431   1.032   7.497  0.4000  0.2563 -0.2139
16851SOL     OW51840   7.833   3.096   1.839 -0.5740 -0.2353  0.1500
16851SOL    HW151841   7.742   3.068   1.831 -0.2191 -1.5940  0.6927
16851SOL    HW251842   7.884   3.019   1.815  0.4472  0.6609 -0.6361
16852SOL     OW51843   8.657   1.700   3.518 -0.0303 -0.1393  0.1596
16852SOL    HW151844   8.718   1.758   3.473 -1.0767  0.3633 -0.6678
16852SOL    HW251845   8.684   1.612   3.493  0.0119  0.0992 -0.6761
16853SOL     OW51846   3.815   1.334   6.729 -0.3072 -0.0346 -0.3185
16853SOL    HW151847   3.880   1.287   6.781 -2.1204 -0.7320  1.4616
16853SOL    HW251848   3.861   1.359   6.648  1.9612 -0.9498  0.6242
16854SOL     OW51849   8.062   3.253   0.424 -0.3874 -0.3114  0.2895
16854SOL    HW151850   8.151   3.288   0.432 -0.3951 -0.5047  1.3919
16854SOL    HW251851   8.009   3.327   0.396  0.1241 -0.2204 -0.4836
16855SOL     OW51852   3.848   8.210   6.586  0.3117 -0.6954  0.2767
16855SOL    HW151853   3.756   8.220   6.561 -0.1675 -1.7632  1.4944
16855SOL    HW251854   3.895   8.270   6.528 -1.2043  0.3348  0.0415
16856SOL     OW51855   4.725   0.071   1.583  0.2989  0.3590  0.3096
16856SOL    HW151856   4.737   0.154   1.629 -2.3026  2.0892 -1.8277
16856SOL    HW251857   4.814   0.041   1.564  1.3349  2.1120  2.0484
16857SOL     OW51858   8.558   1.593   1.724  0.1295 -0.0879  0.4028
16857SOL    HW151859   8.603   1.514   1.695  1.4297  1.4192 -1.9710
16857SOL    HW251860   8.627   1.649   1.759 -0.6181  0.4699  1.0227
16858SOL     OW51861   1.377   6.761   7.830 -0.0357  0.1710  0.7182
16858SOL    HW151862   1.471   6.743   7.831 -0.1971 -1.1251 -1.6469
16858SOL    HW251863   1.369   6.845   7.786 -0.0126  0.1079  0.5941
16859SOL     OW51864   0.530   2.197   3.114  0.5043  0.4435  0.3359
16859SOL    HW151865   0.487   2.112   3.111 -0.4111  0.8563  1.1639
16859SOL    HW251866   0.614   2.183   3.071  1.4844 -1.5287  2.6670
16860SOL     OW51867   2.166   5.462   0.672  0.1086 -0.2389  0.0096
16860SOL    HW151868   2.093   5.520   0.695  1.6244  1.3405  1.1730
16860SOL    HW251869   2.170   5.466   0.577 -2.5509 -2.0463 -0.2855
16861SOL     OW51870   3.790   7.181   3.841 -0.3590  0.5091  0.1081
16861SOL    HW151871   3.861   7.152   3.898 -0.2432  0.1227 -0.2267
16861SOL    HW251872   3.712   7.140   3.878 -0.0493 -1.1707 -0.9954
16862SOL     OW51873   0.912   8.438   4.130  0.3466 -0.5439  0.2146
16862SOL    HW151874   0.843   8.491   4.090 -0.1366  0.4857  2.2990
16862SOL    HW251875   0.992   8.468   4.087 -0.1433  0.5332  0.0119
16863SOL     OW51876   1.369   1.049   2.872  0.1895  0.7512  0.0978
16863SOL    HW151877   1.385   1.103   2.950 -0.4158  1.5385 -0.2999
16863SOL    HW251878   1.406   1.100   2.800  0.7073  0.0509 -0.1368
16864SOL     OW51879   6.526   4.375   3.916 -0.4654  0.7453 -0.1484
16864SOL    HW151880   6.440   4.357   3.952 -1.4647  0.6001 -2.4363
16864SOL    HW251881   6.550   4.295   3.870  1.4264  0.3785  1.3499
16865SOL     OW51882   8.012   4.683   7.520 -0.1235 -0.2636 -0.6158
16865SOL    HW151883   7.928   4.649   7.488  0.3081 -0.5574 -1.4618
16865SOL    HW251884   8.020   4.646   7.608 -0.0584 -1.7167 -1.1979
16866SOL     OW51885   7.228   8.565   0.842 -0.1733  0.2605 -0.0421
16866SOL    HW151886   7.189   8.501   0.784 -1.7992 -0.9576  2.2314
16866SOL    HW251887   7.154   8.616   0.875  0.5476  0.2956  1.6276
16867SOL     OW51888   7.501   1.165   7.631  0.8227 -0.2258 -0.7888
16867SOL    HW151889   7.505   1.224   7.555  0.5106 -0.4630 -0.9959
16867SOL    HW251890   7.409   1.168   7.658  0.7615 -0.7634 -0.9213
16868SOL     OW51891   5.321   6.546   2.846  0.1751  0.3733 -0.1713
16868SOL    HW151892   5.392   6.498   2.888 -0.8057  0.7640  2.0465
16868SOL    HW251893   5.311   6.626   2.898 -2.0450  0.1996 -0.2236
16869SOL     OW51894   4.398   2.423   5.398 -0.0150 -0.3387  0.1477
16869SOL    HW151895   4.338   2.455   5.465 -0.1733  1.4287 -0.7801
16869SOL    HW251896   4.350   2.353   5.354 -0.7314 -0.0804  0.5034
16870SOL     OW51897   1.372   8.011   5.064 -0.6676  0.4251  0.5054
16870SOL    HW151898   1.287   8.001   5.108 -0.4178 -0.5192  0.8008
16870SOL    HW251899   1.352   8.059   4.984 -1.5105  0.0417  0.4722
16871SOL     OW51900   7.187   6.008   8.201  0.3757  0.5880 -0.3546
16871SOL    HW151901   7.165   5.952   8.126  0.6333  0.9215 -0.6771
16871SOL    HW251902   7.142   5.966   8.275 -0.6149  0.7506 -0.8495
16872SOL     OW51903   5.678   2.192   6.273 -0.4514 -0.1528 -0.1537
16872SOL    HW151904   5.757   2.137   6.273 -0.3202  0.0337 -0.4247
16872SOL    HW251905   5.608   2.134   6.243 -0.3237 -0.1859 -0.3883
16873SOL     OW51906   4.746   3.435   6.614 -0.2794 -0.1315 -0.6458
16873SOL    HW151907   4.693   3.514   6.607  0.7779  0.7500  0.7292
16873SOL    HW251908   4.686   3.368   6.648 -1.1074  0.1489 -1.5293
16874SOL     OW51909   8.282   4.409   1.423 -0.1150 -0.1334 -0.2042
16874SOL    HW151910   8.233   4.339   1.378 -0.2311 -1.7115  2.1939
16874SOL    HW251911   8.220   4.482   1.428 -1.4657 -1.2885  0.7451
16875SOL     OW51912   4.839   7.695   7.216 -0.3453  0.0995 -0.7042
16875SOL    HW151913   4.911   7.665   7.159 -0.0160  1.3870 -0.9945
16875SOL    HW251914   4.770   7.721   7.155 -1.2069 -1.3893 -0.4238
16876SOL     OW51915   2.017   6.436   1.419  0.7844  0.2926 -0.9463
16876SOL    HW151916   2.008   6.348   1.454  2.2883  0.6350  0.3964
16876SOL    HW251917   2.105   6.464   1.443 -1.0414  3.8878  2.8986
16877SOL     OW51918   1.187   5.618   5.115 -0.2211  0.2742  0.3600
16877SOL    HW151919   1.196   5.556   5.042  0.1063 -1.6981  1.9639
16877SOL    HW251920   1.269   5.609   5.164 -0.6593  1.1267  1.2770
16878SOL     OW51921   2.842   4.994   2.386 -0.1471  0.6986 -0.1653
16878SOL    HW151922   2.895   5.027   2.313  0.4522  1.1599  0.4642
16878SOL    HW251923   2.841   5.065   2.450  0.5081 -0.1824  0.8805
16879SOL     OW51924   1.044   4.048   7.026 -0.0184  0.1055  0.3919
16879SOL    HW151925   1.068   4.102   7.101 -0.4068 -0.8826  1.2572
16879SOL    HW251926   0.951   4.029   7.039 -0.3623  0.7592 -0.8977
16880SOL     OW51927   2.422   0.733   0.351 -0.3109  0.0930  0.4266
16880SOL    HW151928   2.366   0.676   0.298 -0.5095  0.7173 -0.0471
16880SOL    HW251929   2.493   0.758   0.292  0.4894 -0.6942  1.0230
16881SOL     OW51930   7.242   5.653   7.028  0.1749  0.0726 -0.3276
16881SOL    HW151931   7.208   5.736   7.061 -1.3660 -0.4904 -0.4150
16881SOL    HW251932   7.166   5.611   6.985  0.8112 -1.5315  0.0351
16882SOL     OW51933   2.906   0.444   2.449  0.0869  0.2755  0.1133
16882SOL    HW151934   2.845   0.433   2.376  1.1741  6.0934 -2.2063
16882SOL    HW251935   2.991   0.416   2.414  0.0027 -0.9734  0.8207
16883SOL     OW51936   1.043   5.574   2.642 -0.1346 -0.3499 -0.0858
16883SOL    HW151937   0.965   5.609   2.599 -1.7522 -0.3815  2.5663
16883SOL    HW251938   1.107   5.644   2.637 -0.2781 -0.3189 -2.3239
16884SOL     OW51939   1.400   6.553   1.299 -0.2510 -0.3753  0.1529
16884SOL    HW151940   1.451   6.616   1.351 -0.6823 -0.1337  0.2897
16884SOL    HW251941   1.393   6.476   1.356 -0.8572 -0.0528  0.5286
16885SOL     OW51942   1.481   2.243   4.251  0.2749 -0.2520  0.1469
16885SOL    HW151943   1.411   2.225   4.314  0.5816 -2.0351  0.0180
16885SOL    HW251944   1.473   2.337   4.233 -2.6241 -0.5329 -0.5014
16886SOL     OW51945   7.670   5.007   3.603  0.8449 -0.0514 -0.4411
16886SOL    HW151946   7.620   4.991   3.683  1.8906 -2.7761 -0.2341
16886SOL    HW251947   7.705   5.095   3.613 -1.6550  0.9087  0.5995
16887SOL     OW51948   1.593   3.157   4.139 -0.2428 -0.1269  0.2349
16887SOL    HW151949   1.649   3.208   4.080 -0.0593  0.7490  1.1366
16887SOL    HW251950   1.635   3.072   4.144  1.2079  0.6053  1.1196
16888SOL     OW51951   0.359   7.258   0.504 -0.3472 -0.4247 -0.1070
16888SOL    HW151952   0.416   7.245   0.580 -0.1492  0.8943  0.0012
16888SOL    HW251953   0.321   7.172   0.488 -1.1270 -0.5584  2.0789
16889SOL     OW51954   3.172   5.494   2.018 -0.0565  0.0227  0.2819
16889SOL    HW151955   3.202   5.534   1.936 -3.8022  0.9425 -0.8361
16889SOL    HW251956   3.103   5.433   1.991 -0.6394 -0.4799  2.6935
16890SOL     OW51957   7.623   8.395   6.991 -0.0155 -0.0609  0.0513
16890SOL    HW151958   7.581   8.460   6.935 -0.0447  0.9049  1.1566
16890SOL    HW251959   7.605   8.424   7.080  1.1057 -0.8543  0.5723
16891SOL     OW51960   7.362   3.809   1.870  0.0691  0.4271 -0.6188
16891SOL    HW151961   7.384   3.864   1.796  0.8678  0.5658 -0.2828
16891SOL    HW251962   7.423   3.736   1.865 -0.8455 -0.3408 -0.9436
16892SOL     OW51963   6.904   3.733   4.656  0.0971 -0.4964  0.1182
16892SOL    HW151964   6.907   3.650   4.610  1.6575 -0.4398  0.0841
16892SOL    HW251965   6.878   3.711   4.745 -2.2865 -0.6758 -0.5361
16893SOL     OW51966   7.342   1.800   4.482  0.5050  0.1064 -0.2262
16893SOL    HW151967   7.348   1.852   4.402  2.3756  0.2099 -0.0716
16893SOL    HW251968   7.361   1.861   4.553  1.2604 -0.4548  0.0782
16894SOL     OW51969   2.410   2.476   6.561  0.0589 -0.3988 -0.1406
16894SOL    HW151970   2.485   2.535   6.566  0.4114 -0.9163  0.9693
16894SOL    HW251971   2.409   2.431   6.646 -3.9837  2.5412  1.6936
16895SOL     OW51972   4.423   7.285   4.784  0.0953 -0.0634 -0.6392
16895SOL    HW151973   4.457   7.365   4.826  3.6559 -0.4606 -2.3219
16895SOL    HW251974   4.424   7.219   4.853 -2.3391  1.1004  0.6267
16896SOL     OW51975   4.044   2.982   5.986  0.7158  0.2505 -0.3912
16896SOL    HW151976   3.987   3.051   5.952 -0.7916  0.1993  1.8411
16896SOL    HW251977   4.125   3.028   6.010 -0.2654  1.3065  1.0697
16897SOL     OW51978   6.580   5.470   1.318  0.6839  0.3519 -0.0548
16897SOL    HW151979   6.656   5.414   1.333  0.0167 -0.2891  1.1013
16897SOL    HW251980   6.567   5.516   1.400  1.7506  2.9778 -1.2489
16898SOL     OW51981   2.124   5.561   7.756 -0.8001 -0.7572  0.3057
16898SOL    HW151982   2.142   5.543   7.663 -1.4733  0.8749 -0.1717
16898SOL    HW251983   2.188   5.507   7.803  0.1695 -0.9317 -1.1286
16899SOL     OW51984   5.228   0.591   4.402  0.0110  0.7100 -0.0369
16899SOL    HW151985   5.311   0.632   4.425 -0.0283  1.0524 -0.4903
16899SOL    HW251986   5.167   0.621   4.469  0.7845 -1.5174  1.7867
16900SOL     OW51987   5.406   7.731   7.048  0.6901 -0.7939 -0.1303
16900SOL    HW151988   5.497   7.747   7.022  0.5523  0.2587 -0.0041
16900SOL    HW251989   5.373   7.670   6.982  1.2806 -0.6423 -0.5782
16901SOL     OW51990   5.291   2.051   5.656  0.0205 -0.6646  0.3646
16901SOL    HW151991   5.352   2.012   5.593 -1.8390 -0.7427 -1.4754
16901SOL    HW251992   5.337   2.128   5.688  1.0121 -0.5730 -1.1544
16902SOL     OW51993   3.850   4.271   4.134  0.8866  0.6461  0.5181
16902SOL    HW151994   3.803   4.308   4.208  3.1748  2.0982  1.3318
16902SOL    HW251995   3.921   4.220   4.174  1.3633  0.3468 -0.6753
16903SOL     OW51996   3.733   4.824   2.673 -0.0620  0.4358 -0.0048
16903SOL    HW151997   3.653   4.833   2.621  0.5861 -1.6898 -1.4787
16903SOL    HW251998   3.741   4.908   2.719 -1.1132  2.1270 -2.6815
16904SOL     OW51999   0.339   3.719   4.084 -0.3498 -0.1370 -0.0794
16904SOL    HW152000   0.250   3.719   4.118 -0.3960  0.6976 -0.1793
16904SOL    HW252001   0.387   3.779   4.141 -0.0123 -0.0559 -0.4404
16905SOL     OW52002   1.858   5.386   6.987 -0.2096 -0.1025  0.1472
16905SOL    HW152003   1.817   5.302   6.966  0.1476  0.0571 -1.2644
16905SOL    HW252004   1.944   5.363   7.020 -0.5351 -0.3301  0.8657
16906SOL     OW52005   7.311   5.951   6.364 -0.3566 -0.4765  0.1962
16906SOL    HW152006   7.354   5.868   6.344 -3.4164 -2.5130  1.3712
16906SOL    HW252007   7.220   5.938   6.339 -1.2308  2.1061  1.5885
16907SOL     OW52008   5.989   0.390   1.646  0.5608 -0.4825  0.2065
16907SOL    HW152009   5.908   0.338   1.650 -0.6560  0.9656 -2.8490
16907SOL    HW252010   5.996   0.430   1.733 -2.1035 -0.5397  0.5299
16908SOL     OW52011   4.356   7.883   6.012 -0.3937  0.3850 -0.4842
16908SOL    HW152012   4.279   7.844   5.971  0.8193 -2.7424 -0.0964
16908SOL    HW252013   4.420   7.812   6.013  1.6394  2.1181  1.4467
16909SOL     OW52014   7.065   4.895   1.397 -0.6118  0.0236 -0.1540
16909SOL    HW152015   7.092   4.905   1.488 -0.9201  0.8656 -0.1501
16909SOL    HW252016   6.976   4.859   1.402 -0.2945 -0.7863 -0.1436
16910SOL     OW52017   2.859   4.808   6.345 -0.6087 -0.9306  0.6885
16910SOL    HW152018   2.798   4.781   6.276 -1.4485  0.1296  0.9782
16910SOL    HW252019   2.945   4.807   6.303 -0.9795 -1.2167 -0.0969
16911SOL     OW52020   1.370   4.038   7.941  0.2417 -0.4335  0.1408
16911SOL    HW152021   1.457   4.058   7.904  0.5877  1.0179  1.5876
16911SOL    HW252022   1.361   3.943   7.932  2.5162 -0.7955  1.0115
16912SOL     OW52023   3.517   2.345   4.069 -0.1752  0.4276 -0.2573
16912SOL    HW152024   3.600   2.324   4.026  0.3981  1.5621  0.2428
16912SOL    HW252025   3.521   2.440   4.081 -0.9482  0.3134  1.0065
16913SOL     OW52026   7.085   6.278   8.582  0.7283 -0.1975 -0.8720
16913SOL    HW152027   7.066   6.229   8.503  1.0943 -0.5469 -0.7447
16913SOL    HW252028   7.161   6.235   8.620  1.7989  1.1637 -1.3807
16914SOL     OW52029   0.995   2.521   0.839  0.4968  0.2001 -0.3600
16914SOL    HW152030   0.902   2.533   0.820  0.1968 -1.0686  0.1741
16914SOL    HW252031   1.005   2.549   0.930  0.9474  1.6834 -0.8405
16915SOL     OW52032   3.169   6.516   1.531  0.0618 -0.0286 -0.3501
16915SOL    HW152033   3.146   6.571   1.605 -1.3552 -1.7695  0.5794
16915SOL    HW252034   3.147   6.569   1.454 -0.6975  0.9172  0.4920
16916SOL     OW52035   4.437   6.380   5.220 -0.5746 -0.1465 -0.2274
16916SOL    HW152036   4.427   6.475   5.215 -1.6463 -0.2276 -0.0114
16916SOL    HW252037   4.497   6.358   5.149  0.1330  0.7420  0.0717
16917SOL     OW52038   8.451   0.889   7.858  0.5045  0.6358  0.1439
16917SOL    HW152039   8.470   0.934   7.940  1.1800  0.9143 -0.1574
16917SOL    HW252040   8.525   0.831   7.844  0.0597  0.0749  0.0793
16918SOL     OW52041   8.238   3.494   6.968  0.1557 -0.1775  0.0991
16918SOL    HW152042   8.218   3.523   7.057 -1.3520  5.1071 -1.5860
16918SOL    HW252043   8.324   3.532   6.950  1.0358 -2.2870 -0.4307
16919SOL     OW52044   6.660   0.213   4.285 -0.0055  0.1572 -0.4270
16919SOL    HW152045   6.586   0.170   4.328 -0.0345  1.8106  1.3203
16919SOL    HW252046   6.686   0.152   4.215 -1.5435 -1.5116  0.3671
16920SOL     OW52047   7.353   3.701   3.621  0.5426  0.3064 -0.0923
16920SOL    HW152048   7.279   3.653   3.658  1.2167 -1.8759 -1.4300
16920SOL    HW252049   7.315   3.751   3.549 -0.0316  1.2876  0.8526
16921SOL     OW52050   1.574   7.264   1.578 -0.1520 -0.3002 -0.6549
16921SOL    HW152051   1.600   7.233   1.491 -0.5190  0.5624 -1.0774
16921SOL    HW252052   1.630   7.214   1.638  1.2200  0.2112 -1.4519
16922SOL     OW52053   6.553   3.564   0.051  0.8240 -0.1374 -0.2395
16922SOL    HW152054   6.586   3.614  -0.024  2.9427 -0.0344  0.6807
16922SOL    HW252055   6.532   3.478   0.015  0.0412  0.4581 -1.2635
16923SOL     OW52056   7.842   7.278   5.949  0.4094  0.4354  0.3036
16923SOL    HW152057   7.918   7.308   6.000  1.2913 -0.6211 -0.3462
16923SOL    HW252058   7.821   7.192   5.986  0.8991 -0.2315 -0.9230
16924SOL     OW52059   5.854   2.806   0.079  0.1647  0.2123  0.1586
16924SOL    HW152060   5.822   2.728   0.032 -0.3436  0.3598  0.2552
16924SOL    HW252061   5.934   2.831   0.031  0.3357 -0.3658  0.1283
16925SOL     OW52062   0.133   4.654   4.079 -0.3829  0.2014  0.2274
16925SOL    HW152063   0.042   4.638   4.052 -0.7403  0.4442  1.2666
16925SOL    HW252064   0.178   4.673   3.997 -1.1815 -0.3153 -0.3527
16926SOL     OW52065   4.817   0.766   1.787 -0.0958  0.9542 -0.0712
16926SOL    HW152066   4.750   0.742   1.851 -0.4634 -0.6472 -1.0189
16926SOL    HW252067   4.887   0.703   1.800  0.3764  1.3917 -0.4262
16927SOL     OW52068   7.354   7.936   2.717 -0.4364  0.1576 -0.3977
16927SOL    HW152069   7.430   7.935   2.775  0.2784 -1.3534 -1.2876
16927SOL    HW252070   7.362   8.018   2.668  0.1116  0.4401  0.1517
16928SOL     OW52071   0.095   7.729   7.162  0.4449 -0.2564 -0.3413
16928SOL    HW152072   0.049   7.747   7.243  0.6802 -1.7865  0.1655
16928SOL    HW252073   0.141   7.647   7.178 -0.3330 -1.1574 -2.3617
16929SOL     OW52074   3.441   0.570   0.646  0.1649  0.0204 -0.7646
16929SOL    HW152075   3.417   0.491   0.597  0.1485  0.6912 -1.8856
16929SOL    HW252076   3.520   0.546   0.694 -0.3999 -0.9681 -0.3154
16930SOL     OW52077   0.230   5.187   2.402 -0.4020 -0.4398  0.4510
16930SOL    HW152078   0.283   5.110   2.422  1.1366 -0.0550 -1.7878
16930SOL    HW252079   0.268   5.257   2.455  0.3815 -0.4863 -0.0513
16931SOL     OW52080   3.893   6.425   7.552 -0.4259 -0.2316 -0.0534
16931SOL    HW152081   3.849   6.459   7.630 -0.1185 -0.7953  0.3722
16931SOL    HW252082   3.898   6.331   7.566  1.0252 -0.1743 -0.0195
16932SOL     OW52083   2.120   1.787   8.490 -0.1712  0.1626  0.0302
16932SOL    HW152084   2.066   1.769   8.567 -0.5871 -1.0423 -0.5140
16932SOL    HW252085   2.209   1.767   8.518 -0.1489  0.9479  0.5583
16933SOL     OW52086   5.024   4.337   5.901  0.1854  0.1340  0.1264
16933SOL    HW152087   5.107   4.294   5.878 -0.7890 -1.5726 -0.3989
16933SOL    HW252088   5.002   4.390   5.824 -0.3995 -1.3583 -0.7861
16934SOL     OW52089   7.615   1.993   8.085 -0.2782 -0.0873  0.0828
16934SOL    HW152090   7.528   2.013   8.119  0.3083  2.5095  0.2357
16934SOL    HW252091   7.638   1.909   8.125 -1.9156  0.1108  1.5419
16935SOL     OW52092   6.196   1.036   3.847  0.2176 -0.3463 -0.0098
16935SOL    HW152093   6.119   1.088   3.823 -1.2265 -1.1919  2.3741
16935SOL    HW252094   6.235   1.010   3.763 -1.2872  1.2633 -1.2793
16936SOL     OW52095   6.464   3.900   5.517 -0.2834 -0.3911 -0.7016
16936SOL    HW152096   6.497   3.982   5.553 -3.6656  0.9486 -0.2914
16936SOL    HW252097   6.530   3.835   5.541  3.0233  2.2325 -1.8346
16937SOL     OW52098   0.647   5.373   5.363 -0.1331 -0.2484  0.5726
16937SOL    HW152099   0.655   5.346   5.454  0.4717  0.1727  0.6448
16937SOL    HW252100   0.693   5.305   5.314  3.0509  1.5092  0.8906
16938SOL     OW52101   6.747   6.398   8.697 -0.0770 -0.4114 -0.4917
16938SOL    HW152102   6.722   6.426   8.609 -0.0516 -2.7250 -1.3212
16938SOL    HW252103   6.670   6.354   8.732  0.1741 -0.2312  0.3167
16939SOL     OW52104   8.214   5.868   3.811  0.2166 -0.5964  0.2139
16939SOL    HW152105   8.239   5.792   3.864  0.8340  1.2094  2.7421
16939SOL    HW252106   8.120   5.877   3.825  0.3217 -0.3190  0.8051
16940SOL     OW52107   7.675   7.247   7.565  0.3397  0.2437  0.5439
16940SOL    HW152108   7.628   7.311   7.511  2.0732  0.6744 -0.5209
16940SOL    HW252109   7.656   7.163   7.524 -0.8353  0.2100  1.1271
16941SOL     OW52110   5.773   3.213   2.771 -0.1626 -0.0132  0.6150
16941SOL    HW152111   5.729   3.298   2.776 -1.7487 -0.8102  1.0479
16941SOL    HW252112   5.810   3.209   2.683 -0.5822  0.8790  0.3922
16942SOL     OW52113   2.360   6.207   5.384 -0.1448 -0.2649 -0.7857
16942SOL    HW152114   2.415   6.254   5.448 -0.9377 -0.4122  0.0219
16942SOL    HW252115   2.342   6.123   5.425  0.7866 -1.0806 -1.9838
16943SOL     OW52116   6.949   3.676   7.745 -0.3181  1.1280 -0.5224
16943SOL    HW152117   6.912   3.588   7.734 -0.5974  1.1921 -0.1196
16943SOL    HW252118   7.041   3.660   7.769 -0.2369  0.9553 -0.9506
16944SOL     OW52119   2.925   0.379   6.503 -0.0979 -0.6400  0.2270
16944SOL    HW152120   2.929   0.460   6.451  1.8352 -1.0149 -0.2578
16944SOL    HW252121   2.988   0.393   6.573 -0.9134 -1.1318  1.0827
16945SOL     OW52122   6.910   7.612   7.932 -0.3043 -0.2747  0.2170
16945SOL    HW152123   6.879   7.576   8.016  1.0415 -1.1200  0.3776
16945SOL    HW252124   6.932   7.535   7.880  1.0652  0.2872 -0.0573
16946SOL     OW52125   3.396   5.351   6.167  0.1665  0.2518  0.2370
16946SOL    HW152126   3.313   5.345   6.213 -1.8717  1.7601 -2.8814
16946SOL    HW252127   3.386   5.294   6.091  2.2900 -0.0763  0.1372
16947SOL     OW52128   0.716   5.988   3.936 -0.0512  0.3420  0.5313
16947SOL    HW152129   0.727   6.057   3.871  0.0902  1.3547  1.6015
16947SOL    HW252130   0.622   5.976   3.943 -0.0974  0.7544  0.6594
16948SOL     OW52131   7.498   3.645   2.444 -0.0389 -0.4693  0.2312
16948SOL    HW152132   7.492   3.649   2.349 -0.9555  1.4020  0.3411
16948SOL    HW252133   7.527   3.732   2.471  0.9249 -1.1800  1.6363
16949SOL     OW52134   4.005   4.685   1.917 -0.8742  0.3110 -0.6939
16949SOL    HW152135   4.093   4.716   1.896 -0.7396  0.5846  0.2291
16949SOL    HW252136   4.013   4.589   1.916 -0.5406  0.3359 -0.5044
16950SOL     OW52137   2.114   6.972   2.973  0.3501  0.5655 -0.1818
16950SOL    HW152138   2.188   6.931   2.928  1.0366 -0.1510  1.4721
16950SOL    HW252139   2.155   7.033   3.035 -0.3775 -0.2437  1.1476
16951SOL     OW52140   2.647   1.836   0.089 -0.5801 -0.4211  0.0185
16951SOL    HW152141   2.619   1.900   0.155 -1.7002 -0.1940 -0.6561
16951SOL    HW252142   2.676   1.761   0.140  1.6722  0.9258  0.8799
16952SOL     OW52143   8.533   5.284   6.440  0.3334  0.0135  0.3682
16952SOL    HW152144   8.587   5.355   6.406 -0.6172  0.4721 -0.2280
16952SOL    HW252145   8.505   5.313   6.526  0.5104  0.0617  0.4086
16953SOL     OW52146   8.057   1.023   7.512 -0.1655 -0.2051  0.3662
16953SOL    HW152147   7.994   0.976   7.457  0.7747  1.2410 -2.0365
16953SOL    HW252148   8.003   1.058   7.584 -1.2758 -2.8300  0.9737
16954SOL     OW52149   7.296   7.294   8.708 -0.1763 -0.5350  0.0907
16954SOL    HW152150   7.265   7.331   8.625  0.4607 -0.3210 -0.0566
16954SOL    HW252151   7.293   7.367   8.770 -1.2059 -0.8327  0.4155
16955SOL     OW52152   6.557   6.592   8.254  0.3192 -0.0171 -0.0359
16955SOL    HW152153   6.467   6.621   8.269 -0.1356 -0.8810 -1.0076
16955SOL    HW252154   6.609   6.671   8.262 -0.6285  0.6504 -0.3255
16956SOL     OW52155   0.340   5.738   4.168 -0.3318  0.1091 -0.6468
16956SOL    HW152156   0.297   5.723   4.252  0.9111 -0.2767 -0.0433
16956SOL    HW252157   0.333   5.654   4.122 -1.5593  0.5032 -1.2076
16957SOL     OW52158   5.110   1.275   7.841 -0.1435 -0.4548  0.1410
16957SOL    HW152159   5.147   1.350   7.794 -0.9856 -0.0984  0.0264
16957SOL    HW252160   5.098   1.209   7.774 -0.6409 -0.2121 -0.0164
16958SOL     OW52161   5.519   4.220   7.568  0.5381  0.0283 -0.3962
16958SOL    HW152162   5.492   4.181   7.484  0.0837 -0.7623  0.0980
16958SOL    HW252163   5.551   4.307   7.545 -0.9538  0.3936 -1.2268
16959SOL     OW52164   2.393   3.936   3.763 -0.2475 -0.0417 -0.2023
16959SOL    HW152165   2.320   3.977   3.811 -0.7603 -0.6975 -0.4037
16959SOL    HW252166   2.351   3.871   3.707  0.5357 -0.7026 -0.0352
16960SOL     OW52167   4.670   8.549   3.009  0.3288  0.2277 -0.5846
16960SOL    HW152168   4.605   8.619   2.996 -1.0518 -1.0420 -0.8376
16960SOL    HW252169   4.729   8.558   2.934  0.1067  1.0541 -0.6722
16961SOL     OW52170   5.375   5.380   7.066 -0.8465  0.1171  0.9519
16961SOL    HW152171   5.292   5.423   7.083 -0.3598  1.3990  0.2265
16961SOL    HW252172   5.416   5.433   6.997  0.9967  0.1193  1.9839
16962SOL     OW52173   1.220   1.605   0.800  0.2894 -0.0576 -0.1356
16962SOL    HW152174   1.159   1.562   0.740 -1.8532  0.8909  1.2701
16962SOL    HW252175   1.189   1.695   0.806  2.3588  0.7031  0.0073
16963SOL     OW52176   3.782   2.298   6.685  0.2486  0.1520  0.0290
16963SOL    HW152177   3.792   2.352   6.764  0.5768  0.5559 -0.2816
16963SOL    HW252178   3.735   2.355   6.623  2.3317  0.8488 -1.0108
16964SOL     OW52179   6.259   5.299   4.433  0.1043 -0.0539 -0.0610
16964SOL    HW152180   6.296   5.385   4.451  3.2384 -1.2560 -0.2102
16964SOL    HW252181   6.249   5.258   4.520 -0.9697  0.2658 -0.0206
16965SOL     OW52182   5.703   8.075   2.899  0.1543  0.4894  0.2872
16965SOL    HW152183   5.630   8.058   2.838  0.0183  1.1935  0.2449
16965SOL    HW252184   5.753   8.145   2.857  0.2219  0.7822  0.8459
16966SOL     OW52185   4.948   3.930   0.667 -0.1542  0.1388  0.3778
16966SOL    HW152186   4.883   3.998   0.684 -0.6527 -0.3522  0.4931
16966SOL    HW252187   4.980   3.905   0.754 -0.3623 -0.1373  0.3784
16967SOL     OW52188   3.890   6.512   5.942 -0.1042  0.4278 -0.4399
16967SOL    HW152189   3.890   6.422   5.907  0.3838 -0.9908  2.8173
16967SOL    HW252190   3.969   6.516   5.996 -0.2336  2.7988 -0.3426
16968SOL     OW52191   3.885   6.185   5.268 -0.2147  0.0780  0.6107
16968SOL    HW152192   3.934   6.115   5.226 -0.8139  0.3244 -0.5345
16968SOL    HW252193   3.920   6.265   5.229 -1.3299  0.2709 -0.0105
16969SOL     OW52194   3.950   6.409   3.918  0.1960  0.2519 -0.3338
16969SOL    HW152195   4.025   6.388   3.863 -0.6419 -1.0569 -1.0092
16969SOL    HW252196   3.918   6.493   3.885  0.6768  0.2564 -0.7831
16970SOL     OW52197   7.501   7.904   0.002  0.9744  0.5846  0.3877
16970SOL    HW152198   7.542   7.933   0.083  0.7136 -0.7607  1.0358
16970SOL    HW252199   7.410   7.931   0.010  0.8339  0.0116  0.7857
16971SOL     OW52200   4.190   0.601   8.675 -0.2077 -0.6493 -0.1909
16971SOL    HW152201   4.267   0.545   8.659 -0.5699 -1.1575 -0.1972
16971SOL    HW252202   4.122   0.539   8.702 -0.0306 -0.0100  1.9222
16972SOL     OW52203   6.515   5.784   4.719 -0.1857  0.0068 -0.7406
16972SOL    HW152204   6.603   5.817   4.705 -0.1983 -0.0095 -0.8547
16972SOL    HW252205   6.474   5.788   4.633 -1.2378  2.7842 -0.2370
16973SOL     OW52206   1.014   1.320   0.634  0.2170  0.2912  0.5144
16973SOL    HW152207   0.967   1.388   0.683  1.0100  0.3657  1.2016
16973SOL    HW252208   1.080   1.288   0.696 -1.2818 -2.3936  0.8761
16974SOL     OW52209   3.423   1.604   0.600 -0.1743 -0.3479 -0.4249
16974SOL    HW152210   3.467   1.628   0.681 -1.6426  0.1326  0.2696
16974SOL    HW252211   3.347   1.553   0.628  0.0011 -1.2872 -1.5856
16975SOL     OW52212   8.698   4.548   5.898  0.1113 -0.1529 -0.4844
16975SOL    HW152213   8.784   4.586   5.882 -1.4497  2.9603 -2.5588
16975SOL    HW252214   8.649   4.617   5.942 -1.6689 -1.4149 -0.3608
16976SOL     OW52215   2.722   3.983   6.542 -0.3227  0.0977  0.2624
16976SOL    HW152216   2.733   3.914   6.607 -2.7144  0.3929  1.1043
16976SOL    HW252217   2.774   4.056   6.576  1.5255 -0.9408 -0.1970
16977SOL     OW52218   8.450   5.822   4.976  0.1835  0.1257  0.1063
16977SOL    HW152219   8.385   5.828   4.905  0.9664 -0.0446 -0.6427
16977SOL    HW252220   8.434   5.737   5.016  0.6836 -0.4326 -0.8331
16978SOL     OW52221   7.448   0.264   0.106  0.0934 -0.5899  0.0503
16978SOL    HW152222   7.434   0.313   0.187 -0.3083 -1.2743  0.4057
16978SOL    HW252223   7.374   0.203   0.102 -0.1420 -0.2422 -1.0759
16979SOL     OW52224   6.618   7.977   4.658  0.8592 -0.5842  0.2134
16979SOL    HW152225   6.568   7.898   4.678  0.8902 -0.2160  1.9133
16979SOL    HW252226   6.655   7.961   4.571 -0.1873 -1.8843 -0.0193
16980SOL     OW52227   7.250   8.015   7.590  0.2228 -0.2033  0.7363
16980SOL    HW152228   7.164   8.051   7.571 -0.3711 -1.8832 -0.0026
16980SOL    HW252229   7.293   8.081   7.645 -1.9208  0.1916  2.0273
16981SOL     OW52230   4.044   3.621   5.944  0.2508 -0.4889  0.1685
16981SOL    HW152231   4.096   3.573   6.007 -0.2462  2.7117  3.3293
16981SOL    HW252232   4.108   3.671   5.893  0.4903 -0.6311  0.3294
16982SOL     OW52233   2.733   7.023   2.246 -0.4299  0.4099 -0.1318
16982SOL    HW152234   2.686   6.944   2.274 -1.5041  1.0447 -0.1104
16982SOL    HW252235   2.711   7.032   2.153  1.6535 -0.6610 -0.7813
16983SOL     OW52236   7.037   0.854   2.580 -0.0700  0.4753  0.4754
16983SOL    HW152237   6.977   0.894   2.642 -1.9039 -0.3585 -0.6932
16983SOL    HW252238   7.016   0.895   2.496 -0.4879 -1.3340 -0.3379
16984SOL     OW52239   7.725   7.912   5.130  0.1093 -0.8554  0.0367
16984SOL    HW152240   7.684   7.999   5.129  1.4382 -0.1968 -0.4938
16984SOL    HW252241   7.714   7.880   5.040  0.0867 -1.0011  0.0925
16985SOL     OW52242   3.668   2.161   1.250 -0.5352  0.0040  0.1441
16985SOL    HW152243   3.574   2.175   1.266 -0.8957 -1.1521 -0.7998
16985SOL    HW252244   3.690   2.228   1.185 -1.0407 -0.5398 -0.6099
16986SOL     OW52245   6.569   0.966   7.957  0.0521  0.2493 -0.1503
16986SOL    HW152246   6.631   1.039   7.950  0.5244 -0.0971  0.3767
16986SOL    HW252247   6.502   0.987   7.892 -1.2572  2.5190  1.7513
16987SOL     OW52248   7.017   1.195   6.263  0.0387 -0.6984  0.0312
16987SOL    HW152249   6.944   1.254   6.241  0.9095  0.5136  0.2805
16987SOL    HW252250   6.988   1.151   6.343 -0.0916  0.3944  0.5984
16988SOL     OW52251   1.722   3.356   6.648  0.0705 -0.2060  0.7263
16988SOL    HW152252   1.780   3.284   6.624  0.2083  0.3368 -0.6748
16988SOL    HW252253   1.635   3.325   6.624 -0.5265 -1.5577  4.0407
16989SOL     OW52254   4.373   6.529   5.805  0.3054  0.1482 -0.1834
16989SOL    HW152255   4.455   6.561   5.842  0.3505  0.9448 -0.9287
16989SOL    HW252256   4.399   6.460   5.744  0.4384  0.4359 -0.4583
16990SOL     OW52257   7.942   7.528   6.451  0.1698 -0.2418  0.3458
16990SOL    HW152258   7.940   7.624   6.452 -0.9700 -0.2454  0.4182
16990SOL    HW252259   8.027   7.505   6.414 -0.0360  0.8149 -0.8450
16991SOL     OW52260   1.037   4.778   4.371  0.6520 -0.2095 -0.6990
16991SOL    HW152261   1.105   4.776   4.304  0.8456  0.6285 -0.5417
16991SOL    HW252262   0.957   4.753   4.324  1.0201 -1.0172 -0.9240
16992SOL     OW52263   3.328   4.149   2.010 -0.4499 -0.2752 -0.2099
16992SOL    HW152264   3.407   4.134   1.958 -0.0821 -0.4589  0.3862
16992SOL    HW252265   3.307   4.241   1.996 -0.0502 -0.1901 -0.2713
16993SOL     OW52266   7.654   8.696   1.324  0.8672  0.2332 -0.3071
16993SOL    HW152267   7.742   8.690   1.287  0.5573  1.6842 -1.3669
16993SOL    HW252268   7.610   8.763   1.272 -0.5179  0.3307  0.9038
16994SOL     OW52269   2.036   2.906   0.728 -0.0002  0.1862 -0.2034
16994SOL    HW152270   2.016   2.815   0.749  0.8207 -0.1547 -0.8566
16994SOL    HW252271   2.130   2.914   0.745 -0.1519  1.0491  0.3048
16995SOL     OW52272   7.717   0.905   8.563  0.6235 -0.4390 -0.3078
16995SOL    HW152273   7.674   0.893   8.478  0.3056 -2.8765  0.1162
16995SOL    HW252274   7.805   0.867   8.550  0.6467 -0.6255  0.3754
16996SOL     OW52275   5.726   7.680   8.510 -0.2558  0.3094 -0.1198
16996SOL    HW152276   5.639   7.715   8.491 -0.0910  0.6492 -0.2555
16996SOL    HW252277   5.781   7.757   8.519 -0.1949  0.1504  1.1035
16997SOL     OW52278   8.699   8.553   3.287 -0.2946 -0.1669 -0.5006
16997SOL    HW152279   8.656   8.467   3.285  0.9458 -0.8348 -0.0199
16997SOL    HW252280   8.645   8.605   3.346 -0.5846 -0.9093 -0.0889
16998SOL     OW52281   0.682   4.336   6.698  0.3599 -0.4448 -0.3468
16998SOL    HW152282   0.608   4.391   6.672  0.0992  0.7222  2.5120
16998SOL    HW252283   0.667   4.252   6.654 -1.8064  0.2518 -1.0556
16999SOL     OW52284   6.732   3.379   2.171  0.1106  0.2659  0.4684
16999SOL    HW152285   6.763   3.433   2.244 -0.2841 -0.4064  1.1555
16999SOL    HW252286   6.749   3.432   2.093 -0.0572  1.2813  1.0979
17000SOL     OW52287   4.218   6.924   4.718  0.4203 -0.2123 -0.7741
17000SOL    HW152288   4.254   6.942   4.631  1.3760  0.2741 -0.2949
17000SOL    HW252289   4.282   6.865   4.758 -0.4351 -1.1128 -0.6874
17001SOL     OW52290   3.859   0.779   4.837  0.3150 -0.0236 -0.3060
17001SOL    HW152291   3.940   0.742   4.803 -0.4680 -0.1454 -2.1922
17001SOL    HW252292   3.810   0.703   4.870  0.2306 -0.1857 -0.8040
17002SOL     OW52293   8.543   1.787   1.338  0.3013 -0.0878 -0.3150
17002SOL    HW152294   8.582   1.798   1.252  0.2588 -1.7059 -0.5799
17002SOL    HW252295   8.590   1.849   1.394  1.6056 -0.2977 -1.1294
17003SOL     OW52296   8.684   1.132   7.399  0.5847  0.1751  0.2709
17003SOL    HW152297   8.688   1.121   7.494 -2.0536  2.7066  0.8284
17003SOL    HW252298   8.773   1.115   7.369  1.1973 -2.1536  2.9502
17004SOL     OW52299   0.532   7.589   5.239  0.1625  0.7374  0.2366
17004SOL    HW152300   0.477   7.571   5.315  1.5439  0.3035  1.1894
17004SOL    HW252301   0.471   7.616   5.170 -1.1445  1.0027  1.4490
17005SOL     OW52302   3.419   0.685   7.570 -0.0696 -0.4666  0.0857
17005SOL    HW152303   3.447   0.777   7.573  0.9481 -0.7813  1.2533
17005SOL    HW252304   3.426   0.661   7.478  1.5882  0.0744  0.0374
17006SOL     OW52305   8.101   3.883   2.656 -0.1534 -0.2340  0.1568
17006SOL    HW152306   8.139   3.803   2.618  0.4232  0.3235 -0.4763
17006SOL    HW252307   8.165   3.951   2.635  0.5339  0.0117  2.6948
17007SOL     OW52308   3.079   1.251   0.310 -0.3122  0.6859  0.0806
17007SOL    HW152309   3.069   1.237   0.404 -2.9428  0.3708 -0.1764
17007SOL    HW252310   3.168   1.220   0.291  1.6084  3.7031  2.9168
17008SOL     OW52311   8.286   7.968   6.900 -0.0805  0.0244  0.3925
17008SOL    HW152312   8.223   7.901   6.929  0.4605 -0.7794 -0.2472
17008SOL    HW252313   8.247   8.006   6.822 -0.4617  0.5850  0.8437
17009SOL     OW52314   5.139   1.934   6.409  0.1711  0.7269  0.2467
17009SOL    HW152315   5.096   2.010   6.370  2.0639  0.9556 -1.5323
17009SOL    HW252316   5.229   1.962   6.424  0.7978 -1.0242 -0.0627
17010SOL     OW52317   2.785   2.707   5.973  0.2697  0.5909 -0.4954
17010SOL    HW152318   2.830   2.631   6.010  1.3221  0.8509 -1.2107
17010SOL    HW252319   2.850   2.748   5.916 -0.7889  1.1464 -1.3322
17011SOL     OW52320   1.828   2.936   3.196  0.0521  0.0857  1.1745
17011SOL    HW152321   1.841   3.017   3.246 -0.6998 -0.1993  1.8536
17011SOL    HW252322   1.733   2.927   3.188  0.1109 -0.9906  1.5568
17012SOL     OW52323   8.505   1.789   5.198 -0.2304  0.3004  0.3352
17012SOL    HW152324   8.573   1.856   5.209 -0.0465 -0.0164  1.2101
17012SOL    HW252325   8.552   1.706   5.209 -0.5210  0.0305 -0.3951
17013SOL     OW52326   1.125   0.275   3.118  0.1022  0.1413  0.0238
17013SOL    HW152327   1.146   0.334   3.046 -0.7226  0.6395  0.1855
17013SOL    HW252328   1.055   0.319   3.166  1.2459  0.2495  1.6721
17014SOL     OW52329   0.897   6.871   2.171  0.2493  0.6482 -0.1661
17014SOL    HW152330   0.924   6.863   2.262 -0.5553 -0.0825  0.0098
17014SOL    HW252331   0.895   6.966   2.155  1.0068  0.7635  0.3779
17015SOL     OW52332   6.256   1.003   0.200  0.3526  0.0948 -0.3020
17015SOL    HW152333   6.215   0.917   0.194  2.5004 -0.9046 -2.1930
17015SOL    HW252334   6.321   1.004   0.130  0.1024  3.4649 -0.6879
17016SOL     OW52335   3.542   0.003   4.488 -0.1524 -0.0402 -0.5196
17016SOL    HW152336   3.534  -0.056   4.564 -0.9145 -0.2977 -0.7922
17016SOL    HW252337   3.533   0.091   4.525  1.0830 -0.0704 -0.0956
17017SOL     OW52338   4.252   1.930   7.241 -0.1233 -0.0245 -0.2013
17017SOL    HW152339   4.202   1.942   7.160 -0.6885  0.0842  0.1578
17017SOL    HW252340   4.342   1.951   7.217 -0.3282  0.2571 -0.7401
17018SOL     OW52341   5.501   1.716   6.006  0.4254 -0.6667  0.3355
17018SOL    HW152342   5.582   1.747   6.047  0.3306  0.6024 -0.3917
17018SOL    HW252343   5.530   1.666   5.931  0.5505  0.4075 -0.3535
17019SOL     OW52344   6.597   4.950   3.075 -0.3585 -0.1096  0.2030
17019SOL    HW152345   6.575   5.021   3.016 -2.2916 -1.5717 -0.9537
17019SOL    HW252346   6.677   4.912   3.039 -1.3752 -0.8298 -1.4332
17020SOL     OW52347   3.639   1.754   5.321  0.4040 -0.5250 -0.1360
17020SOL    HW152348   3.623   1.716   5.407  0.6346 -1.7164 -0.5990
17020SOL    HW252349   3.568   1.720   5.266  2.3691 -3.0203 -1.3451
17021SOL     OW52350   1.550   4.485   1.208 -0.0257 -0.2089 -0.1797
17021SOL    HW152351   1.504   4.544   1.148  2.4112 -0.5833 -2.5777
17021SOL    HW252352   1.623   4.537   1.241 -1.3241  0.0008  2.6453
17022SOL     OW52353   2.397   2.658   8.464 -0.0813  0.2702  0.5923
17022SOL    HW152354   2.430   2.704   8.541  1.5204 -0.1924  0.2257
17022SOL    HW252355   2.362   2.575   8.498  0.4277  0.1598  0.8591
17023SOL     OW52356   2.618   8.567   5.972  0.2350 -0.2184 -0.5004
17023SOL    HW152357   2.643   8.650   6.013 -0.8947  0.4361 -1.0680
17023SOL    HW252358   2.548   8.532   6.028  0.6497 -0.7567 -0.3090
17024SOL     OW52359   7.799   6.752   3.372  0.4117  0.1885  0.3157
17024SOL    HW152360   7.833   6.813   3.438  1.6085 -0.3534  0.2376
17024SOL    HW252361   7.760   6.807   3.305  2.2157  0.9504 -0.1723
17025SOL     OW52362   6.483   3.274   4.826 -0.0287 -0.0310  0.0953
17025SOL    HW152363   6.439   3.198   4.787  0.3955 -0.2389  0.0114
17025SOL    HW252364   6.449   3.278   4.915  0.5789 -0.8478  0.3798
17026SOL     OW52365   5.537   6.189   4.956  0.1342  0.1065 -0.2542
17026SOL    HW152366   5.573   6.201   4.868  1.4432  0.3127  0.2896
17026SOL    HW252367   5.567   6.102   4.983  1.2808  0.7747  0.6824
17027SOL     OW52368   2.501   3.293   6.810 -0.6172  0.2488 -0.3356
17027SOL    HW152369   2.464   3.231   6.747 -0.7228  2.0136 -2.0959
17027SOL    HW252370   2.594   3.296   6.790 -0.2738 -0.6605  0.9745
17028SOL     OW52371   2.252   8.131   7.074  0.1754  0.2059  0.7054
17028SOL    HW152372   2.195   8.203   7.102  1.4448  1.9857 -1.0387
17028SOL    HW252373   2.340   8.161   7.097  0.7967 -0.4104 -0.7766
17029SOL     OW52374   7.103   8.370   0.721  0.4741 -0.3995 -0.6813
17029SOL    HW152375   7.016   8.332   0.718 -0.2883  1.2632 -1.2117
17029SOL    HW252376   7.163   8.296   0.708 -0.9542 -1.1905 -3.6960
17030SOL     OW52377   3.955   3.905   6.515 -0.3958 -0.1297 -0.1543
17030SOL    HW152378   3.952   3.997   6.542 -1.9876  0.3799 -1.8341
17030SOL    HW252379   4.006   3.906   6.434  0.3505 -0.8811  0.2986
17031SOL     OW52380   0.425   7.777   2.958 -0.1045  0.3121 -0.0855
17031SOL    HW152381   0.499   7.819   2.915 -0.0366  0.7140  0.4130
17031SOL    HW252382   0.456   7.759   3.047  0.0582 -1.3193 -0.4565
17032SOL     OW52383   5.839   0.267   7.015  0.4260 -0.7031  0.1121
17032SOL    HW152384   5.867   0.352   6.982  2.2208 -1.8982 -1.6267
17032SOL    HW252385   5.915   0.233   7.062  0.0147 -1.6988  0.0924
17033SOL     OW52386   2.507   3.224   5.145  0.2676  0.0075  0.4326
17033SOL    HW152387   2.462   3.286   5.203  0.7825  0.3490  0.4717
17033SOL    HW252388   2.593   3.263   5.130  0.1278 -0.0645 -0.5918
17034SOL     OW52389   3.453   0.312   2.010  0.2284  0.7014  0.1101
17034SOL    HW152390   3.417   0.345   2.092  0.0737  0.3928  0.1698
17034SOL    HW252391   3.388   0.337   1.944 -0.1275  0.1037  0.2244
17035SOL     OW52392   8.483   6.748   2.672 -0.0494 -0.5050 -0.2248
17035SOL    HW152393   8.475   6.673   2.730  0.1886 -1.2951 -1.1909
17035SOL    HW252394   8.528   6.714   2.595  0.2718  0.6838 -0.5860
17036SOL     OW52395   6.633   6.623   3.964  0.6258 -0.6325 -0.2151
17036SOL    HW152396   6.676   6.654   4.045  0.1857  0.1726 -0.2810
17036SOL    HW252397   6.608   6.703   3.919 -0.3258 -1.0973 -0.5167
17037SOL     OW52398   0.444   8.195   3.815 -0.0782  0.0590 -0.9013
17037SOL    HW152399   0.400   8.253   3.877  0.6348 -0.4398  0.0775
17037SOL    HW252400   0.374   8.170   3.754 -0.8056  0.4806 -0.2645
17038SOL     OW52401   2.117   5.429   5.440  0.0327  1.0198 -0.0210
17038SOL    HW152402   2.136   5.447   5.532 -0.3896  2.8061 -0.2502
17038SOL    HW252403   2.190   5.468   5.392 -0.7697  1.9347 -0.5366
17039SOL     OW52404   3.356   7.212   2.142  0.2956 -0.4355  0.2382
17039SOL    HW152405   3.309   7.148   2.196 -0.7663  0.0488 -0.0711
17039SOL    HW252406   3.394   7.274   2.205 -0.2122 -0.3555  0.4702
17040SOL     OW52407   7.330   3.367   2.755 -0.3117 -0.0424 -0.6838
17040SOL    HW152408   7.416   3.401   2.730 -1.1477  2.5500 -0.4103
17040SOL    HW252409   7.283   3.356   2.673  0.7852 -3.2495 -0.9894
17041SOL     OW52410   7.144   2.348   3.384 -0.3161 -0.2995 -0.1488
17041SOL    HW152411   7.185   2.303   3.310  1.7846  0.8458  0.2634
17041SOL    HW252412   7.151   2.288   3.457  0.2921 -0.2702 -0.1808
17042SOL     OW52413   6.608   3.397   7.261 -0.2509 -0.5654 -0.1881
17042SOL    HW152414   6.627   3.446   7.341  0.2770  0.2934 -0.8199
17042SOL    HW252415   6.512   3.389   7.260 -0.2136 -1.6139  1.1003
17043SOL     OW52416   4.947   0.168   7.473  0.6348  0.5882 -0.0069
17043SOL    HW152417   5.016   0.191   7.536  0.1458 -1.2484  1.2791
17043SOL    HW252418   4.866   0.193   7.518  0.1142 -2.8010  1.2246
17044SOL     OW52419   8.413   4.398   7.482  0.8219 -0.2297  0.0745
17044SOL    HW152420   8.381   4.320   7.528  0.8798  0.2546  0.9712
17044SOL    HW252421   8.472   4.364   7.415 -1.0468 -1.1177 -1.2148
17045SOL     OW52422   5.044   7.654   2.189 -0.1538 -0.2114  0.0192
17045SOL    HW152423   5.120   7.711   2.182 -1.1112  1.0610 -0.4951
17045SOL    HW252424   5.005   7.675   2.274 -0.5876  0.0072 -0.2308
17046SOL     OW52425   0.895   5.169   3.293 -0.2130 -0.2705 -0.4021
17046SOL    HW152426   0.829   5.226   3.254  0.3316 -0.4626 -1.6545
17046SOL    HW252427   0.849   5.119   3.360 -1.3717 -0.5287 -1.3725
17047SOL     OW52428   6.116   7.225   6.461  0.2936  0.6336  0.2180
17047SOL    HW152429   6.031   7.240   6.504  0.4526  1.5517  0.2314
17047SOL    HW252430   6.158   7.158   6.514  0.5905  1.9228  1.7017
17048SOL     OW52431   2.563   1.269   6.653  0.4050  0.1281 -0.9504
17048SOL    HW152432   2.590   1.201   6.715 -0.2079  0.8348  0.1199
17048SOL    HW252433   2.546   1.221   6.572  1.6628 -0.7631 -0.7358
17049SOL     OW52434   3.457   5.026   4.153  0.0630 -0.5783  0.1874
17049SOL    HW152435   3.434   4.938   4.124 -0.3043  0.0187 -1.4625
17049SOL    HW252436   3.525   5.055   4.092 -0.4506  0.5938  0.1374
17050SOL     OW52437   5.856   0.948   0.973  0.3911  0.2447  0.6322
17050SOL    HW152438   5.875   0.987   1.058  0.7093 -0.7274  1.0287
17050SOL    HW252439   5.924   0.980   0.915 -0.8420  2.3535  0.2576
17051SOL     OW52440   1.198   0.488   5.054  0.1940  0.0732 -0.4173
17051SOL    HW152441   1.182   0.558   4.991  0.3707  0.6145  0.1427
17051SOL    HW252442   1.293   0.480   5.058  0.2289  0.8091  0.6154
17052SOL     OW52443   7.746   6.041   5.621 -0.8222 -0.2156  0.0020
17052SOL    HW152444   7.793   5.961   5.596 -0.7688 -0.7360  1.6435
17052SOL    HW252445   7.684   6.056   5.550  1.5144  0.2981 -2.1018
17053SOL     OW52446   6.134   2.972   7.073  0.1316  0.3880 -0.6323
17053SOL    HW152447   6.088   3.019   7.143 -0.0891 -1.6412  0.6949
17053SOL    HW252448   6.208   2.931   7.117 -0.2654 -1.3165 -1.4760
17054SOL     OW52449   1.385   3.526   5.802 -0.2271 -0.4709  0.3292
17054SOL    HW152450   1.292   3.529   5.825 -0.2511 -1.5138  0.3849
17054SOL    HW252451   1.403   3.434   5.784  0.8945 -0.3429  0.7171
17055SOL     OW52452   1.374   3.744   5.636  0.2193 -0.2870 -0.1691
17055SOL    HW152453   1.281   3.737   5.613 -0.0629  0.0538  0.8503
17055SOL    HW252454   1.389   3.672   5.697  0.2246  0.5928  0.9030
17056SOL     OW52455   0.779   1.591   7.994  0.5093  0.3770  0.2507
17056SOL    HW152456   0.860   1.600   8.044 -0.5192  0.7052  1.9223
17056SOL    HW252457   0.752   1.681   7.975  0.3499  0.2755 -0.0123
17057SOL     OW52458   3.983   2.556   4.455  0.1000 -0.0062  0.6271
17057SOL    HW152459   3.949   2.479   4.409  0.6281 -0.4210  0.9178
17057SOL    HW252460   4.042   2.597   4.393 -1.5214  1.1926 -0.1950
17058SOL     OW52461   4.051   0.902   3.295 -0.8577 -0.1690  0.4083
17058SOL    HW152462   4.127   0.855   3.259 -1.3599 -0.1779 -0.6864
17058SOL    HW252463   4.086   0.985   3.325 -0.4778  0.0271 -0.5316
17059SOL     OW52464   6.747   4.977   7.647  0.3894  0.2075 -0.5377
17059SOL    HW152465   6.737   5.016   7.560 -1.2511  2.9773  0.7635
17059SOL    HW252466   6.660   4.983   7.687  0.8053 -2.1026  0.9236
17060SOL     OW52467   4.512   0.083   5.134 -0.1445 -0.5229 -0.3295
17060SOL    HW152468   4.437   0.134   5.105 -0.0827 -0.0112  0.3891
17060SOL    HW252469   4.475   0.021   5.197  0.2360  0.7531  1.2137
17061SOL     OW52470   5.511   1.505   7.745  0.4406  0.0466 -0.1654
17061SOL    HW152471   5.573   1.467   7.683  1.1886 -1.3817  1.3905
17061SOL    HW252472   5.427   1.503   7.698  0.9764 -0.9650 -1.1331
17062SOL     OW52473   8.522   7.684   5.158 -0.1897 -0.2485 -0.0347
17062SOL    HW152474   8.577   7.664   5.233  0.3293 -2.6390 -0.9604
17062SOL    HW252475   8.502   7.778   5.167 -0.0696 -0.4198  2.9725
17063SOL     OW52476   6.399   5.834   4.004 -0.0593  0.1243 -0.6066
17063SOL    HW152477   6.383   5.912   4.057 -0.9799  1.9715 -3.3917
17063SOL    HW252478   6.331   5.772   4.031  0.7577  0.1224  1.7294
17064SOL     OW52479   3.985   1.097   5.214  0.0262  0.3816  0.1545
17064SOL    HW152480   3.969   1.191   5.229  1.2877  0.6203  0.1000
17064SOL    HW252481   4.059   1.076   5.271  0.8417 -0.1801 -1.0604
17065SOL     OW52482   1.502   2.084   6.993  0.3880 -0.1733 -0.4675
17065SOL    HW152483   1.578   2.033   6.966 -0.5344 -1.4753 -0.7065
17065SOL    HW252484   1.434   2.062   6.929 -1.1526 -1.5287  1.5208
17066SOL     OW52485   6.463   1.161   1.915 -0.1471 -0.8243 -0.2069
17066SOL    HW152486   6.403   1.219   1.961  1.9326  1.4982 -0.2147
17066SOL    HW252487   6.451   1.075   1.956 -2.8085 -0.2671  0.3012
17067SOL     OW52488   2.666   7.741   2.848  0.1292  0.5527  0.0908
17067SOL    HW152489   2.649   7.647   2.857 -2.1220  0.5252 -2.8305
17067SOL    HW252490   2.749   7.755   2.893  0.8461 -2.9434  0.1464
17068SOL     OW52491   4.401   6.358   3.393  0.5758 -0.4570 -0.0317
17068SOL    HW152492   4.421   6.264   3.392  1.7296 -0.2223 -0.7547
17068SOL    HW252493   4.309   6.363   3.421 -0.0097 -1.8986 -1.5522
17069SOL     OW52494   0.519   7.041   4.910  0.1278 -0.3821  0.3298
17069SOL    HW152495   0.581   6.973   4.885 -1.6984 -2.3119  0.7332
17069SOL    HW252496   0.566   7.094   4.974  1.0632 -2.3833  1.3934
17070SOL     OW52497   5.079   3.895   1.168 -0.0999 -0.1240  0.2654
17070SOL    HW152498   5.031   3.973   1.198  2.2217  0.2968  3.4271
17070SOL    HW252499   5.090   3.843   1.247  0.8695 -2.3260 -1.2420
17071SOL     OW52500   7.438   1.612   1.796  0.4843  0.0070  0.2138
17071SOL    HW152501   7.526   1.594   1.829  0.5662 -0.3690 -0.2062
17071SOL    HW252502   7.452   1.670   1.721  0.4727 -1.1070 -0.6667
17072SOL     OW52503   3.053   5.774   3.484  0.1902 -0.4714 -0.4319
17072SOL    HW152504   3.117   5.796   3.418 -0.5500 -1.2522 -1.4436
17072SOL    HW252505   3.098   5.788   3.567  1.1826  0.3678 -1.0950
17073SOL     OW52506   0.163   6.473   2.542  0.0899  0.0089 -0.3972
17073SOL    HW152507   0.162   6.533   2.616 -0.8724  0.5185 -0.8006
17073SOL    HW252508   0.255   6.462   2.520  0.3256  0.5501  0.3105
17074SOL     OW52509   1.418   7.303   7.119  0.3861 -0.2253 -0.5114
17074SOL    HW152510   1.406   7.368   7.050  3.2630  0.5761 -0.3888
17074SOL    HW252511   1.382   7.222   7.083  1.2194  0.3201 -2.7314
17075SOL     OW52512   7.698   0.870   1.044 -0.2505  0.0017 -0.3338
17075SOL    HW152513   7.723   0.782   1.072 -0.5388  0.2791  0.8360
17075SOL    HW252514   7.749   0.885   0.964  0.4609 -0.8818 -0.0605
17076SOL     OW52515   3.496   0.528   1.134 -0.1698 -0.1138  0.3382
17076SOL    HW152516   3.567   0.544   1.071 -0.5478 -1.6562 -0.5187
17076SOL    HW252517   3.541   0.494   1.211  0.2794  1.6237  0.8883
17077SOL     OW52518   0.508   4.696   0.455  0.2657 -0.3997  0.0469
17077SOL    HW152519   0.503   4.694   0.360 -0.6759  1.0583  0.0481
17077SOL    HW252520   0.503   4.604   0.481  0.0089 -0.7756 -1.2766
17078SOL     OW52521   0.885   6.113   3.219  0.1791 -0.3596  0.1589
17078SOL    HW152522   0.890   6.025   3.183 -0.3731 -0.7356  0.9591
17078SOL    HW252523   0.972   6.128   3.258  0.6941 -0.0416 -1.0749
17079SOL     OW52524   2.982   1.878   5.796  0.1021  0.4626  0.0015
17079SOL    HW152525   2.942   1.920   5.872 -1.9018 -0.7818 -0.2996
17079SOL    HW252526   3.028   1.802   5.832 -0.6518  0.0046  0.0279
17080SOL     OW52527   1.005   6.465   4.862  0.4203  0.1677 -1.1011
17080SOL    HW152528   1.079   6.496   4.913 -0.0656  0.7038 -0.7141
17080SOL    HW252529   0.957   6.544   4.838 -0.7976 -0.2492 -0.1444
17081SOL     OW52530   3.491   7.180   7.630  0.4352  0.0341 -0.2194
17081SOL    HW152531   3.557   7.244   7.601  0.5639 -0.1154 -0.2547
17081SOL    HW252532   3.540   7.100   7.645  0.2264 -0.1353 -0.4481
17082SOL     OW52533   5.177   4.155   7.534 -1.1394  0.0350  0.1506
17082SOL    HW152534   5.211   4.094   7.469 -0.2745  0.2833  0.3533
17082SOL    HW252535   5.211   4.123   7.618  2.4074  2.6922 -0.0332
17083SOL     OW52536   6.426   3.026   4.276 -0.4289 -0.7377 -0.1965
17083SOL    HW152537   6.344   3.001   4.235 -0.1349 -2.2197  0.0748
17083SOL    HW252538   6.404   3.040   4.368 -0.5998  0.0896 -0.3548
17084SOL     OW52539   6.533   6.968   7.068  0.2324  0.1407 -0.4031
17084SOL    HW152540   6.617   6.959   7.114 -0.0196 -1.5281 -0.2147
17084SOL    HW252541   6.526   7.062   7.049  1.7031  0.4400  0.3908
17085SOL     OW52542   3.987   8.419   8.688 -0.6622 -0.5141  0.3626
17085SOL    HW152543   3.898   8.427   8.653 -0.6340  0.4681  0.4822
17085SOL    HW252544   4.008   8.507   8.720  0.1269 -0.8816  0.8812
17086SOL     OW52545   1.853   4.772   4.809  0.2283 -0.6953 -0.0742
17086SOL    HW152546   1.873   4.773   4.903 -1.2450 -0.1784  0.2725
17086SOL    HW252547   1.938   4.768   4.766  0.9131 -1.8323  1.2885
17087SOL     OW52548   7.201   7.742   8.241 -0.3739  0.1007  0.2648
17087SOL    HW152549   7.247   7.807   8.294 -0.1167  0.5685 -0.5130
17087SOL    HW252550   7.164   7.681   8.305 -0.5726  0.9758  1.0153
17088SOL     OW52551   8.455   0.924   0.963  0.5911  0.5873 -0.4649
17088SOL    HW152552   8.448   0.929   1.059 -1.7216 -1.2582 -0.4364
17088SOL    HW252553   8.493   0.837   0.947  0.7464  0.7915 -1.2467
17089SOL     OW52554   1.651   2.525   1.193 -0.1729  0.4587 -0.3176
17089SOL    HW152555   1.589   2.555   1.127  0.4073  0.6983 -0.7580
17089SOL    HW252556   1.666   2.433   1.172 -0.3566  0.4067 -0.2244
17090SOL     OW52557   4.917   3.661   1.114  0.0708 -0.0040 -0.1692
17090SOL    HW152558   4.885   3.694   1.031  1.5490 -1.1444 -1.2415
17090SOL    HW252559   4.950   3.738   1.160  0.4501  0.4704 -1.2221
17091SOL     OW52560   6.133   1.733   3.894 -0.4615 -0.2115 -0.0280
17091SOL    HW152561   6.081   1.706   3.818  0.2731  0.6472 -0.8576
17091SOL    HW252562   6.216   1.763   3.857  0.1161 -0.2897  1.1649
17092SOL     OW52563   3.466   3.045   5.209  0.1270 -0.7836  0.3761
17092SOL    HW152564   3.470   3.130   5.166 -1.3635  0.3970  2.4073
17092SOL    HW252565   3.535   3.048   5.276  1.3186 -1.9584 -0.7240
17093SOL     OW52566   8.057   3.939   1.312  0.0482  0.5147  0.1641
17093SOL    HW152567   7.979   3.934   1.368  1.0829  0.0022  1.6237
17093SOL    HW252568   8.130   3.938   1.373  1.2819 -0.9432 -1.2371
17094SOL     OW52569   0.024   1.883   4.798 -0.4799  0.5472  0.3347
17094SOL    HW152570   0.098   1.863   4.855 -0.0067 -0.1685 -0.5015
17094SOL    HW252571  -0.048   1.831   4.834  0.1165 -0.8148 -0.3791
17095SOL     OW52572   4.249   6.745   7.983  0.7318  0.1345 -0.0450
17095SOL    HW152573   4.307   6.822   7.990  0.3829  0.2893  1.4477
17095SOL    HW252574   4.185   6.770   7.916  2.8656 -0.4019 -2.4530
17096SOL     OW52575   3.746   5.539   5.270 -0.9435 -0.2158  0.2118
17096SOL    HW152576   3.738   5.634   5.267 -0.2260 -0.1753 -0.8927
17096SOL    HW252577   3.789   5.522   5.354  0.0003  0.5336 -0.0990
17097SOL     OW52578   4.265   3.992   1.657 -0.3497  0.0719  0.0273
17097SOL    HW152579   4.260   3.898   1.643 -1.5786  0.3965 -2.0926
17097SOL    HW252580   4.227   4.031   1.578  0.3994  2.3608  0.7033
17098SOL     OW52581   1.210   4.725   6.346 -0.0922  0.0952  0.6481
17098SOL    HW152582   1.219   4.711   6.441  2.1315 -1.1878  0.3166
17098SOL    HW252583   1.183   4.639   6.313 -1.0141  0.5810  0.1051
17099SOL     OW52584   6.649   7.234   7.162  0.6975  0.3415 -0.3737
17099SOL    HW152585   6.728   7.272   7.122  0.5247  1.7163  0.5411
17099SOL    HW252586   6.656   7.256   7.255  0.0248 -0.9519  0.0072
17100SOL     OW52587   0.586   1.714   8.655  1.2744  0.5372 -0.1568
17100SOL    HW152588   0.571   1.643   8.718 -1.1187  0.7476 -0.3780
17100SOL    HW252589   0.674   1.746   8.675  0.7274  0.4621  2.9796
17101SOL     OW52590   5.005   0.224   6.721  0.3166  0.1709  0.0191
17101SOL    HW152591   4.925   0.266   6.691  0.0246  0.0043  0.5633
17101SOL    HW252592   5.042   0.184   6.642 -0.4330 -0.2512 -0.1301
17102SOL     OW52593   4.582   4.997   3.744 -0.1541 -0.2824 -0.2800
17102SOL    HW152594   4.644   5.032   3.681 -0.4956 -0.4050 -0.6855
17102SOL    HW252595   4.512   5.062   3.748  0.6057  0.4958  1.1440
17103SOL     OW52596   3.665   4.724   7.379 -0.2176  0.3154 -0.2555
17103SOL    HW152597   3.624   4.796   7.427  0.5471  0.9793 -0.5674
17103SOL    HW252598   3.594   4.686   7.327 -0.4675  1.4178 -0.7541
17104SOL     OW52599   3.467   3.317   5.015 -0.1773 -0.4120 -0.3037
17104SOL    HW152600   3.467   3.349   4.925  0.1270  0.8741  0.1369
17104SOL    HW252601   3.434   3.390   5.067  0.0434 -0.9932  0.6828
17105SOL     OW52602   1.157   3.410   1.379  0.4359 -0.1077 -1.2139
17105SOL    HW152603   1.168   3.400   1.473  2.0824  1.2394 -1.2251
17105SOL    HW252604   1.209   3.340   1.341 -0.0192 -0.4909 -1.1452
17106SOL     OW52605   5.100   3.321   8.655  0.1392  0.1564 -0.2246
17106SOL    HW152606   5.025   3.268   8.679 -0.2093  0.7822  0.1050
17106SOL    HW252607   5.108   3.385   8.725 -0.6481  1.7560 -1.5136
17107SOL     OW52608   0.062   0.493   6.126  0.0379  0.3154 -0.3955
17107SOL    HW152609   0.020   0.558   6.069  0.0988  1.2859  0.6261
17107SOL    HW252610   0.066   0.536   6.212 -1.8546 -1.8117  0.8915
17108SOL     OW52611   6.562   7.822   4.974 -0.4275 -0.6633 -1.0095
17108SOL    HW152612   6.551   7.727   4.971 -1.8997 -0.5953  0.6013
17108SOL    HW252613   6.518   7.854   4.896 -2.0943 -1.1923 -0.3412
17109SOL     OW52614   1.218   7.255   3.767  0.2584  0.0905 -0.9512
17109SOL    HW152615   1.249   7.344   3.785  1.2663 -0.5629  0.8269
17109SOL    HW252616   1.123   7.262   3.764  0.2926  1.1431 -0.1678
17110SOL     OW52617   4.412   7.053   3.161 -0.2629 -0.6543 -0.2069
17110SOL    HW152618   4.386   7.076   3.071  1.6197 -0.8440 -0.8338
17110SOL    HW252619   4.439   7.136   3.199  1.0172 -0.8974 -0.5553
17111SOL     OW52620   6.951   6.956   3.495 -0.2188 -0.3890  0.6143
17111SOL    HW152621   6.927   7.034   3.445  0.6033  0.2350  1.1804
17111SOL    HW252622   6.911   6.884   3.447 -0.6466  0.3409 -0.1434
17112SOL     OW52623   7.205   3.612   8.331  0.5421 -0.0838 -0.2398
17112SOL    HW152624   7.256   3.572   8.261  2.3390  0.0718  0.9362
17112SOL    HW252625   7.235   3.568   8.410 -0.1869  0.9720  0.6461
17113SOL     OW52626   2.692   8.585   1.201  0.3704 -0.2606 -0.5207
17113SOL    HW152627   2.646   8.503   1.217 -0.2070 -0.1621 -1.6221
17113SOL    HW252628   2.779   8.558   1.171 -0.3332 -0.5199 -2.4282
17114SOL     OW52629   2.418   0.555   1.867  0.2266  0.1237 -0.0747
17114SOL    HW152630   2.431   0.570   1.960  2.0159 -1.6008  0.0177
17114SOL    HW252631   2.382   0.466   1.861  0.2082  0.1780 -1.0217
17115SOL     OW52632   6.493   5.707   0.090 -0.0385  0.0246  0.1609
17115SOL    HW152633   6.544   5.676   0.016 -0.6957 -1.4094  0.2672
17115SOL    HW252634   6.550   5.768   0.136  0.6701  0.2960 -1.0577
17116SOL     OW52635   8.615   8.042   4.830 -0.4071  0.1240 -0.9596
17116SOL    HW152636   8.521   8.031   4.838 -0.2899  0.0491  0.6925
17116SOL    HW252637   8.652   7.981   4.894  0.6977  1.0903 -0.6376
17117SOL     OW52638   7.453   2.176   4.092 -0.2143  0.3465  0.1015
17117SOL    HW152639   7.389   2.241   4.122  0.2605  1.0845 -0.4580
17117SOL    HW252640   7.495   2.216   4.016 -0.3045 -0.8525 -0.6120
17118SOL     OW52641   2.072   7.940   1.233 -0.2687 -0.5039 -0.3688
17118SOL    HW152642   2.045   7.891   1.156  0.2813 -1.6087  0.1240
17118SOL    HW252643   2.022   7.900   1.305 -0.5819  0.3421 -0.0978
17119SOL     OW52644   5.303   0.042   0.976 -0.5380 -0.5673  0.1751
17119SOL    HW152645   5.246   0.009   0.906 -0.7093 -0.6117  0.3356
17119SOL    HW252646   5.387   0.057   0.933 -0.0294 -2.5362  0.3759
17120SOL     OW52647   1.456   7.206   3.090  0.2815 -0.6361 -0.7654
17120SOL    HW152648   1.423   7.191   3.002  0.3816  1.5554 -1.2476
17120SOL    HW252649   1.484   7.298   3.090 -0.6107 -0.2710  1.8257
17121SOL     OW52650   7.948   3.628   6.229  0.1423  0.3084  0.2295
17121SOL    HW152651   7.983   3.703   6.182 -0.0054  1.4387  1.8536
17121SOL    HW252652   7.862   3.656   6.258  0.1501 -0.4274  1.0008
17122SOL     OW52653   3.191   8.260   8.415  0.1303 -0.0250 -0.2715
17122SOL    HW152654   3.205   8.184   8.360  0.8771  0.5474 -0.8926
17122SOL    HW252655   3.104   8.291   8.392  0.3038  0.0101 -0.8806
17123SOL     OW52656   2.460   3.009   1.937  0.7363 -0.2886 -0.2516
17123SOL    HW152657   2.398   3.080   1.949  1.1794  0.2362 -1.0332
17123SOL    HW252658   2.513   3.010   2.017  0.5790  0.0794 -0.1504
17124SOL     OW52659   6.233   3.128   1.823  0.4244 -0.8974  0.4782
17124SOL    HW152660   6.226   3.206   1.877  2.4248 -0.0474 -0.3790
17124SOL    HW252661   6.183   3.148   1.744 -1.9362 -1.8843  1.6132
17125SOL     OW52662   0.206   8.690   0.151 -0.3713  0.1023  0.3793
17125SOL    HW152663   0.257   8.761   0.113 -0.1382  0.2079  0.8759
17125SOL    HW252664   0.116   8.724   0.155 -0.4110  0.0635 -0.1304
17126SOL     OW52665   4.159   4.034   3.742 -0.0942  0.2285 -0.5448
17126SOL    HW152666   4.167   4.017   3.649 -0.0943 -1.3656 -0.2778
17126SOL    HW252667   4.064   4.032   3.758 -0.2688  2.6589 -0.8404
17127SOL     OW52668   5.087   4.644   0.982 -0.0385  0.3293 -0.0877
17127SOL    HW152669   5.157   4.645   0.917  2.4741  0.5387  2.4533
17127SOL    HW252670   5.132   4.638   1.066 -3.0833  1.0510  1.7393
17128SOL     OW52671   0.077   7.065   3.174 -0.0357 -0.1248  0.0336
17128SOL    HW152672   0.140   6.999   3.144  0.9035  0.9911 -0.5602
17128SOL    HW252673   0.102   7.083   3.265 -0.3819 -0.6802  0.2401
17129SOL     OW52674   6.550   2.228   4.711  0.2868  0.6666 -0.2965
17129SOL    HW152675   6.550   2.277   4.629  0.4303 -1.1037 -1.4085
17129SOL    HW252676   6.495   2.152   4.694 -0.7263  0.8922  1.6791
17130SOL     OW52677   0.265   7.424   3.673 -0.3482  0.1741 -0.1894
17130SOL    HW152678   0.254   7.341   3.721 -0.3335 -1.3955 -2.7152
17130SOL    HW252679   0.310   7.482   3.735 -0.5496 -1.6090  1.7467
17131SOL     OW52680   6.176   4.740   6.296 -0.3894 -0.3517 -0.2186
17131SOL    HW152681   6.243   4.809   6.292  1.5149 -1.9942  1.1850
17131SOL    HW252682   6.139   4.748   6.384 -0.5449 -0.7752 -0.2466
17132SOL     OW52683   5.839   2.166   0.244 -0.0626 -1.1743 -0.2066
17132SOL    HW152684   5.908   2.231   0.258 -0.3809 -0.6465 -0.9950
17132SOL    HW252685   5.824   2.128   0.330 -0.1020  0.0410  0.3541
17133SOL     OW52686   4.014   7.731   6.597  0.2735  0.5375 -0.0857
17133SOL    HW152687   4.061   7.730   6.681  2.6552 -0.3362 -1.3251
17133SOL    HW252688   4.029   7.819   6.562 -0.1496  0.6821  0.0882
17134SOL     OW52689   5.061   2.809   0.033  0.5225  0.2382 -0.1831
17134SOL    HW152690   5.068   2.847  -0.055  0.8163  0.6208  0.0022
17134SOL    HW252691   5.006   2.871   0.081  0.2961 -0.0126 -0.1186
17135SOL     OW52692   3.234   7.455   2.633 -0.1885 -0.0765 -0.1407
17135SOL    HW152693   3.316   7.498   2.608  0.7184 -0.8335  1.3889
17135SOL    HW252694   3.192   7.516   2.693 -1.6597  1.0883 -2.2003
17136SOL     OW52695   2.809   0.206   6.705 -0.2084  0.0908  0.0058
17136SOL    HW152696   2.832   0.113   6.707  1.2529  0.4436  0.2568
17136SOL    HW252697   2.844   0.238   6.622 -2.1102  0.0996 -0.8376
17137SOL     OW52698   8.175   2.283   3.134 -0.3561  0.3409 -0.5715
17137SOL    HW152699   8.207   2.234   3.058 -1.2663 -0.0922 -0.6887
17137SOL    HW252700   8.084   2.255   3.144 -0.6277  1.3443 -0.0878
17138SOL     OW52701   3.086   2.318   1.307  0.2948  0.0534 -0.3890
17138SOL    HW152702   3.061   2.329   1.398 -1.7581 -3.3854 -0.3895
17138SOL    HW252703   3.040   2.388   1.261  0.9489  1.5096  1.0567
17139SOL     OW52704   0.432   0.450   4.997  0.0417 -0.1453 -0.2552
17139SOL    HW152705   0.391   0.495   4.923 -3.7309 -2.4415  0.1643
17139SOL    HW252706   0.359   0.431   5.056  1.9773 -3.2578  1.3701
17140SOL     OW52707   6.407   5.262   7.633  0.4088  0.2588  0.4647
17140SOL    HW152708   6.427   5.354   7.645  0.0127  0.6102 -1.2788
17140SOL    HW252709   6.342   5.243   7.701  1.6761  0.8117  1.8744
17141SOL     OW52710   5.558   3.464   1.152 -0.6107  0.2413 -0.0203
17141SOL    HW152711   5.559   3.380   1.107 -0.1881  0.6210 -0.7452
17141SOL    HW252712   5.473   3.503   1.130 -1.5380 -0.7093  1.7131
17142SOL     OW52713   5.789   3.831   4.182 -0.2310  0.0715 -0.0215
17142SOL    HW152714   5.847   3.755   4.191  0.2073  0.4444  0.4029
17142SOL    HW252715   5.814   3.870   4.098  0.2617  0.3219  0.2316
17143SOL     OW52716   7.929   7.678   3.709 -0.6826  0.0005 -0.2675
17143SOL    HW152717   7.983   7.756   3.697  1.6025 -1.5194 -0.5081
17143SOL    HW252718   7.952   7.646   3.797 -0.6928 -1.0076 -0.6135
17144SOL     OW52719   7.987   2.417   3.837 -0.1541 -0.2612 -0.2660
17144SOL    HW152720   8.065   2.366   3.821 -0.9299 -1.4437 -0.3915
17144SOL    HW252721   7.915   2.360   3.811 -1.1031  0.4194  0.7597
17145SOL     OW52722   1.141   2.865   7.930  0.7219 -0.2801  0.4391
17145SOL    HW152723   1.050   2.852   7.956  0.0735 -0.1442 -1.5279
17145SOL    HW252724   1.153   2.960   7.933  0.6983 -0.2765  0.4226
17146SOL     OW52725   8.347   7.569   4.179  0.5599  0.3235 -0.4766
17146SOL    HW152726   8.310   7.656   4.196 -0.2909  0.2452 -1.7727
17146SOL    HW252727   8.439   7.586   4.159  1.2501  0.5610  2.4743
17147SOL     OW52728   0.449   4.678   6.233  0.1459  0.2971  0.7078
17147SOL    HW152729   0.509   4.684   6.158  1.1894 -0.1392  1.4818
17147SOL    HW252730   0.498   4.629   6.299  0.0015  2.3404  2.4115
17148SOL     OW52731   7.569   0.433   5.452  0.4814  0.2095 -0.1200
17148SOL    HW152732   7.480   0.401   5.439  0.6746 -1.9962  3.0496
17148SOL    HW252733   7.613   0.412   5.369 -1.0335 -2.1353 -0.4392
17149SOL     OW52734   6.632   6.169   5.305  0.2059  0.2303 -0.3539
17149SOL    HW152735   6.707   6.216   5.341 -0.7131  2.3302 -0.9981
17149SOL    HW252736   6.557   6.203   5.355 -0.3467 -1.9214  0.3730
17150SOL     OW52737   7.774   4.938   3.187  0.3102  0.3003  0.2300
17150SOL    HW152738   7.851   4.884   3.171  1.2138  1.5548  0.1479
17150SOL    HW252739   7.712   4.911   3.120  1.4721  0.6750 -1.0543
17151SOL     OW52740   2.079   1.468   4.753  0.2252 -0.2438  0.3177
17151SOL    HW152741   2.037   1.384   4.767  1.5407 -1.4359 -2.1471
17151SOL    HW252742   2.167   1.458   4.790  0.1086  0.3822  0.7922
17152SOL     OW52743   5.937   4.340   8.620 -0.3902  0.2738 -0.1494
17152SOL    HW152744   6.014   4.378   8.663 -1.0518  1.7658 -0.2279
17152SOL    HW252745   5.969   4.258   8.584  1.8603  1.8829 -2.2155
17153SOL     OW52746   2.378   5.318   1.527 -0.9476 -0.4750  0.3288
17153SOL    HW152747   2.328   5.400   1.532 -1.3687 -0.7483  0.7383
17153SOL    HW252748   2.450   5.331   1.588 -0.0022  0.2537 -0.9067
17154SOL     OW52749   1.510   5.611   2.716  0.2784  0.3202  0.1480
17154SOL    HW152750   1.544   5.579   2.800  0.1174 -2.7150 -0.8211
17154SOL    HW252751   1.587   5.612   2.658  0.0685  0.7409 -0.1323
17155SOL     OW52752   3.210   6.700   2.739 -0.4440  0.0769  0.3040
17155SOL    HW152753   3.281   6.753   2.775 -0.6643  0.8208 -0.3334
17155SOL    HW252754   3.232   6.690   2.646 -0.9567 -0.0439  0.1947
17156SOL     OW52755   2.107   4.644   4.960  0.2373  0.2506 -0.1944
17156SOL    HW152756   2.176   4.588   4.994  0.2232 -0.5987 -1.4821
17156SOL    HW252757   2.050   4.661   5.035  0.7333 -0.7115  0.4172
17157SOL     OW52758   4.964   2.413   3.274  0.1021  0.3572 -0.3895
17157SOL    HW152759   4.973   2.352   3.347  1.2408 -0.9568 -1.5617
17157SOL    HW252760   5.002   2.495   3.307  0.9455 -0.3220  0.3717
17158SOL     OW52761   7.811   5.980   0.804  0.1026  0.0564  0.0663
17158SOL    HW152762   7.885   5.966   0.744  1.0710 -1.8777  1.5773
17158SOL    HW252763   7.802   6.075   0.810  2.2579  0.3416 -0.4314
17159SOL     OW52764   2.299   1.012   3.253 -0.4131  0.5004 -0.3079
17159SOL    HW152765   2.267   0.958   3.325  1.6526 -0.3957  0.0146
17159SOL    HW252766   2.330   1.092   3.294  0.1298  0.2772 -0.2740
17160SOL     OW52767   1.319   1.649   2.921 -0.3614  0.1930  0.2969
17160SOL    HW152768   1.240   1.602   2.950 -1.7657  1.0639 -1.8280
17160SOL    HW252769   1.331   1.621   2.830  0.6247  1.5590 -0.0243
17161SOL     OW52770   3.398   5.418   7.324 -0.2113  0.0144 -0.0890
17161SOL    HW152771   3.304   5.429   7.308  0.3155  1.8022 -2.6534
17161SOL    HW252772   3.416   5.327   7.301 -1.1392 -0.0477 -0.6051
17162SOL     OW52773   1.884   4.728   5.102  0.3203 -0.3939 -0.5224
17162SOL    HW152774   1.880   4.819   5.133  0.0530 -0.5441 -0.0942
17162SOL    HW252775   1.817   4.683   5.154 -0.5092 -0.5549 -1.6783
17163SOL     OW52776   2.069   7.899   8.044  0.0000  0.7418 -0.5376
17163SOL    HW152777   2.111   7.903   7.958  0.1615  1.4420 -0.4394
17163SOL    HW252778   2.069   7.807   8.067 -0.6902  0.4586 -1.6001
17164SOL     OW52779   1.091   4.854   5.483 -0.3537  0.5867  0.5029
17164SOL    HW152780   1.037   4.933   5.478  0.9133  1.4152 -2.7761
17164SOL    HW252781   1.179   4.887   5.505  0.4907  0.3982 -2.2247
17165SOL     OW52782   6.600   2.894   2.930  0.2455 -0.1172  0.3134
17165SOL    HW152783   6.556   2.813   2.954 -0.2469 -0.6411 -2.0416
17165SOL    HW252784   6.690   2.869   2.913  0.5428  0.2075  1.3460
17166SOL     OW52785   2.495   7.236   1.488  0.0732  0.2047 -0.0783
17166SOL    HW152786   2.554   7.290   1.541 -0.8560  1.4251 -0.2293
17166SOL    HW252787   2.504   7.272   1.400  1.2727 -1.5222 -0.7118
17167SOL     OW52788   0.808   6.238   0.126 -0.8001 -0.3944 -0.1366
17167SOL    HW152789   0.769   6.298   0.189  0.8391  1.6633 -0.9650
17167SOL    HW252790   0.896   6.272   0.112 -0.3621 -2.0734 -1.8879
17168SOL     OW52791   3.693   4.750   3.976  0.2473  0.7326  0.5356
17168SOL    HW152792   3.603   4.734   4.002 -0.3382 -0.6772 -1.9875
17168SOL    HW252793   3.695   4.844   3.953 -0.5277  0.8154  0.7897
17169SOL     OW52794   2.554   4.722   7.999  0.1820  0.0878  0.0636
17169SOL    HW152795   2.648   4.706   8.006  0.0225 -0.3384  1.4375
17169SOL    HW252796   2.535   4.783   8.070 -0.3205  1.5048 -1.2285
17170SOL     OW52797   2.540   7.973   4.394 -0.2796  0.4957 -0.5441
17170SOL    HW152798   2.455   7.961   4.436 -0.4041 -1.3008 -1.2622
17170SOL    HW252799   2.593   7.900   4.426 -0.0818 -0.3795 -2.7223
17171SOL     OW52800   7.746   0.218   1.520  0.0447 -0.3793 -1.0065
17171SOL    HW152801   7.654   0.236   1.504  0.1790  0.0608 -1.3137
17171SOL    HW252802   7.754   0.123   1.513 -0.0765 -0.3000 -2.7206
17172SOL     OW52803   5.855   2.161   7.373 -0.3112  0.1062 -0.9487
17172SOL    HW152804   5.811   2.141   7.456 -0.9180  1.6150 -0.8781
17172SOL    HW252805   5.948   2.168   7.397 -0.5421  1.0405 -0.2776
17173SOL     OW52806   4.392   3.061   8.000 -0.0143  0.4910  0.1900
17173SOL    HW152807   4.382   2.967   7.984  0.3627  0.7491 -1.9128
17173SOL    HW252808   4.309   3.100   7.972  0.8620  1.0270 -1.9017
17174SOL     OW52809   2.859   4.928   7.837 -0.3399 -0.7627  0.3756
17174SOL    HW152810   2.882   5.007   7.886 -0.5859 -0.7966  0.5484
17174SOL    HW252811   2.771   4.944   7.805  0.4398 -0.0431 -1.5255
17175SOL     OW52812   4.090   6.398   2.765  0.2029  0.0371 -0.5372
17175SOL    HW152813   4.166   6.371   2.817  1.0278 -0.5083 -1.9705
17175SOL    HW252814   4.022   6.335   2.788  0.4398  0.0246  0.1416
17176SOL     OW52815   6.181   5.132   2.402 -0.6792 -0.3079 -0.2866
17176SOL    HW152816   6.175   5.088   2.317  0.0886 -0.1211 -0.4466
17176SOL    HW252817   6.246   5.081   2.451 -1.7625 -0.9397  0.5275
17177SOL     OW52818   3.482   2.878   3.133 -1.1208  0.1571  0.0311
17177SOL    HW152819   3.568   2.844   3.156 -1.4652  0.1583  1.4787
17177SOL    HW252820   3.487   2.898   3.040  0.0350 -1.0239 -0.1893
17178SOL     OW52821   8.533   7.076   1.550 -0.2971  0.1951  0.5233
17178SOL    HW152822   8.490   7.085   1.465 -0.1093 -0.1959  0.3827
17178SOL    HW252823   8.555   6.983   1.556 -1.4114 -0.0160  1.5541
17179SOL     OW52824   5.495   2.181   8.035 -0.0767 -0.0526  0.8875
17179SOL    HW152825   5.492   2.247   8.104 -2.2041  0.9195 -0.0598
17179SOL    HW252826   5.588   2.159   8.027  0.4327  1.2271  2.6941
17180SOL     OW52827   6.290   4.846   1.075 -0.1107 -0.3591  0.0752
17180SOL    HW152828   6.244   4.929   1.080 -0.5950 -0.4093 -2.2627
17180SOL    HW252829   6.259   4.796   1.150 -1.5998  0.7157  0.2151
17181SOL     OW52830   7.949   6.870   3.578  0.5718 -0.5190 -0.4125
17181SOL    HW152831   8.024   6.919   3.544 -0.9667  1.9218 -0.5202
17181SOL    HW252832   7.984   6.783   3.598  3.6435  0.7998  0.4927
17182SOL     OW52833   4.222   0.245   6.217  0.2146 -0.8001 -0.5768
17182SOL    HW152834   4.269   0.180   6.165 -1.4087 -3.1783  0.7679
17182SOL    HW252835   4.278   0.260   6.293  0.5591 -0.6810 -0.8517
17183SOL     OW52836   4.156   0.749   4.108 -0.3650  0.3805  0.0165
17183SOL    HW152837   4.155   0.726   4.201  1.2205  0.9341  0.2031
17183SOL    HW252838   4.064   0.746   4.082 -0.9051  0.7192  1.7198
17184SOL     OW52839   7.202   5.914   4.113  0.2381  0.1025  0.3144
17184SOL    HW152840   7.222   5.976   4.042  0.2111  1.5896  1.5469
17184SOL    HW252841   7.251   5.835   4.090 -0.0787  0.3952 -1.5453
17185SOL     OW52842   1.593   6.733   4.644  0.0132  0.1446  0.3648
17185SOL    HW152843   1.521   6.792   4.622 -0.8198 -1.2271 -0.7421
17185SOL    HW252844   1.551   6.653   4.673  1.1230  0.5065  3.2653
17186SOL     OW52845   4.279   4.999   2.023  0.5088 -0.3917 -0.2713
17186SOL    HW152846   4.360   4.971   2.064  0.9051 -0.7785 -1.2795
17186SOL    HW252847   4.211   4.979   2.087  1.1089 -0.8954  0.2205
17187SOL     OW52848   1.676   0.274   3.864  0.2704  0.1577 -0.0007
17187SOL    HW152849   1.639   0.212   3.927  0.0139  0.6067  0.2955
17187SOL    HW252850   1.770   0.275   3.883 -0.0505  1.9326  1.8854
17188SOL     OW52851   2.783   8.676   0.705  0.0100 -0.0851 -0.5210
17188SOL    HW152852   2.851   8.633   0.654 -1.7048 -0.9801 -2.1809
17188SOL    HW252853   2.762   8.756   0.655 -1.0007 -0.4703 -0.7492
17189SOL     OW52854   1.206   3.975   1.630  0.5509 -0.4228  0.4553
17189SOL    HW152855   1.184   3.883   1.618  0.1288 -0.1878 -0.7147
17189SOL    HW252856   1.292   3.974   1.672  0.7138 -1.3454  0.1135
17190SOL     OW52857   0.884   5.232   6.109  0.2793  0.2243 -0.6336
17190SOL    HW152858   0.929   5.283   6.177 -0.4388  2.1922 -1.5473
17190SOL    HW252859   0.874   5.294   6.037 -2.0265 -0.7850 -1.2397
17191SOL     OW52860   1.673   7.428   8.650  0.0323  0.0574  0.2812
17191SOL    HW152861   1.578   7.439   8.646  0.1703  2.1101  1.2110
17191SOL    HW252862   1.697   7.394   8.563 -1.3692  1.1869 -0.5931
17192SOL     OW52863   2.838   7.175   1.307  0.4587  0.1534 -0.3278
17192SOL    HW152864   2.824   7.250   1.248 -0.9281  1.3159  1.3772
17192SOL    HW252865   2.887   7.211   1.381  0.8699 -0.9323 -0.0534
17193SOL     OW52866   2.514   2.125   8.207 -0.2701  0.1055  0.1958
17193SOL    HW152867   2.570   2.147   8.132  0.1339 -1.4665 -0.0046
17193SOL    HW252868   2.425   2.135   8.173 -0.0891 -0.3724 -0.4622
17194SOL     OW52869   7.514   1.589   5.813 -0.3079 -0.1153  0.0943
17194SOL    HW152870   7.603   1.574   5.845 -0.1410  1.4937  0.4705
17194SOL    HW252871   7.464   1.609   5.891 -0.8140 -0.1874 -0.2103
17195SOL     OW52872   8.230   0.067   7.479 -0.2983 -0.1363 -0.2435
17195SOL    HW152873   8.305   0.048   7.423 -0.6625 -1.0489 -0.4286
17195SOL    HW252874   8.266   0.123   7.549  0.3110  0.3714 -0.9485
17196SOL     OW52875   7.769   0.582   4.541  0.7125 -0.1439 -0.5976
17196SOL    HW152876   7.816   0.629   4.471  0.3352 -0.3444 -0.9930
17196SOL    HW252877   7.716   0.649   4.583 -0.5571 -0.3598 -1.7763
17197SOL     OW52878   3.818   7.018   7.781 -0.3820 -0.2725  0.1618
17197SOL    HW152879   3.858   7.050   7.863 -0.4307 -1.3985  0.6386
17197SOL    HW252880   3.823   6.923   7.788 -2.8405 -0.4574  0.0818
17198SOL     OW52881   6.827   5.678   8.683 -0.7434 -0.1073 -0.5619
17198SOL    HW152882   6.785   5.629   8.612 -1.5145 -2.0152  1.1102
17198SOL    HW252883   6.825   5.618   8.758  1.3259  1.2883  0.7025
17199SOL     OW52884   7.156   5.174   8.045 -0.0072 -0.0476 -0.3333
17199SOL    HW152885   7.145   5.145   8.135 -1.5639 -1.3261 -0.8839
17199SOL    HW252886   7.076   5.224   8.026  0.9960  1.5419 -0.5554
17200SOL     OW52887   0.106   5.991   4.848  0.0877 -0.3627 -0.2011
17200SOL    HW152888   0.067   6.077   4.861  2.3371  0.4875  1.5219
17200SOL    HW252889   0.137   5.993   4.757  0.2648  0.7363 -0.1357
17201SOL     OW52890   2.804   1.196   8.458  0.2761 -0.5089  0.2192
17201SOL    HW152891   2.713   1.181   8.432  0.1568  0.0783  0.2854
17201SOL    HW252892   2.830   1.115   8.502  0.0933 -1.0508 -0.6374
17202SOL     OW52893   7.569   2.438   0.442  0.3801 -0.5266 -0.0820
17202SOL    HW152894   7.640   2.404   0.388  0.8792 -1.0276  0.8512
17202SOL    HW252895   7.492   2.389   0.415  1.1450 -2.6865  1.4383
17203SOL     OW52896   2.562   8.556   5.106 -0.2287 -0.3303  0.1276
17203SOL    HW152897   2.558   8.647   5.134  1.5090 -0.7151  1.7720
17203SOL    HW252898   2.481   8.543   5.056 -0.1217  2.3119 -0.8724
17204SOL     OW52899   8.651   5.355   8.307  0.0071  0.4552  0.2904
17204SOL    HW152900   8.645   5.346   8.212 -0.1663 -0.2912  0.3642
17204SOL    HW252901   8.738   5.393   8.322  0.1755  0.2552 -0.1502
17205SOL     OW52902   5.798   4.164   7.033  0.2205 -0.5685 -0.1578
17205SOL    HW152903   5.760   4.202   7.113 -1.8345 -1.1320 -0.8116
17205SOL    HW252904   5.885   4.134   7.060 -1.2105 -2.7719  2.5350
17206SOL     OW52905   0.976   8.478   0.775 -0.3272 -0.1325 -0.1054
17206SOL    HW152906   1.012   8.475   0.686 -1.7153 -0.5128 -0.6728
17206SOL    HW252907   0.919   8.401   0.780 -0.2795 -0.0998  1.1156
17207SOL     OW52908   1.701   0.786   1.030  0.7860  0.2163 -0.2199
17207SOL    HW152909   1.609   0.809   1.036  0.5054 -0.9724  0.4606
17207SOL    HW252910   1.727   0.808   0.941 -0.4005 -0.2920 -0.7036
17208SOL     OW52911   5.786   0.920   2.173  0.9556  0.1566  0.0313
17208SOL    HW152912   5.859   0.963   2.127  0.7788  0.1582 -0.2499
17208SOL    HW252913   5.713   0.981   2.165  1.2019  0.6365  1.2285
17209SOL     OW52914   1.494   4.985   0.910  0.0245  0.7904 -0.3335
17209SOL    HW152915   1.565   4.946   0.961 -0.6785  0.0015  0.0695
17209SOL    HW252916   1.536   5.013   0.828  0.6534 -0.3826 -0.4405
17210SOL     OW52917   7.645   0.058   3.742 -0.2210  0.4062 -0.4788
17210SOL    HW152918   7.625   0.083   3.832  0.0465  1.3737 -0.6789
17210SOL    HW252919   7.567   0.082   3.693 -0.6281 -0.7334 -0.4062
17211SOL     OW52920   5.897   6.479   0.620 -0.5086 -0.3696  0.2013
17211SOL    HW152921   5.809   6.476   0.658 -0.1669 -4.1739  1.0834
17211SOL    HW252922   5.884   6.457   0.528 -0.6819  2.4060 -0.5335
17212SOL     OW52923   0.591   4.327   4.007 -0.0915 -0.3511 -0.8318
17212SOL    HW152924   0.568   4.417   3.982  1.2112 -0.2808 -1.8915
17212SOL    HW252925   0.586   4.277   3.925  0.2885 -1.0006 -0.4717
17213SOL     OW52926   1.892   3.026   7.694  0.3691  0.2995 -0.5127
17213SOL    HW152927   1.965   3.018   7.756  2.8677  1.5466 -3.0451
17213SOL    HW252928   1.852   3.110   7.715  0.3216  0.1016  0.2198
17214SOL     OW52929   8.040   4.094   6.395  0.0285  0.6630  0.0603
17214SOL    HW152930   8.057   4.162   6.460  0.7313  1.6533 -1.1070
17214SOL    HW252931   7.997   4.024   6.444  1.6118  0.8515  1.8299
17215SOL     OW52932   7.727   5.765   6.504  0.2785  0.6466  0.1696
17215SOL    HW152933   7.697   5.854   6.523  0.6076  0.3680  2.1273
17215SOL    HW252934   7.652   5.709   6.522  0.4364  0.4108  0.1026
17216SOL     OW52935   6.302   6.911   8.505  0.1355  0.0212  0.2125
17216SOL    HW152936   6.295   6.986   8.564 -1.9901 -0.5702  0.8429
17216SOL    HW252937   6.357   6.848   8.553 -0.5317  0.0422  1.0435
17217SOL     OW52938   3.672   0.046   8.607 -0.3628 -0.6621  0.1566
17217SOL    HW152939   3.584   0.066   8.640  0.1334  0.5779  0.8027
17217SOL    HW252940   3.701  -0.029   8.659 -1.6715 -2.2285 -1.2390
17218SOL     OW52941   5.751   5.636   4.119 -0.7533 -0.6193  0.3665
17218SOL    HW152942   5.792   5.687   4.049 -0.0136 -0.4950  0.8821
17218SOL    HW252943   5.674   5.596   4.078 -0.7318  0.0313 -0.3262
17219SOL     OW52944   5.649   0.144   0.706 -0.5719 -0.5872  0.0415
17219SOL    HW152945   5.621   0.175   0.620  1.5817 -1.0395 -0.8791
17219SOL    HW252946   5.618   0.211   0.768 -0.2415  0.8859 -1.3324
17220SOL     OW52947   3.271   3.295   1.744 -0.5606 -0.0609 -0.0598
17220SOL    HW152948   3.306   3.339   1.666 -0.2807  0.2363  0.2273
17220SOL    HW252949   3.207   3.233   1.710 -1.0331  0.6443 -0.4688
17221SOL     OW52950   3.758   5.647   2.740 -0.0876 -0.0253  0.0077
17221SOL    HW152951   3.686   5.671   2.797 -0.1312 -1.6399  0.6766
17221SOL    HW252952   3.835   5.644   2.798  0.5268  1.5196 -0.6619
17222SOL     OW52953   6.506   0.081   1.273 -0.5723 -0.1474  0.5431
17222SOL    HW152954   6.413   0.059   1.272 -0.5464 -0.3313 -0.7915
17222SOL    HW252955   6.522   0.117   1.360 -1.4076 -2.1031  1.5581
17223SOL     OW52956   5.871   7.569   4.849 -0.1629 -0.2001  0.1174
17223SOL    HW152957   5.892   7.601   4.937  0.9505 -0.6541  0.0375
17223SOL    HW252958   5.948   7.592   4.796 -0.5558 -0.4888 -0.5872
17224SOL     OW52959   2.923   0.736   5.890 -0.2338 -0.2998  0.1430
17224SOL    HW152960   2.999   0.681   5.908 -0.2104  0.0125  1.0509
17224SOL    HW252961   2.914   0.791   5.968 -2.0465 -1.0999  0.5519
17225SOL     OW52962   3.193   5.653   6.467 -0.4999 -0.3106 -0.0074
17225SOL    HW152963   3.257   5.590   6.499 -0.8041 -1.0763 -0.8682
17225SOL    HW252964   3.223   5.737   6.501  0.1242 -0.8574  0.8383
17226SOL     OW52965   6.834   6.417   2.595  0.1346 -0.2515  0.2064
17226SOL    HW152966   6.756   6.472   2.605 -0.7076 -1.6130  1.5323
17226SOL    HW252967   6.872   6.444   2.511 -0.5614  1.9005  0.5227
17227SOL     OW52968   0.332   7.079   4.448 -0.1262 -0.0050  0.4214
17227SOL    HW152969   0.264   7.127   4.401 -1.8844 -0.8666  1.9304
17227SOL    HW252970   0.344   7.128   4.529  0.9842  0.0563  0.2377
17228SOL     OW52971   8.407   2.250   6.156  1.0483  0.4637 -0.3637
17228SOL    HW152972   8.502   2.251   6.146  1.3445 -1.2926  1.5877
17228SOL    HW252973   8.389   2.177   6.216 -1.6686 -0.2661 -1.8596
17229SOL     OW52974   0.969   5.516   2.916  0.4101 -0.5029 -0.4205
17229SOL    HW152975   1.006   5.598   2.947 -0.7443 -0.1116 -0.0467
17229SOL    HW252976   0.967   5.525   2.821 -0.0369  0.0515 -0.3643
17230SOL     OW52977   0.047   8.597   1.244  0.1304 -0.6691  0.4941
17230SOL    HW152978   0.103   8.595   1.321  1.5189 -0.6607 -0.4673
17230SOL    HW252979   0.022   8.689   1.235  0.6728 -0.5210  0.4571
17231SOL     OW52980   0.540   0.340   7.018 -0.1045 -0.4356  0.2567
17231SOL    HW152981   0.488   0.362   6.941  0.8022 -3.0531 -1.2132
17231SOL    HW252982   0.498   0.262   7.054  0.0418  0.2053  1.9110
17232SOL     OW52983   3.077   5.422   6.730 -0.2009 -0.0556  0.1820
17232SOL    HW152984   3.168   5.418   6.701 -0.5149 -0.7513 -0.7196
17232SOL    HW252985   3.068   5.349   6.791 -0.1903 -0.0391  0.2040
17233SOL     OW52986   2.090   8.534   6.080  0.0993 -0.0260 -0.1032
17233SOL    HW152987   2.094   8.580   6.164  2.2801  0.0876 -0.2073
17233SOL    HW252988   2.061   8.445   6.104 -3.4245  1.0572  0.1764
17234SOL     OW52989   5.332   0.117   3.963 -0.0238  0.1662  0.4309
17234SOL    HW152990   5.376   0.042   4.002  0.8242 -0.6092 -1.8453
17234SOL    HW252991   5.250   0.081   3.928  0.3643  0.2557 -0.6255
17235SOL     OW52992   2.526   7.405   7.640 -1.3373  0.4493  0.6052
17235SOL    HW152993   2.511   7.380   7.548  1.1805  2.4837 -0.4766
17235SOL    HW252994   2.528   7.501   7.638  1.5550  0.5100  2.2208
17236SOL     OW52995   3.876   3.211   8.585 -0.0293 -0.3622 -0.9078
17236SOL    HW152996   3.780   3.219   8.581 -0.0438 -0.8999 -3.4000
17236SOL    HW252997   3.892   3.118   8.573  0.8144 -0.4788  0.8940
17237SOL     OW52998   4.295   1.590   8.016  0.2340  0.1770 -0.0410
17237SOL    HW152999   4.320   1.643   8.092  1.3491 -1.0681  0.5115
17237SOL    HW253000   4.347   1.625   7.944  0.4194  0.3212  0.1616
17238SOL     OW53001   1.190   4.572   7.689  0.3817 -0.4742  0.3456
17238SOL    HW153002   1.244   4.639   7.729 -1.4766  0.7883  0.8749
17238SOL    HW253003   1.249   4.499   7.674  2.5104  1.2963 -0.3684
17239SOL     OW53004   0.526   4.911   7.444  0.3463 -0.3995  0.0359
17239SOL    HW153005   0.618   4.933   7.462  1.0178 -0.5591 -2.8277
17239SOL    HW253006   0.476   4.983   7.483  1.8349  0.8377 -0.2489
17240SOL     OW53007   1.988   5.447   3.207 -0.6746 -0.8353  0.0140
17240SOL    HW153008   2.016   5.365   3.167 -0.0570 -0.0980 -1.1296
17240SOL    HW253009   2.014   5.514   3.144 -1.7287  0.1917  0.6347
17241SOL     OW53010   4.233   5.267   0.141 -0.4832 -0.8155  0.2028
17241SOL    HW153011   4.169   5.329   0.106 -1.2863  0.0264  2.9591
17241SOL    HW253012   4.210   5.183   0.100 -1.1719  0.1190 -1.4193
17242SOL     OW53013   5.377   4.727   7.427 -0.1119  0.9025 -0.6459
17242SOL    HW153014   5.434   4.704   7.354 -1.6047  0.2003 -1.6400
17242SOL    HW253015   5.384   4.822   7.435 -0.5245  1.0861 -2.2259
17243SOL     OW53016   5.842   5.733   3.879 -0.2945 -0.7643 -0.0892
17243SOL    HW153017   5.928   5.717   3.841 -0.6388  0.5691 -1.5617
17243SOL    HW253018   5.784   5.747   3.804 -1.0817  1.7093  0.8406
17244SOL     OW53019   6.242   1.522   4.417 -0.0456  0.4322 -0.1696
17244SOL    HW153020   6.240   1.474   4.334  0.4750 -1.1429  0.6775
17244SOL    HW253021   6.300   1.597   4.400 -0.3595  0.4193 -1.3587
17245SOL     OW53022   4.221   6.761   6.116 -0.3048 -0.3495  0.0680
17245SOL    HW153023   4.153   6.790   6.177 -0.0088  0.8352 -0.1494
17245SOL    HW253024   4.268   6.841   6.093  0.5006 -1.0048 -0.5984
17246SOL     OW53025   5.886   2.024   6.259  0.3620 -0.1983  0.3700
17246SOL    HW153026   5.874   1.989   6.348  0.4718  0.6058  0.7110
17246SOL    HW253027   5.979   2.013   6.241  0.0523 -1.8668 -0.3029
17247SOL     OW53028   3.653   3.452   8.562 -0.6397 -0.1568 -0.4873
17247SOL    HW153029   3.677   3.533   8.608 -0.4242 -0.7731  0.5156
17247SOL    HW253030   3.676   3.469   8.471  3.3945 -0.5262  0.2872
17248SOL     OW53031   1.247   0.935   8.671 -0.4081  0.1788 -0.3752
17248SOL    HW153032   1.258   0.848   8.634 -0.6809 -0.4854  1.0388
17248SOL    HW253033   1.159   0.962   8.643 -0.2356  0.1021 -1.0014
17249SOL     OW53034   6.370   6.749   5.887  0.3996  0.1555  0.0309
17249SOL    HW153035   6.455   6.790   5.899  1.2834 -1.3800 -0.6208
17249SOL    HW253036   6.390   6.666   5.842 -1.4589 -0.1173 -0.3642
17250SOL     OW53037   5.610   6.778   3.616 -0.1574  0.2199  0.6154
17250SOL    HW153038   5.693   6.784   3.569  1.5337  1.1670  3.4785
17250SOL    HW253039   5.565   6.860   3.594  0.0553  0.1115 -0.2592
17251SOL     OW53040   0.015   5.732   4.047 -0.1894  0.0377  0.6478
17251SOL    HW153041   0.081   5.664   4.061 -1.5924 -1.3987  0.4989
17251SOL    HW253042   0.063   5.803   4.004  1.3499 -0.7675  0.9601
17252SOL     OW53043   6.543   1.827   0.759  0.0695 -0.2614  0.2632
17252SOL    HW153044   6.531   1.901   0.699  0.0764 -0.1355  0.4144
17252SOL    HW253045   6.637   1.811   0.759 -0.0064 -0.7079 -0.2852
17253SOL     OW53046   6.254   8.226   6.379 -0.0366 -0.0264  0.1726
17253SOL    HW153047   6.214   8.155   6.429  1.7110 -0.3957  1.1315
17253SOL    HW253048   6.180   8.271   6.338 -1.4774 -0.2821  2.3251
17254SOL     OW53049   5.531   1.332   6.697  0.0476 -0.4138  0.1709
17254SOL    HW153050   5.577   1.266   6.749 -0.9866 -0.3186  1.2401
17254SOL    HW253051   5.504   1.285   6.618  1.4650 -0.6109 -0.2209
17255SOL     OW53052   5.396   0.363   3.780  0.1354  0.2169 -0.0012
17255SOL    HW153053   5.431   0.283   3.739 -0.5528  0.4924 -1.1873
17255SOL    HW253054   5.354   0.333   3.860  0.7190 -0.4758  0.0541
17256SOL     OW53055   1.721   6.685   2.600 -0.1141 -0.1149 -0.5707
17256SOL    HW153056   1.635   6.700   2.563 -0.4768 -1.7191 -0.4699
17256SOL    HW253057   1.766   6.632   2.534  0.6133  0.2602 -0.3857
17257SOL     OW53058   6.692   5.142   8.051 -0.4263  0.8278 -0.2325
17257SOL    HW153059   6.694   5.096   8.135  1.1343  2.3097  0.6110
17257SOL    HW253060   6.753   5.095   7.995  0.1218  1.0399  0.1766
17258SOL     OW53061   3.098   1.698   4.765  0.1264  1.2360 -0.2695
17258SOL    HW153062   3.125   1.690   4.857 -1.2152 -2.7725 -0.0318
17258SOL    HW253063   3.006   1.724   4.770 -0.0391  0.6946 -0.4387
17259SOL     OW53064   6.711   1.063   2.414 -0.1794  0.1665  0.2335
17259SOL    HW153065   6.623   1.081   2.381 -0.5774  0.8305  1.5729
17259SOL    HW253066   6.720   0.968   2.411 -1.6400 -0.0534  1.7323
17260SOL     OW53067   4.180   0.383   5.844 -0.4019  0.2816 -0.2747
17260SOL    HW153068   4.147   0.459   5.891  0.6863  0.9241 -0.5057
17260SOL    HW253069   4.125   0.377   5.766 -0.8505  0.4968  0.0247
17261SOL     OW53070   7.534   7.377   2.838  0.0679 -0.3667 -0.2520
17261SOL    HW153071   7.623   7.342   2.832 -0.1937 -1.1546  0.1850
17261SOL    HW253072   7.539   7.443   2.906 -0.0781 -1.8325  1.2548
17262SOL     OW53073   4.586   2.170   0.317  0.6182 -0.3408 -0.1812
17262SOL    HW153074   4.501   2.213   0.307  0.6670 -0.5940 -2.1301
17262SOL    HW253075   4.650   2.237   0.291  0.9654 -0.3960  0.5181
17263SOL     OW53076   3.871   7.251   4.848  0.2201 -0.3580 -0.3177
17263SOL    HW153077   3.872   7.294   4.762  1.7924 -0.9564 -0.6469
17263SOL    HW253078   3.963   7.250   4.875 -0.1947 -0.5703  1.1861
17264SOL     OW53079   7.548   1.888   3.269  0.4280 -0.5903 -0.0112
17264SOL    HW153080   7.634   1.913   3.235  0.4598 -3.0990 -2.0563
17264SOL    HW253081   7.504   1.848   3.194 -0.7852 -3.5224  2.0820
17265SOL     OW53082   4.165   4.826   3.949 -0.6236  0.0657 -0.2039
17265SOL    HW153083   4.247   4.809   3.996 -1.3488 -1.0321  0.7106
17265SOL    HW253084   4.159   4.754   3.886 -1.3027 -0.3387  0.3178
17266SOL     OW53085   1.637   3.601   5.829 -0.4592 -0.4978 -0.0837
17266SOL    HW153086   1.543   3.585   5.838 -0.5361  0.4343  1.0418
17266SOL    HW253087   1.652   3.601   5.734 -1.6247 -0.5085 -0.2855
17267SOL     OW53088   2.529   3.755   6.452 -0.6114  0.4946 -0.4290
17267SOL    HW153089   2.538   3.694   6.525 -0.3940  0.0289 -0.8397
17267SOL    HW253090   2.600   3.818   6.464 -0.2485  0.1095 -0.5274
17268SOL     OW53091   3.685   8.315   1.269  0.0776  0.5490  0.3136
17268SOL    HW153092   3.633   8.334   1.191 -0.6686  0.4613  0.7706
17268SOL    HW253093   3.770   8.288   1.236 -0.4615 -0.2141 -0.4980
17269SOL     OW53094   4.654   4.212   5.954  0.8977 -0.0363  0.8193
17269SOL    HW153095   4.738   4.211   5.908  0.5139  0.8451  0.0329
17269SOL    HW253096   4.630   4.120   5.963  1.0084 -0.2530 -0.7619
17270SOL     OW53097   0.133   8.645   3.675 -0.4405  0.1369 -0.2981
17270SOL    HW153098   0.060   8.689   3.633 -1.1101 -2.2171 -1.7684
17270SOL    HW253099   0.120   8.662   3.769 -2.6022  0.1970 -0.5579
17271SOL     OW53100   4.613   3.821   3.176  0.1589  0.6179  0.4225
17271SOL    HW153101   4.664   3.782   3.105 -0.4194  0.7785 -0.0894
17271SOL    HW253102   4.678   3.858   3.235  0.6842 -0.3300  0.4599
17272SOL     OW53103   5.536   8.241   8.094 -0.1038  0.0536  0.4942
17272SOL    HW153104   5.529   8.292   8.014  0.4735  1.7311  1.4570
17272SOL    HW253105   5.629   8.223   8.103 -0.2217 -0.5483  0.5500
17273SOL     OW53106   1.372   6.227   0.081  0.2347 -0.1373  0.5293
17273SOL    HW153107   1.303   6.233   0.015  0.5189  2.9608  0.3502
17273SOL    HW253108   1.326   6.240   0.165  0.3215 -0.4781  0.6314
17274SOL     OW53109   6.462   5.037   6.065 -0.4862  0.4385 -0.1934
17274SOL    HW153110   6.383   5.077   6.030 -0.5785 -0.6490 -1.2840
17274SOL    HW253111   6.436   5.006   6.152 -1.6585 -0.9700 -0.9924
17275SOL     OW53112   0.443   7.929   6.656 -0.6917 -0.3421 -0.6964
17275SOL    HW153113   0.387   7.879   6.596 -2.5302  1.8885 -0.9987
17275SOL    HW253114   0.440   7.879   6.738 -1.9117 -1.0877 -1.1523
17276SOL     OW53115   3.958   4.123   5.484 -0.1139  0.0813  0.4563
17276SOL    HW153116   4.047   4.099   5.459 -0.8424 -1.0840 -1.2066
17276SOL    HW253117   3.965   4.214   5.512  1.2290  0.8413 -1.9961
17277SOL     OW53118   8.177   3.867   3.845 -0.0675  0.0075  0.0372
17277SOL    HW153119   8.139   3.866   3.933  0.5654 -0.1484  0.3085
17277SOL    HW253120   8.118   3.924   3.795 -1.0693 -0.7949  0.2670
17278SOL     OW53121   4.138   6.869   4.368  0.0898 -0.2925 -0.0072
17278SOL    HW153122   4.086   6.930   4.314  0.1534 -0.7436 -0.5839
17278SOL    HW253123   4.200   6.925   4.413  1.1767 -0.0572 -1.6970
17279SOL     OW53124   3.317   7.224   5.808 -0.5283  0.1409 -0.1549
17279SOL    HW153125   3.254   7.188   5.871  0.7638  0.0648  1.1688
17279SOL    HW253126   3.393   7.248   5.862 -0.0341  1.7048 -1.4721
17280SOL     OW53127   5.747   3.164   3.051 -0.6616  0.3828 -0.5840
17280SOL    HW153128   5.841   3.152   3.067 -0.3426  1.7843 -1.1969
17280SOL    HW253129   5.742   3.190   2.959 -1.5499  1.2833 -0.2949
17281SOL     OW53130   5.074   8.349   1.524  0.3008  0.1040  0.1504
17281SOL    HW153131   5.071   8.266   1.475 -0.3950 -1.2057  2.2563
17281SOL    HW253132   5.161   8.349   1.565 -0.0888 -0.1624  1.0154
17282SOL     OW53133   6.146   6.644   0.328 -0.0410 -0.4163  0.0772
17282SOL    HW153134   6.073   6.679   0.277 -0.0459 -0.5971 -0.0420
17282SOL    HW253135   6.159   6.556   0.293  0.1605 -0.4256  0.1755
17283SOL     OW53136   4.801   2.110   6.320  0.0103  0.4587  0.3272
17283SOL    HW153137   4.725   2.060   6.350  0.2570  1.0746  2.1135
17283SOL    HW253138   4.812   2.179   6.386  1.3358  1.1821 -0.5939
17284SOL     OW53139   5.877   1.522   3.098  0.0089 -0.3559 -0.1878
17284SOL    HW153140   5.882   1.567   3.013  1.6978  0.5267  0.3352
17284SOL    HW253141   5.824   1.579   3.153 -1.5971 -1.2146 -0.7652
17285SOL     OW53142   3.707   4.469   0.779  0.5915  0.5210  0.4916
17285SOL    HW153143   3.724   4.543   0.720 -0.2450 -0.0258 -0.4797
17285SOL    HW253144   3.638   4.500   0.838 -1.7576 -0.2743 -1.6460
17286SOL     OW53145   5.494   3.464   7.898  0.6787  0.0178  0.2730
17286SOL    HW153146   5.575   3.487   7.852  0.2183 -0.5288 -0.8409
17286SOL    HW253147   5.459   3.389   7.849  0.0415 -0.4282  1.3726
17287SOL     OW53148   5.670   5.607   3.043  0.2107 -0.2418 -0.3431
17287SOL    HW153149   5.661   5.558   2.961  1.1764 -2.4798  0.8060
17287SOL    HW253150   5.764   5.626   3.049 -0.0292  1.0239 -0.3210
17288SOL     OW53151   7.740   6.508   2.159  0.0278  0.3679  0.0910
17288SOL    HW153152   7.829   6.525   2.189 -0.0874 -0.4342  0.9370
17288SOL    HW253153   7.751   6.468   2.073  0.3806  2.1949 -0.7743
17289SOL     OW53154   5.266   1.280   1.741 -0.4768 -0.0686 -0.1938
17289SOL    HW153155   5.263   1.194   1.782  0.3461 -0.2212 -0.4309
17289SOL    HW253156   5.270   1.262   1.647 -0.3107  0.2261 -0.2459
17290SOL     OW53157   5.040   1.910   1.001  0.3344 -0.5733  0.1159
17290SOL    HW153158   4.954   1.951   0.992  0.2040 -0.7646  0.4657
17290SOL    HW253159   5.027   1.820   0.971  0.0848 -0.9877  1.3705
17291SOL     OW53160   5.809   2.848   0.334  0.2830 -0.0828  0.1608
17291SOL    HW153161   5.747   2.915   0.307 -0.0470 -0.1441  0.7416
17291SOL    HW253162   5.841   2.810   0.253 -0.5730 -0.1683 -0.1435
17292SOL     OW53163   0.953   0.907   1.421  0.3962  0.0609  0.1468
17292SOL    HW153164   0.961   0.812   1.411  0.5602  0.0782  0.1061
17292SOL    HW253165   0.896   0.919   1.497  0.7362 -0.0659  0.4217
17293SOL     OW53166   1.887   7.295   7.971  0.4965  0.1844 -0.2830
17293SOL    HW153167   1.875   7.375   7.920  1.7383  0.3806 -0.2934
17293SOL    HW253168   1.898   7.226   7.905  2.6812  0.5231 -0.3557
17294SOL     OW53169   3.900   0.800   4.027 -0.5836 -0.6425 -0.1072
17294SOL    HW153170   3.839   0.859   3.984  0.8511  0.8797 -0.1665
17294SOL    HW253171   3.850   0.761   4.099 -1.2743  1.6557  0.7425
17295SOL     OW53172   5.581   5.010   3.713  0.7096  0.4241  0.3554
17295SOL    HW153173   5.564   5.012   3.619  0.7763  0.5565  0.3458
17295SOL    HW253174   5.527   5.080   3.749 -0.9277 -0.9598  0.6907
17296SOL     OW53175   7.322   5.944   0.721 -0.4581  0.2591  0.6175
17296SOL    HW153176   7.246   5.974   0.671  1.7090  2.1567 -1.8101
17296SOL    HW253177   7.319   5.995   0.802 -1.9568 -0.0148  0.7594
17297SOL     OW53178   3.325   4.857   4.840 -0.0575  0.3858 -0.6403
17297SOL    HW153179   3.278   4.830   4.919 -0.8469  0.3508 -1.1110
17297SOL    HW253180   3.379   4.931   4.868 -0.9544  0.9130 -0.2328
17298SOL     OW53181   4.776   2.733   1.943 -0.6743  0.3400  0.7727
17298SOL    HW153182   4.836   2.804   1.964  0.3018 -0.6831  1.6344
17298SOL    HW253183   4.696   2.754   1.991 -0.7349  1.3243  0.2501
17299SOL     OW53184   0.182   3.483   7.184  0.5698  0.1266 -0.2971
17299SOL    HW153185   0.223   3.422   7.123 -0.7103  0.1445 -1.2271
17299SOL    HW253186   0.140   3.427   7.249  0.4895  0.0461 -0.4174
17300SOL     OW53187   5.613   8.610   0.859 -0.1417  0.0126 -0.0650
17300SOL    HW153188   5.628   8.677   0.793  0.5119  0.4814  0.5493
17300SOL    HW253189   5.607   8.528   0.810  1.1120  0.2480 -0.6344
17301SOL     OW53190   5.620   6.252   7.808  0.5159  0.4259 -0.2714
17301SOL    HW153191   5.604   6.344   7.827  1.2170  0.0819  2.3262
17301SOL    HW253192   5.670   6.220   7.883 -1.8705 -2.7009  0.1817
17302SOL     OW53193   8.343   5.378   7.723  0.2657 -0.5696  0.7503
17302SOL    HW153194   8.283   5.309   7.696 -1.8686  0.7425  1.8769
17302SOL    HW253195   8.323   5.451   7.664 -0.0325  0.2299  1.8096
17303SOL     OW53196   7.824   8.324   2.675 -0.6256 -0.0468 -0.1660
17303SOL    HW153197   7.762   8.385   2.634 -0.4289  1.2248  1.3209
17303SOL    HW253198   7.896   8.318   2.613 -0.8684  0.8809 -0.5545
17304SOL     OW53199   8.183   0.763   4.398 -0.3692  0.0817  0.3564
17304SOL    HW153200   8.273   0.773   4.432  0.8539 -0.3381 -2.4700
17304SOL    HW253201   8.168   0.668   4.399 -0.9712  0.1784  1.2040
17305SOL     OW53202   6.524   6.247   1.781 -0.2630 -0.4999  0.4391
17305SOL    HW153203   6.551   6.175   1.724 -1.3195  0.4848 -1.4048
17305SOL    HW253204   6.438   6.220   1.813  0.3013 -1.0219  1.5929
17306SOL     OW53205   2.064   7.285   5.305  0.0833  0.6337  0.4660
17306SOL    HW153206   2.099   7.317   5.222  1.4475  1.1127  1.2092
17306SOL    HW253207   2.140   7.250   5.352 -0.7007  0.1819  1.4448
17307SOL     OW53208   1.370   4.137   0.504 -0.0956  0.0079  0.3938
17307SOL    HW153209   1.297   4.081   0.531 -0.8772  0.8299  0.0455
17307SOL    HW253210   1.358   4.149   0.410 -1.2493  2.4951  0.7589
17308SOL     OW53211   8.499   0.283   3.988 -0.7318 -0.0040 -0.0206
17308SOL    HW153212   8.466   0.284   3.898 -1.5098  0.8834  0.2565
17308SOL    HW253213   8.586   0.244   3.981 -1.2318 -1.0241 -0.9890
17309SOL     OW53214   4.903   7.566   6.357  0.1408 -0.0832  0.0049
17309SOL    HW153215   4.888   7.473   6.372 -0.8507 -0.2533 -1.7645
17309SOL    HW253216   4.907   7.604   6.445 -0.4874 -1.6375  0.7442
17310SOL     OW53217   5.097   3.165   3.463 -0.1534 -0.1506 -0.2378
17310SOL    HW153218   5.106   3.247   3.414  1.1140  0.0148  0.2573
17310SOL    HW253219   5.012   3.173   3.506  0.4932  1.4912  0.8450
17311SOL     OW53220   8.134   1.735   2.184 -0.4350 -0.5310 -0.6356
17311SOL    HW153221   8.123   1.641   2.202  0.9555 -0.8914 -1.4835
17311SOL    HW253222   8.141   1.775   2.271 -1.4350 -1.1483 -0.2503
17312SOL     OW53223   5.327   3.669   6.145  0.1314 -0.3460  0.5420
17312SOL    HW153224   5.373   3.586   6.161 -0.0909 -0.4677  0.5467
17312SOL    HW253225   5.269   3.650   6.071 -0.4850 -0.4074  1.0418
17313SOL     OW53226   8.405   8.132   4.242 -0.3617 -0.3744  0.0674
17313SOL    HW153227   8.497   8.128   4.269 -0.4518  0.8715  0.5999
17313SOL    HW253228   8.356   8.124   4.324 -0.6733  1.3594  0.0728
17314SOL     OW53229   4.879   5.719   0.219  0.2090  0.7897  0.3289
17314SOL    HW153230   4.874   5.756   0.131  0.0269  0.4122  0.1749
17314SOL    HW253231   4.798   5.745   0.261 -0.7994 -0.9531 -0.4035
17315SOL     OW53232   1.639   0.078   5.609 -0.7303  0.2757 -0.3974
17315SOL    HW153233   1.632   0.001   5.552  0.5504  0.6243 -1.0610
17315SOL    HW253234   1.633   0.043   5.698  0.5543 -0.6916 -0.6616
17316SOL     OW53235   6.092   7.362   8.365 -0.1274 -0.4794  0.2291
17316SOL    HW153236   6.084   7.309   8.445 -2.7969 -0.4587  0.0691
17316SOL    HW253237   6.010   7.410   8.360  1.6512  2.8432 -0.2890
17317SOL     OW53238   3.919   1.406   1.336  0.3000  0.5719  0.0386
17317SOL    HW153239   3.954   1.491   1.308 -0.9614  1.2340  0.4060
17317SOL    HW253240   3.995   1.359   1.370  0.9173  1.7919  0.3917
17318SOL     OW53241   1.722   7.375   0.814 -0.2495 -0.4596 -0.3689
17318SOL    HW153242   1.678   7.459   0.834 -0.5122 -0.4969 -0.7812
17318SOL    HW253243   1.803   7.378   0.865  0.0656  0.3426 -0.9021
17319SOL     OW53244   7.100   2.789   4.873  0.7903 -0.0265 -0.8929
17319SOL    HW153245   7.149   2.709   4.857 -0.3784 -1.4757  2.0445
17319SOL    HW253246   7.031   2.764   4.934  0.8565  3.3655  0.8324
17320SOL     OW53247   4.936   0.992   1.394 -0.2772 -0.0990 -0.4765
17320SOL    HW153248   4.979   0.979   1.479  2.5383  0.6296 -1.6877
17320SOL    HW253249   4.861   1.048   1.414 -0.7944 -1.4412  1.7570
17321SOL     OW53250   0.982   5.799   2.119 -0.0567 -0.1746  0.4045
17321SOL    HW153251   1.047   5.782   2.187 -0.6937 -2.2300  0.5493
17321SOL    HW253252   0.949   5.887   2.140  0.6649 -0.2451  1.9922
17322SOL     OW53253   8.327   3.329   0.357 -0.1705  0.0616  0.7934
17322SOL    HW153254   8.378   3.315   0.278 -0.7437 -0.1660  0.4535
17322SOL    HW253255   8.342   3.251   0.410  1.3428  0.8315  1.5651
17323SOL     OW53256   3.176   3.661   0.376 -0.0211  0.0133  0.3794
17323SOL    HW153257   3.082   3.676   0.388  0.1231  0.4326  1.0251
17323SOL    HW253258   3.183   3.625   0.288 -0.6085  1.7450 -0.4288
17324SOL     OW53259   3.546   1.540   4.274  0.3469  0.0314  0.1682
17324SOL    HW153260   3.551   1.540   4.370  0.8755  1.1696  0.1608
17324SOL    HW253261   3.627   1.584   4.246 -0.1025  0.2837 -0.7746
17325SOL     OW53262   0.167   8.176   7.937  0.8695 -0.0926 -0.0515
17325SOL    HW153263   0.093   8.119   7.958  0.0689  0.2761 -1.7260
17325SOL    HW253264   0.224   8.169   8.013 -1.7147  1.0226  2.1819
17326SOL     OW53265   5.076   8.023   3.187  0.1919  0.1666 -0.2457
17326SOL    HW153266   5.155   8.044   3.237 -0.1166  1.3325 -0.2008
17326SOL    HW253267   5.032   8.108   3.176  0.5209  0.0754 -2.9515
17327SOL     OW53268   3.348   2.620   5.000 -0.0947  0.8380  0.7548
17327SOL    HW153269   3.265   2.619   4.952  0.4789  0.9762 -0.2824
17327SOL    HW253270   3.357   2.710   5.031 -0.1188  0.9420  0.4661
17328SOL     OW53271   0.347   7.415   3.978 -0.4140 -0.2653 -0.2909
17328SOL    HW153272   0.308   7.490   4.022 -0.4081  0.3258 -1.2785
17328SOL    HW253273   0.373   7.357   4.049 -0.2049  0.7643  0.4912
17329SOL     OW53274   8.557   5.727   0.644  0.3220  0.0854 -0.1316
17329SOL    HW153275   8.472   5.749   0.681 -0.4575  1.7849 -2.6422
17329SOL    HW253276   8.620   5.748   0.713 -1.2130 -1.2142  1.7853
17330SOL     OW53277   0.408   5.631   8.112 -0.1173  0.2444  0.0415
17330SOL    HW153278   0.489   5.581   8.107  0.3232  1.0489 -1.8351
17330SOL    HW253279   0.427   5.701   8.174  0.0554 -0.4885  0.8442
17331SOL     OW53280   8.386   5.159   0.016 -0.2758  0.1136 -0.3609
17331SOL    HW153281   8.434   5.223  -0.037  1.5087  0.1784  1.2295
17331SOL    HW253282   8.299   5.198   0.026 -0.1846  0.8160 -1.9160
17332SOL     OW53283   7.910   3.345   1.916  0.0280 -0.1209 -0.2194
17332SOL    HW153284   8.002   3.339   1.944  0.0761 -0.0938 -0.3703
17332SOL    HW253285   7.881   3.255   1.908  0.4989 -0.1698 -1.6844
17333SOL     OW53286   4.257   5.182   5.197  0.1138 -0.1501 -0.6880
17333SOL    HW153287   4.297   5.144   5.118  1.2628  2.0965 -1.2788
17333SOL    HW253288   4.207   5.257   5.164 -0.9671 -0.2869  0.5609
17334SOL     OW53289   5.352   5.388   4.886  0.0988 -0.0315 -0.2943
17334SOL    HW153290   5.306   5.438   4.819 -0.7327 -0.2190  0.1300
17334SOL    HW253291   5.431   5.439   4.905 -1.6433  2.1861  1.5243
17335SOL     OW53292   2.082   5.618   5.886 -0.4845  0.3728  0.0084
17335SOL    HW153293   2.146   5.651   5.949  1.2460  1.3470 -2.1343
17335SOL    HW253294   2.065   5.692   5.828 -1.6026 -0.6346 -0.9898
17336SOL     OW53295   5.000   6.352   7.997  0.0273 -0.4542 -0.0466
17336SOL    HW153296   4.907   6.327   7.990  0.0262 -0.2974 -0.6277
17336SOL    HW253297   5.007   6.433   7.947  0.4643 -0.4264  0.0593
17337SOL     OW53298   5.779   6.429   1.752 -0.4247  0.0554  0.4609
17337SOL    HW153299   5.801   6.340   1.780 -1.1174 -0.7306 -1.3419
17337SOL    HW253300   5.735   6.418   1.668  0.9720  2.2049 -0.6737
17338SOL     OW53301   1.646   6.267   7.103 -0.6327  0.1985 -0.2174
17338SOL    HW153302   1.649   6.354   7.143  1.8321 -0.5765  1.5045
17338SOL    HW253303   1.558   6.234   7.122 -1.4944  2.1405 -0.6318
17339SOL     OW53304   7.279   2.094   1.005  0.2421  0.2332  0.2521
17339SOL    HW153305   7.360   2.046   0.988  1.1270  1.2378  1.4406
17339SOL    HW253306   7.227   2.036   1.061  0.3522 -0.2108 -0.1090
17340SOL     OW53307   1.424   4.668   5.898  0.1756 -0.1913 -0.2205
17340SOL    HW153308   1.478   4.729   5.847  1.1886 -0.3411  0.6337
17340SOL    HW253309   1.457   4.676   5.987 -0.0822 -1.5534  0.0155
17341SOL     OW53310   6.387   5.313   5.059 -0.4947 -0.4873 -0.4917
17341SOL    HW153311   6.396   5.230   5.011  0.2342 -0.6498 -0.0965
17341SOL    HW253312   6.380   5.379   4.990  1.3718 -0.6227 -0.8744
17342SOL     OW53313   0.316   7.334   7.480 -0.0985  0.2356  0.2286
17342SOL    HW153314   0.252   7.376   7.423  2.1063  1.6223 -1.4052
17342SOL    HW253315   0.334   7.398   7.548  0.2976  0.3048  0.0642
17343SOL     OW53316   0.703   7.107   1.085 -0.2597  0.0692 -0.1308
17343SOL    HW153317   0.767   7.107   1.157 -0.1187 -1.6955 -0.1997
17343SOL    HW253318   0.755   7.091   1.007 -0.5754  0.5852 -0.4492
17344SOL     OW53319   3.395   3.989   7.130  0.0994  0.4839  0.3432
17344SOL    HW153320   3.427   4.004   7.219  1.5224 -1.5052  0.2412
17344SOL    HW253321   3.331   3.919   7.139 -0.0528  0.5584 -0.1469
17345SOL     OW53322   4.310   8.015   5.663  0.3395 -0.5039  0.4625
17345SOL    HW153323   4.362   8.021   5.744  1.5409  2.6368 -0.3726
17345SOL    HW253324   4.349   7.942   5.615  1.8272 -0.3351  1.3340
17346SOL     OW53325   7.069   2.683   5.736  0.5993 -0.1040 -0.6295
17346SOL    HW153326   7.067   2.627   5.659  2.2083  1.0889 -1.6072
17346SOL    HW253327   7.106   2.766   5.705  0.9513  0.5446  1.3428
17347SOL     OW53328   2.131   7.008   5.791  0.6485 -0.3043  1.0609
17347SOL    HW153329   2.076   6.969   5.859 -0.6690  1.1658  0.8870
17347SOL    HW253330   2.073   7.068   5.744  1.7817 -0.5341 -0.7368
17348SOL     OW53331   0.614   3.815   5.660  0.0587 -0.3454  0.0164
17348SOL    HW153332   0.563   3.830   5.580 -0.0217 -0.8988 -0.0460
17348SOL    HW253333   0.568   3.864   5.728 -0.3662 -0.5656 -0.1091
17349SOL     OW53334   1.068   6.092   5.053  0.0061 -0.2325  0.6313
17349SOL    HW153335   0.993   6.072   4.998  0.9081 -0.3597 -0.6161
17349SOL    HW253336   1.142   6.098   4.991  0.7565  1.4072  1.6166
17350SOL     OW53337   4.803   0.711   1.503  0.3645 -0.2907  0.0954
17350SOL    HW153338   4.786   0.789   1.451 -0.4900  0.0469  0.8703
17350SOL    HW253339   4.767   0.731   1.590  0.5292 -1.3731  0.4259
17351SOL     OW53340   3.384   8.649   1.019  0.2391 -0.1756 -0.0473
17351SOL    HW153341   3.443   8.667   0.946 -0.3331 -0.6107 -0.6184
17351SOL    HW253342   3.406   8.560   1.046 -0.7565 -0.6782 -0.8418
17352SOL     OW53343   8.183   6.001   6.525 -0.0427  0.0042 -0.6295
17352SOL    HW153344   8.133   6.082   6.514  0.1505  0.1539 -0.4228
17352SOL    HW253345   8.230   6.013   6.608 -0.8218 -0.7534 -0.0536
17353SOL     OW53346   4.690   8.593   3.931 -0.1942 -0.5536 -0.0280
17353SOL    HW153347   4.633   8.543   3.990  1.5197 -1.9056  0.5856
17353SOL    HW253348   4.709   8.532   3.860  0.3981 -0.0939 -0.2717
17354SOL     OW53349   7.484   8.594   5.381 -0.2340  0.3177  0.0001
17354SOL    HW153350   7.411   8.532   5.378  0.6830 -0.7565 -1.8263
17354SOL    HW253351   7.540   8.569   5.308  2.7722  0.1243  2.1850
17355SOL     OW53352   5.488   4.758   0.418  0.1648 -0.2392  0.3702
17355SOL    HW153353   5.400   4.764   0.380  1.1148 -1.8510 -2.3458
17355SOL    HW253354   5.508   4.665   0.416  2.3735  0.2025 -0.2047
17356SOL     OW53355   1.389   2.043   1.321 -0.3388 -0.1506 -0.1878
17356SOL    HW153356   1.420   1.958   1.290  0.2357  0.2630 -0.7830
17356SOL    HW253357   1.467   2.083   1.360 -0.1553  0.7935 -1.4595
17357SOL     OW53358   8.018   0.807   3.959  0.2573 -0.3666  0.4009
17357SOL    HW153359   8.045   0.854   4.038 -0.8165  0.4243  0.3125
17357SOL    HW253360   7.935   0.765   3.983  0.0782 -0.3675 -0.2087
17358SOL     OW53361   2.466   6.603   5.382 -0.2023 -0.0577 -0.2117
17358SOL    HW153362   2.437   6.693   5.400 -1.8040 -0.6442  0.3677
17358SOL    HW253363   2.402   6.570   5.318 -1.8937 -1.9048  2.2339
17359SOL     OW53364   5.836   1.477   8.017  0.6792  0.3773  0.2979
17359SOL    HW153365   5.756   1.426   8.012  0.8184  0.1191  0.6917
17359SOL    HW253366   5.811   1.564   7.983  0.0496  0.5234  1.1149
17360SOL     OW53367   2.379   6.770   1.784 -0.2697  0.4741  0.0188
17360SOL    HW153368   2.324   6.847   1.799 -0.3030  0.4187  0.1790
17360SOL    HW253369   2.421   6.787   1.699  1.5939  1.8284  1.1372
17361SOL     OW53370   7.259   4.441   6.442 -0.8210 -0.8059 -0.3455
17361SOL    HW153371   7.337   4.406   6.486 -2.1406 -1.5389  1.5820
17361SOL    HW253372   7.265   4.408   6.352  2.2414  1.1448 -0.9926
17362SOL     OW53373   1.606   2.833   2.510  0.3957  0.4016  0.0878
17362SOL    HW153374   1.590   2.752   2.558  1.0827 -1.0244 -1.9376
17362SOL    HW253375   1.673   2.879   2.561  1.7979 -1.4944  0.0627
17363SOL     OW53376   5.204   8.626   4.261 -0.3979 -0.4981  0.1631
17363SOL    HW153377   5.191   8.535   4.288  0.0788 -0.0796  1.9462
17363SOL    HW253378   5.285   8.625   4.210  0.1967 -0.9351  1.0898
17364SOL     OW53379   1.109   7.436   8.518  0.0844  0.3744  0.2689
17364SOL    HW153380   1.066   7.420   8.602  0.6828 -3.4142  0.0598
17364SOL    HW253381   1.039   7.470   8.461 -0.6486  1.6869  1.8863
17365SOL     OW53382   1.286   3.723   0.359 -0.2189  0.1660 -0.3474
17365SOL    HW153383   1.257   3.809   0.389 -0.2337  0.8386 -2.1500
17365SOL    HW253384   1.380   3.722   0.376 -0.3043  0.3057  0.1633
17366SOL     OW53385   0.531   2.996   3.497  0.9410 -0.3039  0.3184
17366SOL    HW153386   0.554   2.909   3.466  0.4218 -0.0550 -0.8022
17366SOL    HW253387   0.481   2.981   3.577  1.8711 -0.9726  0.7914
17367SOL     OW53388   3.684   3.890   0.420 -0.5552 -0.0856 -0.1261
17367SOL    HW153389   3.634   3.903   0.501 -0.8331 -0.0813 -0.2979
17367SOL    HW253390   3.742   3.966   0.416  0.6955 -0.9282  0.9566
17368SOL     OW53391   6.450   4.064   7.075 -0.0107 -0.9708  0.0773
17368SOL    HW153392   6.469   3.971   7.086  0.2599 -0.8719  0.4549
17368SOL    HW253393   6.531   4.109   7.100  0.1829 -0.6697 -1.0225
17369SOL     OW53394   2.367   6.199   3.778 -0.0951  0.4253 -0.4577
17369SOL    HW153395   2.414   6.171   3.700  1.2831  0.9963  0.1476
17369SOL    HW253396   2.376   6.295   3.778  0.4396  0.3857  0.7168
17370SOL     OW53397   2.067   2.862   1.423  0.0055 -0.3433  0.1001
17370SOL    HW153398   2.085   2.769   1.438  2.2601 -0.0292 -0.4316
17370SOL    HW253399   2.024   2.865   1.338 -0.3373 -0.9148  0.2468
17371SOL     OW53400   7.793   5.302   0.518  0.2400 -0.2792  0.0408
17371SOL    HW153401   7.845   5.238   0.468  1.8941  0.0974  1.2136
17371SOL    HW253402   7.825   5.387   0.489 -0.7046 -0.0019 -0.2143
17372SOL     OW53403   7.057   8.015   4.150  0.7833  0.0119 -0.3782
17372SOL    HW153404   7.084   7.944   4.209  0.1392 -0.3418 -0.4934
17372SOL    HW253405   7.023   7.969   4.072 -1.2986  0.3806  0.2621
17373SOL     OW53406   6.844   6.501   1.575 -0.6472 -0.7141 -0.1878
17373SOL    HW153407   6.905   6.427   1.578 -1.1326 -1.0926  0.7471
17373SOL    HW253408   6.820   6.516   1.666 -3.5109 -1.9034 -0.6470
17374SOL     OW53409   5.916   3.859   5.475 -0.3312  0.2753  0.0509
17374SOL    HW153410   5.917   3.783   5.416 -0.2799  0.3363 -0.0266
17374SOL    HW253411   5.924   3.821   5.563  4.3695  0.2993 -0.0927
17375SOL     OW53412   8.653   5.883   0.862  0.0719 -1.2520  0.5155
17375SOL    HW153413   8.600   5.948   0.908  1.4443 -0.4310  1.0045
17375SOL    HW253414   8.721   5.935   0.818 -1.3844 -1.9166 -2.8740
17376SOL     OW53415   7.937   2.896   1.332 -0.1257  0.6344  0.2156
17376SOL    HW153416   7.939   2.989   1.353 -0.7708  0.7293 -0.1033
17376SOL    HW253417   7.901   2.854   1.411 -2.4701  0.9799 -0.5745
17377SOL     OW53418   2.943   3.876   2.331  0.5278 -0.2307 -0.2552
17377SOL    HW153419   2.992   3.803   2.369 -0.4531 -0.9197 -0.2524
17377SOL    HW253420   2.855   3.840   2.318 -0.1259  1.1197  0.2451
17378SOL     OW53421   3.074   2.784   5.853 -0.1353  0.0503  0.2628
17378SOL    HW153422   3.107   2.873   5.868 -0.2777  0.3190 -0.9332
17378SOL    HW253423   3.095   2.737   5.934 -0.3302  1.2479  1.0413
17379SOL     OW53424   5.657   3.469   0.243  0.8141 -0.1387  0.7343
17379SOL    HW153425   5.710   3.526   0.298  1.2884 -0.0021  0.1354
17379SOL    HW253426   5.720   3.419   0.191  0.3718  0.5667 -0.5384
17380SOL     OW53427   1.935   7.784   6.995 -0.0700 -0.7447  0.1718
17380SOL    HW153428   1.987   7.774   6.915  1.1390  2.8984  0.2937
17380SOL    HW253429   1.978   7.727   7.058  0.2481 -2.1014 -1.2166
17381SOL     OW53430   5.682   3.471   3.586 -0.3588  0.3400 -0.8171
17381SOL    HW153431   5.715   3.559   3.605 -1.6701  0.5088  0.9913
17381SOL    HW253432   5.703   3.420   3.664  0.1985 -0.9179 -1.7595
17382SOL     OW53433   0.673   6.302   3.372 -0.2287 -0.0935 -0.7269
17382SOL    HW153434   0.753   6.259   3.341  0.2152  0.7862 -0.8151
17382SOL    HW253435   0.662   6.378   3.315 -0.0381  0.9017  0.5004
17383SOL     OW53436   0.256   7.953   5.433 -0.1511  0.4577  0.0800
17383SOL    HW153437   0.203   7.893   5.380  1.2230 -3.0379  2.2728
17383SOL    HW253438   0.303   8.006   5.369 -2.0282 -0.2567 -2.0172
17384SOL     OW53439   7.044   4.408   0.535 -0.0580  0.1387 -0.2020
17384SOL    HW153440   7.009   4.496   0.548  0.7721  0.6517 -1.2636
17384SOL    HW253441   7.136   4.421   0.512  0.1688 -1.0298 -0.0520
17385SOL     OW53442   8.025   0.082   6.274 -0.2691 -0.3470  0.4145
17385SOL    HW153443   7.952   0.092   6.213  0.3408  0.0383 -0.2663
17385SOL    HW253444   8.011   0.150   6.340 -1.5273 -1.4575  1.3423
17386SOL     OW53445   3.793   4.609   5.791 -0.0490 -0.3189 -0.4358
17386SOL    HW153446   3.786   4.527   5.838  1.1012 -0.0902  0.1716
17386SOL    HW253447   3.759   4.675   5.852 -0.3124 -0.2488 -0.6540
17387SOL     OW53448   0.175   4.302   5.967  0.6703 -0.2568  0.1140
17387SOL    HW153449   0.111   4.370   5.946  0.8809  0.4534  1.6143
17387SOL    HW253450   0.127   4.220   5.959  0.0693  0.1495 -0.4997
17388SOL     OW53451   7.050   7.181   0.552 -0.1506  0.0401  0.0080
17388SOL    HW153452   7.016   7.169   0.640 -2.5663  0.2238 -0.8163
17388SOL    HW253453   7.072   7.093   0.523  1.4056  0.0592  1.0163
17389SOL     OW53454   3.506   5.729   2.517  0.2755 -0.3413  0.3654
17389SOL    HW153455   3.432   5.789   2.526  0.7962  0.3162  0.3323
17389SOL    HW253456   3.535   5.712   2.606 -0.3595 -1.1789  0.4256
17390SOL     OW53457   6.383   8.240   3.860 -0.1083  0.0791  0.3595
17390SOL    HW153458   6.330   8.197   3.794  0.4508 -0.8416  0.4958
17390SOL    HW253459   6.460   8.272   3.812  0.9426 -1.7378  0.7445
17391SOL     OW53460   1.745   2.158   2.795  0.3357 -0.0725 -0.2795
17391SOL    HW153461   1.834   2.194   2.792  0.4652 -0.0390  2.0666
17391SOL    HW253462   1.688   2.234   2.785  0.5348 -0.0889 -1.7653
17392SOL     OW53463   3.682   7.352   7.551 -0.5534  0.4916 -0.2749
17392SOL    HW153464   3.711   7.372   7.640  0.3765 -0.3668 -0.3726
17392SOL    HW253465   3.752   7.385   7.495  0.1536 -1.3170 -0.5311
17393SOL     OW53466   1.594   5.664   7.302 -0.4307  0.3276  0.0460
17393SOL    HW153467   1.583   5.598   7.371  0.0637  1.3375  1.1214
17393SOL    HW253468   1.661   5.723   7.336 -1.2862  1.7293 -0.6306
17394SOL     OW53469   0.285   3.839   0.454 -0.4224 -0.6822 -0.1033
17394SOL    HW153470   0.239   3.832   0.538 -0.2977  1.3354  0.2021
17394SOL    HW253471   0.225   3.801   0.391 -1.6378  0.0016  0.5897
17395SOL     OW53472   8.263   3.617   8.295 -0.1378 -0.2036  0.5699
17395SOL    HW153473   8.297   3.670   8.367 -1.5939  0.6803  0.6579
17395SOL    HW253474   8.339   3.570   8.261  0.9386  0.8894  1.3911
17396SOL     OW53475   1.938   8.009   0.542 -0.1905 -0.0907  0.4298
17396SOL    HW153476   1.990   8.090   0.537 -1.1463  0.6625  1.9742
17396SOL    HW253477   1.985   7.954   0.604  0.2587 -0.5959 -0.3395
17397SOL     OW53478   0.327   4.349   6.480  0.3723  0.0728  0.1802
17397SOL    HW153479   0.368   4.392   6.554  0.9797  0.5105 -0.3945
17397SOL    HW253480   0.270   4.283   6.518  0.8456  0.1440  1.0230
17398SOL     OW53481   1.485   8.102   3.138  0.0787 -0.2945  0.1177
17398SOL    HW153482   1.573   8.132   3.116 -0.5092  0.2890 -1.5790
17398SOL    HW253483   1.484   8.101   3.234  2.1196 -0.9355  0.1947
17399SOL     OW53484   8.074   5.994   2.709 -0.1732  0.0905 -0.1737
17399SOL    HW153485   8.098   5.918   2.761  2.2007  0.2769 -0.8869
17399SOL    HW253486   8.000   6.033   2.756 -0.6174 -1.9098  0.8794
17400SOL     OW53487   7.703   7.678   1.328 -0.0349  0.3501  0.3311
17400SOL    HW153488   7.619   7.679   1.374 -0.8246 -1.8969 -0.8889
17400SOL    HW253489   7.685   7.724   1.246 -0.3220 -0.7500 -0.2440
17401SOL     OW53490   4.298   5.635   0.963 -0.4097 -0.3358 -0.0543
17401SOL    HW153491   4.382   5.629   1.009 -0.3327 -0.2458 -0.1822
17401SOL    HW253492   4.240   5.578   1.012  0.1683 -1.7286 -0.9117
17402SOL     OW53493   1.578   8.016   1.501 -0.2615 -0.8083  0.0361
17402SOL    HW153494   1.661   8.048   1.537  0.2582 -2.2805  0.2504
17402SOL    HW253495   1.602   7.973   1.419 -1.0192 -0.0863 -0.5812
17403SOL     OW53496   1.423   8.087   4.330  0.1494  0.4485  0.1831
17403SOL    HW153497   1.388   8.175   4.321 -0.2688  0.2959  0.2854
17403SOL    HW253498   1.409   8.046   4.245 -0.0547  0.3405  0.2680
17404SOL     OW53499   5.201   3.476   7.545  0.0463 -0.4102 -0.3520
17404SOL    HW153500   5.153   3.494   7.626 -1.8079  0.2417 -1.5492
17404SOL    HW253501   5.134   3.449   7.482  1.3244 -0.0032 -1.9567
17405SOL     OW53502   4.238   8.021   7.965  0.3664 -0.3495 -0.4349
17405SOL    HW153503   4.219   7.938   7.922  0.8100 -0.7535  0.1405
17405SOL    HW253504   4.308   8.001   8.027  1.2637  0.6904 -1.0830
17406SOL     OW53505   8.038   1.988   5.747  0.5454 -0.7828  0.0100
17406SOL    HW153506   8.095   1.992   5.824 -0.3507 -1.3646  0.7138
17406SOL    HW253507   8.013   2.079   5.731  0.4513 -0.6995  0.6166
17407SOL     OW53508   7.748   0.579   1.394  0.3875 -0.1421 -0.2585
17407SOL    HW153509   7.803   0.501   1.399 -0.3727 -0.8200 -1.8638
17407SOL    HW253510   7.809   0.651   1.387  1.1014 -0.5785  1.1004
17408SOL     OW53511   4.253   1.100   2.614  0.0432 -0.1187  0.8149
17408SOL    HW153512   4.239   1.044   2.690  1.5382  0.1902  1.3628
17408SOL    HW253513   4.270   1.187   2.651 -0.5962  0.3335  0.0604
17409SOL     OW53514   5.583   7.677   4.147 -0.1563  0.2591  0.0121
17409SOL    HW153515   5.603   7.585   4.164  1.2015  0.3706 -0.8012
17409SOL    HW253516   5.520   7.676   4.075 -0.2972 -0.0318  0.1379
17410SOL     OW53517   4.614   1.032   7.490 -0.5004 -0.2809  0.1063
17410SOL    HW153518   4.680   0.973   7.456  1.3592 -0.5425  3.6779
17410SOL    HW253519   4.657   1.118   7.491 -0.1792 -0.4127  2.2488
17411SOL     OW53520   7.894   5.659   1.519  0.0211  0.3952 -0.5313
17411SOL    HW153521   7.837   5.605   1.574 -0.9221  0.9641 -0.9252
17411SOL    HW253522   7.960   5.598   1.487 -0.1648 -0.2093  0.2043
17412SOL     OW53523   1.697   4.608   0.870 -0.6731  0.1257  0.0179
17412SOL    HW153524   1.778   4.651   0.840 -0.9586  0.7150  0.0704
17412SOL    HW253525   1.665   4.562   0.793 -0.8426  0.7634 -0.3021
17413SOL     OW53526   3.562   2.116   4.283 -0.1647 -0.6793  0.3029
17413SOL    HW153527   3.636   2.101   4.223  0.7893 -0.2024  1.3288
17413SOL    HW253528   3.521   2.196   4.250 -0.9178 -1.5311 -0.9213
17414SOL     OW53529   2.896   0.282   2.657 -0.1291  0.4037  0.0778
17414SOL    HW153530   2.892   0.357   2.598 -4.0814 -0.0721 -0.5545
17414SOL    HW253531   2.804   0.254   2.666  0.8998 -2.8362  2.2447
17415SOL     OW53532   2.989   7.986   1.505 -0.8770  0.1340 -0.2795
17415SOL    HW153533   2.979   7.900   1.463 -0.9623 -0.2034  0.4226
17415SOL    HW253534   3.040   8.037   1.442 -2.7273  0.3063 -1.7341
17416SOL     OW53535   0.457   8.085   0.733 -0.0524 -0.5887 -0.3592
17416SOL    HW153536   0.449   7.993   0.708  0.5047 -0.5775 -0.5927
17416SOL    HW253537   0.505   8.126   0.661 -1.0646  0.0733 -0.6694
17417SOL     OW53538   6.367   1.306   5.322 -0.4275 -0.0582 -0.2713
17417SOL    HW153539   6.428   1.245   5.280  1.6343  1.2182  0.7072
17417SOL    HW253540   6.331   1.357   5.250  0.2161 -0.3602 -0.8206
17418SOL     OW53541   8.156   3.525   5.821  0.0322  0.3150  0.4647
17418SOL    HW153542   8.075   3.480   5.842  1.1607 -0.8035  2.8146
17418SOL    HW253543   8.135   3.618   5.826 -0.7970  0.0593  2.5771
17419SOL     OW53544   7.068   2.549   5.448  0.6777  0.2468 -0.4257
17419SOL    HW153545   7.053   2.623   5.389  1.8584  1.0806  0.2729
17419SOL    HW253546   7.140   2.500   5.408  0.3028 -0.1840 -0.5752
17420SOL     OW53547   4.355   5.641   2.241  0.0495 -0.2143  0.1959
17420SOL    HW153548   4.318   5.606   2.322 -0.0566  0.0994  0.2847
17420SOL    HW253549   4.281   5.679   2.194 -0.1650 -1.7530 -0.7800
17421SOL     OW53550   7.309   2.828   8.052  0.1253  0.3429 -0.1705
17421SOL    HW153551   7.350   2.908   8.085  0.3556  0.6288 -1.1085
17421SOL    HW253552   7.339   2.759   8.112 -0.4806  1.0236  0.9448
17422SOL     OW53553   8.314   4.437   2.202  0.1978  0.1404 -0.3192
17422SOL    HW153554   8.366   4.405   2.129  0.1266 -0.6403 -0.0354
17422SOL    HW253555   8.241   4.483   2.161 -0.3020 -1.0217 -0.7569
17423SOL     OW53556   2.697   3.423   0.119 -0.1549  0.0137 -0.3429
17423SOL    HW153557   2.653   3.425   0.034  0.8001 -0.9182 -0.8794
17423SOL    HW253558   2.763   3.492   0.114 -0.8346  0.7269  0.0915
17424SOL     OW53559   6.475   6.373   5.422 -0.7562 -0.1773  0.0650
17424SOL    HW153560   6.411   6.443   5.429 -0.7984 -0.1550 -0.5146
17424SOL    HW253561   6.469   6.327   5.505 -0.3937  0.7853  0.6415
17425SOL     OW53562   5.964   0.553   4.249  0.1441  0.5817 -0.9594
17425SOL    HW153563   6.046   0.601   4.236 -0.3737  1.0085 -3.1413
17425SOL    HW253564   5.989   0.474   4.298  1.2514  2.2836  1.4205
17426SOL     OW53565   2.092   0.986   0.929  0.0856  0.3775  0.9785
17426SOL    HW153566   2.172   1.008   0.881 -0.9531  2.2590 -0.0175
17426SOL    HW253567   2.060   0.906   0.888  0.5299  0.5981  0.1814
17427SOL     OW53568   0.601   3.111   7.126  0.1709  0.3019 -0.3554
17427SOL    HW153569   0.559   3.048   7.184  1.6200 -0.3363  0.0181
17427SOL    HW253570   0.618   3.063   7.045  0.2876  0.5272 -0.4688
17428SOL     OW53571   2.367   7.836   0.150  0.2692  0.3243  0.2395
17428SOL    HW153572   2.434   7.904   0.142 -0.5606  0.9312 -2.3837
17428SOL    HW253573   2.416   7.758   0.177  1.7664  1.1721  0.0928
17429SOL     OW53574   7.434   6.520   0.108  0.4786  0.3862  0.2755
17429SOL    HW153575   7.403   6.532   0.198 -0.8500 -2.5358  0.3424
17429SOL    HW253576   7.505   6.456   0.116  1.2860  1.1258 -0.6804
17430SOL     OW53577   4.648   3.470   3.874  0.1022 -0.6417  0.0831
17430SOL    HW153578   4.723   3.508   3.829  0.0240 -0.0847  0.4097
17430SOL    HW253579   4.673   3.470   3.967  0.0853 -1.3638  0.0944
17431SOL     OW53580   5.361   8.259   3.547 -0.8163  1.4883 -0.6724
17431SOL    HW153581   5.363   8.174   3.590 -1.7005  1.3561 -0.8787
17431SOL    HW253582   5.411   8.317   3.605  2.2062  0.2669 -1.8553
17432SOL     OW53583   1.451   1.379   4.152  0.3083 -0.3446 -0.0850
17432SOL    HW153584   1.434   1.472   4.134  2.8240  0.3623  0.6974
17432SOL    HW253585   1.453   1.373   4.248  1.6968 -0.8368 -0.1246
17433SOL     OW53586   0.011   1.408   7.255 -0.5092 -0.5300  0.0424
17433SOL    HW153587   0.050   1.434   7.172 -0.2716  0.0465  0.3336
17433SOL    HW253588   0.084   1.372   7.306 -0.6509 -0.8664  0.0144
17434SOL     OW53589   0.412   2.768   7.941  0.2423 -0.3877  0.1735
17434SOL    HW153590   0.383   2.860   7.947 -0.5459 -0.7256  1.9679
17434SOL    HW253591   0.464   2.766   7.860 -1.9030  1.0482 -1.3848
17435SOL     OW53592   6.641   7.885   2.288 -0.0252  0.0347 -0.0086
17435SOL    HW153593   6.598   7.875   2.373  1.2306  2.0845  0.9371
17435SOL    HW253594   6.672   7.975   2.287  0.0617  0.0371 -2.6466
17436SOL     OW53595   7.716   1.642   4.926  0.0828 -0.4461  0.1541
17436SOL    HW153596   7.760   1.692   4.995  1.5512 -0.0798 -1.0057
17436SOL    HW253597   7.641   1.602   4.970  0.5513  0.3835  1.7855
17437SOL     OW53598   5.521   0.457   8.326  0.1800  0.3776  0.3588
17437SOL    HW153599   5.489   0.378   8.371 -0.7154  0.2849 -0.4152
17437SOL    HW253600   5.610   0.434   8.299 -0.3191 -0.6393 -0.4709
17438SOL     OW53601   5.000   3.390   5.775 -0.8047 -0.0382 -0.3310
17438SOL    HW153602   5.017   3.477   5.740  0.3043 -0.0601  0.1163
17438SOL    HW253603   5.087   3.350   5.784 -1.2663 -1.0382 -0.1447
17439SOL     OW53604   6.103   7.516   1.564  0.2930 -0.3195  0.0757
17439SOL    HW153605   6.026   7.563   1.531  1.5207  0.7490 -1.4423
17439SOL    HW253606   6.140   7.473   1.487  1.2736 -0.7441  0.7559
17440SOL     OW53607   3.747   4.463   2.077 -0.0974 -0.2177  0.9258
17440SOL    HW153608   3.821   4.436   2.023 -0.2290 -0.3180  0.7965
17440SOL    HW253609   3.688   4.507   2.016  1.0084  2.1527  1.4466
17441SOL     OW53610   0.486   8.442   6.092 -0.3943  0.1321 -0.8901
17441SOL    HW153611   0.492   8.433   6.187  1.6177  4.2028 -0.4536
17441SOL    HW253612   0.572   8.414   6.059  1.4028  4.5305 -0.6391
17442SOL     OW53613   4.114   7.695   2.771 -0.0598 -0.2081 -0.1619
17442SOL    HW153614   4.069   7.779   2.754  0.2947  0.3331  1.3713
17442SOL    HW253615   4.144   7.703   2.862 -0.9791 -2.4480  0.3869
17443SOL     OW53616   2.417   3.008   7.950 -0.6791 -0.7187 -0.4544
17443SOL    HW153617   2.436   3.101   7.964  1.8520 -1.3668  0.9338
17443SOL    HW253618   2.472   2.983   7.876  2.7008 -2.1510  2.3028
17444SOL     OW53619   4.002   2.707   5.218  0.1223 -0.3567 -0.2676
17444SOL    HW153620   4.011   2.802   5.220 -1.2292 -0.2173  0.6123
17444SOL    HW253621   4.041   2.677   5.300  3.2484 -0.9022 -1.8132
17445SOL     OW53622   5.661   5.533   8.464 -0.4722  0.1519  0.1333
17445SOL    HW153623   5.682   5.619   8.429  0.1897  0.6387  1.6273
17445SOL    HW253624   5.565   5.531   8.465 -0.5081  1.1252  0.6117
17446SOL     OW53625   5.890   6.733   7.325 -0.5377  0.4265 -0.1858
17446SOL    HW153626   5.804   6.758   7.359 -0.1854  0.4872  0.6866
17446SOL    HW253627   5.898   6.640   7.344 -0.1685  0.5490  0.3008
17447SOL     OW53628   5.650   1.153   4.478  0.4849 -0.7248  0.4751
17447SOL    HW153629   5.631   1.202   4.558 -0.9152  1.0720 -0.8599
17447SOL    HW253630   5.740   1.122   4.489  0.7668  0.5528  2.1933
17448SOL     OW53631   2.784   7.452   2.383  0.2751  0.8649  0.1141
17448SOL    HW153632   2.796   7.544   2.407 -1.6117  0.9625  0.8355
17448SOL    HW253633   2.709   7.453   2.324 -0.9716 -0.3635  1.5929
17449SOL     OW53634   4.424   3.579   8.503  0.3948 -0.1051  0.4018
17449SOL    HW153635   4.352   3.636   8.529  0.7729 -0.7982  3.3016
17449SOL    HW253636   4.391   3.490   8.517  0.5495 -0.6259 -2.0012
17450SOL     OW53637   2.171   0.953   2.669 -0.0476  0.4894 -0.1451
17450SOL    HW153638   2.093   0.982   2.622 -0.2219  0.4597  0.1231
17450SOL    HW253639   2.142   0.946   2.760 -0.2839 -1.5216 -0.3419
17451SOL     OW53640   2.938   3.488   1.152 -0.3905  0.7141  0.1137
17451SOL    HW153641   3.031   3.504   1.134  0.2094 -1.3800  1.0421
17451SOL    HW253642   2.893   3.565   1.115  1.6874  1.8108 -0.3079
17452SOL     OW53643   8.357   6.019   7.284  0.2033  0.1686 -0.2135
17452SOL    HW153644   8.332   5.995   7.373 -0.2774  1.2601 -0.0238
17452SOL    HW253645   8.274   6.020   7.236  0.1598  1.5502 -0.1584
17453SOL     OW53646   1.374   3.905   5.899 -0.9429 -0.8398  0.3662
17453SOL    HW153647   1.315   3.980   5.897  1.1217  1.0363  3.4839
17453SOL    HW253648   1.374   3.873   5.808 -5.1762  0.1327 -0.2213
17454SOL     OW53649   3.084   4.929   6.884  0.2574  0.0369  0.0374
17454SOL    HW153650   3.001   4.976   6.876  0.7408  1.1323  1.0858
17454SOL    HW253651   3.150   4.993   6.859  0.8175 -0.7995 -0.6985
17455SOL     OW53652   5.060   3.068   2.718  0.0147 -0.1876  0.3290
17455SOL    HW153653   4.974   3.108   2.707  0.5771  1.3685  1.3282
17455SOL    HW253654   5.103   3.081   2.633 -0.5749 -0.6526 -0.0562
17456SOL     OW53655   6.527   0.573   5.200  0.5137 -0.2758 -0.7518
17456SOL    HW153656   6.448   0.520   5.209  0.7139 -0.9466 -2.4747
17456SOL    HW253657   6.598   0.516   5.228  0.5809 -0.4383 -1.2339
17457SOL     OW53658   3.934   6.842   1.579  0.3014 -0.5655  0.4159
17457SOL    HW153659   3.912   6.910   1.515 -0.2697 -0.7432  0.4122
17457SOL    HW253660   3.888   6.869   1.659 -1.7431 -2.0256 -0.1704
17458SOL     OW53661   3.358   7.558   4.462 -0.0606 -0.2495 -0.3190
17458SOL    HW153662   3.407   7.512   4.531  1.5660  0.9356 -0.6287
17458SOL    HW253663   3.329   7.639   4.504 -0.0878 -0.0739 -0.6757
17459SOL     OW53664   6.699   7.457   8.286  0.2316  0.0350 -0.0466
17459SOL    HW153665   6.748   7.410   8.219  0.2542  0.2247 -0.1639
17459SOL    HW253666   6.766   7.491   8.345  0.3005  1.0052 -0.6691
17460SOL     OW53667   3.539   0.033   7.413 -0.0529 -0.3028  0.0391
17460SOL    HW153668   3.478   0.016   7.342  1.4986 -1.0600 -1.1871
17460SOL    HW253669   3.546  -0.050   7.459 -2.2973  0.5870  2.1988
17461SOL     OW53670   3.981   2.382   0.160  0.7223 -0.3881  0.1549
17461SOL    HW153671   4.069   2.414   0.180  0.0717 -0.3589  3.5715
17461SOL    HW253672   3.983   2.290   0.185 -0.0840 -0.5578 -0.3670
17462SOL     OW53673   2.891   1.878   1.823 -0.2787  0.1591 -0.0314
17462SOL    HW153674   2.956   1.854   1.758 -1.2814 -0.3136 -0.8919
17462SOL    HW253675   2.880   1.973   1.811  0.5358  0.3165  0.4044
17463SOL     OW53676   6.238   4.978   8.046 -0.6972  0.2604 -0.4091
17463SOL    HW153677   6.301   4.910   8.068 -0.9876 -0.2564 -1.1184
17463SOL    HW253678   6.254   5.048   8.109 -0.2384 -0.3716  0.1822
17464SOL     OW53679   6.859   8.408   3.719 -0.0048  0.5453 -0.6893
17464SOL    HW153680   6.934   8.354   3.693  0.3373  1.0747 -0.8103
17464SOL    HW253681   6.829   8.447   3.637 -0.8938 -0.2542 -0.7643
17465SOL     OW53682   4.964   6.218   4.220 -0.1588  0.1648 -0.8444
17465SOL    HW153683   4.972   6.312   4.239 -0.0064 -0.0523  0.2232
17465SOL    HW253684   4.890   6.212   4.160 -1.0406  0.8546  0.1314
17466SOL     OW53685   2.346   6.408   0.210  0.2151 -0.1118  0.4590
17466SOL    HW153686   2.316   6.329   0.164 -0.2313 -0.8454  1.9433
17466SOL    HW253687   2.442   6.404   0.204  0.1897 -0.6309  0.2950
17467SOL     OW53688   7.141   2.329   6.317  0.2388  0.1733 -0.3430
17467SOL    HW153689   7.193   2.287   6.248  0.2441  0.9737 -0.8327
17467SOL    HW253690   7.051   2.327   6.284 -0.1089 -1.4023  0.5958
17468SOL     OW53691   5.626   6.482   2.952  0.0713  0.3427 -0.1498
17468SOL    HW153692   5.675   6.557   2.918  2.4226 -0.9235  0.2155
17468SOL    HW253693   5.636   6.414   2.886  0.9656 -0.7447  1.0438
17469SOL     OW53694   6.399   4.386   6.386  0.1216  0.2740  0.0301
17469SOL    HW153695   6.420   4.438   6.464 -2.2966 -0.7637  1.5113
17469SOL    HW253696   6.385   4.451   6.317 -2.0680  1.6623  1.6280
17470SOL     OW53697   6.061   6.780   2.435  0.0420 -0.2718 -0.7268
17470SOL    HW153698   6.107   6.861   2.414  0.3711  0.0053  0.9462
17470SOL    HW253699   5.999   6.768   2.363  0.6083  0.9712 -1.4559
17471SOL     OW53700   0.884   5.827   5.113  0.0563  0.0917 -0.2355
17471SOL    HW153701   0.876   5.905   5.168 -0.0808 -0.7701  1.0111
17471SOL    HW253702   0.858   5.857   5.026 -1.1075  1.1785  0.4390
17472SOL     OW53703   3.303   7.706   0.641  0.2972 -0.0717 -0.0115
17472SOL    HW153704   3.341   7.626   0.605 -0.6210 -0.0545 -1.0445
17472SOL    HW253705   3.324   7.773   0.576 -0.2537  0.2289  0.1208
17473SOL     OW53706   7.001   6.235   4.674 -0.0393  0.2165  0.4250
17473SOL    HW153707   7.049   6.196   4.748  0.8678  1.8750  0.7582
17473SOL    HW253708   6.972   6.160   4.622  1.3943 -0.9057  1.1762
17474SOL     OW53709   3.640   5.413   2.506 -0.4462  0.4182 -0.3043
17474SOL    HW153710   3.607   5.502   2.516 -1.9179 -0.1599  0.2762
17474SOL    HW253711   3.578   5.371   2.446  0.2525 -0.2123 -0.6010
17475SOL     OW53712   2.618   4.871   5.942  0.0463 -0.2429  0.4687
17475SOL    HW153713   2.627   4.784   5.903  0.1514  0.0408 -0.1401
17475SOL    HW253714   2.634   4.932   5.870 -0.5994  0.2848  0.7675
17476SOL     OW53715   8.712   0.304   1.208 -0.5767  0.1479 -0.4562
17476SOL    HW153716   8.757   0.387   1.198  0.4848 -0.0694  1.9164
17476SOL    HW253717   8.625   0.319   1.171 -0.0069  1.8972 -1.1839
17477SOL     OW53718   5.411   3.055   6.772 -0.0518  0.5185 -0.1751
17477SOL    HW153719   5.474   3.016   6.833  0.0958 -1.0580 -1.2677
17477SOL    HW253720   5.449   3.139   6.748  0.7721  0.3488  0.4959
17478SOL     OW53721   8.642   5.451   2.368 -0.0897 -0.4520 -0.7082
17478SOL    HW153722   8.578   5.497   2.421  0.3290  0.0187 -0.6038
17478SOL    HW253723   8.622   5.358   2.380 -0.3259 -0.3296 -0.1470
17479SOL     OW53724   2.849   5.535   4.619 -0.1730  0.2642  0.1830
17479SOL    HW153725   2.938   5.540   4.585 -1.2149  2.5855 -2.6029
17479SOL    HW253726   2.812   5.457   4.579  0.7777 -1.2806  2.1281
17480SOL     OW53727   2.436   3.332   3.400 -0.0391  0.5887  0.0160
17480SOL    HW153728   2.365   3.274   3.372  0.8982 -0.5896  0.0191
17480SOL    HW253729   2.515   3.279   3.392  0.8287  1.8259  0.1770
17481SOL     OW53730   8.550   0.200   0.734 -0.3674 -1.4145  0.3571
17481SOL    HW153731   8.593   0.144   0.799 -0.8125 -1.3978  0.6702
17481SOL    HW253732   8.580   0.166   0.649  1.9799 -0.0532  0.5679
17482SOL     OW53733   3.551   8.477   6.517  0.4306 -0.1446 -0.2794
17482SOL    HW153734   3.570   8.409   6.453  1.2776  1.3413 -1.6775
17482SOL    HW253735   3.493   8.538   6.471 -0.3421  0.0901  0.9507
17483SOL     OW53736   7.152   1.618   4.455  0.1538  0.5612 -0.4301
17483SOL    HW153737   7.223   1.681   4.454  0.9626 -0.2739  0.9689
17483SOL    HW253738   7.191   1.538   4.492 -1.8034  0.5130  1.7970
17484SOL     OW53739   7.988   8.288   5.635  0.7182 -0.5863  0.1014
17484SOL    HW153740   8.047   8.217   5.660  0.8050 -0.3281  0.6656
17484SOL    HW253741   7.986   8.345   5.713  1.3174  0.4748 -0.6345
17485SOL     OW53742   0.303   3.846   4.524  0.3494 -0.2521  0.0581
17485SOL    HW153743   0.352   3.795   4.460 -0.8725 -1.4305  0.0247
17485SOL    HW253744   0.257   3.912   4.473 -2.0717 -2.3072 -0.6203
17486SOL     OW53745   0.032   6.345   7.170 -0.1978  0.1077 -0.0298
17486SOL    HW153746  -0.026   6.272   7.189  0.3174 -0.1845  0.4487
17486SOL    HW253747   0.000   6.416   7.227  0.2526 -0.2274  0.6596
17487SOL     OW53748   7.777   2.669   2.944 -0.1307  0.8646 -0.2667
17487SOL    HW153749   7.780   2.758   2.908  1.6987  0.6769 -0.6648
17487SOL    HW253750   7.851   2.665   3.005 -0.4903 -0.2372  0.1139
17488SOL     OW53751   4.300   3.959   7.004 -0.3839  0.0170 -0.2190
17488SOL    HW153752   4.355   3.956   6.925  0.0434  0.1607  0.0739
17488SOL    HW253753   4.286   3.867   7.027 -1.7180 -0.0822 -1.2931
17489SOL     OW53754   0.277   4.963   3.335  0.1127  0.8932 -1.0970
17489SOL    HW153755   0.208   4.939   3.397  0.8098  2.8056  0.5138
17489SOL    HW253756   0.309   4.879   3.302  0.8942 -0.4176  2.4780
17490SOL     OW53757   1.429   3.752   7.837  0.1695 -0.2534 -0.4930
17490SOL    HW153758   1.481   3.742   7.917 -0.1411  1.1996 -0.0732
17490SOL    HW253759   1.404   3.663   7.813  2.5395 -0.9846 -0.5228
17491SOL     OW53760   3.830   2.967   8.241  0.3721  0.0481 -0.6093
17491SOL    HW153761   3.751   3.002   8.283  0.4181  2.7035 -2.4858
17491SOL    HW253762   3.899   3.028   8.265  2.1043 -2.4696  1.3572
17492SOL     OW53763   7.934   6.283   6.730 -0.5019 -0.3187  0.1455
17492SOL    HW153764   7.853   6.292   6.679 -1.4721 -0.8650  1.5493
17492SOL    HW253765   8.003   6.288   6.664 -1.6535  0.2364 -1.0884
17493SOL     OW53766   2.792   2.987   8.081  0.0798  0.0708 -0.2046
17493SOL    HW153767   2.727   2.980   8.151  0.4067 -0.8855  0.0139
17493SOL    HW253768   2.746   3.031   8.009 -0.7987 -0.5537 -0.0354
17494SOL     OW53769   3.793   7.764   6.369 -0.0034 -0.0700 -0.1531
17494SOL    HW153770   3.751   7.680   6.390  3.2634 -2.1006 -0.9982
17494SOL    HW253771   3.780   7.817   6.447 -1.2330 -1.7615  0.8687
17495SOL     OW53772   4.323   1.001   4.809 -0.2740 -0.4706  0.1068
17495SOL    HW153773   4.249   1.057   4.831 -0.9180 -0.3276 -2.2199
17495SOL    HW253774   4.397   1.041   4.855 -1.4548 -0.1893  1.8645
17496SOL     OW53775   0.023   3.124   7.020  0.4872  0.2065  0.1563
17496SOL    HW153776  -0.036   3.157   7.088  0.3198  1.1493 -0.4342
17496SOL    HW253777  -0.014   3.039   6.996 -0.2219  0.4635  0.3117
17497SOL     OW53778   6.613   1.404   1.010  0.2966 -0.2763 -0.2429
17497SOL    HW153779   6.696   1.436   0.975 -0.4669  1.5802 -0.4143
17497SOL    HW253780   6.639   1.349   1.085  1.6683  0.2284 -0.3213
17498SOL     OW53781   3.928   0.761   8.329 -0.3494  0.0359  0.4558
17498SOL    HW153782   3.900   0.823   8.397 -2.6269  0.6556 -0.9415
17498SOL    HW253783   3.943   0.816   8.252  1.2562 -0.7627  0.1774
17499SOL     OW53784   0.073   2.689   0.892  0.6130 -0.4786 -0.4698
17499SOL    HW153785   0.101   2.687   0.800  2.2588  1.3639 -0.0967
17499SOL    HW253786   0.059   2.782   0.910 -2.2160 -1.0255  0.4914
17500SOL     OW53787   3.650   6.489   5.754  0.0030  0.5723  0.1178
17500SOL    HW153788   3.591   6.424   5.790 -2.2078  2.5575  0.3125
17500SOL    HW253789   3.680   6.539   5.831 -0.6781  1.6156 -0.2754
17501SOL     OW53790   7.189   6.525   4.285 -0.0920 -0.0026  0.3687
17501SOL    HW153791   7.155   6.456   4.228 -1.3360  0.3842  0.6177
17501SOL    HW253792   7.226   6.477   4.360  1.5455 -0.5120 -0.7086
17502SOL     OW53793   5.494   5.941   3.723  0.3036  0.1142  1.0336
17502SOL    HW153794   5.417   5.998   3.725  0.1385  0.0416 -1.1274
17502SOL    HW253795   5.463   5.861   3.681  1.1601 -0.5967  1.7267
17503SOL     OW53796   5.952   6.276   6.343  0.4257 -0.0268  0.0803
17503SOL    HW153797   6.010   6.200   6.338  0.6259  0.1777 -0.9256
17503SOL    HW253798   5.866   6.242   6.317  0.0427 -0.3542  1.6742
17504SOL     OW53799   5.935   2.490   1.690  0.7883  0.2410 -0.1172
17504SOL    HW153800   5.868   2.525   1.749  0.7329 -0.2275  0.1032
17504SOL    HW253801   6.014   2.539   1.712  0.7758  0.0460  0.3729
17505SOL     OW53802   3.284   2.943   7.287 -0.2158 -0.3900  0.1624
17505SOL    HW153803   3.359   3.002   7.290  0.8089 -1.6677  0.1357
17505SOL    HW253804   3.213   2.998   7.252  0.7018  0.8165  0.1104
17506SOL     OW53805   5.502   2.950   4.213  0.1845  0.7432  0.4592
17506SOL    HW153806   5.444   2.975   4.285 -0.1043  0.6816  0.2501
17506SOL    HW253807   5.470   3.001   4.138 -2.0583 -2.0780 -0.6613
17507SOL     OW53808   7.327   8.480   3.102 -0.0519 -0.1659 -0.2772
17507SOL    HW153809   7.259   8.518   3.046 -0.1719 -0.4682 -0.3338
17507SOL    HW253810   7.289   8.400   3.137 -0.5467  0.7627  1.4393
17508SOL     OW53811   3.012   7.074   7.220 -0.2664  0.3656  0.0096
17508SOL    HW153812   2.966   7.141   7.169 -1.6724 -0.7265 -0.2197
17508SOL    HW253813   2.986   6.991   7.180  0.4925 -0.3911  1.0269
17509SOL     OW53814   2.933   2.959   4.246 -0.5988 -0.2096  0.4332
17509SOL    HW153815   3.017   2.916   4.266 -1.4531 -1.0558  2.4036
17509SOL    HW253816   2.923   2.947   4.152  1.4081 -0.2330  0.1636
17510SOL     OW53817   7.908   5.006   1.934 -0.3190  0.0763  0.0165
17510SOL    HW153818   7.938   5.091   1.967  2.6601 -0.3779 -1.1974
17510SOL    HW253819   7.918   5.012   1.839 -1.6584 -1.1214 -0.2352
17511SOL     OW53820   3.624   5.886   0.691 -0.0441  0.3871  0.5778
17511SOL    HW153821   3.620   5.792   0.705 -1.9268  0.1562 -0.9864
17511SOL    HW253822   3.714   5.904   0.665  0.3922 -0.9358  1.1410
17512SOL     OW53823   6.508   2.723   6.569  0.2276  0.4674 -0.3168
17512SOL    HW153824   6.545   2.805   6.600  0.0138  0.1521  0.8182
17512SOL    HW253825   6.466   2.685   6.646 -1.8444  0.4705 -1.3884
17513SOL     OW53826   4.288   1.319   2.833  0.0718 -0.3390 -0.5498
17513SOL    HW153827   4.245   1.295   2.915 -0.8069  1.8109 -0.3236
17513SOL    HW253828   4.375   1.280   2.839 -0.4744 -1.4394  0.7392
17514SOL     OW53829   4.138   6.535   0.846  0.2399  0.3429 -0.1941
17514SOL    HW153830   4.081   6.609   0.869 -0.0477  0.3578 -0.9365
17514SOL    HW253831   4.223   6.576   0.828  0.0423  0.5141 -0.7530
17515SOL     OW53832   2.757   7.753   7.221  0.1925 -0.4336 -0.5834
17515SOL    HW153833   2.846   7.724   7.199  0.8761  1.4431 -0.4063
17515SOL    HW253834   2.745   7.834   7.173 -0.2582  0.9565  1.6959
17516SOL     OW53835   5.779   4.834   6.790 -0.2616  0.0893  0.2718
17516SOL    HW153836   5.853   4.782   6.822  0.5769  1.1178  0.0522
17516SOL    HW253837   5.715   4.769   6.762  1.9697 -0.9861 -2.9002
17517SOL     OW53838   4.221   4.386   3.174 -0.4211 -0.2494  0.3607
17517SOL    HW153839   4.308   4.403   3.139 -0.8180  0.4217 -0.3432
17517SOL    HW253840   4.179   4.472   3.178 -2.1929 -0.8513 -2.4765
17518SOL     OW53841   3.598   2.595   3.352  0.4728  0.7128  0.0479
17518SOL    HW153842   3.662   2.578   3.422  0.5741  1.5824  0.1786
17518SOL    HW253843   3.561   2.509   3.333  0.4934  0.4421  1.1292
17519SOL     OW53844   0.029   4.081   1.242  0.0925 -0.7950  0.3243
17519SOL    HW153845   0.058   4.115   1.157  0.5582  0.0789  0.8160
17519SOL    HW253846  -0.058   4.045   1.225 -0.9243  1.6394 -0.0485
17520SOL     OW53847   0.789   0.618   8.271 -0.4881 -0.3630  0.2947
17520SOL    HW153848   0.862   0.595   8.214 -1.4670 -0.5357 -0.9315
17520SOL    HW253849   0.820   0.694   8.320 -0.1986  0.9325 -1.7617
17521SOL     OW53850   6.969   7.857   2.022  0.0817 -0.4146 -0.3486
17521SOL    HW153851   6.965   7.952   2.025 -0.2412 -0.4356  0.0771
17521SOL    HW253852   6.887   7.828   2.063  0.6779 -0.8763  0.5608
17522SOL     OW53853   7.330   0.836   4.887  0.7472  0.4713  0.4754
17522SOL    HW153854   7.320   0.836   4.982  0.6525  0.0753  0.4664
17522SOL    HW253855   7.410   0.886   4.871  0.6527  0.7141  0.7498
17523SOL     OW53856   8.114   6.481   1.201 -0.4718 -0.1915  0.3855
17523SOL    HW153857   8.177   6.496   1.272 -1.3671 -1.1699  1.4073
17523SOL    HW253858   8.107   6.386   1.195 -0.3552 -0.1314 -1.0928
17524SOL     OW53859   5.866   8.312   4.035 -0.6349  0.1134  0.3291
17524SOL    HW153860   5.925   8.279   3.967  0.4595 -1.1908  1.8643
17524SOL    HW253861   5.922   8.329   4.110 -2.3293 -2.5405  2.3556
17525SOL     OW53862   2.449   3.355   0.770  0.6625 -0.4124  0.6993
17525SOL    HW153863   2.361   3.362   0.808  0.6009 -2.3321  1.0048
17525SOL    HW253864   2.434   3.349   0.675  0.5496  0.4342  0.6611
17526SOL     OW53865   1.710   0.497   6.253  0.0550  0.1720  0.2071
17526SOL    HW153866   1.691   0.532   6.166  1.8732  0.1097 -0.2447
17526SOL    HW253867   1.746   0.571   6.302 -0.7005  0.1357  0.8419
17527SOL     OW53868   3.588   6.036   2.487 -0.1506  0.0284 -0.2462
17527SOL    HW153869   3.496   6.036   2.513  0.2123  0.3825  1.1005
17527SOL    HW253870   3.600   5.952   2.442 -0.4286 -1.4538  2.2542
17528SOL     OW53871   0.424   7.571   4.982  0.0911  0.3267 -0.4371
17528SOL    HW153872   0.476   7.650   4.965 -0.5574  1.0455  0.7698
17528SOL    HW253873   0.334   7.597   4.962 -0.2890  0.2944  1.0997
17529SOL     OW53874   6.655   5.858   6.059 -0.1485  0.0680 -0.0515
17529SOL    HW153875   6.615   5.941   6.033  1.0954  0.7974  0.2770
17529SOL    HW253876   6.719   5.839   5.990  0.1423 -0.1909  0.2801
17530SOL     OW53877   4.453   7.153   8.648  0.1288  0.3245  0.4177
17530SOL    HW153878   4.446   7.244   8.674  0.7412  1.0137 -1.6633
17530SOL    HW253879   4.545   7.141   8.626  0.3671 -1.2338  2.0425
17531SOL     OW53880   8.146   4.713   6.444 -0.1506 -0.4899 -0.0243
17531SOL    HW153881   8.166   4.688   6.354 -0.1883 -0.3416 -0.0741
17531SOL    HW253882   8.145   4.809   6.442 -1.1822 -0.4935 -0.0845
17532SOL     OW53883   1.509   4.766   4.110  0.3492 -0.2316 -0.3748
17532SOL    HW153884   1.439   4.794   4.169  0.1165 -1.3723 -0.0827
17532SOL    HW253885   1.551   4.847   4.081  0.5133  0.3658  1.4183
17533SOL     OW53886   6.790   7.860   3.391 -0.0449  0.7522 -0.7738
17533SOL    HW153887   6.767   7.947   3.360 -0.3385  1.2768  0.8345
17533SOL    HW253888   6.867   7.836   3.340  0.0120  1.9187 -1.2664
17534SOL     OW53889   8.237   2.733   4.273  0.1178 -0.7455 -0.2418
17534SOL    HW153890   8.299   2.799   4.305  0.4476 -1.0238 -0.2978
17534SOL    HW253891   8.241   2.742   4.177 -0.8035  0.0278 -0.2155
17535SOL     OW53892   1.344   7.127   5.806 -0.0573 -0.2309  0.3727
17535SOL    HW153893   1.412   7.106   5.742  0.6155  0.8442  0.7013
17535SOL    HW253894   1.388   7.183   5.870 -1.8997  3.1086 -1.0202
17536SOL     OW53895   3.654   6.463   3.063 -0.0895 -0.1134 -0.3854
17536SOL    HW153896   3.613   6.378   3.081  0.5015 -0.1758  0.7826
17536SOL    HW253897   3.746   6.443   3.050  0.3894  0.4900  1.6300
17537SOL     OW53898   0.699   6.987   2.736 -0.8632 -0.2634 -0.1999
17537SOL    HW153899   0.738   7.070   2.764 -0.8479 -0.7574  1.3592
17537SOL    HW253900   0.695   6.993   2.641 -0.1874  1.2208 -0.1634
17538SOL     OW53901   0.786   4.123   3.650  0.1811 -0.4740  0.0403
17538SOL    HW153902   0.772   4.030   3.631  0.6276 -0.4931 -0.2229
17538SOL    HW253903   0.857   4.124   3.714 -1.2545 -0.4033  1.7113
17539SOL     OW53904   5.205   6.630   1.354  0.2209  0.6068  0.3956
17539SOL    HW153905   5.207   6.551   1.409 -0.5885  0.4840  0.2693
17539SOL    HW253906   5.285   6.626   1.303 -0.1774 -0.5513 -0.1682
17540SOL     OW53907   2.762   0.500   5.004  0.0300  0.1280  0.4921
17540SOL    HW153908   2.821   0.441   4.957 -3.6305 -2.5772 -1.1660
17540SOL    HW253909   2.770   0.473   5.096 -0.2684 -1.7854 -0.0090
17541SOL     OW53910   3.678   7.387   0.564 -0.3762  0.0938 -0.0387
17541SOL    HW153911   3.583   7.403   0.557 -0.3530 -0.3689 -1.7363
17541SOL    HW253912   3.717   7.448   0.502  0.5611  1.0038  1.3851
17542SOL     OW53913   1.793   2.110   4.694 -0.0501  0.3993  0.3677
17542SOL    HW153914   1.872   2.066   4.724 -1.6182 -1.3984  2.1389
17542SOL    HW253915   1.759   2.055   4.623  0.0793  0.9929 -0.1725
17543SOL     OW53916   1.492   2.742   6.800 -0.0338  0.1167 -0.0217
17543SOL    HW153917   1.485   2.799   6.877 -1.0340  0.4786 -0.3613
17543SOL    HW253918   1.532   2.798   6.733 -0.9850  0.4230 -0.3453
17544SOL     OW53919   7.635   3.114   1.424 -0.3082 -0.6049 -0.0942
17544SOL    HW153920   7.715   3.132   1.375  0.9532 -3.5697  0.6514
17544SOL    HW253921   7.633   3.181   1.492  0.6822  0.4321 -1.0451
17545SOL     OW53922   2.039   8.708   8.152  0.0446 -0.2527 -0.1434
17545SOL    HW153923   1.975   8.651   8.108  0.3893  1.2078 -2.7074
17545SOL    HW253924   2.013   8.706   8.244 -0.6279 -3.6166 -0.2667
17546SOL     OW53925   0.227   5.920   3.907 -0.1531 -1.2035 -0.2490
17546SOL    HW153926   0.293   5.913   3.838 -0.3528 -0.3651 -0.5342
17546SOL    HW253927   0.275   5.953   3.983 -0.6986  2.4493 -1.2846
17547SOL     OW53928   6.254   7.226   1.086  0.5917 -0.1276  0.2884
17547SOL    HW153929   6.321   7.289   1.059  0.1890 -0.2065 -0.9754
17547SOL    HW253930   6.190   7.227   1.014 -0.4665 -0.4734  1.1963
17548SOL     OW53931   5.095   8.696   1.373 -0.3345 -0.3518  0.7407
17548SOL    HW153932   5.071   8.608   1.346  0.2052 -0.8756  1.9204
17548SOL    HW253933   5.106   8.691   1.468 -1.1605  1.1855  0.9621
17549SOL     OW53934   6.546   4.061   4.117 -0.7342  0.6241 -0.1385
17549SOL    HW153935   6.529   4.082   4.025 -1.2709 -0.0149 -0.1941
17549SOL    HW253936   6.522   3.969   4.125 -3.4574  1.3459  1.2771
17550SOL     OW53937   1.851   2.327   5.987 -0.3091 -0.0792 -0.2429
17550SOL    HW153938   1.931   2.319   5.933 -0.6325  1.1150 -0.9448
17550SOL    HW253939   1.809   2.407   5.955 -1.5729 -0.4562  0.4211
17551SOL     OW53940   3.687   8.633   1.688 -0.4491  0.2599  0.5148
17551SOL    HW153941   3.773   8.671   1.668 -0.8241  0.9993  0.2615
17551SOL    HW253942   3.707   8.551   1.733  0.3996 -0.8405 -1.7363
17552SOL     OW53943   8.026   7.327   2.101  0.0718  0.1174  0.0477
17552SOL    HW153944   8.044   7.279   2.020  0.9448  3.1130 -1.6910
17552SOL    HW253945   8.111   7.363   2.126 -0.4431  0.3004  1.5842
17553SOL     OW53946   5.720   8.163   6.957 -0.7481  0.0437 -0.3934
17553SOL    HW153947   5.789   8.175   7.023 -0.7031  0.4102 -0.5016
17553SOL    HW253948   5.639   8.155   7.008 -0.9225  1.8420 -0.3232
17554SOL     OW53949   0.777   2.738   2.386  0.0012 -0.4031 -0.1515
17554SOL    HW153950   0.859   2.761   2.432 -1.1064  3.8494  0.1749
17554SOL    HW253951   0.709   2.750   2.453 -1.1123 -0.8764 -1.1810
17555SOL     OW53952   7.504   7.963   1.294 -0.3273  0.6147  0.2457
17555SOL    HW153953   7.507   8.059   1.299  1.0019  0.6182 -0.3376
17555SOL    HW253954   7.560   7.941   1.220  1.2958 -0.7175  1.7830
17556SOL     OW53955   6.436   5.062   3.661 -0.4058 -0.1997 -0.1018
17556SOL    HW153956   6.377   4.994   3.693 -1.5244 -0.4764 -2.5218
17556SOL    HW253957   6.522   5.038   3.694 -0.2086 -4.3919 -2.9697
17557SOL     OW53958   0.186   8.341   6.263 -0.1661 -0.3190 -0.1807
17557SOL    HW153959   0.219   8.311   6.178  0.2858  0.3064 -0.2312
17557SOL    HW253960   0.265   8.364   6.312 -0.4594 -0.1262  0.2005
17558SOL     OW53961   5.664   5.061   5.578 -0.6036 -0.3687  0.2286
17558SOL    HW153962   5.642   5.151   5.605 -1.1078  0.0646 -1.5147
17558SOL    HW253963   5.601   5.006   5.626  0.5331  0.0316  2.3222
17559SOL     OW53964   6.800   3.102   4.105 -0.4963  0.2474 -0.2154
17559SOL    HW153965   6.729   3.166   4.099  0.2047  0.9368 -2.2202
17559SOL    HW253966   6.775   3.044   4.176 -1.4562  2.3878  1.2931
17560SOL     OW53967   8.047   3.174   7.974  0.2900 -0.0891 -0.0958
17560SOL    HW153968   8.047   3.142   7.883  0.8674  0.4004 -0.2791
17560SOL    HW253969   7.988   3.250   7.973  0.2931 -0.0864 -0.0648
17561SOL     OW53970   6.455   1.945   3.035  0.0662  0.6516  0.3274
17561SOL    HW153971   6.402   2.017   3.067  1.8450  2.1332  0.1105
17561SOL    HW253972   6.542   1.983   3.022  0.3673 -0.7299 -2.7703
17562SOL     OW53973   4.713   5.127   8.698 -0.0466  0.3361  0.0890
17562SOL    HW153974   4.663   5.100   8.775 -0.5261  0.5651 -0.1361
17562SOL    HW253975   4.803   5.099   8.716 -0.4678 -1.1886 -0.0341
17563SOL     OW53976   3.598   3.267   1.018  0.0031 -0.2084  0.1690
17563SOL    HW153977   3.694   3.270   1.021 -0.0480  1.3566  1.9942
17563SOL    HW253978   3.572   3.353   0.984 -0.7637 -0.7481 -0.6527
17564SOL     OW53979   7.232   3.541   1.640 -0.0545  0.1203 -0.2394
17564SOL    HW153980   7.316   3.526   1.683 -0.7598  0.0166  1.1482
17564SOL    HW253981   7.255   3.559   1.549  1.3230 -2.4279 -0.4924
17565SOL     OW53982   5.080   4.834   3.465 -0.3902  0.2164  0.0850
17565SOL    HW153983   5.154   4.854   3.522 -1.7220  1.5201  1.4456
17565SOL    HW253984   5.118   4.820   3.379  1.4434  0.6001  0.8009
17566SOL     OW53985   3.681   2.515   7.561 -0.1346  0.3534 -0.5674
17566SOL    HW153986   3.658   2.424   7.579 -1.7185  1.1697  2.2229
17566SOL    HW253987   3.716   2.514   7.472  0.4082 -3.0307 -0.4533
17567SOL     OW53988   4.776   7.474   2.703  0.5164 -0.6707  0.1970
17567SOL    HW153989   4.771   7.411   2.631 -0.8457  0.7774 -1.0283
17567SOL    HW253990   4.723   7.435   2.772 -2.9947  0.4336 -1.6651
17568SOL     OW53991   8.256   7.240   0.296 -0.0633 -0.1263 -0.3899
17568SOL    HW153992   8.230   7.190   0.219 -3.2743  0.2256  0.3188
17568SOL    HW253993   8.231   7.331   0.275 -0.4921  0.0518  0.8218
17569SOL     OW53994   7.113   5.791   7.987  0.2615  0.7296  0.2225
17569SOL    HW153995   7.024   5.810   7.957 -0.1111 -0.4651  0.5186
17569SOL    HW253996   7.112   5.698   8.007  2.3926 -0.0505 -2.6371
17570SOL     OW53997   6.958   0.748   7.296  0.0146  0.3311  0.2332
17570SOL    HW153998   6.926   0.737   7.206  0.6314 -0.6972  0.1247
17570SOL    HW253999   6.884   0.786   7.343 -0.8543 -0.5567 -0.3703
17571SOL     OW54000   1.421   1.108   2.610 -0.2051 -0.4208 -0.0353
17571SOL    HW154001   1.375   1.024   2.613 -2.1161  0.6078  2.6090
17571SOL    HW254002   1.359   1.169   2.570 -0.5210  0.5748  1.8594
17572SOL     OW54003   6.594   2.102   8.262  0.4089  0.3866  0.1440
17572SOL    HW154004   6.644   2.020   8.260  0.5143  0.3799  1.9205
17572SOL    HW254005   6.621   2.148   8.183  0.3122 -1.2922 -0.9282
17573SOL     OW54006   7.981   0.915   8.647 -0.1212  0.0798  0.0327
17573SOL    HW154007   8.013   1.001   8.617 -1.5654 -0.0725 -2.2139
17573SOL    HW254008   8.052   0.855   8.627 -0.3729  0.2780 -1.6076
17574SOL     OW54009   8.395   2.016   6.335 -0.4993 -0.2566  0.4744
17574SOL    HW154010   8.445   2.009   6.416  0.6074 -1.6376 -0.2846
17574SOL    HW254011   8.305   1.997   6.361 -0.0998 -1.0459  1.3239
17575SOL     OW54012   8.015   4.340   6.119 -0.4904 -0.2275 -0.2730
17575SOL    HW154013   8.103   4.319   6.153 -1.5130 -1.4576  1.8652
17575SOL    HW254014   7.997   4.271   6.055  0.6746  0.9420 -1.9277
17576SOL     OW54015   0.717   0.148   0.785 -0.1781  0.0338  0.2209
17576SOL    HW154016   0.699   0.225   0.731  1.0063 -0.5266 -1.0125
17576SOL    HW254017   0.681   0.075   0.736  0.6570 -0.4470  0.3000
17577SOL     OW54018   8.159   3.692   7.790 -0.1641  0.4420  0.6557
17577SOL    HW154019   8.125   3.778   7.814 -1.2727  0.4310 -0.7533
17577SOL    HW254020   8.122   3.633   7.855 -0.6836  0.8159  0.7058
17578SOL     OW54021   2.370   7.625   1.837 -0.2658 -0.2583  0.2958
17578SOL    HW154022   2.287   7.579   1.823 -0.2044 -0.8796  1.8018
17578SOL    HW254023   2.435   7.570   1.794 -0.4494 -0.4954  0.3195
17579SOL     OW54024   2.382   8.525   4.563 -0.4065 -0.1158 -0.1935
17579SOL    HW154025   2.421   8.516   4.476  0.5540 -0.1356  0.2270
17579SOL    HW254026   2.304   8.470   4.559 -0.1839 -0.4016 -0.9291
17580SOL     OW54027   1.110   7.681   8.639  0.1925  0.1988 -0.7057
17580SOL    HW154028   1.148   7.600   8.604  0.7209  0.3631 -0.5208
17580SOL    HW254029   1.050   7.711   8.570  1.1473  0.4699 -1.4440
17581SOL     OW54030   7.453   6.883   7.121 -0.0140 -0.2219  0.3020
17581SOL    HW154031   7.396   6.855   7.192  0.5814 -0.8439  0.5423
17581SOL    HW254032   7.436   6.821   7.050  0.7907 -0.7823  0.5851
17582SOL     OW54033   2.104   2.631   0.759  0.5444  0.5788  0.1211
17582SOL    HW154034   2.020   2.600   0.724  0.5213 -0.0888  0.7439
17582SOL    HW254035   2.170   2.584   0.707  0.5519  1.3223 -0.5669
17583SOL     OW54036   0.089   0.080   3.908 -0.4701  0.4841 -0.6513
17583SOL    HW154037   0.151   0.132   3.960  0.5535 -0.1518 -1.2081
17583SOL    HW254038   0.020   0.056   3.970  0.3212  0.4042  0.2194
17584SOL     OW54039   0.695   4.745   2.178  0.0176 -0.0002  0.1303
17584SOL    HW154040   0.682   4.657   2.143 -1.4498  0.8659 -1.6654
17584SOL    HW254041   0.611   4.768   2.218  0.3668  0.6230  0.5149
17585SOL     OW54042   3.862   8.553   5.880  0.1674 -0.1128  0.5063
17585SOL    HW154043   3.947   8.529   5.844  1.0702 -1.7402  3.4486
17585SOL    HW254044   3.868   8.648   5.893  0.1064  0.4106 -2.5463
17586SOL     OW54045   8.450   0.222   8.480 -0.1098 -0.2279  0.3785
17586SOL    HW154046   8.452   0.220   8.576  0.3345 -0.1097  0.3745
17586SOL    HW254047   8.380   0.161   8.456  1.4586 -2.2848  0.7111
17587SOL     OW54048   4.189   2.752   2.505  0.0525  0.1046 -0.2609
17587SOL    HW154049   4.111   2.752   2.449 -0.8304  1.3275  0.9222
17587SOL    HW254050   4.157   2.774   2.592  1.4299 -1.6314  0.7528
17588SOL     OW54051   2.254   2.783   4.569 -0.2495  0.1409  0.4363
17588SOL    HW154052   2.259   2.708   4.629 -0.7740  0.4179  0.8348
17588SOL    HW254053   2.247   2.743   4.482 -2.3614 -0.3484  0.7684
17589SOL     OW54054   3.821   2.578   7.808  0.1409  0.5443  0.6204
17589SOL    HW154055   3.808   2.517   7.881  0.0884 -0.8551 -0.4900
17589SOL    HW254056   3.759   2.548   7.742 -1.8208  3.4884  0.9519
17590SOL     OW54057   0.686   6.991   0.613  0.6934 -0.1436 -0.0801
17590SOL    HW154058   0.651   7.024   0.531 -1.2592  0.1406  0.7997
17590SOL    HW254059   0.609   6.965   0.663  1.8945 -1.5452  1.1605
17591SOL     OW54060   8.149   4.601   8.177  0.2398 -0.5541  0.4048
17591SOL    HW154061   8.228   4.549   8.191  0.3072 -0.0956  1.8901
17591SOL    HW254062   8.181   4.689   8.157  0.1123 -0.7446 -0.6638
17592SOL     OW54063   0.785   8.341   2.374 -0.7891 -0.2753  0.9482
17592SOL    HW154064   0.791   8.425   2.420  1.1867  0.7727 -1.0350
17592SOL    HW254065   0.809   8.277   2.441 -1.7175  0.7588  2.3402
17593SOL     OW54066   0.261   3.434   4.973 -0.5256 -0.3187  0.0641
17593SOL    HW154067   0.241   3.469   5.060  1.3708  1.3425 -0.0975
17593SOL    HW254068   0.286   3.343   4.989  0.6189  0.1911  1.4066
17594SOL     OW54069   6.874   7.928   7.056  0.0364  0.0285  0.2585
17594SOL    HW154070   6.789   7.894   7.027 -0.4878  1.2854  0.2775
17594SOL    HW254071   6.865   7.936   7.151  0.2056  0.0838  0.2695
17595SOL     OW54072   2.944   2.171   8.223 -0.4555 -0.6566 -0.1157
17595SOL    HW154073   3.037   2.186   8.234 -0.4915 -1.1490  0.8943
17595SOL    HW254074   2.938   2.095   8.164 -0.1594 -2.2506  1.8116
17596SOL     OW54075   4.629   6.259   4.586  0.2417  0.0302  0.1628
17596SOL    HW154076   4.619   6.176   4.634 -2.1612  0.1787  0.0446
17596SOL    HW254077   4.716   6.253   4.547  0.7863 -1.7243  1.4742
17597SOL     OW54078   7.606   6.157   2.634  0.1454  0.5458  0.1738
17597SOL    HW154079   7.632   6.249   2.641  0.6861  0.6975 -2.6204
17597SOL    HW254080   7.680   6.109   2.671 -0.0204  1.1689  1.3992
17598SOL     OW54081   1.758   5.262   4.248 -0.3261 -0.3366  0.1718
17598SOL    HW154082   1.808   5.228   4.322 -1.7950 -0.3972  1.1890
17598SOL    HW254083   1.771   5.356   4.251  2.3386 -0.5207 -1.6014
17599SOL     OW54084   1.530   2.238   6.320 -0.2970  0.1385  0.4604
17599SOL    HW154085   1.521   2.333   6.314  0.8069  0.2283  0.0567
17599SOL    HW254086   1.577   2.213   6.241 -0.0250 -0.6670  0.8663
17600SOL     OW54087   1.194   6.111   6.539 -0.0430 -0.0979 -0.5101
17600SOL    HW154088   1.267   6.051   6.528 -0.8418 -0.8489 -2.0789
17600SOL    HW254089   1.116   6.056   6.529 -0.8948  0.4918  2.0586
17601SOL     OW54090   0.150   0.038   7.150 -0.2246 -0.5844  0.2763
17601SOL    HW154091   0.102   0.003   7.075 -0.5871  1.8960 -0.7546
17601SOL    HW254092   0.083   0.083   7.202  0.4866  0.3206  0.4406
17602SOL     OW54093   3.328   1.481   6.861  0.0446  0.3638  0.6265
17602SOL    HW154094   3.317   1.433   6.779  0.0807  1.1049  0.1838
17602SOL    HW254095   3.421   1.471   6.882  0.0955  0.4083  0.4277
17603SOL     OW54096   8.433   4.592   0.783 -0.2564 -0.3371  0.1096
17603SOL    HW154097   8.484   4.601   0.702 -0.4622 -1.6615 -0.1924
17603SOL    HW254098   8.459   4.667   0.836  0.4846  0.1169 -0.8664
17604SOL     OW54099   4.493   5.448   8.651 -0.5654 -0.0241  0.0603
17604SOL    HW154100   4.580   5.479   8.675 -0.2761  2.7924 -3.7927
17604SOL    HW254101   4.509   5.389   8.577 -1.8825 -0.0427 -0.2250
17605SOL     OW54102   4.770   0.230   4.775  0.5962 -0.4570  0.0142
17605SOL    HW154103   4.703   0.298   4.769  1.5717  0.6797  1.3756
17605SOL    HW254104   4.776   0.210   4.868  3.5558  1.0058  0.2470
17606SOL     OW54105   7.746   4.912   8.361  0.0249 -0.6057 -0.3066
17606SOL    HW154106   7.787   4.993   8.330  1.7251 -0.4673  2.0006
17606SOL    HW254107   7.652   4.930   8.359  0.3625  1.4216  0.1243
17607SOL     OW54108   8.013   1.210   5.900 -0.4341  0.3482  0.4341
17607SOL    HW154109   7.930   1.258   5.894 -1.4785 -1.3863  0.4931
17607SOL    HW254110   7.993   1.123   5.866  1.2447 -0.2578  0.9134
17608SOL     OW54111   8.616   0.849   2.271 -0.1020 -0.5665  0.9445
17608SOL    HW154112   8.581   0.887   2.351  0.2523 -1.7728  1.7151
17608SOL    HW254113   8.652   0.764   2.299 -0.2847 -1.1739 -0.5575
17609SOL     OW54114   7.970   1.734   6.302 -0.6274 -0.0322 -0.0783
17609SOL    HW154115   7.935   1.648   6.327 -0.6707 -0.6804 -2.1978
17609SOL    HW254116   7.962   1.736   6.207  0.0618  2.0471 -0.1271
17610SOL     OW54117   0.694   5.595   1.213 -0.0982 -0.2270 -0.5346
17610SOL    HW154118   0.618   5.635   1.254 -0.4953 -1.5110  0.0242
17610SOL    HW254119   0.720   5.657   1.145 -1.2408  0.5378 -0.2997
17611SOL     OW54120   4.248   3.737   4.129  0.5403 -0.5224  0.4113
17611SOL    HW154121   4.310   3.777   4.190  0.8088  0.4315 -0.4491
17611SOL    HW254122   4.261   3.643   4.139  2.1480 -0.3476  0.2656
17612SOL     OW54123   4.583   0.190   3.141 -0.2639  0.4179 -0.2681
17612SOL    HW154124   4.654   0.184   3.206  0.4355  0.8142 -0.9817
17612SOL    HW254125   4.628   0.198   3.057 -1.1657 -0.4693 -0.8523
17613SOL     OW54126   6.233   3.383   0.511 -0.0284 -0.4437 -0.2272
17613SOL    HW154127   6.201   3.354   0.425  0.3778 -0.2267 -0.4562
17613SOL    HW254128   6.164   3.358   0.572 -1.0559  0.8296 -0.8256
17614SOL     OW54129   1.655   7.600   7.585  0.2705 -0.5578 -0.2328
17614SOL    HW154130   1.610   7.674   7.626  2.2730 -0.3526  1.7959
17614SOL    HW254131   1.584   7.540   7.561 -1.1833  0.3751  1.4603
17615SOL     OW54132   3.596   7.529   3.686  0.1776 -0.2654 -0.5107
17615SOL    HW154133   3.679   7.576   3.687  0.2626 -0.3870 -1.2790
17615SOL    HW254134   3.610   7.457   3.625 -1.2029  1.0449 -2.4832
17616SOL     OW54135   4.688   6.494   6.397  0.0555  0.5133  0.0677
17616SOL    HW154136   4.658   6.433   6.464  0.6241  0.4013  0.2306
17616SOL    HW254137   4.771   6.529   6.432 -0.2195  1.3210 -0.0562
17617SOL     OW54138   1.421   1.405   0.629 -0.2753 -0.0767 -0.1303
17617SOL    HW154139   1.328   1.418   0.612 -0.4966 -2.7337 -1.3599
17617SOL    HW254140   1.464   1.479   0.586 -1.7515  1.1749  0.4245
17618SOL     OW54141   4.257   4.726   1.488  0.3467 -0.0236 -0.2402
17618SOL    HW154142   4.248   4.650   1.546 -0.4910 -0.3335 -0.7506
17618SOL    HW254143   4.290   4.689   1.406  0.2677  0.2119 -0.3793
17619SOL     OW54144   6.628   5.473   5.668 -0.2269  0.5265  0.4546
17619SOL    HW154145   6.719   5.480   5.637 -1.1444 -0.1078 -2.6903
17619SOL    HW254146   6.595   5.563   5.663 -0.4173  0.4098 -0.7371
17620SOL     OW54147   8.223   1.219   7.134  0.3232 -0.4487 -0.3042
17620SOL    HW154148   8.147   1.201   7.189 -0.6482  0.5928 -1.2401
17620SOL    HW254149   8.296   1.226   7.195 -0.4877 -0.6024  0.7098
17621SOL     OW54150   6.981   1.447   2.606 -0.6715  0.2077  1.0957
17621SOL    HW154151   6.916   1.513   2.585  0.6828  1.6286  1.2012
17621SOL    HW254152   6.935   1.364   2.596 -1.6087  0.9659 -2.1193
17622SOL     OW54153   3.348   6.734   6.568 -0.0276 -0.2032 -0.1752
17622SOL    HW154154   3.266   6.770   6.601  0.1998 -1.0233  1.4126
17622SOL    HW254155   3.322   6.670   6.502 -0.5569  0.8168 -0.9746
17623SOL     OW54156   2.330   2.569   3.773 -0.5189  0.1484  0.1841
17623SOL    HW154157   2.376   2.615   3.703 -0.9843  0.2557 -0.0568
17623SOL    HW254158   2.366   2.606   3.854 -0.0322  0.0773  0.0017
17624SOL     OW54159   7.234   6.134   3.427  0.2865 -0.6286  0.1795
17624SOL    HW154160   7.315   6.177   3.402  0.1360 -0.5659 -0.1999
17624SOL    HW254161   7.165   6.196   3.404  0.2244  0.2589  2.4527
17625SOL     OW54162   7.845   5.769   2.352 -0.5730  0.1337 -0.0325
17625SOL    HW154163   7.913   5.713   2.315 -0.9958 -0.3677 -0.0573
17625SOL    HW254164   7.787   5.789   2.279 -0.5243  0.4619  0.0148
17626SOL     OW54165   2.989   1.268   5.195  0.6561  0.4908 -0.1176
17626SOL    HW154166   3.049   1.206   5.152  0.0539 -2.9369  3.3965
17626SOL    HW254167   3.043   1.345   5.213  2.3087 -0.0995 -2.1240
17627SOL     OW54168   8.024   4.058   3.657  0.0117 -0.0326 -0.0224
17627SOL    HW154169   7.982   4.038   3.573  0.5428  2.1209 -0.8930
17627SOL    HW254170   7.951   4.075   3.717 -0.3787 -0.3922 -0.3921
17628SOL     OW54171   1.898   4.335   0.523 -0.2565  0.2645 -0.2073
17628SOL    HW154172   1.844   4.379   0.457 -0.9160  0.1946  0.2766
17628SOL    HW254173   1.835   4.294   0.582  0.3267  0.4326  0.5474
17629SOL     OW54174   7.213   3.728   4.010  0.6701  0.6102  0.1435
17629SOL    HW154175   7.201   3.642   3.970 -0.7577  0.9601 -0.2151
17629SOL    HW254176   7.218   3.788   3.936  1.6328  0.8613  0.3938
17630SOL     OW54177   2.832   0.813   7.208 -0.2573 -0.3423  0.0780
17630SOL    HW154178   2.870   0.871   7.274  1.8808  1.1271 -2.2247
17630SOL    HW254179   2.806   0.872   7.137 -2.9701 -1.7864 -0.2770
17631SOL     OW54180   5.878   4.632   2.707  0.1903  0.2363  0.5741
17631SOL    HW154181   5.916   4.551   2.672  0.4995 -0.1736  1.8321
17631SOL    HW254182   5.942   4.663   2.770  0.3774  1.8345 -0.3544
17632SOL     OW54183   7.171   8.100   8.374 -0.5160 -0.2719  0.1417
17632SOL    HW154184   7.223   8.123   8.297 -1.3747 -0.6669 -0.5658
17632SOL    HW254185   7.212   8.021   8.408 -1.2084 -1.1440 -0.9848
17633SOL     OW54186   6.655   8.273   8.691 -0.3523 -0.0631  0.7602
17633SOL    HW154187   6.701   8.317   8.762 -0.5017  1.5178 -0.0693
17633SOL    HW254188   6.562   8.286   8.710 -0.3929  0.4011  0.2868
17634SOL     OW54189   4.010   2.883   1.637 -0.1119  0.0402  0.5003
17634SOL    HW154190   3.955   2.822   1.588 -0.5112  1.7337 -1.2683
17634SOL    HW254191   3.948   2.934   1.689 -0.2513  1.7808 -1.3013
17635SOL     OW54192   4.347   2.752   2.275 -0.4386 -0.3798 -0.2508
17635SOL    HW154193   4.294   2.746   2.355 -0.1098  0.5419  0.0479
17635SOL    HW254194   4.284   2.778   2.207 -0.4884  0.1243 -0.0195
17636SOL     OW54195   6.548   5.450   8.252 -0.1520  0.5281  0.5661
17636SOL    HW154196   6.526   5.424   8.163  0.7762 -0.5967  0.6489
17636SOL    HW254197   6.497   5.392   8.308  0.1277  0.4738  0.7662
17637SOL     OW54198   0.384   3.694   8.448 -0.3773 -0.5450  0.0080
17637SOL    HW154199   0.421   3.624   8.393 -0.3054  0.3307 -1.0929
17637SOL    HW254200   0.300   3.715   8.406 -0.6335 -0.3210  0.6306
17638SOL     OW54201   8.378   5.219   5.242 -0.1774  0.2231  0.2444
17638SOL    HW154202   8.446   5.286   5.249  0.6520 -0.7156  2.1234
17638SOL    HW254203   8.331   5.225   5.325  0.5647 -2.0948  0.9097
17639SOL     OW54204   5.140   1.495   8.587  0.1655  0.1223 -0.2774
17639SOL    HW154205   5.198   1.572   8.589  0.2782  0.0880 -1.4866
17639SOL    HW254206   5.124   1.479   8.494 -2.4973  0.6585 -0.0063
17640SOL     OW54207   5.569   3.930   1.456  0.4418 -0.0969  0.0255
17640SOL    HW154208   5.542   3.974   1.375  0.2691 -0.2471  0.0011
17640SOL    HW254209   5.521   3.975   1.525 -0.9071 -1.2204 -0.1442
17641SOL     OW54210   4.406   4.350   1.683 -0.2653 -0.1609  0.0572
17641SOL    HW154211   4.429   4.259   1.664 -1.1832 -0.2350 -0.7627
17641SOL    HW254212   4.482   4.401   1.652 -0.4851 -0.5215 -1.1284
17642SOL     OW54213   3.712   8.233   5.433  0.5887 -0.0405  0.3297
17642SOL    HW154214   3.707   8.285   5.353  1.8433 -1.0887 -0.4767
17642SOL    HW254215   3.682   8.146   5.407 -0.2917 -0.0695  1.3513
17643SOL     OW54216   3.325   1.070   6.347 -0.1151  0.3053  0.1233
17643SOL    HW154217   3.236   1.101   6.359 -0.1372 -0.1873  1.3206
17643SOL    HW254218   3.319   0.975   6.354  0.8181  0.3635  2.6593
17644SOL     OW54219   1.965   0.566   0.687  0.0335 -0.2550 -0.1314
17644SOL    HW154220   1.991   0.485   0.644  1.7965  0.3237 -0.2371
17644SOL    HW254221   1.985   0.551   0.780  0.4902  0.0839 -0.1695
17645SOL     OW54222   2.200   3.048   1.059  0.2537 -0.2285  0.2263
17645SOL    HW154223   2.270   3.018   1.118 -0.5232 -2.1131  0.2523
17645SOL    HW254224   2.246   3.083   0.983  1.2466 -2.1920 -0.1201
17646SOL     OW54225   0.217   8.202   4.713 -0.8238  0.3866 -0.3881
17646SOL    HW154226   0.239   8.281   4.663 -1.0985  0.3021 -0.6432
17646SOL    HW254227   0.183   8.141   4.648 -0.0250 -0.1698 -0.2969
17647SOL     OW54228   4.096   7.739   1.782  0.0101 -0.1746  0.5034
17647SOL    HW154229   4.065   7.686   1.708 -0.1305  0.7286 -0.0964
17647SOL    HW254230   4.188   7.754   1.764  0.0413 -0.1762  0.6566
17648SOL     OW54231   1.336   3.630   8.401 -0.2095  0.0499 -0.0363
17648SOL    HW154232   1.275   3.622   8.475  0.9807 -2.2504  0.7943
17648SOL    HW254233   1.319   3.718   8.366 -1.5111  0.8471  2.3286
17649SOL     OW54234   1.213   6.078   1.443 -0.2812 -0.3635 -0.1501
17649SOL    HW154235   1.203   6.071   1.538  0.3251  0.0994 -0.0483
17649SOL    HW254236   1.125   6.063   1.409 -0.1866 -2.3828  0.3668
17650SOL     OW54237   1.157   3.626   7.658  0.0510  0.3887 -0.0297
17650SOL    HW154238   1.223   3.630   7.590  0.8357 -1.7743  0.5460
17650SOL    HW254239   1.116   3.540   7.648 -1.9281  1.2250  0.3463
17651SOL     OW54240   8.523   7.371   7.663  0.1618  0.1041  0.1153
17651SOL    HW154241   8.537   7.287   7.707  0.7029 -0.4539 -1.0516
17651SOL    HW254242   8.607   7.417   7.672 -0.6073  1.2363  2.1189
17652SOL     OW54243   2.238   2.775   1.193 -0.3361  0.6624  0.0013
17652SOL    HW154244   2.304   2.799   1.128 -0.9567  0.9845 -0.5163
17652SOL    HW254245   2.187   2.706   1.152  0.0596 -0.0304  0.6430
17653SOL     OW54246   6.694   0.145   7.143 -0.3745  0.1450  0.5052
17653SOL    HW154247   6.724   0.234   7.160 -2.2469  0.8827  0.1307
17653SOL    HW254248   6.619   0.155   7.085  0.9617 -1.8366 -1.7931
17654SOL     OW54249   5.870   2.398   4.787  0.1535 -0.3127  0.0263
17654SOL    HW154250   5.890   2.378   4.696 -0.5539 -2.3019  0.2616
17654SOL    HW254251   5.948   2.441   4.820  0.8114 -0.4879 -1.2444
17655SOL     OW54252   8.489   2.625   4.107  0.0677 -0.2224 -0.4451
17655SOL    HW154253   8.544   2.628   4.186 -2.4253 -0.0949  1.3907
17655SOL    HW254254   8.528   2.556   4.054  2.0309 -0.0847  0.7027
17656SOL     OW54255   7.133   4.331   4.292 -0.3815 -0.0132  0.2684
17656SOL    HW154256   7.177   4.357   4.211 -1.1313  3.5338  0.8204
17656SOL    HW254257   7.203   4.296   4.347  0.6199 -0.0063 -0.9578
17657SOL     OW54258   4.730   7.906   3.201  0.3640  0.4789  0.0610
17657SOL    HW154259   4.664   7.955   3.152 -0.0671  0.0842  0.2414
17657SOL    HW254260   4.764   7.968   3.265  1.5383  1.2656 -1.2714
17658SOL     OW54261   0.919   7.175   1.792  0.0134  0.6107  0.0421
17658SOL    HW154262   0.900   7.169   1.698  3.2984 -1.3486 -0.6324
17658SOL    HW254263   0.944   7.086   1.818 -2.0126  0.7734  3.1809
17659SOL     OW54264   1.317   4.550   8.398 -0.1441  0.4383  0.0692
17659SOL    HW154265   1.365   4.617   8.447  1.3195 -0.1658 -0.4961
17659SOL    HW254266   1.380   4.515   8.335 -1.3813 -0.2730 -0.8266
17660SOL     OW54267   2.000   2.496   1.931 -0.2960  0.3846  0.0779
17660SOL    HW154268   1.956   2.564   1.879  0.0153 -1.1416 -2.3074
17660SOL    HW254269   2.093   2.509   1.913 -0.1232  0.1967  0.7825
17661SOL     OW54270   4.144   1.817   6.340 -0.1533  0.4015  0.1712
17661SOL    HW154271   4.218   1.867   6.305  0.7736 -0.9192  0.1477
17661SOL    HW254272   4.067   1.870   6.319  0.7697  1.7886  0.1341
17662SOL     OW54273   5.935   1.812   8.358  0.6377  0.1378  0.0068
17662SOL    HW154274   5.974   1.739   8.406 -1.8313 -1.7447 -0.6318
17662SOL    HW254275   5.899   1.870   8.425  1.8178  0.3170  0.4997
17663SOL     OW54276   0.688   3.876   0.933 -1.0439  0.0756  0.0569
17663SOL    HW154277   0.740   3.800   0.906  1.3220  1.9488 -1.0120
17663SOL    HW254278   0.733   3.910   1.010 -1.4389  1.0107 -0.1117
17664SOL     OW54279   1.095   4.111   3.342 -0.3350 -0.2437  0.2283
17664SOL    HW154280   1.002   4.095   3.321  0.2004 -1.9075 -1.1330
17664SOL    HW254281   1.101   4.094   3.436 -1.0589 -2.3208 -0.0297
17665SOL     OW54282   2.770   0.951   6.016  0.2174  0.8153  0.4840
17665SOL    HW154283   2.741   1.040   6.038 -0.3070  0.7340  0.1379
17665SOL    HW254284   2.814   0.960   5.931 -2.1301  0.3543 -0.8589
17666SOL     OW54285   2.996   3.826   3.645  0.0593 -0.0726  0.0565
17666SOL    HW154286   2.990   3.879   3.724 -1.5766 -1.4949  0.9703
17666SOL    HW254287   2.906   3.796   3.629  0.4476 -0.3369 -2.0048
17667SOL     OW54288   2.620   6.318   4.261 -0.6279 -0.1225 -0.0590
17667SOL    HW154289   2.608   6.319   4.356 -0.2801 -0.2628 -0.0109
17667SOL    HW254290   2.713   6.337   4.248 -0.6426 -0.2457 -0.3651
17668SOL     OW54291   8.116   5.023   7.189 -0.7052 -0.1963 -0.2645
17668SOL    HW154292   8.169   4.954   7.150 -1.3791 -0.5138 -0.6492
17668SOL    HW254293   8.103   4.995   7.280  0.8386  0.5267  0.2046
17669SOL     OW54294   3.200   5.335   8.264 -0.1394 -0.1634 -0.2289
17669SOL    HW154295   3.210   5.430   8.258 -3.0623  0.3029  0.5637
17669SOL    HW254296   3.193   5.318   8.357  0.2444 -1.1470 -0.3739
17670SOL     OW54297   4.805   4.252   8.491  0.2170  0.7733  0.2974
17670SOL    HW154298   4.873   4.297   8.441 -1.0019 -1.3854 -3.7779
17670SOL    HW254299   4.842   4.165   8.508 -0.8617  0.1236 -0.5511
17671SOL     OW54300   7.970   3.751   5.654  0.2387 -0.0091  0.6815
17671SOL    HW154301   7.947   3.694   5.581 -0.5780  0.9452  0.1780
17671SOL    HW254302   7.925   3.713   5.729  0.7336 -0.7472  0.6176
17672SOL     OW54303   8.462   1.948   8.617 -0.3139 -0.7326 -0.0474
17672SOL    HW154304   8.368   1.933   8.611 -0.3819 -0.4250  0.2816
17672SOL    HW254305   8.477   2.030   8.569 -0.0133 -1.5164 -1.3539
17673SOL     OW54306   7.754   4.991   7.458  0.0007 -0.1131 -0.3575
17673SOL    HW154307   7.694   4.957   7.525 -0.8648 -1.1796 -1.6256
17673SOL    HW254308   7.804   5.059   7.503 -2.2254  0.9045  0.7487
17674SOL     OW54309   4.060   6.998   0.336  0.2775  0.7909 -0.3068
17674SOL    HW154310   4.002   7.067   0.370  0.6670  0.6814  0.6137
17674SOL    HW254311   4.033   6.919   0.383  0.7734  0.6181 -0.3066
17675SOL     OW54312   7.829   2.249   4.212 -0.0098 -0.1177  0.1431
17675SOL    HW154313   7.794   2.209   4.292 -1.6744  0.8189 -0.0547
17675SOL    HW254314   7.824   2.180   4.146 -0.0767 -0.4440  0.4858
17676SOL     OW54315   0.336   0.425   7.552  0.0768  0.2513  0.4190
17676SOL    HW154316   0.281   0.355   7.587  0.0483 -0.3167 -0.7348
17676SOL    HW254317   0.273   0.492   7.524  0.0992  0.7047  1.4138
17677SOL     OW54318   7.393   4.150   8.115  0.4610 -0.4150  0.3659
17677SOL    HW154319   7.359   4.127   8.202 -0.3896  1.1070  0.4709
17677SOL    HW254320   7.349   4.089   8.056 -1.1024  0.2966  0.7216
17678SOL     OW54321   8.349   5.817   6.130 -0.5094 -0.0705  0.1484
17678SOL    HW154322   8.264   5.776   6.146 -0.1662 -1.0611 -0.4976
17678SOL    HW254323   8.408   5.744   6.110  0.1329  0.7120 -0.9496
17679SOL     OW54324   6.559   4.546   2.212 -0.0174 -0.3294  0.4905
17679SOL    HW154325   6.590   4.624   2.256  0.4794 -1.5742  2.4863
17679SOL    HW254326   6.529   4.488   2.283 -2.0820 -1.2539 -0.9964
17680SOL     OW54327   6.790   7.839   7.473  0.1739 -0.2661  0.3411
17680SOL    HW154328   6.866   7.865   7.421 -0.7743  0.7122 -0.6190
17680SOL    HW254329   6.822   7.838   7.563  1.0355  1.3855  0.1065
17681SOL     OW54330   8.618   7.182   6.885  0.1139  0.4201 -0.0006
17681SOL    HW154331   8.671   7.123   6.831  0.4839  0.9385 -0.2077
17681SOL    HW254332   8.576   7.123   6.948  1.2695  0.0215  0.4437
17682SOL     OW54333   3.275   7.211   5.294 -0.9195  0.7833  0.7478
17682SOL    HW154334   3.367   7.229   5.274 -0.5508 -1.0407  0.6306
17682SOL    HW254335   3.227   7.258   5.226  0.0369  0.2441 -0.3564
17683SOL     OW54336   2.010   5.776   2.168 -0.8548  0.8317 -0.1003
17683SOL    HW154337   1.924   5.802   2.136 -0.3350  3.0579  0.1146
17683SOL    HW254338   2.058   5.751   2.089 -2.1337 -2.1393 -0.0668
17684SOL     OW54339   7.119   6.937   3.139  0.1939  0.2072  0.2175
17684SOL    HW154340   7.110   6.913   3.047 -0.0464  2.4101 -0.3900
17684SOL    HW254341   7.157   7.025   3.138  1.6886 -0.3256  2.2830
17685SOL     OW54342   7.636   3.811   1.784 -0.0070 -0.6818  0.3100
17685SOL    HW154343   7.628   3.891   1.732  0.4424 -0.7631  0.1200
17685SOL    HW254344   7.695   3.834   1.855 -0.9133 -0.4574  1.0147
17686SOL     OW54345   7.970   8.450   5.879 -0.3027  0.0523 -0.1923
17686SOL    HW154346   7.936   8.388   5.944  0.1988 -0.8145 -0.7279
17686SOL    HW254347   8.062   8.461   5.902  0.1641 -1.1023 -1.3442
17687SOL     OW54348   0.526   8.435   8.605 -0.0822  0.2049  0.6013
17687SOL    HW154349   0.572   8.409   8.685  1.6537  0.2518 -0.3298
17687SOL    HW254350   0.588   8.414   8.535 -0.4702  2.6038 -0.5298
17688SOL     OW54351   5.999   0.755   6.716 -0.2030 -0.3415 -0.1755
17688SOL    HW154352   5.938   0.827   6.704 -0.1290 -0.2012  0.2820
17688SOL    HW254353   5.976   0.692   6.647 -0.9479 -0.3563  0.0820
17689SOL     OW54354   5.206   3.658   3.824  0.1861 -0.3385 -0.4172
17689SOL    HW154355   5.198   3.636   3.731  0.4492 -1.3850 -0.1970
17689SOL    HW254356   5.130   3.713   3.842  0.9153  1.1720 -1.6148
17690SOL     OW54357   8.270   6.153   3.249  0.9727 -0.6489  0.7956
17690SOL    HW154358   8.333   6.158   3.321  2.4854 -1.7229 -0.4089
17690SOL    HW254359   8.315   6.104   3.181 -0.9119 -0.8008 -0.3997
17691SOL     OW54360   0.883   7.688   0.579  0.2002 -0.1952 -0.2963
17691SOL    HW154361   0.804   7.683   0.526  0.0803 -0.1472 -0.1239
17691SOL    HW254362   0.946   7.633   0.533 -0.6409 -2.1476  0.7754
17692SOL     OW54363   2.460   7.799   3.133 -0.0049 -0.7327 -0.3793
17692SOL    HW154364   2.495   7.711   3.119 -0.3557 -0.9544  0.0808
17692SOL    HW254365   2.409   7.791   3.214 -0.3226 -0.1904 -0.5243
17693SOL     OW54366   4.282   1.007   7.174  0.4619  0.4906 -0.1327
17693SOL    HW154367   4.304   0.983   7.084  1.0529  1.4674 -0.2655
17693SOL    HW254368   4.191   1.038   7.169  0.4642  0.4618 -0.3745
17694SOL     OW54369   5.340   1.313   8.008 -0.4381 -0.0000 -0.1712
17694SOL    HW154370   5.354   1.250   8.079 -0.6709 -0.3300 -0.4144
17694SOL    HW254371   5.267   1.276   7.958 -0.3149  0.2637 -0.5443
17695SOL     OW54372   8.481   3.460   0.861  0.3666 -0.3829  0.3257
17695SOL    HW154373   8.416   3.510   0.813 -0.7811 -0.4023  1.7950
17695SOL    HW254374   8.522   3.404   0.795 -1.6004 -0.8787 -0.5278
17696SOL     OW54375   8.027   0.596   7.364  0.2898  0.1116  0.0396
17696SOL    HW154376   8.065   0.508   7.375  0.3713 -0.0594 -1.4042
17696SOL    HW254377   7.981   0.592   7.280 -0.7742  1.0919  0.5464
17697SOL     OW54378   3.079   5.157   0.387  0.4811  0.3984  0.1654
17697SOL    HW154379   3.105   5.152   0.479  0.9775  1.3202  0.0880
17697SOL    HW254380   3.111   5.243   0.358 -2.1066  1.3513 -0.1250
17698SOL     OW54381   8.474   4.630   4.988  0.1127 -0.3813  0.2698
17698SOL    HW154382   8.423   4.642   5.067 -0.0001  0.5082  0.0795
17698SOL    HW254383   8.454   4.541   4.958 -2.2845  0.3427 -0.4683
17699SOL     OW54384   4.729   6.948   6.091  0.5723  0.0730  0.1006
17699SOL    HW154385   4.751   6.858   6.116 -0.3393 -0.3516 -0.5625
17699SOL    HW254386   4.741   6.950   5.996 -1.6159 -0.0282 -0.2196
17700SOL     OW54387   4.335   3.958   5.682 -0.2610  0.5459  0.6233
17700SOL    HW154388   4.325   3.986   5.591 -0.5915  3.6732  1.5139
17700SOL    HW254389   4.429   3.941   5.692  0.2089  2.7365  0.3072
17701SOL     OW54390   6.830   1.010   1.602  0.0286 -0.2016  0.5609
17701SOL    HW154391   6.914   1.036   1.566 -1.1354  4.3529  0.6027
17701SOL    HW254392   6.777   0.986   1.526  0.7413 -1.2970  0.3816
17702SOL     OW54393   3.936   1.570   8.309  0.1114 -0.3559  0.1093
17702SOL    HW154394   4.015   1.536   8.267  0.4926 -0.8836  1.2022
17702SOL    HW254395   3.968   1.621   8.383 -0.5670 -0.3955  0.4381
17703SOL     OW54396   1.444   3.482   6.663  0.1911 -0.1767  0.4862
17703SOL    HW154397   1.461   3.415   6.597  1.2106 -0.9018  1.4468
17703SOL    HW254398   1.459   3.565   6.617 -1.8708 -0.5282 -0.9409
17704SOL     OW54399   1.371   3.451   0.717 -0.3786  0.0674  0.0768
17704SOL    HW154400   1.459   3.443   0.680 -0.6326 -1.1782 -0.3167
17704SOL    HW254401   1.314   3.422   0.646 -1.1433  1.1246  0.2353
17705SOL     OW54402   8.046   3.635   2.926  0.5092  0.0675  0.6641
17705SOL    HW154403   8.039   3.709   2.865 -0.2716 -0.3767  0.1920
17705SOL    HW254404   8.065   3.560   2.870 -1.8286 -0.6433  0.7426
17706SOL     OW54405   0.473   1.434   2.746  0.3055 -0.6476 -0.0622
17706SOL    HW154406   0.508   1.372   2.810 -0.2980 -0.1950  0.7363
17706SOL    HW254407   0.419   1.493   2.798  0.2335  0.0670 -0.9221
17707SOL     OW54408   3.040   6.869   4.202  0.8457 -0.1088  0.2622
17707SOL    HW154409   3.088   6.822   4.135  0.6093  0.1649 -0.1024
17707SOL    HW254410   2.965   6.908   4.156  0.3979 -0.3395  0.7719
17708SOL     OW54411   4.633   4.459   5.309  0.3814 -0.1101  0.3734
17708SOL    HW154412   4.650   4.486   5.219  0.4355 -0.1561  0.3697
17708SOL    HW254413   4.546   4.495   5.328  1.3819  2.0331  1.1520
17709SOL     OW54414   3.917   7.714   1.982  0.1583 -0.0641  0.1069
17709SOL    HW154415   3.992   7.675   1.937 -0.3343 -0.0491 -0.7475
17709SOL    HW254416   3.956   7.778   2.042  0.9021 -1.0350  0.6818
17710SOL     OW54417   1.106   8.479   2.739 -0.1528 -0.3454  0.2627
17710SOL    HW154418   1.108   8.389   2.770  0.9979 -0.7737 -0.9559
17710SOL    HW254419   1.153   8.529   2.806  2.7292 -1.3239 -0.8425
17711SOL     OW54420   1.994   7.923   7.661  0.1865  0.5426  0.0962
17711SOL    HW154421   1.930   7.994   7.669 -0.3507  0.2427 -1.3518
17711SOL    HW254422   2.062   7.958   7.604  0.4619  0.2594  0.2466
17712SOL     OW54423   7.891   7.746   1.878 -0.5074 -0.3627 -0.1611
17712SOL    HW154424   7.976   7.713   1.852  0.3292  0.7875  0.9499
17712SOL    HW254425   7.861   7.797   1.803  1.6140  2.4609  0.7099
17713SOL     OW54426   4.697   3.111   8.111 -0.0218 -0.0516 -0.1423
17713SOL    HW154427   4.633   3.105   8.039  1.0523 -1.8028 -1.0277
17713SOL    HW254428   4.776   3.071   8.075  1.2009  0.9380  1.3500
17714SOL     OW54429   0.382   1.779   4.271  0.0743  0.1186  0.4043
17714SOL    HW154430   0.322   1.803   4.342  1.1042  2.7574  0.5099
17714SOL    HW254431   0.453   1.732   4.315 -0.1097  0.2761  0.8762
17715SOL     OW54432   6.522   4.026   0.784  0.1191 -0.0412 -0.2661
17715SOL    HW154433   6.582   3.955   0.805 -0.0688  0.1096  0.8490
17715SOL    HW254434   6.438   3.982   0.768  0.4350 -0.2284 -1.5865
17716SOL     OW54435   5.342   7.154   4.533 -0.3071 -0.9702  0.4688
17716SOL    HW154436   5.357   7.199   4.616  1.2807 -2.0017  0.7883
17716SOL    HW254437   5.255   7.117   4.541 -0.5736 -0.2158  1.2640
17717SOL     OW54438   7.630   3.150   2.675 -0.2168 -0.5364  0.4606
17717SOL    HW154439   7.558   3.098   2.639 -0.0678 -1.2583  1.1616
17717SOL    HW254440   7.598   3.177   2.761 -0.9156  1.8934 -0.4861
17718SOL     OW54441   4.823   6.118   6.777  0.2282  0.0096  0.1322
17718SOL    HW154442   4.757   6.149   6.839  1.6059  1.7363  0.8052
17718SOL    HW254443   4.902   6.106   6.830  1.1867  0.6429 -1.1042
17719SOL     OW54444   6.535   8.203   1.858  0.1618 -0.5464 -0.3138
17719SOL    HW154445   6.558   8.162   1.775 -0.1039 -1.8480  0.2288
17719SOL    HW254446   6.547   8.133   1.923 -0.7309  0.1144  0.5886
17720SOL     OW54447   5.119   4.112   2.581 -0.0243 -0.3892 -0.5399
17720SOL    HW154448   5.159   4.102   2.667  0.0895 -1.7622 -0.7327
17720SOL    HW254449   5.172   4.178   2.537 -0.5939  0.9604  0.7154
17721SOL     OW54450   5.137   0.928   5.853 -0.0661 -0.9298  0.4030
17721SOL    HW154451   5.050   0.888   5.851  0.0662 -1.1963 -0.1795
17721SOL    HW254452   5.127   1.008   5.801  0.1618 -1.2241 -0.0987
17722SOL     OW54453   5.665   0.360   1.910 -0.3049 -0.4759  0.0330
17722SOL    HW154454   5.693   0.314   1.989  0.6707  1.0578  0.6084
17722SOL    HW254455   5.596   0.304   1.874 -0.6056 -1.3337  1.8171
17723SOL     OW54456   6.475   0.466   7.227 -0.2718  0.0617 -0.3317
17723SOL    HW154457   6.476   0.559   7.203  0.6587  0.4264  0.9852
17723SOL    HW254458   6.567   0.439   7.221 -0.5609 -0.8450 -0.9052
17724SOL     OW54459   2.604   0.337   3.440  0.0842 -0.3573  0.7473
17724SOL    HW154460   2.589   0.331   3.534  0.4685 -0.6185  0.7935
17724SOL    HW254461   2.666   0.266   3.421 -0.8243 -1.0100  0.1214
17725SOL     OW54462   3.250   1.856   4.610  0.5130 -0.0472  0.5870
17725SOL    HW154463   3.217   1.945   4.594 -0.1854 -0.6737 -1.8351
17725SOL    HW254464   3.209   1.830   4.692 -1.4059  0.9119 -0.0083
17726SOL     OW54465   4.384   4.417   8.533  1.2809  0.0941 -0.0840
17726SOL    HW154466   4.472   4.385   8.514  0.9023 -0.1787 -1.5278
17726SOL    HW254467   4.339   4.342   8.572  1.5473  0.0858  0.2094
17727SOL     OW54468   7.395   4.354   6.828  0.0154  0.3739  0.1674
17727SOL    HW154469   7.406   4.277   6.773 -0.7481  0.9303 -0.8023
17727SOL    HW254470   7.383   4.426   6.766 -3.2848  0.6764  0.9942
17728SOL     OW54471   1.593   3.532   8.491  0.7095 -0.6720  0.1735
17728SOL    HW154472   1.600   3.556   8.583 -0.5171 -0.1491  0.1519
17728SOL    HW254473   1.507   3.565   8.464  0.7012 -1.5263 -0.9413
17729SOL     OW54474   2.206   4.281   8.049  0.5891 -0.0298  0.7559
17729SOL    HW154475   2.167   4.266   8.135 -2.2037  1.2716 -0.1532
17729SOL    HW254476   2.280   4.340   8.066  0.5146 -0.3482  2.3195
17730SOL     OW54477   3.144   5.518   7.322  0.4826  0.3717  0.2374
17730SOL    HW154478   3.054   5.546   7.302  1.0326  1.6772 -0.5810
17730SOL    HW254479   3.173   5.578   7.390  1.1191  0.7366 -0.3371
17731SOL     OW54480   8.361   0.434   4.843  0.2351 -0.4538  0.2204
17731SOL    HW154481   8.424   0.413   4.912  1.0915 -0.3219 -0.5054
17731SOL    HW254482   8.371   0.529   4.830  0.2455 -0.5221 -0.2569
17732SOL     OW54483   4.039   6.082   7.310 -0.1700 -0.1205  0.1029
17732SOL    HW154484   4.080   6.057   7.227 -1.5431 -0.6016 -0.4528
17732SOL    HW254485   3.949   6.105   7.287 -1.0865 -1.8542  1.6384
17733SOL     OW54486   6.082   0.587   5.951 -0.1868  0.5519  0.1877
17733SOL    HW154487   6.110   0.678   5.953  0.6808  0.2841  0.4874
17733SOL    HW254488   6.163   0.537   5.949 -0.6361 -0.1981 -1.1305
17734SOL     OW54489   4.333   3.146   8.260  0.7425 -0.3545 -0.1773
17734SOL    HW154490   4.295   3.224   8.219  0.2432 -0.0736  0.7887
17734SOL    HW254491   4.394   3.112   8.195 -0.0056  0.0919 -1.1350
17735SOL     OW54492   4.227   0.567   6.242  0.2149 -0.2316 -0.0635
17735SOL    HW154493   4.143   0.596   6.208 -1.2038 -0.2406  3.0918
17735SOL    HW254494   4.226   0.472   6.231 -0.0973 -0.2080 -0.2405
17736SOL     OW54495   7.785   2.352   0.288 -0.2958  0.1228  0.2904
17736SOL    HW154496   7.841   2.426   0.263 -0.8651  0.6957  0.6707
17736SOL    HW254497   7.818   2.278   0.237  0.1370  0.6930 -0.2680
17737SOL     OW54498   0.149   0.448   3.091 -0.2181 -0.4662  0.8929
17737SOL    HW154499   0.153   0.363   3.047  1.0382  0.1537 -0.2488
17737SOL    HW254500   0.098   0.503   3.031 -1.2517 -0.4461  1.7484
17738SOL     OW54501   3.529   0.542   8.058  0.4324  0.2527 -0.2286
17738SOL    HW154502   3.548   0.607   7.991 -0.5466  1.0556  0.2296
17738SOL    HW254503   3.434   0.548   8.070 -0.1537 -3.2035 -2.1176
17739SOL     OW54504   4.715   6.838   7.280  0.2015 -0.3387  0.2746
17739SOL    HW154505   4.729   6.856   7.373  2.6917 -3.3043  0.6239
17739SOL    HW254506   4.791   6.876   7.237  1.2583 -2.5479  0.0642
17740SOL     OW54507   2.996   5.261   5.770  0.3849 -0.0258 -0.1687
17740SOL    HW154508   2.950   5.262   5.686 -1.4506  0.3018  0.7788
17740SOL    HW254509   2.983   5.172   5.803 -1.4735  0.6338  1.0388
17741SOL     OW54510   0.209   8.452   7.900 -0.2934  0.6396 -0.0394
17741SOL    HW154511   0.189   8.361   7.876 -1.5327  0.2968  2.0984
17741SOL    HW254512   0.304   8.452   7.913 -0.3377 -0.4979  0.4224
17742SOL     OW54513   4.303   1.753   6.934 -0.0003  0.2775  0.1842
17742SOL    HW154514   4.340   1.696   6.866  0.2453  0.6388  0.0151
17742SOL    HW254515   4.303   1.840   6.895  0.8044  0.6123  0.9082
17743SOL     OW54516   5.529   5.261   1.145 -0.5730  0.6448 -0.2073
17743SOL    HW154517   5.494   5.278   1.057 -0.8886  0.4070 -0.1280
17743SOL    HW254518   5.571   5.344   1.170  0.7429  0.2791 -1.1423
17744SOL     OW54519   7.250   1.594   5.390  0.4485 -0.5495 -0.0208
17744SOL    HW154520   7.215   1.506   5.393 -1.2577  0.1176  2.0960
17744SOL    HW254521   7.193   1.645   5.447  3.3621  1.1907  1.5839
17745SOL     OW54522   2.154   4.597   7.474  0.4991 -0.2262  0.5269
17745SOL    HW154523   2.220   4.662   7.448  0.3954 -0.1964  0.3387
17745SOL    HW254524   2.071   4.635   7.446  0.3897 -0.2103  0.8727
17746SOL     OW54525   2.780   4.689   0.776 -0.1906  0.1450 -0.3631
17746SOL    HW154526   2.746   4.599   0.770 -0.6585  0.4026 -3.4016
17746SOL    HW254527   2.845   4.694   0.706  0.5900  1.8924  0.4441
17747SOL     OW54528   3.505   6.076   5.124  0.1928  0.4454 -0.0907
17747SOL    HW154529   3.482   6.044   5.211  0.5169  0.5007  0.0155
17747SOL    HW254530   3.526   5.997   5.074 -1.1637  0.3082 -0.4700
17748SOL     OW54531   0.639   3.765   4.810 -0.0788  0.0707  0.3739
17748SOL    HW154532   0.656   3.783   4.903  0.0287  0.4414  0.2826
17748SOL    HW254533   0.565   3.704   4.811 -0.8092  0.9425  0.6707
17749SOL     OW54534   0.486   0.221   6.317 -0.5496  0.3850  0.7012
17749SOL    HW154535   0.429   0.167   6.371 -1.3321  0.9711  0.4841
17749SOL    HW254536   0.511   0.165   6.244 -1.9713  0.5241  0.0715
17750SOL     OW54537   2.253   3.911   5.042 -0.2969 -0.2498  0.3377
17750SOL    HW154538   2.187   3.960   5.091  0.6497  1.0490  0.3705
17750SOL    HW254539   2.212   3.826   5.025 -0.7917 -0.6625  3.1112
17751SOL     OW54540   4.948   7.045   1.452  0.3009  0.1739 -0.9174
17751SOL    HW154541   5.026   7.102   1.447  1.3817 -0.9224  1.6641
17751SOL    HW254542   4.976   6.964   1.409  0.8419 -0.4065  0.4597
17752SOL     OW54543   8.537   7.610   4.715  0.2712  0.4378  0.2188
17752SOL    HW154544   8.552   7.585   4.806 -0.6456  0.2082  0.3085
17752SOL    HW254545   8.499   7.532   4.675 -1.1214  1.1485  0.1059
17753SOL     OW54546   4.113   7.674   1.021 -0.0474 -0.3237  0.0233
17753SOL    HW154547   4.087   7.617   0.948 -2.5812 -0.4253  0.8897
17753SOL    HW254548   4.179   7.624   1.069 -0.9338 -1.7939 -0.2269
17754SOL     OW54549   6.307   5.419   3.363 -0.4842  0.2410 -0.0208
17754SOL    HW154550   6.401   5.406   3.348 -0.6349 -0.7006 -0.1826
17754SOL    HW254551   6.268   5.420   3.276 -0.7435 -0.3007  0.0904
17755SOL     OW54552   2.075   4.147   4.727  0.4779  0.4698  0.4821
17755SOL    HW154553   2.170   4.161   4.720  0.6968 -0.7287  0.8378
17755SOL    HW254554   2.040   4.177   4.643  1.5042 -1.5428 -0.7480
17756SOL     OW54555   1.118   1.454   4.321  0.5413 -0.0471  0.3385
17756SOL    HW154556   1.188   1.453   4.386  0.9142 -1.9775 -0.0586
17756SOL    HW254557   1.071   1.372   4.334  0.3720 -0.2940 -1.5307
17757SOL     OW54558   4.283   5.637   6.836 -0.1591 -0.3769  0.0308
17757SOL    HW154559   4.344   5.643   6.910 -1.2285  0.4349  0.8903
17757SOL    HW254560   4.305   5.555   6.793  1.6192 -0.0341  0.2394
17758SOL     OW54561   1.411   5.057   3.737  0.2590  0.1321  0.3460
17758SOL    HW154562   1.481   5.118   3.712  1.4855 -1.2068  0.3746
17758SOL    HW254563   1.334   5.087   3.688  0.4555  2.4785  1.3749
17759SOL     OW54564   6.953   2.786   2.676  0.1442  0.0929 -0.0037
17759SOL    HW154565   6.908   2.702   2.678 -2.8762  1.5834  0.1367
17759SOL    HW254566   6.965   2.809   2.768 -0.3951  0.4759 -0.0273
17760SOL     OW54567   8.189   7.747   0.377  0.0026  0.3307  0.2240
17760SOL    HW154568   8.117   7.749   0.440  0.3290  0.3510  0.6011
17760SOL    HW254569   8.197   7.838   0.346  0.0092  0.3722  0.3476
17761SOL     OW54570   4.593   0.290   2.774  0.1350  0.2020 -0.3256
17761SOL    HW154571   4.589   0.306   2.680 -1.4601 -0.7097 -0.4530
17761SOL    HW254572   4.505   0.312   2.806 -0.0424 -1.5996  0.5704
17762SOL     OW54573   8.304   3.231   1.247 -0.6823  0.3873  0.1240
17762SOL    HW154574   8.335   3.318   1.269  1.5024 -0.2752 -0.1176
17762SOL    HW254575   8.262   3.241   1.161  0.2324  1.0654 -0.2525
17763SOL     OW54576   8.638   7.401   6.702 -0.4567 -0.2381  0.1391
17763SOL    HW154577   8.716   7.374   6.653  1.4937  1.3798  2.1145
17763SOL    HW254578   8.620   7.327   6.760  0.3630 -0.2044  0.4614
17764SOL     OW54579   1.504   1.959   0.831  0.3958  0.1547 -0.1119
17764SOL    HW154580   1.425   1.986   0.786  0.8062 -1.0232 -1.6170
17764SOL    HW254581   1.484   1.871   0.864  1.3754 -0.5737 -1.3845
17765SOL     OW54582   4.148   7.665   2.505 -0.1125 -1.0570 -0.1065
17765SOL    HW154583   4.056   7.640   2.505 -0.1929 -0.7752 -0.6404
17765SOL    HW254584   4.164   7.701   2.592 -0.9000  0.3058 -0.4956
17766SOL     OW54585   0.679   7.789   5.416 -0.0939  0.0480 -0.0018
17766SOL    HW154586   0.662   7.735   5.339 -2.2227  1.3339 -0.5077
17766SOL    HW254587   0.602   7.776   5.472  0.4854  0.6968  0.9719
17767SOL     OW54588   8.638   7.904   0.194  0.3797  0.2403 -0.4692
17767SOL    HW154589   8.710   7.966   0.192  1.4683 -0.9988 -0.9749
17767SOL    HW254590   8.668   7.830   0.142 -1.0542 -0.5326 -0.2597
17768SOL     OW54591   5.864   6.147   6.903  0.1679  0.1024  0.9220
17768SOL    HW154592   5.843   6.177   6.815  1.0214  0.6493  0.8974
17768SOL    HW254593   5.811   6.203   6.960 -0.2426 -0.1282  0.7760
17769SOL     OW54594   5.997   4.010   3.520 -0.5426 -0.1430 -0.5260
17769SOL    HW154595   6.011   3.917   3.536 -0.1025  0.0021 -0.0169
17769SOL    HW254596   5.913   4.015   3.474 -1.2955 -0.6832  0.7535
17770SOL     OW54597   0.575   3.345   7.292  0.6320 -0.7665  0.2333
17770SOL    HW154598   0.666   3.335   7.322  0.4657 -0.6451  0.7818
17770SOL    HW254599   0.561   3.270   7.233  0.8186 -1.2627  0.8132
17771SOL     OW54600   0.770   1.795   6.671 -0.7167  0.1418  0.1385
17771SOL    HW154601   0.677   1.785   6.689 -0.8341 -1.8049 -1.1859
17771SOL    HW254602   0.785   1.743   6.592  1.4661  0.5705  0.1909
17772SOL     OW54603   3.978   1.853   3.583  0.2733 -0.3461  0.5608
17772SOL    HW154604   3.911   1.841   3.516 -0.5529 -0.2308  1.3482
17772SOL    HW254605   3.947   1.802   3.657  2.1088 -2.0136  0.2474
17773SOL     OW54606   3.812   0.565   8.513 -0.3011  0.0805  0.2060
17773SOL    HW154607   3.849   0.486   8.552  0.4365  0.6747  0.7268
17773SOL    HW254608   3.866   0.581   8.436 -1.1956 -0.5795 -0.5928
17774SOL     OW54609   2.390   5.836   4.941  0.2039  0.2809 -0.0949
17774SOL    HW154610   2.366   5.840   4.849 -0.6187 -1.6385 -0.0127
17774SOL    HW254611   2.386   5.743   4.963  0.3272  0.6923  1.8900
17775SOL     OW54612   4.986   4.045   8.548 -0.5317  0.1414  0.2393
17775SOL    HW154613   5.013   4.026   8.638 -2.2943  2.4671  1.3574
17775SOL    HW254614   4.980   3.959   8.507  0.2130 -1.0134  2.3595
17776SOL     OW54615   7.907   7.672   3.325 -0.2973  0.5619 -0.6767
17776SOL    HW154616   7.945   7.667   3.413 -2.1385 -1.2789  0.0990
17776SOL    HW254617   7.968   7.623   3.270 -1.0216 -1.6970  0.4013
17777SOL     OW54618   4.013   1.793   5.434  0.1431 -0.4208  0.1862
17777SOL    HW154619   3.972   1.803   5.349 -0.2559 -2.0237  0.1508
17777SOL    HW254620   3.980   1.709   5.467  1.4292 -0.5437  1.2714
17778SOL     OW54621   6.678   3.328   8.045 -0.5806 -0.7185 -0.5679
17778SOL    HW154622   6.694   3.411   8.000 -2.0163 -0.0292  0.1175
17778SOL    HW254623   6.713   3.342   8.133 -3.4935  0.3406  0.5357
17779SOL     OW54624   2.584   8.468   0.677 -0.2638  0.6645 -0.2177
17779SOL    HW154625   2.503   8.513   0.703  0.2530  0.6785  1.4512
17779SOL    HW254626   2.649   8.538   0.670  0.0125  0.4497  0.1744
17780SOL     OW54627   1.090   2.332   2.481  0.2378 -0.0823 -0.2038
17780SOL    HW154628   0.996   2.348   2.496  0.3617  0.8420 -0.3465
17780SOL    HW254629   1.106   2.363   2.392  0.4675 -1.2323 -0.5708
17781SOL     OW54630   0.146   4.016   2.723  0.1865 -0.0401 -0.1317
17781SOL    HW154631   0.178   4.095   2.765 -0.7423  0.1572  0.2223
17781SOL    HW254632   0.066   3.994   2.770 -0.3053 -0.4185 -1.1047
17782SOL     OW54633   2.247   3.727   8.215  0.1025  0.1346  0.1610
17782SOL    HW154634   2.337   3.702   8.236 -0.2214  0.1013  1.6033
17782SOL    HW254635   2.255   3.810   8.169  0.8290  0.6739  1.2347
17783SOL     OW54636   8.231   5.139   4.853 -0.0210 -0.2418  0.5174
17783SOL    HW154637   8.269   5.227   4.853 -0.8729  0.1442 -0.5145
17783SOL    HW254638   8.272   5.096   4.778 -0.2058 -0.4643  0.5447
17784SOL     OW54639   0.698   7.101   3.268  0.0849  0.3816  0.0228
17784SOL    HW154640   0.700   7.139   3.356 -0.5183 -1.9245  1.0997
17784SOL    HW254641   0.634   7.154   3.221 -0.7707  0.7057  1.4694
17785SOL     OW54642   8.044   6.203   6.387 -0.4959 -0.0776  0.0086
17785SOL    HW154643   7.962   6.170   6.351 -0.7598  0.4957  0.0618
17785SOL    HW254644   8.034   6.298   6.385  0.6078  0.0377 -0.9898
17786SOL     OW54645   0.870   3.213   7.072  0.3733 -0.2413  0.0055
17786SOL    HW154646   0.800   3.150   7.088 -0.9051  0.5424 -2.1939
17786SOL    HW254647   0.946   3.177   7.118 -0.9610 -2.0944  0.8392
17787SOL     OW54648   7.893   0.282   2.375  0.0505  0.7621 -0.3159
17787SOL    HW154649   7.831   0.347   2.340 -1.4744 -0.1772  0.5684
17787SOL    HW254650   7.937   0.327   2.447  0.5081  1.4732 -1.0208
17788SOL     OW54651   2.864   2.495   4.666  0.0998 -0.4089  0.3090
17788SOL    HW154652   2.828   2.484   4.577  0.8334  1.7932 -0.3138
17788SOL    HW254653   2.787   2.494   4.723 -0.5519 -0.0540 -0.5436
17789SOL     OW54654   6.534   4.468   8.508  0.3001 -0.5343 -0.1098
17789SOL    HW154655   6.607   4.467   8.570 -1.2828 -0.4781  1.8321
17789SOL    HW254656   6.559   4.404   8.441  2.1436 -0.4501  0.4488
17790SOL     OW54657   4.779   4.847   3.434 -0.0320 -0.5003 -1.1302
17790SOL    HW154658   4.779   4.915   3.366 -0.2665  1.4266  0.6798
17790SOL    HW254659   4.869   4.847   3.467 -0.0500 -1.0508 -1.0800
17791SOL     OW54660   4.272   0.167   1.612 -0.0124  0.2212  0.1750
17791SOL    HW154661   4.192   0.206   1.649 -0.5951  0.0876 -0.9096
17791SOL    HW254662   4.257   0.167   1.518  0.6401 -1.1903  0.0519
17792SOL     OW54663   3.975   4.642   4.756  0.1050 -0.0953 -0.3263
17792SOL    HW154664   3.889   4.605   4.735 -0.4682 -0.6661  2.6770
17792SOL    HW254665   3.987   4.712   4.692 -1.3178 -1.7623 -2.5699
17793SOL     OW54666   3.080   1.146   6.355  0.0785  0.1206  0.0059
17793SOL    HW154667   3.065   1.238   6.378  1.2886  0.3260  0.0539
17793SOL    HW254668   3.050   1.097   6.432  1.5984  0.6422  0.9876
17794SOL     OW54669   0.561   7.758   4.307 -0.4111 -0.1897 -0.6422
17794SOL    HW154670   0.503   7.790   4.376 -0.5335 -0.1570 -0.7601
17794SOL    HW254671   0.642   7.808   4.318 -0.4147 -0.2166 -0.4938
17795SOL     OW54672   1.155   1.567   4.054  0.2399 -0.6917 -0.6187
17795SOL    HW154673   1.129   1.532   4.139 -0.2779  0.5421 -0.2515
17795SOL    HW254674   1.248   1.586   4.064 -0.1929  1.2355  0.3621
17796SOL     OW54675   4.250   6.539   2.261  0.2392 -0.4768  0.0905
17796SOL    HW154676   4.168   6.518   2.216  0.3880 -0.2283 -0.2901
17796SOL    HW254677   4.258   6.634   2.255  1.6614 -0.6738 -1.8024
17797SOL     OW54678   1.142   6.594   3.639  0.2479  0.3070  0.0470
17797SOL    HW154679   1.145   6.574   3.733  3.1332 -2.5588 -0.5129
17797SOL    HW254680   1.075   6.535   3.604 -0.8765  1.4228  0.2172
17798SOL     OW54681   0.726   1.168   5.223  0.5944 -0.0271 -0.1104
17798SOL    HW154682   0.694   1.114   5.151 -0.4749 -0.4720  0.6687
17798SOL    HW254683   0.733   1.256   5.186 -0.7007 -0.0933 -0.5721
17799SOL     OW54684   1.434   1.621   4.579 -0.0418 -0.7556 -0.6063
17799SOL    HW154685   1.364   1.650   4.521 -1.0752 -1.6769  0.1485
17799SOL    HW254686   1.477   1.702   4.608  0.4368 -0.2598 -2.5237
17800SOL     OW54687   8.094   3.104   4.600  0.3385 -0.3265  0.2512
17800SOL    HW154688   8.008   3.073   4.627  0.0165 -0.3110 -0.6998
17800SOL    HW254689   8.151   3.028   4.608 -0.1340 -0.7967 -0.6679
17801SOL     OW54690   8.634   8.111   7.288 -0.1672  0.0837  0.1794
17801SOL    HW154691   8.677   8.045   7.232  0.5932  0.0494  0.7855
17801SOL    HW254692   8.613   8.063   7.368 -1.0597  0.1863  0.0116
17802SOL     OW54693   5.246   5.292   1.776 -0.7223  0.6227  0.0854
17802SOL    HW154694   5.190   5.272   1.701 -0.6550 -1.1846  0.4715
17802SOL    HW254695   5.331   5.253   1.754  0.4231  3.2138 -0.4295
17803SOL     OW54696   6.480   8.665   0.477  0.4214  0.0183 -0.3365
17803SOL    HW154697   6.512   8.702   0.560 -1.5140 -0.8776  0.8980
17803SOL    HW254698   6.389   8.641   0.496  0.4770 -1.9127 -2.1836
17804SOL     OW54699   6.573   5.755   5.617 -0.1296 -0.4699 -0.3123
17804SOL    HW154700   6.654   5.805   5.610 -0.5528  0.4204  0.8820
17804SOL    HW254701   6.533   5.761   5.530 -0.4820  1.8274 -0.0388
17805SOL     OW54702   6.178   4.039   4.750 -0.6946 -0.0332 -0.1693
17805SOL    HW154703   6.114   3.969   4.764 -0.3380 -0.2587  0.3912
17805SOL    HW254704   6.259   3.993   4.729  0.0352  0.0963  2.0971
17806SOL     OW54705   2.086   2.256   0.581 -0.5576 -0.0517 -0.0072
17806SOL    HW154706   1.993   2.261   0.599 -0.2477  1.1482  1.4770
17806SOL    HW254707   2.100   2.166   0.550 -2.0139 -0.5961  0.8399
17807SOL     OW54708   2.182   6.417   8.342  0.6350  0.1126 -0.1199
17807SOL    HW154709   2.116   6.467   8.388 -0.4409 -0.2786 -1.1822
17807SOL    HW254710   2.205   6.346   8.402  0.8726  0.8433  0.6700
17808SOL     OW54711   6.240   7.020   6.787  0.3979  0.4015 -0.2645
17808SOL    HW154712   6.241   7.018   6.691  0.5618 -0.7710 -0.2558
17808SOL    HW254713   6.259   6.930   6.813 -1.1571  0.3620  0.8727
17809SOL     OW54714   1.994   0.850   4.401 -0.0769 -0.2110  0.0574
17809SOL    HW154715   1.970   0.771   4.353 -1.0941 -0.2377  0.5806
17809SOL    HW254716   2.046   0.818   4.476  0.0276 -0.3243 -0.0629
17810SOL     OW54717   5.576   2.246   2.888 -0.1975 -0.0378  0.4277
17810SOL    HW154718   5.520   2.261   2.963  0.1798 -1.2078  0.9654
17810SOL    HW254719   5.608   2.156   2.899  0.1462 -0.1098 -0.9350
17811SOL     OW54720   6.718   2.135   1.281 -0.0037 -0.1982 -0.1269
17811SOL    HW154721   6.808   2.154   1.307 -0.5677  0.0767  1.7225
17811SOL    HW254722   6.712   2.039   1.286  0.1565 -0.2121 -0.1837
17812SOL     OW54723   2.675   1.531   1.414 -0.6011 -0.6873 -0.0302
17812SOL    HW154724   2.653   1.554   1.324 -0.1822 -0.3275 -0.0455
17812SOL    HW254725   2.766   1.558   1.423 -0.3452 -1.5900  0.2111
17813SOL     OW54726   1.629   0.534   3.059  0.1227  0.6683  0.6176
17813SOL    HW154727   1.706   0.548   3.114  1.1103 -1.6978 -0.0433
17813SOL    HW254728   1.653   0.575   2.975  0.2792  0.7196  0.6862
17814SOL     OW54729   2.603   7.472   1.753  0.2810  0.1155  0.4641
17814SOL    HW154730   2.617   7.529   1.678 -0.8389  1.1718  1.0147
17814SOL    HW254731   2.687   7.427   1.766  0.3993 -0.3309 -1.5804
17815SOL     OW54732   5.645   0.799   2.375  0.0550 -0.5343  0.0175
17815SOL    HW154733   5.691   0.810   2.291  1.3784 -0.6240  0.7023
17815SOL    HW254734   5.682   0.867   2.431  1.0425 -2.0502  1.2826
17816SOL     OW54735   5.595   1.123   1.351 -1.0127 -0.0220  0.1236
17816SOL    HW154736   5.534   1.121   1.278 -0.6329  0.6475 -0.2250
17816SOL    HW254737   5.673   1.166   1.316 -0.2231 -1.1193  0.4805
17817SOL     OW54738   3.315   7.947   0.157  0.2732  0.2834  0.2802
17817SOL    HW154739   3.281   8.023   0.204 -0.1548 -0.4293  1.1540
17817SOL    HW254740   3.237   7.894   0.137  0.4852  0.3908 -0.9219
17818SOL     OW54741   5.336   8.575   4.746  0.2908  0.6694  0.2210
17818SOL    HW154742   5.315   8.483   4.734 -0.6622  0.7716  0.9483
17818SOL    HW254743   5.349   8.585   4.840  1.2503  1.1163  0.0592
17819SOL     OW54744   1.840   4.282   4.049 -0.4620  0.2160 -0.6164
17819SOL    HW154745   1.815   4.348   4.113 -0.6112 -0.1658 -0.2732
17819SOL    HW254746   1.862   4.331   3.970  0.7204  0.7677  0.0255
17820SOL     OW54747   3.897   5.779   1.336 -0.0367 -0.0904  0.4813
17820SOL    HW154748   3.969   5.831   1.302 -0.9744 -0.2209 -1.8571
17820SOL    HW254749   3.887   5.809   1.427  2.1504  0.7530  0.5028
17821SOL     OW54750   3.245   1.792   6.080  0.2264  0.3065  0.1287
17821SOL    HW154751   3.166   1.774   6.131 -0.4508 -0.5838 -1.1856
17821SOL    HW254752   3.263   1.885   6.095 -0.0087  0.1048  1.8666
17822SOL     OW54753   2.085   0.905   0.227 -0.8884 -0.6751 -0.0644
17822SOL    HW154754   2.146   0.888   0.155 -1.5946 -1.1514 -0.5512
17822SOL    HW254755   2.142   0.922   0.302 -0.1417 -0.0613 -0.7476
17823SOL     OW54756   1.138   0.739   0.878  0.0784  0.1347  0.6763
17823SOL    HW154757   1.218   0.773   0.918  1.0399 -1.9324  0.6352
17823SOL    HW254758   1.102   0.679   0.944  0.0009 -0.9399 -0.3170
17824SOL     OW54759   4.215   0.147   1.340 -0.0510 -0.6489 -0.8934
17824SOL    HW154760   4.276   0.177   1.273 -2.1201  1.8453 -1.8317
17824SOL    HW254761   4.167   0.076   1.298 -1.6022  1.1441 -2.3561
17825SOL     OW54762   4.103   6.573   8.641 -0.5380  0.0601 -0.3343
17825SOL    HW154763   4.133   6.604   8.727 -1.0807  3.1542 -1.1478
17825SOL    HW254764   4.008   6.563   8.651 -0.5614  0.1316 -0.4769
17826SOL     OW54765   7.166   1.395   1.607  0.4074 -0.1808  0.8143
17826SOL    HW154766   7.201   1.483   1.615  0.2254 -0.1216  0.9695
17826SOL    HW254767   7.071   1.406   1.603  0.2293 -0.4825  3.0177
17827SOL     OW54768   6.826   2.369   1.851  0.4300 -0.4561 -0.1540
17827SOL    HW154769   6.910   2.390   1.811  0.8247 -0.2996  0.7475
17827SOL    HW254770   6.817   2.432   1.923 -0.6405 -0.2066 -0.4858
17828SOL     OW54771   5.466   3.180   6.336  0.2406  0.5317 -0.1816
17828SOL    HW154772   5.456   3.179   6.431 -0.9491 -1.3677 -0.2736
17828SOL    HW254773   5.530   3.111   6.318 -1.5296 -1.0270 -0.8646
17829SOL     OW54774   6.996   3.395   2.465  0.1275  0.1129  0.2907
17829SOL    HW154775   6.915   3.446   2.466 -1.0875 -1.6886 -0.2962
17829SOL    HW254776   6.998   3.352   2.551  0.4711  0.1408  0.2987
17830SOL     OW54777   3.427   4.151   2.886  0.2825  0.5676 -0.3150
17830SOL    HW154778   3.373   4.150   2.807  0.5275 -1.6649 -0.5032
17830SOL    HW254779   3.363   4.154   2.958  0.0611  2.6348 -0.5469
17831SOL     OW54780   7.285   5.181   1.708  0.0911  0.6023  0.1116
17831SOL    HW154781   7.312   5.167   1.799 -1.3143  1.2295  0.6540
17831SOL    HW254782   7.348   5.244   1.674  2.1708 -1.4642 -0.1800
17832SOL     OW54783   7.499   0.221   3.604  0.1942 -0.6032 -0.3145
17832SOL    HW154784   7.455   0.192   3.524 -1.3711  1.8661 -0.4473
17832SOL    HW254785   7.456   0.303   3.626  4.9214  2.3073 -0.6032
17833SOL     OW54786   1.810   3.478   0.358  0.2895 -0.3776  0.4561
17833SOL    HW154787   1.852   3.395   0.334  0.8956  0.2138 -0.6197
17833SOL    HW254788   1.800   3.524   0.274 -0.5700  0.3959  0.9695
17834SOL     OW54789   7.560   8.427   5.855 -0.1301 -0.9239 -0.5109
17834SOL    HW154790   7.621   8.447   5.785 -1.0416 -1.3481 -1.4511
17834SOL    HW254791   7.517   8.510   5.874  0.2832 -0.7583 -0.2811
17835SOL     OW54792   3.863   5.435   1.952  0.2920 -0.9099 -0.5252
17835SOL    HW154793   3.845   5.344   1.974 -1.2334 -0.2194  1.3295
17835SOL    HW254794   3.958   5.444   1.960  0.3474 -2.0784  0.2619
17836SOL     OW54795   7.048   5.418   2.975  0.4672 -0.1521  0.3617
17836SOL    HW154796   7.088   5.503   2.954  1.2707 -0.7700 -0.7329
17836SOL    HW254797   7.102   5.383   3.045  1.1229 -0.4366 -0.2689
17837SOL     OW54798   2.134   2.919   3.390 -0.0558 -0.5120  0.3966
17837SOL    HW154799   2.142   2.840   3.443  0.3926 -0.7018  0.0492
17837SOL    HW254800   2.065   2.970   3.433 -0.1259 -0.9459  0.8022
17838SOL     OW54801   4.308   8.006   4.270 -0.4643 -0.5425 -0.4709
17838SOL    HW154802   4.342   7.925   4.308 -0.3544 -0.2103  0.1421
17838SOL    HW254803   4.215   7.989   4.257  0.0277 -1.7836 -2.9763
17839SOL     OW54804   4.616   7.177   6.190  0.0323  1.1662 -0.0253
17839SOL    HW154805   4.672   7.101   6.174 -0.5180  0.6932  0.2593
17839SOL    HW254806   4.606   7.218   6.104  0.6637  1.1465 -0.1089
17840SOL     OW54807   0.288   2.620   7.383  0.6977 -0.1740 -0.4156
17840SOL    HW154808   0.311   2.711   7.399  0.4964 -0.2266  0.2460
17840SOL    HW254809   0.235   2.595   7.460  0.7069 -0.8272 -0.6109
17841SOL     OW54810   6.160   8.448   6.979  0.0623  0.0505 -0.7186
17841SOL    HW154811   6.097   8.465   6.908  1.0531 -0.7520 -1.8353
17841SOL    HW254812   6.231   8.399   6.936  0.9413  0.0159  0.7317
17842SOL     OW54813   6.780   1.034   4.034 -0.0650 -0.1686  0.0269
17842SOL    HW154814   6.832   1.050   4.113 -0.4344  1.5647 -0.0503
17842SOL    HW254815   6.843   0.996   3.973  0.6169 -0.0444  0.6220
17843SOL     OW54816   3.410   7.836   6.553 -0.1171  0.1670 -0.2899
17843SOL    HW154817   3.346   7.840   6.625 -0.1467  0.2183 -0.3191
17843SOL    HW254818   3.389   7.754   6.508  0.1917 -0.0867  0.0303
17844SOL     OW54819   7.239   3.792   5.988 -0.2365 -0.0088  0.5170
17844SOL    HW154820   7.316   3.840   6.019 -0.4113  0.3379  0.4194
17844SOL    HW254821   7.255   3.777   5.895  0.6377 -1.7113  0.8938
17845SOL     OW54822   8.144   2.619   2.332  0.0602  0.0854  0.0824
17845SOL    HW154823   8.191   2.693   2.371  0.6690 -0.4857  0.4609
17845SOL    HW254824   8.108   2.653   2.250 -1.0968  1.2636  1.0456
17846SOL     OW54825   2.871   2.994   2.933 -0.2151  0.2747  0.2756
17846SOL    HW154826   2.858   3.061   3.001 -0.7702 -1.5880  2.1103
17846SOL    HW254827   2.966   2.991   2.921 -0.1807  1.3700  0.1697
17847SOL     OW54828   0.116   6.679   3.535  0.2914 -0.2471  0.2354
17847SOL    HW154829   0.083   6.668   3.446 -0.5181 -0.5907  0.5568
17847SOL    HW254830   0.128   6.589   3.567 -0.6563 -0.1575  0.8917
17848SOL     OW54831   0.941   4.841   2.615 -0.0767 -0.1642 -0.3247
17848SOL    HW154832   0.932   4.819   2.522  0.4072  0.7125 -0.5950
17848SOL    HW254833   0.984   4.926   2.615  0.2629 -0.3229  0.7229
17849SOL     OW54834   6.876   8.097   5.618  0.5110 -0.0695  0.7224
17849SOL    HW154835   6.867   8.003   5.604  1.1264 -0.2073  1.2063
17849SOL    HW254836   6.878   8.107   5.714 -0.0339  0.4864  0.6896
17850SOL     OW54837   3.494   1.273   5.137 -0.1581 -0.0928 -0.1582
17850SOL    HW154838   3.446   1.240   5.212 -2.2621  2.4423 -0.2263
17850SOL    HW254839   3.482   1.207   5.069 -0.5963 -1.1238  0.8948
17851SOL     OW54840   3.780   7.774   7.532  0.1093  0.2219  0.2988
17851SOL    HW154841   3.717   7.736   7.594  1.8609 -0.6196  1.6406
17851SOL    HW254842   3.857   7.794   7.585  0.5938  2.3616 -1.0613
17852SOL     OW54843   2.507   7.769   2.012 -0.1578 -0.0754  0.1775
17852SOL    HW154844   2.488   7.691   1.960 -2.1520 -0.6105  1.5892
17852SOL    HW254845   2.578   7.742   2.070 -0.4502 -0.6698  0.2676
17853SOL     OW54846   0.544   0.696   3.248 -0.1507 -0.3958 -0.4270
17853SOL    HW154847   0.626   0.736   3.277 -0.2958 -0.7332  0.4964
17853SOL    HW254848   0.559   0.675   3.156  1.2285 -1.4821  0.0033
17854SOL     OW54849   4.508   4.362   2.332  0.6765  0.3156 -0.0247
17854SOL    HW154850   4.568   4.327   2.398 -0.9923 -0.6892  1.0435
17854SOL    HW254851   4.422   4.329   2.359 -0.1029  0.0485 -2.5835
17855SOL     OW54852   5.424   6.164   4.099  0.0822  0.4963 -0.1439
17855SOL    HW154853   5.473   6.176   4.180 -0.1224  0.3206  0.0093
17855SOL    HW254854   5.393   6.252   4.076  0.3212  0.5793 -0.1476
17856SOL     OW54855   8.093   3.954   2.284  0.6073 -0.4645  0.8433
17856SOL    HW154856   8.172   3.916   2.322 -0.3273 -1.9450  1.4075
17856SOL    HW254857   8.036   3.878   2.266 -1.2590  0.6363  1.7809
17857SOL     OW54858   3.888   7.679   7.954  0.1897  0.2267  0.1140
17857SOL    HW154859   3.913   7.771   7.963 -1.3910  0.7247 -0.2922
17857SOL    HW254860   3.910   7.639   8.038  3.3984  0.2989 -0.5833
17858SOL     OW54861   1.336   4.281   4.673  0.1253  0.4200  0.7033
17858SOL    HW154862   1.246   4.283   4.706 -1.0728 -0.5499 -2.1886
17858SOL    HW254863   1.335   4.338   4.597  2.5610  1.9957  1.7098
17859SOL     OW54864   1.255   0.667   8.558 -0.0829 -0.3893 -0.2951
17859SOL    HW154865   1.336   0.661   8.508  0.4757  0.4077  0.4905
17859SOL    HW254866   1.263   0.599   8.625  0.6615  0.6933  0.7605
17860SOL     OW54867   0.009   1.577   7.753  0.1108 -0.1373 -0.3525
17860SOL    HW154868  -0.066   1.595   7.810 -0.3824 -1.8384 -0.3839
17860SOL    HW254869  -0.026   1.590   7.664 -0.2040 -0.9830 -0.3697
17861SOL     OW54870   5.274   1.786   7.316  0.6360  0.0060 -0.1748
17861SOL    HW154871   5.354   1.782   7.263  0.9540  1.2515  0.1608
17861SOL    HW254872   5.225   1.707   7.293  1.9113 -0.7233 -0.4690
17862SOL     OW54873   2.983   7.258   2.951 -0.1154  0.7677 -0.1670
17862SOL    HW154874   3.025   7.337   2.916  1.0114  0.6048  0.7344
17862SOL    HW254875   2.997   7.265   3.046 -0.1086 -0.4624 -0.0715
17863SOL     OW54876   3.861   7.610   2.568 -0.0274 -0.0831  0.8398
17863SOL    HW154877   3.799   7.643   2.504  0.4793 -1.1170 -0.2139
17863SOL    HW254878   3.834   7.650   2.651 -1.8552 -0.2040  0.3338
17864SOL     OW54879   7.320   3.870   8.104  0.8104  0.2430 -0.1858
17864SOL    HW154880   7.335   3.905   8.016 -1.5517  0.8982 -0.3940
17864SOL    HW254881   7.232   3.832   8.100  1.9553 -2.9024  0.9493
17865SOL     OW54882   7.975   3.929   1.038  0.2824 -0.4333  0.4427
17865SOL    HW154883   8.015   4.004   0.995  1.8597 -1.2082  0.4976
17865SOL    HW254884   8.029   3.914   1.116  1.5016 -3.0362 -0.7803
17866SOL     OW54885   0.718   7.860   3.765  0.4809 -0.6872 -0.1024
17866SOL    HW154886   0.773   7.919   3.714  0.5265 -0.8832 -0.2831
17866SOL    HW254887   0.687   7.795   3.701 -0.5734 -0.1427 -0.1579
17867SOL     OW54888   8.075   3.968   5.764 -0.3341  0.0226 -0.0907
17867SOL    HW154889   8.048   4.021   5.688  0.2207 -1.9322 -1.7406
17867SOL    HW254890   8.053   3.878   5.739  2.3624 -1.0147  0.8958
17868SOL     OW54891   1.448   5.568   4.334  0.2319  0.1939  0.1379
17868SOL    HW154892   1.411   5.482   4.353 -2.8957  0.9514 -1.6954
17868SOL    HW254893   1.436   5.618   4.415  2.2430 -1.0521  1.2706
17869SOL     OW54894   2.997   7.249   4.062  0.5372  0.4589 -0.4409
17869SOL    HW154895   3.089   7.235   4.084  0.3282  0.0962  0.2261
17869SOL    HW254896   2.967   7.314   4.125  0.3685  0.6827 -0.7497
17870SOL     OW54897   8.306   8.573   2.402  0.2804 -0.1199 -0.3020
17870SOL    HW154898   8.298   8.542   2.312 -0.5212 -0.4376 -0.1278
17870SOL    HW254899   8.218   8.598   2.427  0.1865 -1.5366  0.9260
17871SOL     OW54900   2.611   4.165   3.319 -0.2994 -0.5019 -0.0774
17871SOL    HW154901   2.641   4.195   3.405  0.2008 -0.9318 -0.0905
17871SOL    HW254902   2.556   4.089   3.338  1.1195 -1.6058 -0.1981
17872SOL     OW54903   2.152   3.329   1.165 -0.6044  0.1158  0.2579
17872SOL    HW154904   2.201   3.281   1.231  1.1872  1.1109 -0.2697
17872SOL    HW254905   2.089   3.266   1.131 -0.2838 -0.9631  1.5809
17873SOL     OW54906   7.020   3.157   6.674 -0.3975 -0.2988  0.4624
17873SOL    HW154907   7.002   3.161   6.580  0.4364  1.4601  0.3352
17873SOL    HW254908   7.115   3.148   6.680  0.2633  4.3331  1.0035
17874SOL     OW54909   0.374   6.609   1.036 -0.2754 -0.0990 -0.8043
17874SOL    HW154910   0.458   6.563   1.041  0.5303  1.4800  1.9180
17874SOL    HW254911   0.398   6.700   1.018 -1.4688  0.2380 -0.7441
17875SOL     OW54912   0.331   0.034   6.530  0.0360 -0.0180 -0.5104
17875SOL    HW154913   0.402  -0.015   6.487 -1.2995 -0.8931 -1.8002
17875SOL    HW254914   0.254   0.015   6.478 -1.3102  0.3685  1.2548
17876SOL     OW54915   1.595   5.025   4.648  0.0530  0.2198 -0.1375
17876SOL    HW154916   1.658   4.965   4.607  1.4052  1.5730 -0.1381
17876SOL    HW254917   1.580   4.988   4.735  0.0644 -0.6667 -0.5077
17877SOL     OW54918   5.932   1.530   5.015 -0.0654  0.5635  0.5404
17877SOL    HW154919   5.923   1.537   4.920 -0.6988  0.1859  0.5650
17877SOL    HW254920   5.925   1.621   5.046  0.4819  0.7259  0.2075
17878SOL     OW54921   4.235   1.501   2.517 -0.1239 -0.6453  0.1544
17878SOL    HW154922   4.287   1.525   2.441  0.9109 -0.5493  0.8683
17878SOL    HW254923   4.220   1.407   2.508  1.3258 -0.9468  0.5920
17879SOL     OW54924   3.600   6.924   6.558  0.1896  0.3770 -0.5652
17879SOL    HW154925   3.597   6.847   6.615  0.9647 -0.4370 -1.5837
17879SOL    HW254926   3.515   6.966   6.571 -0.1639 -0.5142  0.1867
17880SOL     OW54927   1.661   3.218   0.955 -0.5995 -0.0312  0.3056
17880SOL    HW154928   1.639   3.126   0.967 -0.3729 -0.0861  0.3142
17880SOL    HW254929   1.613   3.245   0.876 -1.1477  0.0097  0.6499
17881SOL     OW54930   2.581   6.646   4.717 -0.0510  0.0061  0.4926
17881SOL    HW154931   2.576   6.741   4.715 -2.2763 -0.0635 -0.6325
17881SOL    HW254932   2.579   6.620   4.625 -0.0491 -1.1556  0.7988
17882SOL     OW54933   4.936   1.788   4.849 -0.3216  0.4593 -0.0403
17882SOL    HW154934   4.953   1.874   4.887 -1.6478  0.5727  0.3265
17882SOL    HW254935   4.992   1.729   4.900 -0.8208  0.8471  0.9859
17883SOL     OW54936   4.785   8.298   5.843  0.0237  0.4424  0.2904
17883SOL    HW154937   4.876   8.326   5.831  0.5290 -1.2055 -0.0500
17883SOL    HW254938   4.767   8.317   5.935  0.3499  1.7261  0.1080
17884SOL     OW54939   5.360   0.865   4.300 -0.3684  0.0842 -0.1157
17884SOL    HW154940   5.304   0.807   4.247 -1.6142  2.0533 -1.0661
17884SOL    HW254941   5.313   0.874   4.383  0.6953 -1.5640  0.7314
17885SOL     OW54942   7.547   2.107   5.781  0.1719 -0.2914 -0.2590
17885SOL    HW154943   7.542   2.060   5.697  1.2514  0.1889 -0.6113
17885SOL    HW254944   7.590   2.046   5.840  1.7474  0.2702 -0.7673
17886SOL     OW54945   6.821   7.613   8.507  0.1332  0.8249 -0.4113
17886SOL    HW154946   6.741   7.664   8.524 -0.3024  0.1424 -0.3796
17886SOL    HW254947   6.892   7.675   8.523 -0.3152  0.9005  1.6274
17887SOL     OW54948   0.857   8.145   2.551  0.2238  0.1270 -0.1470
17887SOL    HW154949   0.819   8.163   2.638  0.4510 -1.6190  0.3444
17887SOL    HW254950   0.797   8.083   2.511  0.1472  0.8899 -1.2519
17888SOL     OW54951   0.208   0.295   3.689  0.4839 -0.8181  0.5582
17888SOL    HW154952   0.120   0.257   3.701  1.1869 -2.8299 -0.1649
17888SOL    HW254953   0.261   0.252   3.756  0.4637  2.4286  2.8841
17889SOL     OW54954   1.841   6.443   1.218 -0.7052  0.2252  0.3048
17889SOL    HW154955   1.919   6.436   1.274 -1.6014 -0.6558  1.4892
17889SOL    HW254956   1.767   6.438   1.279 -1.7019  0.6129 -0.8426
17890SOL     OW54957   7.569   1.442   2.096 -0.1460  0.3468 -0.1599
17890SOL    HW154958   7.536   1.492   2.170  0.8730 -1.3244  1.5144
17890SOL    HW254959   7.608   1.363   2.135  1.0949 -0.2598 -2.4094
17891SOL     OW54960   8.696   4.191   3.362 -0.4279 -0.3114  0.0453
17891SOL    HW154961   8.635   4.120   3.385 -1.8817  0.7207 -0.4661
17891SOL    HW254962   8.713   4.236   3.445  0.5851 -1.2782  0.3924
17892SOL     OW54963   5.618   6.489   5.540  0.0227  0.2266 -0.1728
17892SOL    HW154964   5.699   6.444   5.514  0.1405  0.3329  0.0111
17892SOL    HW254965   5.645   6.578   5.560  0.0440 -0.0135  0.9398
17893SOL     OW54966   5.532   0.036   1.598  0.2553 -0.3467  0.3423
17893SOL    HW154967   5.517  -0.056   1.576 -1.0533  0.0181 -0.4699
17893SOL    HW254968   5.487   0.084   1.528 -0.3785  0.8962  1.5540
17894SOL     OW54969   7.895   3.389   3.262 -0.4493 -0.4766  0.4413
17894SOL    HW154970   7.982   3.405   3.226 -0.5259 -0.3645  0.3026
17894SOL    HW254971   7.884   3.294   3.260 -1.0964 -0.3961 -1.3780
17895SOL     OW54972   8.087   1.345   4.096  0.2471  0.1133 -0.3848
17895SOL    HW154973   8.033   1.397   4.156  0.8432  0.7536 -0.3917
17895SOL    HW254974   8.025   1.314   4.030 -0.8978 -2.5124  1.7151
17896SOL     OW54975   0.803   5.430   3.098 -0.5143 -0.1152 -0.6018
17896SOL    HW154976   0.859   5.452   3.023 -2.5207  2.0714 -1.6225
17896SOL    HW254977   0.849   5.465   3.174  1.2289 -1.7560 -0.8422
17897SOL     OW54978   8.703   2.425   3.986  0.3676  0.0351 -0.2720
17897SOL    HW154979   8.789   2.431   4.028  0.6564  1.6675 -1.0114
17897SOL    HW254980   8.708   2.486   3.913 -0.7854 -1.3036 -1.5151
17898SOL     OW54981   2.556   3.729   5.267 -0.0831  0.2018  0.0911
17898SOL    HW154982   2.577   3.730   5.174  0.0142 -0.2523  0.1043
17898SOL    HW254983   2.607   3.655   5.302 -1.7598 -0.9908  0.1105
17899SOL     OW54984   0.157   1.829   3.403 -0.0932 -0.2549  0.1720
17899SOL    HW154985   0.232   1.868   3.447 -0.1305  3.0733 -2.3400
17899SOL    HW254986   0.195   1.782   3.329 -0.3668  1.9058 -1.4336
17900SOL     OW54987   2.761   5.600   3.762 -0.2518 -0.6919 -0.5393
17900SOL    HW154988   2.767   5.695   3.765  0.8252 -0.7018 -1.5570
17900SOL    HW254989   2.759   5.580   3.668 -1.3267 -1.6347 -0.3347
17901SOL     OW54990   0.690   4.214   8.359  0.6422 -0.4662 -0.5072
17901SOL    HW154991   0.686   4.216   8.455 -1.3840 -1.1526 -0.5316
17901SOL    HW254992   0.621   4.274   8.331  1.3634 -0.0962 -1.5709
17902SOL     OW54993   1.272   1.777   6.788 -0.2568 -0.0995  0.4071
17902SOL    HW154994   1.182   1.757   6.764  0.1930  1.1313 -2.7801
17902SOL    HW254995   1.278   1.873   6.780  1.4102 -0.2034  0.0623
17903SOL     OW54996   0.752   7.999   2.102 -0.0949  0.1732  0.2455
17903SOL    HW154997   0.706   7.938   2.160 -0.5523 -0.1873 -0.4734
17903SOL    HW254998   0.683   8.049   2.060  0.2221  0.3515 -0.0714
17904SOL     OW54999   2.997   2.399   6.731  0.6923 -0.3150 -0.1330
17904SOL    HW155000   2.928   2.339   6.705 -0.5245  0.6857  0.6675
17904SOL    HW255001   3.073   2.343   6.750 -0.3739 -1.5796  0.5080
17905SOL     OW55002   0.663   3.851   7.318  0.1846 -0.0684 -0.2288
17905SOL    HW155003   0.624   3.901   7.390  1.2368 -0.5803  0.7199
17905SOL    HW255004   0.590   3.798   7.284 -0.0865 -0.6577  1.2021
17906SOL     OW55005   6.604   1.532   8.195 -0.7224  0.1573 -0.2817
17906SOL    HW155006   6.666   1.495   8.133 -1.5595  0.8189 -1.5585
17906SOL    HW255007   6.589   1.462   8.259 -0.1670 -0.7022 -1.0664
17907SOL     OW55008   1.904   8.431   6.865 -0.2806 -0.9100 -0.4807
17907SOL    HW155009   1.963   8.485   6.812  1.0548  2.5059  3.8512
17907SOL    HW255010   1.817   8.463   6.844 -0.0592 -1.3287 -2.1899
17908SOL     OW55011   3.671   1.878   0.948  0.0681  0.1386  0.5739
17908SOL    HW155012   3.581   1.863   0.977  0.5379 -2.1943  1.0148
17908SOL    HW255013   3.674   1.972   0.927 -2.1202  0.5174  1.6512
17909SOL     OW55014   3.766   6.777   2.539 -0.6175 -0.2399  0.2581
17909SOL    HW155015   3.831   6.761   2.470 -0.0456 -1.3554  1.0390
17909SOL    HW255016   3.768   6.872   2.551  2.7723 -0.3944  2.0334
17910SOL     OW55017   6.119   7.988   0.517 -0.5551 -0.0296 -0.3110
17910SOL    HW155018   6.032   8.027   0.524 -0.8948 -0.9267  0.7205
17910SOL    HW255019   6.106   7.913   0.459 -0.3206  0.1973 -0.6649
17911SOL     OW55020   8.397   8.505   0.970  0.2036 -0.5160 -0.0706
17911SOL    HW155021   8.377   8.453   0.892 -0.3685  0.5977 -0.7025
17911SOL    HW255022   8.391   8.443   1.042 -1.9120 -1.0604 -0.6380
17912SOL     OW55023   5.730   2.479   7.648 -0.3712  0.4261 -0.1151
17912SOL    HW155024   5.687   2.512   7.727  0.3957 -0.2016  0.5876
17912SOL    HW255025   5.673   2.505   7.576  0.1790  3.3198  0.3658
17913SOL     OW55026   3.405   7.015   8.292  0.1664 -0.0351 -0.3932
17913SOL    HW155027   3.344   6.990   8.361  1.0616 -0.6763  0.2045
17913SOL    HW255028   3.452   7.091   8.327  0.0781  0.1270 -0.6253
17914SOL     OW55029   7.405   6.150   2.807 -0.7907  0.4583 -0.3322
17914SOL    HW155030   7.446   6.185   2.886 -1.8666 -0.7638  0.7934
17914SOL    HW255031   7.478   6.137   2.747  0.6173 -1.8617  1.6892
17915SOL     OW55032   0.175   1.895   0.076  0.0962 -0.6679  0.4906
17915SOL    HW155033   0.173   1.811   0.123  0.1250 -1.0795 -0.2327
17915SOL    HW255034   0.267   1.911   0.061  0.2613  0.5446  2.4423
17916SOL     OW55035   2.717   3.988   5.173 -0.0625  0.3296  0.2857
17916SOL    HW155036   2.775   4.055   5.135  1.5570 -0.3828  1.3957
17916SOL    HW255037   2.656   3.967   5.102  0.8865  1.2867 -0.8706
17917SOL     OW55038   3.320   0.473   2.222  0.2189  0.2680 -0.2115
17917SOL    HW155039   3.302   0.473   2.316  0.3464 -0.3096 -0.1836
17917SOL    HW255040   3.375   0.550   2.208 -0.0858  0.5530  0.1288
17918SOL     OW55041   4.173   7.008   3.589  0.5020  0.3982 -0.2018
17918SOL    HW155042   4.096   6.956   3.613  0.9279 -0.4407 -0.5913
17918SOL    HW255043   4.146   7.099   3.602  0.3717  0.0691  2.4618
17919SOL     OW55044   0.249   7.014   7.394  0.0685 -0.5399 -0.5205
17919SOL    HW155045   0.328   6.992   7.442 -1.2216 -1.0348  1.5214
17919SOL    HW255046   0.270   6.996   7.303  2.9096  1.2387 -0.3342
17920SOL     OW55047   7.857   7.481   4.200 -0.4583  0.0969 -0.1250
17920SOL    HW155048   7.839   7.394   4.165 -0.8878  0.1062  0.0603
17920SOL    HW255049   7.770   7.521   4.211 -0.5437 -0.6611  2.9087
17921SOL     OW55050   4.883   4.735   4.777  0.0009 -0.4323  0.7615
17921SOL    HW155051   4.881   4.729   4.682  0.3915  0.5106  0.6792
17921SOL    HW255052   4.803   4.691   4.806 -0.3203 -0.3846 -0.0264
17922SOL     OW55053   6.825   2.983   4.719 -0.5168  0.2059 -0.7687
17922SOL    HW155054   6.801   3.026   4.637 -2.5218  1.0327  0.1641
17922SOL    HW255055   6.882   3.046   4.764  0.3557 -0.1316 -1.3814
17923SOL     OW55056   8.705   5.873   5.071  0.1066  0.2760  0.3348
17923SOL    HW155057   8.715   5.932   4.996 -0.4336 -1.2912 -1.0363
17923SOL    HW255058   8.613   5.846   5.068  0.0903  0.1224  1.5419
17924SOL     OW55059   6.163   6.255   5.751 -0.3039  0.0578  0.7078
17924SOL    HW155060   6.175   6.169   5.792 -1.5997 -1.8548 -2.5489
17924SOL    HW255061   6.246   6.274   5.709 -0.7023 -0.7902 -0.5105
17925SOL     OW55062   6.751   5.595   6.546  0.2311 -0.3752  0.1887
17925SOL    HW155063   6.776   5.650   6.620  1.0513 -0.3546 -0.0959
17925SOL    HW255064   6.690   5.531   6.583  0.2000 -0.0187  0.7629
17926SOL     OW55065   1.162   5.587   0.893 -0.0996  0.1545  0.9383
17926SOL    HW155066   1.116   5.664   0.925  0.5336  1.0994 -0.3367
17926SOL    HW255067   1.243   5.621   0.855 -0.5725 -0.8994 -1.1972
17927SOL     OW55068   6.014   4.633   6.844  0.6495  0.3155 -0.0710
17927SOL    HW155069   6.048   4.556   6.889 -0.6252  0.0108  0.4259
17927SOL    HW255070   5.944   4.600   6.788  2.4219  0.6343 -2.6548
17928SOL     OW55071   1.177   7.942   1.916  0.3699  0.2942  0.2602
17928SOL    HW155072   1.156   8.035   1.907  1.2605  0.3445 -1.8445
17928SOL    HW255073   1.121   7.899   1.851  1.8351 -0.3035 -0.6668
17929SOL     OW55074   8.163   6.593   5.871  0.3738  0.3104  0.0068
17929SOL    HW155075   8.120   6.672   5.837 -0.3385  0.2522  0.7365
17929SOL    HW255076   8.206   6.622   5.951 -1.1685 -0.3328  1.1162
17930SOL     OW55077   1.913   1.436   0.943 -0.2570 -0.3400  0.7883
17930SOL    HW155078   1.873   1.461   0.859  1.1579 -1.4870 -0.2815
17930SOL    HW255079   1.881   1.348   0.959  0.6495 -0.6930  0.6858
17931SOL     OW55080   4.854   6.428   7.700  0.0010 -0.0943  0.2715
17931SOL    HW155081   4.768   6.387   7.700 -0.5331  0.7891 -2.5765
17931SOL    HW255082   4.853   6.487   7.624  2.8382  0.5496  0.6035
17932SOL     OW55083   3.864   7.721   3.092  0.1163 -0.5266 -0.6265
17932SOL    HW155084   3.801   7.711   3.162  0.4549 -0.5995 -0.3283
17932SOL    HW255085   3.941   7.672   3.121  0.0167 -1.1279 -1.3499
17933SOL     OW55086   5.840   5.265   8.115  0.1293  0.7613  0.2673
17933SOL    HW155087   5.890   5.314   8.180  0.6390 -0.1719  0.5975
17933SOL    HW255088   5.749   5.273   8.144  0.3998 -0.1151  1.4344
17934SOL     OW55089   8.492   6.411   7.821  0.0367  0.1006  0.1815
17934SOL    HW155090   8.586   6.424   7.804  0.0176 -1.2065 -1.1803
17934SOL    HW255091   8.487   6.381   7.911  0.8687  0.7834  0.4636
17935SOL     OW55092   0.719   5.683   4.145 -0.0286 -0.4215 -0.5001
17935SOL    HW155093   0.672   5.693   4.063 -0.5964  0.3905 -0.0888
17935SOL    HW255094   0.712   5.589   4.166  1.1661 -0.8884 -1.9632
17936SOL     OW55095   4.309   3.496   2.105 -0.6113  0.2482  0.5225
17936SOL    HW155096   4.258   3.466   2.029 -1.0770  2.5263 -0.1671
17936SOL    HW255097   4.399   3.472   2.085 -0.7300  0.8149 -0.7911
17937SOL     OW55098   2.191   4.007   3.292 -0.2219  0.4222  0.7194
17937SOL    HW155099   2.132   3.965   3.355 -0.9321  0.9454  0.4265
17937SOL    HW255100   2.135   4.027   3.217  0.4011  0.6700  0.3097
17938SOL     OW55101   0.271   3.118   4.312 -0.0507  0.2752  0.6074
17938SOL    HW155102   0.265   3.187   4.378  0.3081  0.4522  0.4596
17938SOL    HW255103   0.180   3.097   4.290 -0.1761  1.8232 -0.5021
17939SOL     OW55104   4.933   4.173   5.146 -0.0438  0.7382 -0.4819
17939SOL    HW155105   4.900   4.083   5.144  0.2562  0.6085 -3.2245
17939SOL    HW255106   5.009   4.170   5.204 -0.6024 -0.5448  0.2221
17940SOL     OW55107   7.083   2.470   2.950 -0.4005  0.4593  0.3255
17940SOL    HW155108   7.014   2.470   3.016 -0.9246  1.6650 -0.1828
17940SOL    HW255109   7.037   2.473   2.866  0.2625 -0.1995 -0.0794
17941SOL     OW55110   5.268   8.638   0.205  0.4841  0.0594 -0.1350
17941SOL    HW155111   5.288   8.565   0.264 -2.1524 -2.2640 -1.8749
17941SOL    HW255112   5.286   8.605   0.118 -1.1658  1.2829 -1.0052
17942SOL     OW55113   6.408   2.379   8.531 -0.3779 -0.1666  0.0014
17942SOL    HW155114   6.436   2.426   8.453  2.1753 -1.3780  0.0937
17942SOL    HW255115   6.465   2.411   8.601 -1.1049 -0.7410  0.8951
17943SOL     OW55116   6.870   0.971   0.958  0.6445 -0.6422  0.2030
17943SOL    HW155117   6.781   0.967   0.923  0.4272  1.8104  0.3310
17943SOL    HW255118   6.863   0.931   1.045 -0.6821  0.7946  0.7959
17944SOL     OW55119   4.151   0.443   1.266  0.0462  0.1001  0.2132
17944SOL    HW155120   4.085   0.389   1.221 -0.2751  0.2704  0.4709
17944SOL    HW255121   4.107   0.471   1.347 -0.1421  1.5107 -0.3390
17945SOL     OW55122   2.535   6.377   5.522  0.4543 -0.1930  0.5117
17945SOL    HW155123   2.513   6.442   5.455 -1.4457 -0.4691  0.8140
17945SOL    HW255124   2.623   6.348   5.499 -0.1021 -0.2165 -1.8209
17946SOL     OW55125   5.928   3.294   0.926 -0.2442  0.6112 -0.2153
17946SOL    HW155126   5.940   3.388   0.910  0.0554  0.7493  0.7652
17946SOL    HW255127   6.010   3.254   0.897 -0.0970  0.7407  0.0159
17947SOL     OW55128   0.587   5.550   1.554 -0.1584 -0.2248 -0.2121
17947SOL    HW155129   0.571   5.495   1.630 -2.7823  0.1291 -0.4485
17947SOL    HW255130   0.554   5.498   1.480  0.4545  0.2958 -0.8631
17948SOL     OW55131   5.253   5.350   2.040 -0.1245 -0.6620  0.3116
17948SOL    HW155132   5.213   5.265   2.060 -0.6437 -0.3938  0.4306
17948SOL    HW255133   5.250   5.356   1.944 -1.5538 -0.0958  0.3646
17949SOL     OW55134   8.237   3.439   3.719  0.0112 -0.7706 -0.2950
17949SOL    HW155135   8.153   3.472   3.749 -0.4344 -0.1797 -2.0256
17949SOL    HW255136   8.235   3.451   3.624  2.3995  0.1170 -0.3200
17950SOL     OW55137   2.260   2.552   4.754  0.0464 -0.0332 -0.3069
17950SOL    HW155138   2.331   2.543   4.817 -0.4449 -1.1029  0.1168
17950SOL    HW255139   2.244   2.463   4.723 -2.0327 -0.0454  0.6616
17951SOL     OW55140   3.502   5.659   3.331  0.4213  0.1014 -0.1626
17951SOL    HW155141   3.444   5.665   3.407 -1.8416  0.9583 -1.8359
17951SOL    HW255142   3.588   5.685   3.365 -0.7057  1.5454  1.8884
17952SOL     OW55143   7.058   6.438   2.112 -0.6592  0.5979  0.1331
17952SOL    HW155144   7.130   6.391   2.153 -0.5913  0.0671 -0.5736
17952SOL    HW255145   7.099   6.491   2.044 -1.0074 -0.5802 -1.0640
17953SOL     OW55146   5.562   0.731   3.148  0.2807  0.1376 -0.1194
17953SOL    HW155147   5.599   0.643   3.139  3.2217  1.2037  0.6601
17953SOL    HW255148   5.534   0.737   3.239 -0.7488 -0.2378 -0.3929
17954SOL     OW55149   1.630   6.344   0.077  0.3897 -0.1530  0.2842
17954SOL    HW155150   1.543   6.316   0.048 -0.4524  0.7651  1.8079
17954SOL    HW255151   1.642   6.302   0.162  0.8484  0.8233  0.7124
17955SOL     OW55152   7.426   8.367   7.980 -0.2439  0.3411 -0.4997
17955SOL    HW155153   7.357   8.302   7.963  0.6415 -0.3704 -1.4673
17955SOL    HW255154   7.501   8.336   7.930  0.3532  1.8821 -0.6058
17956SOL     OW55155   1.748   8.050   4.261  0.2438  0.5867  0.1772
17956SOL    HW155156   1.734   7.957   4.247  2.5688 -0.1647  2.1019
17956SOL    HW255157   1.775   8.084   4.176 -2.1772 -0.0606 -0.9455
17957SOL     OW55158   1.452   3.275   5.052 -0.2990  0.2032 -0.8240
17957SOL    HW155159   1.391   3.205   5.029 -0.7435  0.3339 -0.0710
17957SOL    HW255160   1.522   3.230   5.099  0.0605  0.0887 -1.4647
17958SOL     OW55161   1.735   3.712   3.918  0.4848 -0.4941 -0.9893
17958SOL    HW155162   1.668   3.715   3.987 -0.2578 -0.1540 -1.7085
17958SOL    HW255163   1.748   3.804   3.894  0.0557 -0.6672 -1.9339
17959SOL     OW55164   4.779   0.170   0.325  0.0827 -0.1165  0.8271
17959SOL    HW155165   4.854   0.212   0.366  0.2242 -0.0263  0.4833
17959SOL    HW255166   4.817   0.109   0.262 -0.1230  0.4759  0.1011
17960SOL     OW55167   8.198   7.058   2.112  0.4531 -0.0959 -0.6524
17960SOL    HW155168   8.216   6.965   2.098  2.2399  0.2577 -0.9431
17960SOL    HW255169   8.203   7.069   2.206  1.4482 -0.0890 -0.6957
17961SOL     OW55170   7.784   8.617   0.960  0.1364  0.4308 -0.4587
17961SOL    HW155171   7.743   8.614   1.046  0.9592 -0.9672 -0.0856
17961SOL    HW255172   7.716   8.586   0.900  0.0279 -0.0335 -0.1020
17962SOL     OW55173   6.376   7.175   6.971 -0.0482 -0.1649 -0.0617
17962SOL    HW155174   6.401   7.229   6.895  1.5776 -1.2959 -0.3932
17962SOL    HW255175   6.325   7.103   6.933  1.3630 -1.1176 -0.2267
17963SOL     OW55176   3.385   1.240   6.149 -0.2705 -0.0687 -0.5131
17963SOL    HW155177   3.360   1.184   6.223  2.1142 -0.1576  0.3281
17963SOL    HW255178   3.407   1.178   6.079  2.5219 -0.3537  0.4683
17964SOL     OW55179   6.912   3.309   2.761  0.5070 -0.1597  0.4048
17964SOL    HW155180   6.832   3.283   2.715  1.2402  0.5139 -1.3512
17964SOL    HW255181   6.941   3.229   2.806 -0.4357 -0.7560 -0.0213
17965SOL     OW55182   3.532   1.313   4.107  0.4747 -0.2028 -0.7902
17965SOL    HW155183   3.592   1.256   4.154 -0.1792 -0.9590 -0.8489
17965SOL    HW255184   3.536   1.396   4.154  0.3431 -0.7416  0.2057
17966SOL     OW55185   7.482   0.238   1.483 -0.2912 -0.6325  0.1523
17966SOL    HW155186   7.464   0.293   1.559  0.2824  0.7046 -0.6278
17966SOL    HW255187   7.398   0.197   1.461 -1.1083  1.0800 -0.0864
17967SOL     OW55188   4.237   1.934   7.978 -0.3100  0.0029 -0.4622
17967SOL    HW155189   4.247   2.017   8.025 -0.1244 -0.6780  0.7563
17967SOL    HW255190   4.259   1.955   7.887  1.8788  0.8484  0.1975
17968SOL     OW55191   6.284   6.586   2.499  0.2324  0.3290  0.2965
17968SOL    HW155192   6.234   6.667   2.491  1.3056  0.8120 -2.7223
17968SOL    HW255193   6.268   6.539   2.417  0.9073 -1.7993  1.2987
17969SOL     OW55194   1.923   4.697   0.740 -0.1307 -0.8189 -0.1103
17969SOL    HW155195   1.963   4.630   0.684 -2.0843 -2.2866  0.1462
17969SOL    HW255196   1.975   4.694   0.821  0.0849 -1.7268 -0.2641
17970SOL     OW55197   6.274   1.626   4.141  0.4476  0.3936 -0.6950
17970SOL    HW155198   6.182   1.612   4.166  0.8244 -3.2366 -0.7770
17970SOL    HW255199   6.269   1.671   4.056 -1.0943  2.5454  0.4225
17971SOL     OW55200   1.054   2.190   0.450 -0.2948  0.4195  0.6224
17971SOL    HW155201   1.061   2.276   0.409  1.1579 -0.0123 -0.1109
17971SOL    HW255202   1.025   2.209   0.539 -1.0604  1.5707  0.1611
17972SOL     OW55203   7.631   5.041   1.914  0.4944 -0.1243  0.3398
17972SOL    HW155204   7.564   5.107   1.900  0.6874 -0.1412 -0.7014
17972SOL    HW255205   7.714   5.086   1.895  0.6452 -0.5914 -0.1343
17973SOL     OW55206   0.719   6.083   0.697  0.0193 -0.1464  0.1479
17973SOL    HW155207   0.767   6.135   0.761  1.4622 -1.1681 -0.0513
17973SOL    HW255208   0.715   6.138   0.618  1.2147 -0.1801  0.0500
17974SOL     OW55209   0.503   0.071   3.458  0.0196 -0.0612 -0.0605
17974SOL    HW155210   0.476   0.097   3.546 -0.8765 -2.6597  0.4926
17974SOL    HW255211   0.521   0.154   3.414 -1.1382  1.3905  2.0297
17975SOL     OW55212   4.230   8.119   3.884 -0.1414  0.2236  0.0009
17975SOL    HW155213   4.236   8.025   3.903 -1.3098  0.1663  0.1819
17975SOL    HW255214   4.318   8.153   3.903  0.2635 -0.8056  0.0551
17976SOL     OW55215   2.051   2.217   7.834  0.4246  0.3599 -0.4066
17976SOL    HW155216   1.981   2.249   7.778  0.7913 -1.8338 -2.2690
17976SOL    HW255217   2.131   2.246   7.792  0.7333  2.2676  1.3434
17977SOL     OW55218   7.217   2.567   0.599 -0.2363 -0.1773 -0.2834
17977SOL    HW155219   7.212   2.502   0.529  1.3818 -0.1403 -0.4663
17977SOL    HW255220   7.287   2.626   0.573  0.2110  0.0060  1.2306
17978SOL     OW55221   4.807   6.940   4.082 -0.2585 -0.7363 -0.2146
17978SOL    HW155222   4.884   6.890   4.054 -0.6620 -1.3639 -0.2027
17978SOL    HW255223   4.798   7.009   4.016  1.4068  0.4921  0.7566
17979SOL     OW55224   6.523   7.333   1.714 -0.2045 -0.1912 -0.4479
17979SOL    HW155225   6.459   7.403   1.703  0.5362  0.4266 -0.9563
17979SOL    HW255226   6.604   7.369   1.677  0.5316 -0.8131  0.5001
17980SOL     OW55227   5.263   7.294   5.607 -0.1783 -0.3060 -0.0007
17980SOL    HW155228   5.358   7.283   5.600 -0.3528 -2.0476 -0.1038
17980SOL    HW255229   5.244   7.278   5.700 -0.5064 -1.4006 -0.2427
17981SOL     OW55230   7.411   8.262   3.302  0.0491  0.0668  0.2694
17981SOL    HW155231   7.441   8.225   3.219 -0.5509  0.4263 -0.1174
17981SOL    HW255232   7.489   8.266   3.357  0.7301  1.0261 -0.7320
17982SOL     OW55233   5.707   7.210   0.179 -0.1540  0.1194  0.7341
17982SOL    HW155234   5.653   7.180   0.252 -0.9862 -0.1068  0.0367
17982SOL    HW255235   5.681   7.302   0.167 -1.0289 -0.2267 -0.1508
17983SOL     OW55236   1.707   0.176   7.406  0.7931 -0.0699  0.1200
17983SOL    HW155237   1.769   0.110   7.375  1.3091  0.1498  0.6671
17983SOL    HW255238   1.621   0.134   7.397  0.8699  0.1314 -1.9485
17984SOL     OW55239   6.321   8.299   5.947 -0.5436 -0.1743 -0.2881
17984SOL    HW155240   6.355   8.388   5.955 -1.8810  0.4057 -0.7116
17984SOL    HW255241   6.324   8.264   6.035  1.9486 -0.4941 -0.4259
17985SOL     OW55242   3.336   1.889   2.233 -0.4087  0.1423  0.1808
17985SOL    HW155243   3.328   1.893   2.328  0.5066  0.3487  0.2587
17985SOL    HW255244   3.384   1.968   2.210  0.4932 -0.5336 -0.3206
17986SOL     OW55245   0.391   2.261   6.455  0.6005  0.3062 -0.1909
17986SOL    HW155246   0.477   2.265   6.496  0.0199 -1.3953  1.2980
17986SOL    HW255247   0.329   2.274   6.527 -0.4270 -0.0714 -0.9763
17987SOL     OW55248   7.776   4.661   8.185  0.3445  0.1550 -0.2364
17987SOL    HW155249   7.848   4.663   8.121  0.5380  1.1480 -0.0102
17987SOL    HW255250   7.752   4.753   8.196 -1.4132 -0.2053 -0.7909
17988SOL     OW55251   0.383   3.590   6.080 -0.4013 -0.1814 -0.3567
17988SOL    HW155252   0.347   3.678   6.081 -1.6879 -0.6954 -0.2095
17988SOL    HW255253   0.367   3.556   6.168 -0.0964 -0.6429 -0.4717
17989SOL     OW55254   3.309   6.694   4.975  0.1983 -0.4543  0.1867
17989SOL    HW155255   3.368   6.731   5.042  0.5657 -0.0006 -0.3803
17989SOL    HW255256   3.230   6.670   5.024 -0.4622  1.9889  0.4527
17990SOL     OW55257   4.562   5.663   5.264 -0.5051  0.9986  0.1609
17990SOL    HW155258   4.560   5.587   5.321  1.0469  0.5618 -0.3157
17990SOL    HW255259   4.543   5.737   5.322  0.4363  0.5003  1.1378
17991SOL     OW55260   1.167   1.163   8.048 -0.5276  0.0004  0.6377
17991SOL    HW155261   1.122   1.206   7.975  0.7954  1.8876  0.8539
17991SOL    HW255262   1.246   1.126   8.009  0.6226  1.7462  1.1571
17992SOL     OW55263   7.965   4.218   3.989 -0.2308  0.3644 -0.0683
17992SOL    HW155264   8.036   4.238   3.929  1.4980 -0.8592  1.4598
17992SOL    HW255265   7.920   4.301   4.003  0.4654  1.0252 -1.5684
17993SOL     OW55266   7.980   8.031   5.183  0.2017  0.4624 -0.7852
17993SOL    HW155267   7.951   8.122   5.189  0.1895  0.8762 -4.7657
17993SOL    HW255268   7.908   7.985   5.140  0.8269 -1.1608 -0.1940
17994SOL     OW55269   1.926   5.903   6.096  0.7276  0.1680  0.5386
17994SOL    HW155270   2.018   5.919   6.117  0.9676  0.7520 -0.9013
17994SOL    HW255271   1.924   5.886   6.002 -0.6577  0.2778  0.5181
17995SOL     OW55272   7.500   6.161   6.355  0.1757 -0.1016 -0.1650
17995SOL    HW155273   7.554   6.122   6.286  1.0682  0.4819  0.1830
17995SOL    HW255274   7.425   6.102   6.363  0.7111 -0.8842 -0.7246
17996SOL     OW55275   0.446   3.868   5.404  0.0164 -0.8007  0.2741
17996SOL    HW155276   0.380   3.831   5.461 -2.0605  0.5669 -1.1007
17996SOL    HW255277   0.444   3.813   5.325  1.2331 -1.3132  0.5767
17997SOL     OW55278   3.973   3.191   4.324  0.0026 -0.2077 -1.1081
17997SOL    HW155279   3.954   3.163   4.235 -1.0950 -2.7202 -0.1494
17997SOL    HW255280   3.931   3.126   4.380  0.1498  1.6201  1.2819
17998SOL     OW55281   0.636   6.122   6.929  0.3465  0.0844 -0.7112
17998SOL    HW155282   0.680   6.206   6.940 -0.3010  0.2558  0.8044
17998SOL    HW255283   0.563   6.125   6.991 -0.5702 -1.0046 -1.7029
17999SOL     OW55284   2.388   3.454   5.241  0.0612 -0.1553 -0.0132
17999SOL    HW155285   2.300   3.436   5.274 -0.1440  2.1744  0.9674
17999SOL    HW255286   2.402   3.547   5.262  2.3941 -0.2250 -0.9842
18000SOL     OW55287   2.953   7.378   4.862 -0.7371 -0.1754  0.3121
18000SOL    HW155288   3.001   7.398   4.782  1.0461  0.8130  1.5709
18000SOL    HW255289   2.919   7.463   4.891 -0.8866 -0.4355  0.9093
18001SOL     OW55290   8.040   2.264   5.780 -0.3248  0.0187 -0.1564
18001SOL    HW155291   8.110   2.292   5.839 -0.5362 -0.7070  0.4558
18001SOL    HW255292   7.961   2.264   5.834 -0.3696 -1.5325 -0.1618
18002SOL     OW55293   5.170   7.303   5.874  0.1372  0.2290 -0.3415
18002SOL    HW155294   5.142   7.225   5.922  0.2948 -1.6638 -3.1188
18002SOL    HW255295   5.242   7.338   5.927  1.2490 -2.5247  0.1666
18003SOL     OW55296   4.164   1.552   3.745  0.1678  0.0259  0.2653
18003SOL    HW155297   4.162   1.547   3.649  1.9806 -0.1795  0.1983
18003SOL    HW255298   4.203   1.469   3.773  3.7740  1.7413  0.8536
18004SOL     OW55299   3.846   1.451   1.960 -0.0280 -0.3824  0.2328
18004SOL    HW155300   3.869   1.362   1.984  0.5718 -0.6729 -1.3194
18004SOL    HW255301   3.766   1.442   1.907  0.5926 -0.1138 -0.7707
18005SOL     OW55302   3.178   5.429   3.811 -0.3263 -0.0975 -0.1883
18005SOL    HW155303   3.248   5.471   3.861  1.2680 -0.2708 -2.1679
18005SOL    HW255304   3.155   5.352   3.863  0.3188  0.4328  0.9309
18006SOL     OW55305   8.561   6.131   7.161 -0.2518  0.3488  0.4122
18006SOL    HW155306   8.476   6.095   7.184  0.0659  0.4166  1.7433
18006SOL    HW255307   8.613   6.055   7.136 -0.6479  0.2976 -0.3111
18007SOL     OW55308   7.960   0.607   2.385 -0.0930  0.3555  0.0727
18007SOL    HW155309   7.929   0.645   2.467 -0.5810 -2.3707  1.2874
18007SOL    HW255310   7.881   0.601   2.330 -0.2764 -0.0773  0.3812
18008SOL     OW55311   8.626   1.976   6.511 -0.2339  0.5113 -0.1620
18008SOL    HW155312   8.659   2.045   6.453  1.3891 -0.3202 -0.2995
18008SOL    HW255313   8.667   1.896   6.478 -0.2335 -0.1581  1.3893
18009SOL     OW55314   4.692   6.497   7.012  0.5157 -0.0954 -0.0743
18009SOL    HW155315   4.630   6.539   7.071  0.5280 -2.0069  1.3958
18009SOL    HW255316   4.668   6.530   6.925 -1.1825  0.8081  0.6772
18010SOL     OW55317   7.187   2.315   6.567  0.0209 -0.5934 -0.4009
18010SOL    HW155318   7.185   2.308   6.472 -0.6192 -2.7992 -0.2862
18010SOL    HW255319   7.096   2.300   6.594  0.3582 -0.9615  0.5983
18011SOL     OW55320   6.200   0.726   6.970 -0.2762 -0.4569  0.3695
18011SOL    HW155321   6.237   0.713   7.058  1.9844 -1.2528 -0.6310
18011SOL    HW255322   6.233   0.811   6.942  0.2572 -0.8697 -0.2762
18012SOL     OW55323   2.148   7.197   1.319 -0.2444 -0.3617 -0.0242
18012SOL    HW155324   2.179   7.114   1.283  0.3736 -0.1753  0.0686
18012SOL    HW255325   2.217   7.260   1.298 -1.3021  0.4336 -1.2659
18013SOL     OW55326   6.876   7.972   4.785  0.0087 -0.2075  0.2610
18013SOL    HW155327   6.931   8.046   4.761  0.3151 -0.0107  1.4729
18013SOL    HW255328   6.794   7.985   4.737  0.7743 -0.1757 -1.1015
18014SOL     OW55329   3.864   6.931   3.248  0.5605  0.2144  0.8692
18014SOL    HW155330   3.902   6.996   3.189  1.1803  0.2330  1.2906
18014SOL    HW255331   3.926   6.858   3.247 -0.7149 -0.9136 -0.5576
18015SOL     OW55332   6.443   8.438   6.367 -0.1700 -0.0734  0.1730
18015SOL    HW155333   6.372   8.381   6.398 -0.6060  0.5218  0.2767
18015SOL    HW255334   6.478   8.393   6.290  0.0531 -0.9100  0.7515
18016SOL     OW55335   7.932   4.262   3.387  0.0514  0.1675 -0.3923
18016SOL    HW155336   7.988   4.207   3.332  0.9226 -0.9016  1.4621
18016SOL    HW255337   7.993   4.319   3.435 -0.6274  0.6941 -0.1370
18017SOL     OW55338   0.230   6.057   0.319  0.5173  0.3063 -0.5283
18017SOL    HW155339   0.233   5.963   0.333  1.9075  0.5027  0.8392
18017SOL    HW255340   0.319   6.087   0.337 -0.1814  2.0282  0.3735
18018SOL     OW55341   6.476   7.138   5.861 -0.0352  0.2858  0.0320
18018SOL    HW155342   6.518   7.192   5.927  1.5557 -1.5255  0.5948
18018SOL    HW255343   6.487   7.048   5.892 -2.5756 -0.4215 -0.8502
18019SOL     OW55344   6.365   6.238   6.412  0.3319  0.7308 -0.1793
18019SOL    HW155345   6.324   6.258   6.496 -1.4911  2.2519 -1.3685
18019SOL    HW255346   6.458   6.260   6.425  0.3642 -0.3550  1.7938
18020SOL     OW55347   4.766   4.795   7.830 -0.9851  0.1885 -0.2286
18020SOL    HW155348   4.833   4.830   7.771 -1.6338  1.9146  0.0159
18020SOL    HW255349   4.789   4.830   7.916 -1.8233  0.2510 -0.0253
18021SOL     OW55350   3.096   5.105   3.126  0.2844 -0.1412 -1.0394
18021SOL    HW155351   3.142   5.023   3.145  0.9974  0.5324  0.2426
18021SOL    HW255352   3.081   5.145   3.211 -0.6104  0.7835 -1.6074
18022SOL     OW55353   0.018   4.172   8.068 -0.8003 -0.3876  0.4505
18022SOL    HW155354  -0.031   4.102   8.111 -0.8932 -0.9895 -0.6008
18022SOL    HW255355   0.109   4.142   8.069 -1.0608 -1.3955 -1.5673
18023SOL     OW55356   0.309   0.992   0.224  0.3649 -0.5039  0.5643
18023SOL    HW155357   0.231   1.046   0.212  0.0184 -0.6142  2.1610
18023SOL    HW255358   0.275   0.903   0.237  0.7745 -0.6061  0.9434
18024SOL     OW55359   1.604   7.208   6.586  0.3872 -0.1226  0.2346
18024SOL    HW155360   1.615   7.301   6.608  1.5746 -0.0001 -0.7668
18024SOL    HW255361   1.692   7.172   6.589 -0.2290 -1.6479  2.2434
18025SOL     OW55362   8.070   2.788   4.785  0.1291 -0.0917 -0.0220
18025SOL    HW155363   8.131   2.841   4.733 -1.2522  0.3109 -1.2860
18025SOL    HW255364   8.061   2.836   4.868  0.0586  0.8615 -0.5671
18026SOL     OW55365   0.855   2.308   2.756 -0.1578 -0.7197  0.3112
18026SOL    HW155366   0.923   2.242   2.747 -0.4478 -0.8775 -0.8224
18026SOL    HW255367   0.836   2.337   2.667 -1.5823 -0.7026  0.5882
18027SOL     OW55368   1.030   1.321   8.217 -0.6607  0.2128 -0.4202
18027SOL    HW155369   1.060   1.254   8.156  1.2482  1.1545 -0.5939
18027SOL    HW255370   1.044   1.403   8.172 -0.9124  0.8388  0.6049
18028SOL     OW55371   0.507   5.785   6.656  0.2805  0.7609  0.6597
18028SOL    HW155372   0.568   5.760   6.725  1.2401 -0.9480 -0.7261
18028SOL    HW255373   0.466   5.702   6.629  1.4964  0.9767 -2.2176
18029SOL     OW55374   0.650   3.168   0.777  0.3375 -0.2254  0.0454
18029SOL    HW155375   0.680   3.087   0.818  0.8647  0.5626  1.2908
18029SOL    HW255376   0.557   3.174   0.801  0.4460 -0.1802  0.4780
18030SOL     OW55377   0.030   1.120   1.193  0.1011 -0.3761  0.2979
18030SOL    HW155378  -0.044   1.110   1.254  1.4926  0.4235  2.2174
18030SOL    HW255379   0.101   1.069   1.233  2.1440  2.9610  1.3455
18031SOL     OW55380   2.248   1.890   7.774 -0.3978 -0.0918  0.0393
18031SOL    HW155381   2.234   1.893   7.679 -0.3244  3.6585 -0.0337
18031SOL    HW255382   2.287   1.975   7.794 -2.0915  0.0108  3.6804
18032SOL     OW55383   8.386   8.707   2.938 -0.0088  0.5545  0.6950
18032SOL    HW155384   8.427   8.630   2.900  0.4596 -0.3986  2.9808
18032SOL    HW255385   8.295   8.704   2.908  0.6609  0.7362 -1.5307
18033SOL     OW55386   4.848   8.480   2.246  0.8378 -0.2201  0.4707
18033SOL    HW155387   4.792   8.440   2.180  3.3817 -1.0906 -1.3214
18033SOL    HW255388   4.820   8.441   2.329  1.5151 -3.9214 -0.8704
18034SOL     OW55389   2.274   0.419   3.979  0.3159 -0.1231 -0.4514
18034SOL    HW155390   2.249   0.395   4.069 -0.0511  2.8199  0.3130
18034SOL    HW255391   2.336   0.490   3.989  0.5232  0.0538 -2.5606
18035SOL     OW55392   7.642   2.761   1.336  0.4769  0.5985 -0.4896
18035SOL    HW155393   7.590   2.695   1.290 -2.9285  1.3536  1.8933
18035SOL    HW255394   7.691   2.711   1.401 -2.7947  0.2262  1.9454
18036SOL     OW55395   5.062   8.421   2.609  0.2753  0.3034  0.1194
18036SOL    HW155396   4.967   8.432   2.603  0.4002  1.1207 -0.4900
18036SOL    HW255397   5.073   8.344   2.665 -0.8043 -1.7729 -2.3326
18037SOL     OW55398   2.914   5.279   8.437 -0.1212 -0.5425 -0.0004
18037SOL    HW155399   3.002   5.243   8.452 -0.0318 -1.4083 -2.2471
18037SOL    HW255400   2.855   5.211   8.469  0.0166 -0.5281  0.2945
18038SOL     OW55401   3.183   3.283   1.335  0.0438  0.6259  0.3936
18038SOL    HW155402   3.248   3.353   1.343 -0.5627  1.1093  1.2393
18038SOL    HW255403   3.214   3.230   1.262  2.2526 -0.0382  1.6805
18039SOL     OW55404   3.719   0.248   1.966 -0.4039 -0.3906 -0.1956
18039SOL    HW155405   3.628   0.269   1.988 -0.2771 -1.0955  1.1419
18039SOL    HW255406   3.748   0.189   2.036  1.7042  1.3756  0.5467
18040SOL     OW55407   5.931   8.017   3.655  0.3098 -0.0964  0.0086
18040SOL    HW155408   6.015   8.002   3.699  0.2580 -1.7785 -0.3954
18040SOL    HW255409   5.955   8.036   3.564  0.2610 -3.1383 -0.7556
18041SOL     OW55410   6.926   2.641   6.175  0.1670 -0.1991 -0.0976
18041SOL    HW155411   6.927   2.589   6.095 -1.3868  0.5614 -0.6568
18041SOL    HW255412   7.017   2.644   6.203  1.0504  0.9086 -2.7764
18042SOL     OW55413   0.819   5.754   5.896 -0.0919 -0.0758  0.2612
18042SOL    HW155414   0.778   5.689   5.839 -0.3985  1.0490 -0.8400
18042SOL    HW255415   0.745   5.797   5.940  0.0731 -0.1179  0.5753
18043SOL     OW55416   0.959   1.104   1.234 -0.1465  0.6032  0.2649
18043SOL    HW155417   1.044   1.085   1.195 -1.3331  0.0806 -2.3422
18043SOL    HW255418   0.945   1.036   1.299 -0.1742 -1.7910 -2.0815
18044SOL     OW55419   2.063   0.452   2.302  0.1975 -0.6490  0.7647
18044SOL    HW155420   1.982   0.493   2.269  0.4254  0.5790  1.6456
18044SOL    HW255421   2.090   0.393   2.231 -0.5062  0.2522 -0.3058
18045SOL     OW55422   5.009   5.492   3.714  0.5567  0.0301 -0.0710
18045SOL    HW155423   5.038   5.555   3.648  0.4723  0.5107  0.3397
18045SOL    HW255424   4.919   5.472   3.690  0.9654 -0.8836 -0.9102
18046SOL     OW55425   7.346   0.070   3.030  0.0179 -0.4575 -0.5087
18046SOL    HW155426   7.260   0.075   3.071 -0.9614  0.5809 -2.5741
18046SOL    HW255427   7.332   0.020   2.950  1.1579  0.4056 -1.2852
18047SOL     OW55428   4.641   0.170   7.867  0.5424  0.1001  0.1899
18047SOL    HW155429   4.700   0.124   7.926  0.0644 -0.3059  0.3641
18047SOL    HW255430   4.574   0.105   7.845  0.9052  0.1501 -1.0760
18048SOL     OW55431   7.507   2.323   3.885  0.0537  0.2521 -0.2728
18048SOL    HW155432   7.546   2.348   3.800  1.4775  0.3724  0.3882
18048SOL    HW255433   7.532   2.394   3.944  1.9827 -1.4239  1.0360
18049SOL     OW55434   8.438   0.709   6.081 -0.0056  0.1301  0.1644
18049SOL    HW155435   8.468   0.696   6.171 -1.8997 -1.9507  0.6006
18049SOL    HW255436   8.344   0.689   6.085 -0.5676  2.0547 -1.8968
18050SOL     OW55437   7.242   7.889   8.484 -0.2860  0.1518  0.3058
18050SOL    HW155438   7.287   7.809   8.511 -1.7996 -0.5342  0.8797
18050SOL    HW255439   7.252   7.949   8.558  1.8430  0.9711 -0.5692
18051SOL     OW55440   6.325   8.127   5.481  0.0404 -0.4538  0.0192
18051SOL    HW155441   6.415   8.155   5.499 -0.6625  0.8507  1.8120
18051SOL    HW255442   6.333   8.033   5.460  1.8577 -0.2205 -0.5469
18052SOL     OW55443   7.859   8.630   4.832  0.1213 -0.4115  0.2912
18052SOL    HW155444   7.941   8.615   4.786 -0.7945 -2.0266 -0.9669
18052SOL    HW255445   7.792   8.596   4.772 -1.3606 -0.1870  1.7438
18053SOL     OW55446   7.360   1.811   4.946  0.7249  0.6104 -0.1980
18053SOL    HW155447   7.312   1.765   5.015 -0.0986  1.1018 -0.4372
18053SOL    HW255448   7.365   1.748   4.874  0.7848  0.4208 -0.0289
18054SOL     OW55449   7.869   5.891   6.730 -0.1900  0.1117 -0.1064
18054SOL    HW155450   7.776   5.904   6.748 -0.2790  0.1666 -0.5763
18054SOL    HW255451   7.915   5.951   6.788 -0.4871  0.7132 -0.4892
18055SOL     OW55452   2.605   3.072   8.402 -0.6863  0.1966  0.1358
18055SOL    HW155453   2.669   3.001   8.404 -0.5373  0.3030 -0.4563
18055SOL    HW255454   2.582   3.087   8.494 -1.1661 -1.0116  0.2311
18056SOL     OW55455   4.543   6.839   7.030 -0.3670 -0.0463 -0.0384
18056SOL    HW155456   4.470   6.783   7.058  0.0157 -0.4478  0.1706
18056SOL    HW255457   4.602   6.841   7.106  1.1551 -1.9272 -1.0964
18057SOL     OW55458   8.221   8.045   5.288 -0.9834  0.5638  0.4720
18057SOL    HW155459   8.137   8.027   5.247 -0.3935  1.6289 -1.3410
18057SOL    HW255460   8.212   8.133   5.325 -1.0559  0.1759  1.3934
18058SOL     OW55461   0.139   4.390   1.604 -0.2773  0.1638 -0.3724
18058SOL    HW155462   0.209   4.388   1.669 -0.5432  0.8722 -0.0620
18058SOL    HW255463   0.131   4.298   1.576  0.2444 -0.0510  0.1487
18059SOL     OW55464   3.732   5.371   2.754 -0.1174  0.1284 -0.1466
18059SOL    HW155465   3.721   5.359   2.660  2.2958  0.1646 -0.4931
18059SOL    HW255466   3.730   5.466   2.767  0.9921  0.2037 -0.4095
18060SOL     OW55467   8.262   1.153   6.871  0.6219  0.4065  0.1450
18060SOL    HW155468   8.268   1.247   6.851  0.6778  0.7763  1.7337
18060SOL    HW255469   8.230   1.150   6.961 -0.8202 -1.1441 -0.3655
18061SOL     OW55470   2.355   1.751   8.634 -0.3812 -0.4600 -0.2177
18061SOL    HW155471   2.421   1.778   8.569 -1.0288 -0.4256 -0.8660
18061SOL    HW255472   2.371   1.809   8.709  0.3343 -0.4578 -0.3640
18062SOL     OW55473   5.954   5.247   0.622 -0.3017  0.1839  0.4622
18062SOL    HW155474   5.908   5.164   0.614 -0.0115  0.1091 -0.5735
18062SOL    HW255475   5.901   5.309   0.573 -0.5746  0.6549  1.3203
18063SOL     OW55476   2.074   2.240   3.058  0.1420 -0.1860 -0.2616
18063SOL    HW155477   2.147   2.302   3.068 -2.7575  3.5134  0.0290
18063SOL    HW255478   2.052   2.215   3.148  0.1793 -0.1798 -0.2506
18064SOL     OW55479   1.340   7.140   1.813  0.0994  0.1968 -0.1921
18064SOL    HW155480   1.343   7.228   1.851  0.2998  0.0806  0.0633
18064SOL    HW255481   1.382   7.150   1.727 -2.0940  0.8783 -1.2681
18065SOL     OW55482   7.207   7.462   5.509  0.1279 -0.0383 -0.1555
18065SOL    HW155483   7.180   7.553   5.523 -0.1356  0.0498 -1.1877
18065SOL    HW255484   7.197   7.421   5.595  0.3390  0.9286  0.3402
18066SOL     OW55485   1.610   4.484   6.531  0.0244 -0.0099 -0.0043
18066SOL    HW155486   1.659   4.557   6.567  1.9959 -1.1329 -0.2364
18066SOL    HW255487   1.616   4.415   6.597  0.6379 -0.8977 -0.9447
18067SOL     OW55488   1.113   8.623   5.053 -0.1011 -0.0576 -0.5460
18067SOL    HW155489   1.069   8.698   5.011 -0.4077  0.1741  0.1818
18067SOL    HW255490   1.179   8.596   4.989 -1.4151 -0.5359 -1.7505
18068SOL     OW55491   1.229   7.898   8.047  0.1104 -0.2327  0.0824
18068SOL    HW155492   1.193   7.880   7.960  2.4886 -0.8516 -0.8766
18068SOL    HW255493   1.278   7.819   8.069  1.9226  0.9897  0.6775
18069SOL     OW55494   7.272   3.899   6.387  0.5240  0.5088 -0.0339
18069SOL    HW155495   7.277   3.888   6.482  5.2267  1.2129  0.0332
18069SOL    HW255496   7.282   3.811   6.351 -1.1769  0.2528  0.0512
18070SOL     OW55497   4.514   4.189   3.057 -0.0593  0.2505  0.0063
18070SOL    HW155498   4.581   4.190   3.125  0.3059  1.2565 -0.3550
18070SOL    HW255499   4.474   4.276   3.061  0.2352  0.4660 -1.3262
18071SOL     OW55500   5.285   4.546   3.047  0.0623 -0.3456  0.2657
18071SOL    HW155501   5.254   4.611   3.111 -0.6121  1.7403 -2.0377
18071SOL    HW255502   5.312   4.598   2.972 -0.2264 -2.7572 -1.6173
18072SOL     OW55503   3.626   8.295   6.295 -0.6838 -0.6734 -0.7213
18072SOL    HW155504   3.587   8.231   6.236  0.2518 -0.2065 -1.8813
18072SOL    HW255505   3.721   8.285   6.282 -0.5224  0.8991 -0.8894
18073SOL     OW55506   2.737   2.401   8.707 -0.1948 -0.3039  0.1369
18073SOL    HW155507   2.786   2.338   8.654  2.4436 -0.8108  2.9202
18073SOL    HW255508   2.782   2.484   8.693 -0.6442 -0.0408  0.2172
18074SOL     OW55509   2.415   5.565   1.319  0.0006 -0.0577 -0.3203
18074SOL    HW155510   2.374   5.621   1.385  1.2621  0.5321 -0.0004
18074SOL    HW255511   2.503   5.550   1.353 -0.0194 -1.5111 -0.8505
18075SOL     OW55512   3.103   5.381   4.875  0.1480 -0.0398 -0.0777
18075SOL    HW155513   3.095   5.457   4.932  3.4535  0.0431  0.4690
18075SOL    HW255514   3.120   5.308   4.934  0.9226 -0.4686 -0.8125
18076SOL     OW55515   1.317   0.791   0.507  0.0212  0.0092 -0.1287
18076SOL    HW155516   1.228   0.816   0.532  0.2724  1.2760 -0.4551
18076SOL    HW255517   1.367   0.872   0.510  1.5325 -0.9138  1.4882
18077SOL     OW55518   1.914   3.091   5.425  0.3183  0.1906  0.0708
18077SOL    HW155519   1.889   3.061   5.337  0.6388 -1.6335  0.5568
18077SOL    HW255520   1.851   3.050   5.483  0.0296  1.4949  0.7123
18078SOL     OW55521   3.698   2.480   7.283  0.2890 -0.0468  0.2096
18078SOL    HW155522   3.691   2.572   7.258  0.5184 -0.1658 -0.3034
18078SOL    HW255523   3.607   2.451   7.293  0.1705  1.0873  3.6829
18079SOL     OW55524   8.079   1.545   0.308 -0.0494  0.3022  0.0281
18079SOL    HW155525   8.053   1.483   0.376 -2.3498  0.9931 -0.1387
18079SOL    HW255526   8.035   1.513   0.229  0.3337  1.0617 -0.5103
18080SOL     OW55527   6.652   3.924   0.471  0.4658  0.4405  0.2868
18080SOL    HW155528   6.638   3.839   0.430  0.5455  0.2578  0.6356
18080SOL    HW255529   6.567   3.968   0.465  0.8043  0.9554 -1.2805
18081SOL     OW55530   3.450   1.466   8.239 -0.4807 -0.5878  0.0896
18081SOL    HW155531   3.539   1.484   8.268 -0.6204  0.4662 -0.0751
18081SOL    HW255532   3.423   1.546   8.193 -1.7442 -0.6136  0.7206
18082SOL     OW55533   7.211   6.680   8.221 -0.1457 -0.5994  0.1390
18082SOL    HW155534   7.247   6.620   8.287  2.3358  1.5925  0.9668
18082SOL    HW255535   7.127   6.709   8.259  0.6931 -0.2643  1.8604
18083SOL     OW55536   0.084   0.767   8.627 -0.1260 -0.0651 -0.9767
18083SOL    HW155537  -0.011   0.770   8.636 -0.2078 -3.3310  0.7917
18083SOL    HW255538   0.099   0.708   8.553  0.5069 -0.2095 -0.7416
18084SOL     OW55539   2.977   2.844   2.381  0.0318  0.1781 -0.0176
18084SOL    HW155540   2.983   2.904   2.456  0.7359  1.6128 -1.1706
18084SOL    HW255541   2.929   2.893   2.315 -1.2650 -1.3731 -0.2550
18085SOL     OW55542   2.622   2.603   3.775  0.6329 -0.2154  0.3557
18085SOL    HW155543   2.574   2.671   3.727 -0.7431 -2.0438 -1.0238
18085SOL    HW255544   2.564   2.579   3.847  1.2450  0.2232  1.0146
18086SOL     OW55545   6.417   1.342   8.331 -0.0276  0.1051 -0.2512
18086SOL    HW155546   6.327   1.350   8.299  0.4610 -0.0293 -1.7737
18086SOL    HW255547   6.437   1.249   8.320 -0.2855 -0.2372  1.8355
18087SOL     OW55548   2.073   7.988   6.170  0.3636  0.4264  0.2044
18087SOL    HW155549   2.008   7.924   6.142  0.7959  0.2062 -0.3035
18087SOL    HW255550   2.025   8.047   6.229  0.2596 -1.1204  1.7428
18088SOL     OW55551   3.557   8.360   8.443  0.0815  0.8094  0.2999
18088SOL    HW155552   3.490   8.325   8.502  1.2281  0.2163  1.3039
18088SOL    HW255553   3.517   8.439   8.405 -1.2723  0.3177  0.6474
18089SOL     OW55554   5.823   3.599   2.788  0.2943  0.2503 -0.0436
18089SOL    HW155555   5.907   3.636   2.760  0.9691 -0.6663  0.7207
18089SOL    HW255556   5.830   3.593   2.883 -0.4261 -0.3623 -0.0220
18090SOL     OW55557   6.954   0.514   1.336  0.2099  0.6498 -0.4775
18090SOL    HW155558   6.891   0.470   1.393 -1.8842  3.2174 -0.5614
18090SOL    HW255559   7.038   0.472   1.354 -1.1385 -1.4422  1.3394
18091SOL     OW55560   5.703   1.392   1.841  0.0103 -0.3790 -0.2509
18091SOL    HW155561   5.724   1.427   1.927  0.5057 -1.6531  0.1650
18091SOL    HW255562   5.779   1.412   1.787  0.2371 -0.6739 -0.0478
18092SOL     OW55563   0.276   0.467   1.357  0.0109  0.6134  0.7570
18092SOL    HW155564   0.321   0.434   1.279 -0.8824 -0.1458  0.5434
18092SOL    HW255565   0.223   0.540   1.325 -0.4548  0.2212  0.6086
18093SOL     OW55566   4.720   5.485   3.206 -0.4881 -0.0095  0.8734
18093SOL    HW155567   4.676   5.569   3.189 -1.7140 -0.7074  0.4224
18093SOL    HW255568   4.655   5.434   3.254  0.5677 -0.3997  1.9124
18094SOL     OW55569   4.332   0.839   3.572 -0.2163  0.3726  0.0716
18094SOL    HW155570   4.336   0.917   3.516  0.2392  1.4785  1.5677
18094SOL    HW255571   4.271   0.863   3.642 -1.7023 -1.4188 -0.5458
18095SOL     OW55572   5.693   4.792   1.874 -0.1001 -0.1633 -0.1087
18095SOL    HW155573   5.752   4.737   1.925  0.6072 -0.1397 -0.8870
18095SOL    HW255574   5.673   4.866   1.932  3.3549  1.6318 -0.9186
18096SOL     OW55575   8.524   8.396   3.821  0.0456  0.1801 -0.5938
18096SOL    HW155576   8.609   8.357   3.800  0.5549  0.9618 -0.0410
18096SOL    HW255577   8.518   8.472   3.763 -0.0665  0.3835 -0.3200
18097SOL     OW55578   0.738   7.643   4.679 -0.3730 -0.2456 -0.2772
18097SOL    HW155579   0.695   7.726   4.702  0.6635  0.6633 -1.4774
18097SOL    HW255580   0.692   7.578   4.731 -3.3710  0.6272 -1.5822
18098SOL     OW55581   0.076   8.364   3.726 -0.0039  0.5033  0.2390
18098SOL    HW155582   0.085   8.457   3.702  2.8747  0.7767  1.8326
18098SOL    HW255583   0.134   8.318   3.665  0.2799  0.0592  0.8359
18099SOL     OW55584   1.097   8.197   1.879  0.6024  0.1441  0.9021
18099SOL    HW155585   1.068   8.236   1.961 -0.5414  0.6866  0.2648
18099SOL    HW255586   1.084   8.266   1.814  0.9966 -0.4576  0.1692
18100SOL     OW55587   5.016   4.655   1.391  0.4293 -0.8346  0.4521
18100SOL    HW155588   5.042   4.663   1.482 -1.7751  0.7616  0.9895
18100SOL    HW255589   5.099   4.657   1.343  1.4801  2.0219  2.1790
18101SOL     OW55590   5.490   7.856   1.176  0.4841 -0.3046  0.6463
18101SOL    HW155591   5.502   7.948   1.197  0.7966 -0.2111  0.0946
18101SOL    HW255592   5.503   7.851   1.081 -2.4026 -0.4585  0.1842
18102SOL     OW55593   3.961   1.739   2.061 -0.2649  0.6760  0.2987
18102SOL    HW155594   4.028   1.802   2.086  0.5735  0.1784 -0.6092
18102SOL    HW255595   3.994   1.655   2.093 -1.7860  0.7691  2.2843
18103SOL     OW55596   5.746   2.028   2.276 -0.1856 -0.0759 -0.1217
18103SOL    HW155597   5.654   2.001   2.284  0.0582 -0.4037  2.0437
18103SOL    HW255598   5.791   1.980   2.345  1.5668  0.3746 -0.9136
18104SOL     OW55599   5.933   4.864   0.163 -0.4325  0.2267 -0.0653
18104SOL    HW155600   5.979   4.859   0.079 -0.8662 -1.9047 -0.2301
18104SOL    HW255601   5.874   4.789   0.163  0.2403 -0.4158  2.5396
18105SOL     OW55602   7.790   6.364   1.036  0.0423  0.2234  0.2453
18105SOL    HW155603   7.748   6.365   1.122  0.3018  0.4032  0.3713
18105SOL    HW255604   7.848   6.288   1.037 -1.1187 -0.6994 -0.3416
18106SOL     OW55605   3.528   7.861   7.057 -0.2030  0.5359  0.2408
18106SOL    HW155606   3.454   7.904   7.101  0.5087  0.4209  1.6024
18106SOL    HW255607   3.582   7.828   7.129  0.9531  0.2373 -0.7475
18107SOL     OW55608   2.534   5.036   2.088  0.5511  0.0851  0.0461
18107SOL    HW155609   2.609   5.092   2.070 -0.4896  1.8540  0.8984
18107SOL    HW255610   2.538   5.021   2.182  1.0931 -1.7677 -0.2336
18108SOL     OW55611   4.677   2.291   6.159 -0.1159 -0.4490  0.2589
18108SOL    HW155612   4.725   2.220   6.202  0.2680 -0.0867  0.4346
18108SOL    HW255613   4.590   2.254   6.141 -0.1898 -0.7007  1.0913
18109SOL     OW55614   1.702   8.604   6.019  0.3466 -0.7659 -0.0961
18109SOL    HW155615   1.607   8.595   6.029 -0.1283  1.9988 -1.2751
18109SOL    HW255616   1.730   8.654   6.096  0.7203 -0.8630 -0.1675
18110SOL     OW55617   2.290   8.112   2.791  0.0534 -0.2649  0.1084
18110SOL    HW155618   2.340   8.033   2.811  0.7872  0.3177  0.6116
18110SOL    HW255619   2.225   8.118   2.861 -0.8555 -1.1036 -0.6265
18111SOL     OW55620   4.915   2.121   3.884  0.6566 -0.3239  0.3335
18111SOL    HW155621   4.994   2.157   3.922  0.8330 -1.3243  0.9471
18111SOL    HW255622   4.846   2.182   3.909  0.9756 -0.3096  1.1862
18112SOL     OW55623   7.920   2.498   6.695 -0.2005 -0.3719 -0.6125
18112SOL    HW155624   7.919   2.406   6.720  0.1276  0.1587  1.5661
18112SOL    HW255625   7.996   2.534   6.740 -0.8181  1.1420 -0.7237
18113SOL     OW55626   3.459   8.608   8.381 -0.4147 -0.1598  0.1012
18113SOL    HW155627   3.399   8.636   8.311 -0.8244 -0.1337  0.4557
18113SOL    HW255628   3.545   8.637   8.351 -1.0286  3.8496  1.5299
18114SOL     OW55629   2.620   8.192   4.270 -0.6655  0.1897  0.5838
18114SOL    HW155630   2.578   8.124   4.321  1.0174 -1.6502 -0.3520
18114SOL    HW255631   2.604   8.167   4.179  0.8263  0.4402  0.2205
18115SOL     OW55632   5.450   5.874   7.309 -0.2465 -0.1161 -0.4530
18115SOL    HW155633   5.454   5.792   7.359  0.2355 -0.7917 -1.5671
18115SOL    HW255634   5.466   5.848   7.219 -1.0667  1.0849 -0.9773
18116SOL     OW55635   0.100   7.713   6.079  0.4023 -0.1610  0.3490
18116SOL    HW155636   0.130   7.622   6.086  1.8817  0.3856  2.0590
18116SOL    HW255637   0.071   7.735   6.168 -2.5686  0.2612 -0.6168
18117SOL     OW55638   8.621   2.351   1.273 -1.1817  1.1955  0.4591
18117SOL    HW155639   8.622   2.340   1.178 -1.0377 -1.0889  0.6699
18117SOL    HW255640   8.528   2.349   1.297 -1.1853  1.0195  0.4315
18118SOL     OW55641   2.879   7.760   3.010  0.3247  0.0884 -0.1166
18118SOL    HW155642   2.889   7.843   3.057 -0.5822 -0.0403  0.3207
18118SOL    HW255643   2.890   7.693   3.077  2.0847 -0.1897 -0.6508
18119SOL     OW55644   1.800   1.759   7.608 -0.2345 -0.3894 -0.6759
18119SOL    HW155645   1.824   1.790   7.521  1.0946  2.7070  0.6402
18119SOL    HW255646   1.882   1.762   7.658 -0.9631 -2.0514  0.7427
18120SOL     OW55647   8.098   3.827   8.211 -0.2171  0.2983  0.1842
18120SOL    HW155648   8.034   3.786   8.152  1.8324 -3.1395  0.0820
18120SOL    HW255649   8.153   3.755   8.240  0.9073  2.3750  3.8241
18121SOL     OW55650   1.410   2.588   1.007 -0.6937 -0.0627 -0.3524
18121SOL    HW155651   1.372   2.642   0.938 -0.5110 -2.1144 -2.1675
18121SOL    HW255652   1.349   2.595   1.081 -0.8905  2.1907 -0.6679
18122SOL     OW55653   8.495   3.427   3.182  0.3184 -0.7015 -0.3830
18122SOL    HW155654   8.441   3.367   3.129 -0.7472 -0.0598 -0.0548
18122SOL    HW255655   8.580   3.383   3.189 -0.2335 -1.8591 -0.7134
18123SOL     OW55656   6.946   1.624   0.094 -0.2640 -0.3077 -0.3030
18123SOL    HW155657   6.908   1.674   0.166 -0.9318 -0.5196 -0.5076
18123SOL    HW255658   6.898   1.541   0.094  0.6445 -0.8527 -0.1402
18124SOL     OW55659   3.418   7.142   8.684  0.1541  0.5002 -0.1730
18124SOL    HW155660   3.354   7.073   8.666 -0.6724  1.3330 -0.5491
18124SOL    HW255661   3.367   7.223   8.677  1.0217  1.1305  0.6178
18125SOL     OW55662   1.382   6.403   7.620  0.1207  0.4414  0.2897
18125SOL    HW155663   1.375   6.307   7.627  0.5552  0.4538  1.0878
18125SOL    HW255664   1.475   6.419   7.610 -0.0062  0.7577 -0.3662
18126SOL     OW55665   3.239   2.108   5.869 -0.3541  0.4408  0.2556
18126SOL    HW155666   3.307   2.102   5.935  0.8656  2.0687 -0.7697
18126SOL    HW255667   3.161   2.136   5.917  0.7984  2.7888  0.9288
18127SOL     OW55668   7.268   8.236   7.769 -0.3041 -0.8652  0.2103
18127SOL    HW155669   7.265   8.327   7.738  3.3743  0.3495  2.7277
18127SOL    HW255670   7.193   8.229   7.828  0.2865  1.1737  1.3069
18128SOL     OW55671   2.406   1.420   1.039  0.1489  0.2048 -0.0619
18128SOL    HW155672   2.425   1.386   0.952 -0.6908  2.9690 -1.4549
18128SOL    HW255673   2.332   1.369   1.070  0.5505 -0.9145 -0.8939
18129SOL     OW55674   1.203   6.686   1.492  0.1168 -0.2579  0.2846
18129SOL    HW155675   1.235   6.708   1.404 -0.8774 -0.7811 -0.2338
18129SOL    HW255676   1.195   6.590   1.490  1.6528 -0.4364  1.5170
18130SOL     OW55677   7.731   1.825   8.551 -0.4429  0.7474 -0.1439
18130SOL    HW155678   7.756   1.736   8.526  0.1430  0.5161  1.1478
18130SOL    HW255679   7.814   1.870   8.567 -0.7553  1.0326  0.7647
18131SOL     OW55680   5.334   0.918   0.470 -0.5271  0.4517  0.5866
18131SOL    HW155681   5.319   0.862   0.394 -0.0160  0.4513  0.4801
18131SOL    HW255682   5.248   0.952   0.493 -0.8545 -0.4794  0.7336
18132SOL     OW55683   0.248   2.658   5.643 -0.3268  0.1791  0.0274
18132SOL    HW155684   0.220   2.570   5.617  3.1271 -1.0230 -0.1423
18132SOL    HW255685   0.299   2.644   5.723 -0.2353  2.1297  0.3438
18133SOL     OW55686   4.888   8.382   6.364 -0.3628  0.3421  0.7360
18133SOL    HW155687   4.846   8.332   6.294  0.1591  0.0625  0.6101
18133SOL    HW255688   4.829   8.456   6.381 -0.5449  0.3503  0.0801
18134SOL     OW55689   6.103   6.530   3.620  0.4596 -1.1607  0.2184
18134SOL    HW155690   6.032   6.474   3.590 -1.0837  0.1523  1.2188
18134SOL    HW255691   6.150   6.478   3.685 -1.2101 -1.1890  1.4494
18135SOL     OW55692   4.585   3.776   1.092 -0.0446 -0.1666 -0.1049
18135SOL    HW155693   4.507   3.791   1.039  0.5731  0.2633 -0.9069
18135SOL    HW255694   4.605   3.861   1.131  1.5229  0.4218 -2.0088
18136SOL     OW55695   1.214   4.790   7.307 -0.3173  0.3296 -0.4747
18136SOL    HW155696   1.289   4.836   7.345 -0.7476  1.6342 -1.1471
18136SOL    HW255697   1.185   4.846   7.235 -1.9358 -0.1447 -0.2344
18137SOL     OW55698   6.139   7.972   2.411  0.3943  0.2286 -0.4608
18137SOL    HW155699   6.141   8.052   2.463  2.6941 -0.5499  0.8046
18137SOL    HW255700   6.210   7.983   2.347 -0.0958 -0.2867 -1.1138
18138SOL     OW55701   3.338   4.973   0.234  0.0589  0.4274  0.2456
18138SOL    HW155702   3.387   5.006   0.159 -0.3691 -2.0586 -1.2329
18138SOL    HW255703   3.246   4.991   0.213 -0.1103 -0.8048 -0.1791
18139SOL     OW55704   8.410   7.560   0.854 -0.6132 -0.0285 -0.1258
18139SOL    HW155705   8.476   7.571   0.923  1.0833 -0.9342 -1.5339
18139SOL    HW255706   8.337   7.616   0.882  0.0231 -0.2822  2.3523
18140SOL     OW55707   4.496   0.767   6.477  0.5126 -0.3291  0.1005
18140SOL    HW155708   4.409   0.787   6.444  0.2670 -1.6169 -0.0695
18140SOL    HW255709   4.538   0.853   6.487 -1.0792  0.3890  1.0714
18141SOL     OW55710   8.248   4.768   7.845 -0.4077  0.3290  0.1241
18141SOL    HW155711   8.295   4.693   7.810  1.4134  2.1566 -1.6721
18141SOL    HW255712   8.162   4.765   7.805 -1.0669 -1.7376  1.5386
18142SOL     OW55713   0.002   8.586   8.068 -0.6576 -0.1735  0.3145
18142SOL    HW155714  -0.052   8.594   7.990  0.8014  1.3059 -0.6049
18142SOL    HW255715   0.078   8.535   8.040 -0.4646 -0.2636  0.9729
18143SOL     OW55716   6.096   8.048   6.988 -0.1270 -0.1148 -0.1191
18143SOL    HW155717   6.075   7.959   6.959  1.8551 -1.3176  1.8031
18143SOL    HW255718   6.174   8.072   6.938 -0.0508  0.0940  0.0959
18144SOL     OW55719   2.923   3.468   2.777  0.2019  0.2923 -0.1248
18144SOL    HW155720   2.864   3.542   2.793  0.5721  0.5048  0.2637
18144SOL    HW255721   2.887   3.396   2.829 -1.0218 -0.2651 -1.6407
18145SOL     OW55722   5.856   6.158   2.967  0.3586  0.1819 -0.1501
18145SOL    HW155723   5.800   6.183   2.894  0.5282  0.1820 -0.2808
18145SOL    HW255724   5.797   6.149   3.041  0.1224 -0.2779 -0.3954
18146SOL     OW55725   0.396   3.010   3.734  0.3771  0.1020  0.0429
18146SOL    HW155726   0.393   3.105   3.724 -0.2931 -0.1429 -2.7335
18146SOL    HW255727   0.305   2.983   3.741  0.4522 -0.4575 -0.9352
18147SOL     OW55728   2.202   2.243   1.416 -0.7889 -0.2583  0.7760
18147SOL    HW155729   2.164   2.318   1.370  0.2524 -0.3575 -0.2791
18147SOL    HW255730   2.196   2.171   1.355  1.4021 -0.1943  0.3943
18148SOL     OW55731   5.675   5.109   5.211  0.3837  0.1988 -0.2069
18148SOL    HW155732   5.603   5.059   5.173 -0.8533  1.1428  0.7849
18148SOL    HW255733   5.703   5.168   5.141 -0.3820  0.3972 -0.3573
18149SOL     OW55734   3.045   0.086   3.326 -0.2127 -0.4937 -0.1702
18149SOL    HW155735   2.984   0.035   3.273  0.0020 -1.5880  0.5932
18149SOL    HW255736   3.071   0.026   3.396 -0.6781  0.9834  1.3178
18150SOL     OW55737   0.889   6.449   3.582 -0.7765  0.2360 -0.5072
18150SOL    HW155738   0.919   6.361   3.558  1.4656  0.1802  2.1067
18150SOL    HW255739   0.817   6.466   3.521 -1.0982 -3.2471 -1.3304
18151SOL     OW55740   7.401   0.500   1.083 -0.0550 -0.0654  0.6422
18151SOL    HW155741   7.452   0.541   1.153  1.4626  1.2387 -1.1099
18151SOL    HW255742   7.314   0.540   1.092 -0.2213 -0.7274  2.3897
18152SOL     OW55743   2.593   1.609   1.154  0.6564 -0.0872 -0.4777
18152SOL    HW155744   2.534   1.551   1.105  0.2545  0.3531 -0.5173
18152SOL    HW255745   2.638   1.659   1.087  0.7705 -0.1272 -0.4307
18153SOL     OW55746   0.547   5.278   3.588  0.2793  0.2924 -0.2944
18153SOL    HW155747   0.489   5.317   3.523  1.0829  0.4893 -0.9190
18153SOL    HW255748   0.602   5.350   3.618  0.3407  0.0727  0.1287
18154SOL     OW55749   4.354   5.760   8.603  0.1304 -0.2046 -0.2670
18154SOL    HW155750   4.268   5.780   8.639  0.4832 -1.4171  1.4031
18154SOL    HW255751   4.352   5.665   8.587  1.0672 -0.2170 -0.3968
18155SOL     OW55752   6.785   6.763   0.265 -0.1014  0.0232  0.8526
18155SOL    HW155753   6.693   6.784   0.253 -0.0998  1.1189  2.4012
18155SOL    HW255754   6.827   6.788   0.183 -1.2160 -0.8730 -0.0233
18156SOL     OW55755   1.489   3.657   1.600 -0.4843  0.0310  0.4208
18156SOL    HW155756   1.530   3.587   1.548 -0.6677 -1.0857  1.7207
18156SOL    HW255757   1.399   3.659   1.569 -0.1519  0.6572 -0.5728
18157SOL     OW55758   1.322   4.140   0.242  0.0787  0.0057  0.4153
18157SOL    HW155759   1.295   4.213   0.187  0.6468  0.0124  0.1400
18157SOL    HW255760   1.321   4.064   0.183 -0.3577 -0.1802  0.6605
18158SOL     OW55761   6.363   0.281   8.475 -0.2322 -0.0109  0.0734
18158SOL    HW155762   6.405   0.288   8.389 -2.1078  1.1295 -0.8309
18158SOL    HW255763   6.433   0.255   8.534  1.6710  1.4903 -1.3668
18159SOL     OW55764   6.143   8.215   6.716  0.2573 -0.5136 -0.1937
18159SOL    HW155765   6.106   8.156   6.651 -0.5384 -0.3990  0.1490
18159SOL    HW255766   6.093   8.296   6.707  1.5570  0.2359 -0.8878
18160SOL     OW55767   3.229   4.687   6.805  0.5022 -0.1000  0.0364
18160SOL    HW155768   3.201   4.769   6.845  0.6103 -0.3270  0.5818
18160SOL    HW255769   3.216   4.701   6.711 -1.8021 -0.3039  0.2633
18161SOL     OW55770   2.504   2.329   5.181 -0.2272 -0.4468 -0.3757
18161SOL    HW155771   2.457   2.245   5.180  1.2536 -1.3653 -2.9769
18161SOL    HW255772   2.436   2.394   5.163 -0.8199 -1.5834 -2.5987
18162SOL     OW55773   1.970   4.445   3.270  0.1716  0.0057 -0.1409
18162SOL    HW155774   2.057   4.436   3.309 -0.1122  0.3426  0.5811
18162SOL    HW255775   1.948   4.357   3.240 -0.2868 -0.6398  1.9400
18163SOL     OW55776   8.637   6.228   1.175  0.0973 -0.5340  0.3175
18163SOL    HW155777   8.663   6.139   1.152  0.4106 -0.4762  0.4363
18163SOL    HW255778   8.711   6.262   1.226 -1.2927 -1.2796  3.0230
18164SOL     OW55779   3.132   1.286   2.646 -0.0373 -0.2493  0.4091
18164SOL    HW155780   3.040   1.262   2.650 -0.0528 -0.2131  0.2920
18164SOL    HW255781   3.179   1.203   2.652 -0.0787 -0.2692  0.4497
18165SOL     OW55782   2.495   1.373   2.701 -0.3839 -0.7117 -0.2608
18165SOL    HW155783   2.414   1.411   2.668  0.1903  1.4373  0.6152
18165SOL    HW255784   2.564   1.429   2.665  0.4467 -0.1674  2.0357
18166SOL     OW55785   2.299   0.945   0.450 -0.4799 -0.0176 -0.5056
18166SOL    HW155786   2.344   0.868   0.415 -1.8261  0.4666 -3.6909
18166SOL    HW255787   2.320   1.015   0.388 -1.4452  1.5105  0.8095
18167SOL     OW55788   2.452   7.556   2.614 -0.6895  0.0691 -0.3847
18167SOL    HW155789   2.521   7.556   2.548 -0.8986 -2.7101 -0.7395
18167SOL    HW255790   2.392   7.626   2.587  0.2513  0.3098 -1.9777
18168SOL     OW55791   1.150   4.473   3.715  0.0103 -0.1379  0.2441
18168SOL    HW155792   1.120   4.433   3.797  0.3605 -2.6428 -0.7756
18168SOL    HW255793   1.069   4.497   3.670 -0.2090  0.2260  0.8118
18169SOL     OW55794   1.756   6.834   3.059  0.2562 -0.1480 -0.2011
18169SOL    HW155795   1.701   6.757   3.047 -0.2059  0.2667 -0.8686
18169SOL    HW255796   1.815   6.833   2.984 -0.5422  0.7658 -0.8755
18170SOL     OW55797   6.029   4.619   6.105 -0.2263  0.1021 -0.1024
18170SOL    HW155798   6.077   4.536   6.100  0.7085  0.6764 -0.8892
18170SOL    HW255799   6.069   4.665   6.179 -1.5603 -0.6204  1.1266
18171SOL     OW55800   0.289   0.118   6.786  0.3086 -0.7536 -0.1048
18171SOL    HW155801   0.350   0.190   6.771 -1.5277  0.4114 -2.7256
18171SOL    HW255802   0.290   0.068   6.705 -0.0794 -2.4440  0.8722
18172SOL     OW55803   4.905   2.628   6.259  0.4816  0.1054  0.4715
18172SOL    HW155804   4.838   2.569   6.224 -0.8230  0.8939  1.5353
18172SOL    HW255805   4.932   2.681   6.184  2.0956 -2.1294 -0.6510
18173SOL     OW55806   7.668   4.279   8.417 -0.5075 -0.1786 -0.3705
18173SOL    HW155807   7.647   4.358   8.366  0.9683  0.3631 -0.1843
18173SOL    HW255808   7.757   4.294   8.450 -0.1947 -1.9076 -0.3060
18174SOL     OW55809   8.563   1.539   5.865 -0.4528  0.2030  0.1515
18174SOL    HW155810   8.572   1.573   5.955 -3.0086  1.3254  0.0954
18174SOL    HW255811   8.579   1.445   5.873  0.1725  0.4067  1.6411
18175SOL     OW55812   6.919   1.889   8.404 -0.3060 -0.3004  0.2301
18175SOL    HW155813   7.014   1.881   8.401 -0.1956  0.5591  0.9562
18175SOL    HW255814   6.898   1.889   8.497 -0.9389  0.2683  0.0944
18176SOL     OW55815   7.677   6.063   3.837  0.1087  0.1665 -0.3085
18176SOL    HW155816   7.594   6.044   3.793  0.3410 -0.6009 -0.4313
18176SOL    HW255817   7.709   6.142   3.793  0.1536 -0.3756 -1.2776
18177SOL     OW55818   5.917   6.871   2.690  0.0524 -0.3449  0.2185
18177SOL    HW155819   5.963   6.854   2.608  0.8645  2.2799  0.0449
18177SOL    HW255820   5.843   6.927   2.665  0.6504  0.9700  1.3319
18178SOL     OW55821   2.961   3.922   0.513 -0.1160  0.0507  0.1398
18178SOL    HW155822   2.969   3.988   0.582  0.6324  0.3755 -0.2500
18178SOL    HW255823   2.992   3.841   0.553 -1.4300 -0.1843  0.7533
18179SOL     OW55824   1.661   1.693   2.980  0.7842  0.3130 -0.4872
18179SOL    HW155825   1.578   1.716   2.938  0.5869  0.4982 -0.0037
18179SOL    HW255826   1.698   1.624   2.924  0.0783 -0.1049 -0.4519
18180SOL     OW55827   3.546   7.267   8.345  0.4276 -0.2834 -0.2971
18180SOL    HW155828   3.603   7.279   8.269  1.3800 -1.2340  0.2306
18180SOL    HW255829   3.463   7.307   8.320  0.6826 -0.6801 -1.8780
18181SOL     OW55830   1.782   4.687   6.703  0.4562 -0.1056 -0.1364
18181SOL    HW155831   1.877   4.677   6.713  0.3333  0.0155  1.4416
18181SOL    HW255832   1.768   4.782   6.701  0.3434 -0.1170  0.0486
18182SOL     OW55833   2.466   1.341   5.870  0.1339 -0.2323  0.2247
18182SOL    HW155834   2.558   1.320   5.858 -0.2862 -1.5444 -1.0716
18182SOL    HW255835   2.447   1.407   5.803 -0.1796 -1.0621 -0.5330
18183SOL     OW55836   6.478   7.934   3.349 -0.0819  0.1267  0.4852
18183SOL    HW155837   6.432   7.891   3.421 -0.0501 -2.0740 -0.7448
18183SOL    HW255838   6.570   7.917   3.366  0.1098  1.6891  1.1710
18184SOL     OW55839   3.368   5.671   3.563  0.0244  0.5285  0.0761
18184SOL    HW155840   3.444   5.680   3.620 -0.3365  0.0761  0.6337
18184SOL    HW255841   3.294   5.664   3.622 -0.2905 -0.5978 -0.4182
18185SOL     OW55842   8.301   7.185   8.050  0.0314  0.1823 -0.1436
18185SOL    HW155843   8.303   7.200   7.955  1.8732 -0.1665 -0.1855
18185SOL    HW255844   8.273   7.269   8.086 -3.0043 -0.2947 -1.0447
18186SOL     OW55845   1.350   1.280   7.327 -0.5642 -1.0860 -0.7307
18186SOL    HW155846   1.345   1.188   7.299 -2.3871 -1.6633  1.2314
18186SOL    HW255847   1.261   1.313   7.314  0.6214  1.4114 -4.1885
18187SOL     OW55848   2.389   4.422   7.181  0.3378  0.7646  0.1331
18187SOL    HW155849   2.416   4.507   7.147 -0.8555  1.0802 -0.0498
18187SOL    HW255850   2.332   4.386   7.113  1.4468 -0.5511 -0.1648
18188SOL     OW55851   1.035   2.715   2.471 -0.1726  0.1976 -0.1696
18188SOL    HW155852   1.009   2.641   2.416  0.8696 -1.1499  1.0490
18188SOL    HW255853   1.025   2.682   2.561 -0.3494  1.7881  0.4291
18189SOL     OW55854   6.039   6.334   7.165 -0.2772  0.5347  0.2155
18189SOL    HW155855   6.094   6.258   7.148  1.0809  0.7519  3.0173
18189SOL    HW255856   6.090   6.409   7.133 -0.0398  0.5289  0.5734
18190SOL     OW55857   6.902   0.807   1.190 -0.0882  0.2870  0.4943
18190SOL    HW155858   6.994   0.786   1.207 -0.3707 -4.0424 -2.0948
18190SOL    HW255859   6.854   0.759   1.257 -0.5407 -0.7649 -0.5611
18191SOL     OW55860   0.980   0.803   6.257  0.1776 -0.0781 -0.0345
18191SOL    HW155861   0.929   0.728   6.227  0.3990 -0.5069  0.6344
18191SOL    HW255862   1.071   0.781   6.237  0.2534 -0.0382  0.2599
18192SOL     OW55863   6.457   2.652   4.483  0.1639  0.3041  0.0239
18192SOL    HW155864   6.450   2.716   4.554  1.2472  0.3148  0.1365
18192SOL    HW255865   6.548   2.657   4.455 -0.2508  0.2824 -1.3740
18193SOL     OW55866   3.190   0.548   6.290 -0.4163  0.4271  0.1960
18193SOL    HW155867   3.099   0.531   6.268 -0.2480 -0.0911 -0.1378
18193SOL    HW255868   3.239   0.516   6.214  0.2880 -2.5327  1.7270
18194SOL     OW55869   7.950   4.386   8.162 -0.2902 -0.2749 -0.8946
18194SOL    HW155870   7.916   4.355   8.246  0.1618 -2.1607 -1.3602
18194SOL    HW255871   8.005   4.461   8.185 -0.0282 -0.8584  0.5410
18195SOL     OW55872   0.264   3.118   3.309  0.3984  0.4170 -0.1956
18195SOL    HW155873   0.324   3.044   3.300  0.8446  0.9748 -2.2999
18195SOL    HW255874   0.266   3.139   3.403  2.3021 -0.5528  0.0298
18196SOL     OW55875   0.693   4.118   5.569  0.0734 -0.3774  0.1515
18196SOL    HW155876   0.613   4.152   5.528  1.2433  2.0039 -0.3573
18196SOL    HW255877   0.690   4.152   5.659  0.8684  0.4083 -0.1087
18197SOL     OW55878   3.209   5.047   5.237 -0.1422  0.5373  0.2756
18197SOL    HW155879   3.267   5.108   5.191  0.5193  0.1594  0.5838
18197SOL    HW255880   3.212   4.967   5.185  0.0306  0.3455  0.5785
18198SOL     OW55881   4.600   2.523   2.144 -0.2810 -0.3687  0.4905
18198SOL    HW155882   4.579   2.616   2.133  0.0108 -0.1868  1.3872
18198SOL    HW255883   4.520   2.477   2.118 -0.0814  0.0646 -0.9998
18199SOL     OW55884   4.142   1.526   6.305 -0.2336  0.0790 -0.0460
18199SOL    HW155885   4.231   1.494   6.290 -0.8745 -1.5880 -0.4896
18199SOL    HW255886   4.151   1.622   6.306  1.2170  0.0510 -2.4009
18200SOL     OW55887   7.060   4.655   1.908 -0.4394  0.3350  0.1065
18200SOL    HW155888   7.083   4.651   1.815  0.0469  1.3014  0.1751
18200SOL    HW255889   7.069   4.565   1.938 -0.5826  0.0115 -0.7723
18201SOL     OW55890   2.481   5.809   6.394 -0.6802  0.5620 -0.5275
18201SOL    HW155891   2.546   5.877   6.374  0.7736 -0.6498 -0.0725
18201SOL    HW255892   2.515   5.730   6.353 -0.7185 -0.6041  1.5594
18202SOL     OW55893   6.650   5.382   5.918  0.2302  0.3587 -0.4408
18202SOL    HW155894   6.648   5.412   5.827  0.5592 -0.6650 -0.7963
18202SOL    HW255895   6.561   5.398   5.951  0.0398  0.4900 -1.0157
18203SOL     OW55896   6.825   1.837   0.751  0.2795 -0.2573 -0.3627
18203SOL    HW155897   6.869   1.869   0.830 -1.7112 -0.6102  0.9370
18203SOL    HW255898   6.871   1.756   0.729  1.0443 -0.0023  0.2403
18204SOL     OW55899   4.532   2.470   8.577 -0.0229  0.1388  0.1715
18204SOL    HW155900   4.483   2.391   8.600  2.3057 -2.0003 -1.6962
18204SOL    HW255901   4.556   2.459   8.485  1.6197  2.3436  0.2386
18205SOL     OW55902   4.369   2.393   6.345  0.3509  0.0254  0.5862
18205SOL    HW155903   4.446   2.406   6.400  0.3990  1.1646  0.2646
18205SOL    HW255904   4.381   2.454   6.272  0.9054 -2.2643 -1.3930
18206SOL     OW55905   4.417   1.666   7.547  0.1342 -0.0643 -0.0601
18206SOL    HW155906   4.497   1.614   7.540 -0.0626 -0.6123  1.3290
18206SOL    HW255907   4.371   1.651   7.465  0.6325 -1.1787 -0.1556
18207SOL     OW55908   8.405   0.513   8.604 -0.3080 -0.3537 -0.4434
18207SOL    HW155909   8.446   0.451   8.664 -0.1546  0.0246 -0.1520
18207SOL    HW255910   8.323   0.472   8.579 -1.4895  0.4700  1.8270
18208SOL     OW55911   6.372   5.990   2.616 -0.1811  0.4629  0.6201
18208SOL    HW155912   6.354   5.984   2.710  0.4570 -0.0087  0.7215
18208SOL    HW255913   6.401   6.080   2.603  3.5113 -0.3939  1.6271
18209SOL     OW55914   0.618   8.631   4.224  0.8475 -0.6552 -0.1838
18209SOL    HW155915   0.569   8.560   4.267  1.5450 -0.5693  0.7949
18209SOL    HW255916   0.664   8.588   4.152 -1.0192 -0.6479 -1.4282
18210SOL     OW55917   8.235   2.750   6.404  0.2488  0.3623 -0.0692
18210SOL    HW155918   8.153   2.701   6.394 -0.4550  0.9024  2.3115
18210SOL    HW255919   8.278   2.709   6.478  2.0231  0.3095 -1.0818
18211SOL     OW55920   4.320   2.738   6.784  0.0780  0.2085  0.3112
18211SOL    HW155921   4.258   2.705   6.849  0.3893  0.1074  0.5582
18211SOL    HW255922   4.370   2.806   6.831 -0.4902  0.9686 -0.1581
18212SOL     OW55923   4.767   3.272   2.949 -0.0583  0.1873  0.5171
18212SOL    HW155924   4.775   3.180   2.975 -2.0483 -0.1101  0.2448
18212SOL    HW255925   4.788   3.273   2.856 -0.8580 -0.1597  0.3240
18213SOL     OW55926   3.746   7.218   5.079  0.5062 -0.7095 -0.0823
18213SOL    HW155927   3.717   7.128   5.065  0.6461 -0.5653 -1.4546
18213SOL    HW255928   3.798   7.238   5.002  0.2985  0.6259  0.1041
18214SOL     OW55929   8.635   5.508   0.474  0.4488 -0.3046 -0.0910
18214SOL    HW155930   8.637   5.588   0.527 -1.5291  0.1702 -0.6472
18214SOL    HW255931   8.636   5.437   0.538  3.3466  0.0421  0.3952
18215SOL     OW55932   4.741   6.232   8.006 -0.4228 -0.5982 -0.3446
18215SOL    HW155933   4.692   6.242   8.088 -0.4708 -0.3326 -0.4058
18215SOL    HW255934   4.775   6.143   8.009 -0.9736 -0.8161 -0.3328
18216SOL     OW55935   4.872   4.561   6.219  0.1111  0.1335 -0.3434
18216SOL    HW155936   4.815   4.607   6.281  0.7580 -0.9347  1.0810
18216SOL    HW255937   4.960   4.574   6.253  0.3375 -1.9006 -0.0345
18217SOL     OW55938   5.952   3.786   0.006  0.4397 -0.1349 -0.0086
18217SOL    HW155939   6.011   3.766  -0.066 -0.1646 -0.0482 -0.5390
18217SOL    HW255940   5.878   3.727  -0.008  0.1000  0.2253  0.2619
18218SOL     OW55941   2.557   3.528   2.550  0.3967  0.2571 -0.3241
18218SOL    HW155942   2.581   3.490   2.466  3.6376  2.1692 -0.4257
18218SOL    HW255943   2.600   3.472   2.615 -1.7908 -0.9959  0.1610
18219SOL     OW55944   1.806   3.917   8.105 -0.6453  0.7485  0.0179
18219SOL    HW155945   1.825   3.895   8.196 -0.5438  0.3719 -0.0894
18219SOL    HW255946   1.868   3.863   8.054 -0.8768  0.7582 -0.2776
18220SOL     OW55947   5.973   2.025   0.044  0.0426  0.0137 -0.4249
18220SOL    HW155948   6.064   2.051   0.060  0.0776  0.6714 -1.6194
18220SOL    HW255949   5.928   2.045   0.126  1.2227 -1.6640  0.7029
18221SOL     OW55950   6.611   4.712   0.629  0.0089 -0.2632  0.1601
18221SOL    HW155951   6.558   4.655   0.573 -0.6821 -0.2760  0.7982
18221SOL    HW255952   6.583   4.801   0.607  0.9193 -0.1729 -0.6692
18222SOL     OW55953   7.246   5.580   3.172 -0.3968  0.1152 -0.0738
18222SOL    HW155954   7.229   5.649   3.236 -1.1343 -1.1544  1.1405
18222SOL    HW255955   7.198   5.607   3.094 -0.0087  1.3564  0.0950
18223SOL     OW55956   5.653   0.439   8.658  0.2193  0.6434 -0.0425
18223SOL    HW155957   5.685   0.350   8.641 -1.4673  0.4718 -2.8747
18223SOL    HW255958   5.714   0.496   8.612 -0.5463  0.6698 -1.0607
18224SOL     OW55959   5.127   4.451   6.414 -0.0171 -0.1744 -0.4364
18224SOL    HW155960   5.163   4.533   6.447 -0.1044 -0.9451  1.7393
18224SOL    HW255961   5.051   4.434   6.469 -1.1958 -0.7314 -2.1680
18225SOL     OW55962   1.602   8.314   5.909 -0.0378 -0.5390 -0.3278
18225SOL    HW155963   1.537   8.267   5.961 -0.9402 -0.3123 -1.2100
18225SOL    HW255964   1.655   8.245   5.868 -0.3249 -0.7504 -0.3436
18226SOL     OW55965   6.986   7.920   6.627 -0.7969  0.4900 -0.2260
18226SOL    HW155966   7.068   7.956   6.593  0.6377 -2.1334  0.2100
18226SOL    HW255967   6.972   7.966   6.709  0.7185  0.4556  0.0926
18227SOL     OW55968   3.390   4.313   0.945 -0.3795 -0.4117 -0.0335
18227SOL    HW155969   3.455   4.245   0.961 -0.4240 -0.4592 -0.0533
18227SOL    HW255970   3.306   4.271   0.965 -0.2701  0.2640  2.0774
18228SOL     OW55971   2.461   4.698   7.732 -0.5387 -0.0430  0.2948
18228SOL    HW155972   2.370   4.669   7.740 -0.4508 -1.0573 -1.6707
18228SOL    HW255973   2.495   4.698   7.822 -2.1022 -0.9163  0.9183
18229SOL     OW55974   4.411   1.859   3.700  0.7454  0.1390 -0.3902
18229SOL    HW155975   4.338   1.894   3.649  1.2987  1.0673 -0.5656
18229SOL    HW255976   4.377   1.853   3.790  0.4806  0.6819 -0.4465
18230SOL     OW55977   6.253   2.772   7.922 -0.3762  0.6690  0.1057
18230SOL    HW155978   6.230   2.822   8.001 -0.9303  0.7807 -0.1226
18230SOL    HW255979   6.193   2.697   7.924 -0.9347  1.0858 -0.6178
18231SOL     OW55980   0.055   2.216   6.429  0.1881  0.1299  0.2025
18231SOL    HW155981   0.109   2.203   6.507  1.2107 -0.7909 -0.6243
18231SOL    HW255982   0.048   2.311   6.420 -0.3540  0.2611  1.6649
18232SOL     OW55983   3.837   0.791   1.760  0.2140  0.1255 -0.1319
18232SOL    HW155984   3.789   0.863   1.801  0.1058  0.1620 -0.3214
18232SOL    HW255985   3.823   0.716   1.819 -0.4408  0.0201 -0.4031
18233SOL     OW55986   6.653   8.699   5.540  0.1744 -0.0250  0.6460
18233SOL    HW155987   6.576   8.739   5.500  1.1034 -0.0424 -1.3196
18233SOL    HW255988   6.638   8.605   5.531  0.7402 -0.0281 -0.4947
18234SOL     OW55989   6.191   2.897   1.946  0.1228  0.3550  0.2814
18234SOL    HW155990   6.205   2.988   1.918 -1.2208  1.1549  2.0155
18234SOL    HW255991   6.101   2.879   1.920 -0.1564  0.1005  1.4055
18235SOL     OW55992   2.889   1.325   8.230  0.2902 -0.2945  0.1404
18235SOL    HW155993   2.813   1.357   8.182  1.7957  2.2520 -0.7221
18235SOL    HW255994   2.853   1.284   8.309 -2.0498 -1.3572 -1.3729
18236SOL     OW55995   0.353   6.207   6.682  0.1311 -0.6898 -0.3433
18236SOL    HW155996   0.323   6.136   6.625 -0.5930 -1.0122  0.4251
18236SOL    HW255997   0.339   6.174   6.771 -1.4891  0.9087  0.0403
18237SOL     OW55998   6.382   2.447   3.257  0.0128 -0.2692  0.6665
18237SOL    HW155999   6.399   2.530   3.211  0.4104 -1.4402 -1.4246
18237SOL    HW256000   6.302   2.464   3.306  0.2777  1.4691  0.5859
18238SOL     OW56001   0.643   5.686   6.864 -0.1162  0.1347  0.1758
18238SOL    HW156002   0.659   5.591   6.864  0.3920  0.2171  0.3015
18238SOL    HW256003   0.599   5.703   6.947 -3.1002 -0.4379 -1.1299
18239SOL     OW56004   6.336   3.383   5.495 -0.1565  0.0230 -0.5605
18239SOL    HW156005   6.283   3.461   5.480  1.0059  0.8509 -0.4720
18239SOL    HW256006   6.290   3.336   5.565 -0.5030  0.9747 -0.1346
18240SOL     OW56007   7.482   5.659   3.434 -0.2649 -0.0815 -0.1369
18240SOL    HW156008   7.533   5.691   3.507  1.5833 -0.3418 -1.2611
18240SOL    HW256009   7.415   5.603   3.473 -0.4633  1.2030  1.4559
18241SOL     OW56010   1.831   2.321   7.740 -0.5950  0.0104  0.6529
18241SOL    HW156011   1.801   2.409   7.764  0.8459  0.4137  1.0930
18241SOL    HW256012   1.751   2.273   7.719 -1.6714  0.6925  2.8282
18242SOL     OW56013   4.955   8.511   7.079 -0.5920 -0.4193  0.0430
18242SOL    HW156014   4.872   8.473   7.051 -2.1254  1.3255  1.9216
18242SOL    HW256015   4.978   8.573   7.010 -1.3364 -0.2541 -0.0652
18243SOL     OW56016   5.060   5.251   5.286 -0.8365 -0.4366  0.1037
18243SOL    HW156017   5.016   5.245   5.371 -0.6820  1.2168  0.3480
18243SOL    HW256018   5.095   5.163   5.271 -0.3879 -0.6498  2.0333
18244SOL     OW56019   0.188   3.932   5.135 -0.1739  0.6278 -0.2233
18244SOL    HW156020   0.152   4.020   5.132  1.2679  1.2953  0.8942
18244SOL    HW256021   0.188   3.909   5.227 -1.7740 -1.1187 -0.6040
18245SOL     OW56022   2.954   0.293   4.163  0.1664 -0.6791  0.1791
18245SOL    HW156023   3.000   0.361   4.114  0.1237 -0.4384  0.4726
18245SOL    HW256024   2.911   0.339   4.235 -0.5711 -0.8926 -0.1160
18246SOL     OW56025   4.275   8.202   2.141 -0.5920  0.0138 -0.4327
18246SOL    HW156026   4.351   8.194   2.199 -1.2407  0.0793  0.4513
18246SOL    HW256027   4.279   8.125   2.085  0.7713  0.6102 -1.1895
18247SOL     OW56028   2.792   2.735   5.034  0.4088 -0.2044  0.6161
18247SOL    HW156029   2.723   2.709   4.973 -0.0161 -0.8414  1.3465
18247SOL    HW256030   2.770   2.824   5.060  2.0049  1.1100 -2.0980
18248SOL     OW56031   7.025   2.614   0.779  0.4234  0.6369  0.5160
18248SOL    HW156032   7.100   2.613   0.719 -0.3663 -2.6619 -0.6152
18248SOL    HW256033   7.060   2.579   0.861  0.1984 -0.7758  0.0290
18249SOL     OW56034   5.833   6.604   0.971 -0.1787 -0.2459 -0.4421
18249SOL    HW156035   5.866   6.618   1.059 -1.6351  0.1513  0.0708
18249SOL    HW256036   5.865   6.678   0.920  0.6317 -0.4576 -0.2443
18250SOL     OW56037   2.856   5.689   4.015 -0.8477 -0.2198 -0.4244
18250SOL    HW156038   2.829   5.647   3.933  0.8405  0.5646 -1.4639
18250SOL    HW256039   2.805   5.769   4.019  0.6839  0.9032 -1.9879
18251SOL     OW56040   3.996   4.405   6.689 -0.6510 -0.2323 -0.2260
18251SOL    HW156041   4.020   4.358   6.769 -1.6241  0.0296  0.2256
18251SOL    HW256042   4.044   4.488   6.694 -3.1488  1.2077  1.6988
18252SOL     OW56043   3.900   1.511   6.134  0.1179 -0.2902  0.1848
18252SOL    HW156044   3.973   1.534   6.192  0.4679 -1.0768  0.0721
18252SOL    HW256045   3.865   1.429   6.171  1.7028 -2.0192 -1.8656
18253SOL     OW56046   6.521   6.836   0.245 -0.2167  0.4987  0.7123
18253SOL    HW156047   6.510   6.746   0.213  2.5007  0.6344 -0.9748
18253SOL    HW256048   6.492   6.891   0.173  1.8106  0.8616  0.1015
18254SOL     OW56049   4.993   1.684   7.795 -0.0852 -0.0364  0.1770
18254SOL    HW156050   4.905   1.719   7.783 -0.7702 -1.7663 -0.2018
18254SOL    HW256051   5.009   1.632   7.717  1.5059  0.6683  0.0092
18255SOL     OW56052   3.416   7.790   2.071  0.1530 -0.6737 -0.7994
18255SOL    HW156053   3.424   7.842   1.991 -0.3080 -0.3610 -0.6443
18255SOL    HW256054   3.382   7.706   2.042  1.3596 -1.0675 -1.1146
18256SOL     OW56055   1.340   3.870   1.007 -0.4394 -0.3853 -0.3604
18256SOL    HW156056   1.274   3.933   0.978 -0.4798 -0.2118  0.0975
18256SOL    HW256057   1.339   3.801   0.941 -0.8974 -0.2544 -0.4898
18257SOL     OW56058   0.222   8.530   0.609  0.5406 -0.4341  0.2030
18257SOL    HW156059   0.136   8.516   0.650  1.2733 -0.8141  1.7082
18257SOL    HW256060   0.276   8.459   0.644  1.6608  0.2475 -0.1187
18258SOL     OW56061   5.208   5.665   5.757  0.8610  0.0697  0.1483
18258SOL    HW156062   5.161   5.582   5.765  1.1816 -0.3134 -1.4641
18258SOL    HW256063   5.259   5.672   5.838 -1.2114  0.0566  1.5200
18259SOL     OW56064   7.093   5.838   6.588 -0.1539  0.0512 -0.6009
18259SOL    HW156065   7.158   5.909   6.589  1.2877 -1.1907  1.2433
18259SOL    HW256066   7.026   5.868   6.527  0.2868  3.1014  0.2109
18260SOL     OW56067   4.628   8.694   7.452 -0.2775 -0.1593  0.0732
18260SOL    HW156068   4.555   8.674   7.511  0.9443 -1.3936  1.2621
18260SOL    HW256069   4.613   8.785   7.425 -0.8711  0.4844  2.3580
18261SOL     OW56070   6.747   2.946   0.427  0.0908  0.1121 -0.0409
18261SOL    HW156071   6.758   3.037   0.453 -0.0033 -0.2069  1.1907
18261SOL    HW256072   6.726   2.900   0.509  1.7777 -1.2868 -0.3259
18262SOL     OW56073   7.382   0.025   4.061 -0.4321 -0.3280  0.1492
18262SOL    HW156074   7.354   0.037   4.152  0.9320 -0.2710  0.5882
18262SOL    HW256075   7.475   0.002   4.068  0.5830  2.7986 -1.3365
18263SOL     OW56076   0.136   0.124   1.037  0.0216 -0.1740  0.0269
18263SOL    HW156077   0.208   0.089   1.089  0.3910  0.4292 -0.0748
18263SOL    HW256078   0.086   0.178   1.098 -0.9549 -1.3957  0.3660
18264SOL     OW56079   5.712   7.353   2.068  0.0758  0.0879  0.0676
18264SOL    HW156080   5.620   7.375   2.080 -0.2036 -0.1327 -1.5481
18264SOL    HW256081   5.712   7.263   2.035  0.9357 -0.2830  1.0168
18265SOL     OW56082   8.257   0.458   8.269  0.0795  0.4640  0.1388
18265SOL    HW156083   8.249   0.448   8.364 -0.7452  1.8847  0.2406
18265SOL    HW256084   8.238   0.550   8.253 -0.5321  0.0769 -1.5019
18266SOL     OW56085   3.659   4.837   2.357 -0.5115  0.9024  0.2065
18266SOL    HW156086   3.732   4.776   2.361 -1.8648 -0.7756  0.5946
18266SOL    HW256087   3.699   4.921   2.333  1.5607  0.1435  0.7537
18267SOL     OW56088   2.224   1.858   1.615 -0.3048 -1.0089  0.0717
18267SOL    HW156089   2.210   1.946   1.650  1.7965 -1.1295  1.3338
18267SOL    HW256090   2.204   1.799   1.688 -1.6473 -1.6329 -0.7478
18268SOL     OW56091   2.946   3.377   2.485 -0.0124  0.3574  0.1959
18268SOL    HW156092   2.867   3.328   2.459  1.4456 -2.8079  1.2512
18268SOL    HW256093   2.925   3.413   2.571 -0.1224 -1.1108  0.8149
18269SOL     OW56094   2.256   0.174   7.538  0.2357  0.2596 -0.5226
18269SOL    HW156095   2.266   0.199   7.446 -1.2326 -0.5028 -0.9362
18269SOL    HW256096   2.167   0.201   7.560  0.8946  1.2995  0.9911
18270SOL     OW56097   8.409   1.089   3.826 -0.0015  0.4374  0.4011
18270SOL    HW156098   8.493   1.077   3.869 -0.3350 -0.5750  0.7946
18270SOL    HW256099   8.344   1.065   3.892 -0.5404 -0.4980 -0.4266
18271SOL     OW56100   3.976   3.953   5.980  0.3833 -0.4955  0.3356
18271SOL    HW156101   3.994   3.869   5.938  0.7587  0.0480 -0.6177
18271SOL    HW256102   4.017   4.018   5.923  1.5414  0.2261  1.8947
18272SOL     OW56103   5.251   6.724   4.166  0.0556  0.3415  0.1203
18272SOL    HW156104   5.324   6.680   4.122  0.5174  0.4548  0.7607
18272SOL    HW256105   5.291   6.768   4.240 -0.0859  3.3834 -1.4612
18273SOL     OW56106   7.103   5.477   7.239  1.2033 -0.1006 -0.1406
18273SOL    HW156107   7.028   5.536   7.252  1.4189 -0.2010  1.7659
18273SOL    HW256108   7.167   5.530   7.192  0.2109  0.1843 -1.2383
18274SOL     OW56109   6.789   6.705   2.893 -0.0563  0.2277 -0.1073
18274SOL    HW156110   6.823   6.616   2.885 -0.2020  0.2787 -1.3532
18274SOL    HW256111   6.694   6.695   2.884 -0.4147  0.1758  2.6775
18275SOL     OW56112   4.912   0.609   4.823  0.5573 -0.0371 -0.1848
18275SOL    HW156113   4.973   0.564   4.881 -0.2593 -0.3308  0.4786
18275SOL    HW256114   4.827   0.568   4.842  0.1899  0.2175 -1.2272
18276SOL     OW56115   4.919   6.915   6.609  0.3182 -0.0804 -0.2368
18276SOL    HW156116   4.837   6.944   6.569 -0.1869 -0.8174  0.2449
18276SOL    HW256117   4.983   6.982   6.584 -0.9113  1.7989  1.3590
18277SOL     OW56118   8.698   0.825   3.760 -0.0275  0.5620 -0.0693
18277SOL    HW156119   8.608   0.813   3.729 -0.5224  1.6662  0.8455
18277SOL    HW256120   8.747   0.752   3.721 -1.8412 -1.6848  1.5555
18278SOL     OW56121   2.888   1.816   5.132  0.6831 -0.6222 -0.1736
18278SOL    HW156122   2.827   1.888   5.116 -0.3815 -1.4137  0.2411
18278SOL    HW256123   2.951   1.853   5.194  0.0704 -0.0792  0.1464
18279SOL     OW56124   3.012   1.999   4.308 -0.3089  0.5173 -0.1624
18279SOL    HW156125   2.948   2.025   4.374 -1.0978  0.0020 -0.7152
18279SOL    HW256126   3.017   2.073   4.248 -1.5419 -0.0263 -0.9731
18280SOL     OW56127   1.281   5.109   2.068  0.4768  0.3680 -0.2450
18280SOL    HW156128   1.374   5.094   2.085  0.4552  1.1769  0.7659
18280SOL    HW256129   1.276   5.131   1.975  1.0969 -1.0593 -0.6321
18281SOL     OW56130   2.715   8.617   2.917  0.2787  0.2153 -0.4622
18281SOL    HW156131   2.795   8.618   2.865  0.8983  1.2297  0.4545
18281SOL    HW256132   2.677   8.530   2.902  2.1597 -0.7394 -0.0106
18282SOL     OW56133   0.937   7.031   3.171  0.1443  0.5780 -0.4311
18282SOL    HW156134   0.845   7.043   3.191 -0.4251 -2.4933 -0.7467
18282SOL    HW256135   0.940   7.019   3.076  1.0969  1.9333 -0.6106
18283SOL     OW56136   1.204   2.780   5.359 -0.2967  0.1925  0.4340
18283SOL    HW156137   1.148   2.832   5.417 -1.0143  2.3142 -1.9672
18283SOL    HW256138   1.142   2.725   5.310  0.4034 -2.6820  2.4839
18284SOL     OW56139   0.913   0.545   0.658 -0.5398 -0.7490 -0.2978
18284SOL    HW156140   0.854   0.470   0.653 -1.4357 -0.0114 -1.7787
18284SOL    HW256141   0.893   0.596   0.579 -1.3651  2.0624  1.5446
18285SOL     OW56142   4.865   0.050   4.062  0.3849 -0.4941  0.3417
18285SOL    HW156143   4.816  -0.023   4.025 -0.2473 -0.5527  1.2516
18285SOL    HW256144   4.853   0.042   4.157  1.3755  0.0476  0.5333
18286SOL     OW56145   3.233   3.103   1.095 -0.3685 -0.7484 -0.3339
18286SOL    HW156146   3.173   3.030   1.081  1.1558 -2.6378  2.0238
18286SOL    HW256147   3.311   3.080   1.046 -0.4237  0.1592 -0.8782
18287SOL     OW56148   0.379   4.502   7.232  0.3861  0.5326 -0.4781
18287SOL    HW156149   0.313   4.435   7.250  1.3607 -0.1875  0.5402
18287SOL    HW256150   0.461   4.463   7.261  1.1742  1.6564 -1.1447
18288SOL     OW56151   0.920   4.153   5.409  0.2262 -0.2641  0.2965
18288SOL    HW156152   0.835   4.120   5.437 -0.2626 -1.9096 -2.6810
18288SOL    HW256153   0.923   4.244   5.440 -3.0561  0.1827 -0.3905
18289SOL     OW56154   6.420   7.020   0.631  0.1936 -0.5908 -0.1678
18289SOL    HW156155   6.460   7.104   0.652 -1.5278  0.2389 -0.0224
18289SOL    HW256156   6.490   6.970   0.590  1.6611  0.3588  1.0773
18290SOL     OW56157   3.927   4.579   4.038 -0.0516 -0.8238  0.4131
18290SOL    HW156158   3.890   4.493   4.059  1.4168 -1.9245 -1.1826
18290SOL    HW256159   3.851   4.632   4.013 -0.7816 -2.4082 -0.8985
18291SOL     OW56160   4.500   6.816   8.401  0.1476  0.4247 -0.1089
18291SOL    HW156161   4.424   6.874   8.393 -0.4035 -0.2813 -0.0216
18291SOL    HW256162   4.469   6.741   8.451  0.2600 -0.9583 -2.0000
18292SOL     OW56163   3.056   7.640   3.202 -0.4084  0.4624 -0.6030
18292SOL    HW156164   3.048   7.716   3.259  0.5448 -0.4747  0.8547
18292SOL    HW256165   3.146   7.609   3.214 -1.3467 -2.1046  0.5048
18293SOL     OW56166   8.245   8.125   4.466 -0.3381  0.4317  0.1965
18293SOL    HW156167   8.237   8.038   4.506  0.7478  1.5150  3.0140
18293SOL    HW256168   8.155   8.157   4.459 -0.6985 -0.6207 -0.2447
18294SOL     OW56169   8.088   6.824   7.781  0.0235 -0.7058  0.1480
18294SOL    HW156170   8.028   6.769   7.730 -1.6621  0.3621  0.9043
18294SOL    HW256171   8.145   6.761   7.825  0.8091 -1.6986 -2.0998
18295SOL     OW56172   3.592   6.588   5.024  0.0162 -0.4348  0.3370
18295SOL    HW156173   3.600   6.635   4.941  4.9463 -0.2599  0.5958
18295SOL    HW256174   3.594   6.496   4.999 -1.8416 -0.4756  0.2057
18296SOL     OW56175   2.048   6.094   5.707 -0.2046  0.0530  0.7251
18296SOL    HW156176   2.127   6.125   5.751  0.8741 -2.2082  0.5292
18296SOL    HW256177   2.041   6.147   5.628  0.7388  0.7105  1.0679
18297SOL     OW56178   5.179   0.869   3.185 -0.4848  0.5156  0.1871
18297SOL    HW156179   5.156   0.872   3.277 -1.4814  1.5069 -0.0694
18297SOL    HW256180   5.096   0.850   3.140  0.0206 -0.1441 -0.4965
18298SOL     OW56181   3.880   6.772   2.818 -0.6924  0.1141 -0.2670
18298SOL    HW156182   3.917   6.725   2.744 -1.7604 -0.5976 -0.3659
18298SOL    HW256183   3.954   6.785   2.877  0.2113  0.8455 -1.5186
18299SOL     OW56184   0.368   3.706   3.602  0.3833  0.1052  0.4875
18299SOL    HW156185   0.429   3.701   3.676 -0.6829 -0.7728  1.3519
18299SOL    HW256186   0.296   3.648   3.627  0.4449 -1.0068 -1.6841
18300SOL     OW56187   2.714   7.055   0.141 -0.2698  0.1665  0.4402
18300SOL    HW156188   2.789   6.997   0.128  0.2302  1.2086 -1.9704
18300SOL    HW256189   2.643   6.998   0.169  0.8153 -1.2112  0.4614
18301SOL     OW56190   8.602   2.231   3.324 -0.1413  0.1776  0.1293
18301SOL    HW156191   8.559   2.160   3.276  0.5046 -0.3460  0.3151
18301SOL    HW256192   8.578   2.216   3.415 -0.3972  0.4847  0.1148
18302SOL     OW56193   0.378   3.687   3.328  0.0906  0.3154 -0.0891
18302SOL    HW156194   0.342   3.707   3.414  0.2693  0.6962 -0.0987
18302SOL    HW256195   0.459   3.739   3.324  0.2117  0.1028 -0.3840
18303SOL     OW56196   2.966   7.871   3.322  0.0028 -0.5901 -0.1060
18303SOL    HW156197   2.962   7.958   3.363 -1.1797  0.8303 -3.0011
18303SOL    HW256198   2.882   7.831   3.343  1.1950 -1.9274  2.7405
18304SOL     OW56199   8.260   4.602   4.436  0.2251  0.1980  0.1945
18304SOL    HW156200   8.315   4.680   4.450  2.1388 -0.8650 -1.0049
18304SOL    HW256201   8.216   4.618   4.353  0.2231  0.2006  0.1957
18305SOL     OW56202   5.245   4.596   1.232  0.4531 -0.2000 -0.3564
18305SOL    HW156203   5.323   4.644   1.205  1.1063 -0.5109  0.8826
18305SOL    HW256204   5.275   4.505   1.238  0.4736 -0.0915  1.7442
18306SOL     OW56205   4.166   0.462   2.602  0.1853  0.0213 -0.0294
18306SOL    HW156206   4.130   0.546   2.632  1.3107  0.8137 -0.8100
18306SOL    HW256207   4.090   0.405   2.593 -0.5329  0.7559  1.1138
18307SOL     OW56208   6.768   4.848   4.260 -0.2815  0.0082  0.0449
18307SOL    HW156209   6.782   4.859   4.354 -0.4813  0.1746  0.0566
18307SOL    HW256210   6.676   4.824   4.252 -0.2321 -0.1333 -0.0989
18308SOL     OW56211   0.732   0.890   6.028  0.6322  0.6027 -0.0215
18308SOL    HW156212   0.707   0.876   5.937  1.0632  0.4139 -0.1132
18308SOL    HW256213   0.658   0.857   6.079  1.2817 -1.3687 -0.2523
18309SOL     OW56214   5.869   3.189   2.523  0.1809  0.5887 -0.2099
18309SOL    HW156215   5.849   3.232   2.440  1.2223 -1.0900 -1.4039
18309SOL    HW256216   5.960   3.160   2.513 -0.4436 -1.8727  0.4633
18310SOL     OW56217   4.831   5.631   7.951  0.2865 -0.0445 -0.1925
18310SOL    HW156218   4.920   5.604   7.975  0.1792  0.1027  0.3906
18310SOL    HW256219   4.776   5.591   8.018  0.1899  2.2024  1.1481
18311SOL     OW56220   0.569   7.870   5.893 -0.6888 -0.3436 -0.2402
18311SOL    HW156221   0.522   7.926   5.955 -0.5461 -0.7900  0.2859
18311SOL    HW256222   0.653   7.853   5.936 -0.0690  0.3911 -1.1414
18312SOL     OW56223   0.428   8.175   1.005 -0.5058 -0.4540  0.3971
18312SOL    HW156224   0.411   8.185   0.912  0.1306  0.6421  0.3936
18312SOL    HW256225   0.391   8.253   1.045  0.6664 -0.1267  0.8742
18313SOL     OW56226   4.388   1.385   5.753 -0.0569 -0.4908  0.0696
18313SOL    HW156227   4.328   1.405   5.825  0.9357  1.2748  0.4803
18313SOL    HW256228   4.411   1.293   5.766 -0.7999 -0.5269  1.3229
18314SOL     OW56229   5.582   8.390   7.868 -0.0614  0.0276  0.7244
18314SOL    HW156230   5.656   8.416   7.923  0.0044 -0.9753  1.1132
18314SOL    HW256231   5.622   8.349   7.791 -0.1691  1.0180  0.1153
18315SOL     OW56232   5.141   7.536   2.541 -0.2563 -0.2985  0.0759
18315SOL    HW156233   5.101   7.536   2.628 -0.5008 -1.2434 -0.0244
18315SOL    HW256234   5.211   7.600   2.546 -2.2648  2.0376  0.0300
18316SOL     OW56235   8.476   7.446   0.458 -0.3670  0.2351  0.0861
18316SOL    HW156236   8.561   7.455   0.414 -1.0732 -1.7585 -1.8391
18316SOL    HW256237   8.498   7.412   0.545  0.8146 -0.3234 -0.4111
18317SOL     OW56238   2.341   4.079   8.324 -0.3787  0.1777 -0.3926
18317SOL    HW156239   2.337   4.036   8.238 -0.2609 -0.1141 -0.2559
18317SOL    HW256240   2.263   4.133   8.328  0.2010  1.1063 -1.1586
18318SOL     OW56241   7.493   6.671   3.541  0.6106 -0.0053  0.2822
18318SOL    HW156242   7.506   6.623   3.459 -0.6280 -1.1896  0.7315
18318SOL    HW256243   7.576   6.662   3.587  0.4374 -1.7602  0.3365
18319SOL     OW56244   4.424   2.199   6.154  0.0882 -0.5557 -0.1424
18319SOL    HW156245   4.420   2.203   6.249 -1.4405 -0.5788 -0.1839
18319SOL    HW256246   4.381   2.279   6.124 -0.0180 -0.8525 -0.8146
18320SOL     OW56247   2.542   1.157   8.416  0.4241  0.4431  0.0507
18320SOL    HW156248   2.556   1.100   8.341  1.0175 -0.4527  0.8231
18320SOL    HW256249   2.467   1.211   8.392  1.2873  0.9503 -1.6324
18321SOL     OW56250   4.590   7.937   3.813  0.1737  0.2725  0.3132
18321SOL    HW156251   4.685   7.948   3.817 -0.0456  1.9725  1.7753
18321SOL    HW256252   4.562   7.992   3.740  0.1445  1.2102  1.0219
18322SOL     OW56253   1.155   1.687   1.840 -0.3142 -0.2007  0.3122
18322SOL    HW156254   1.247   1.666   1.855  0.1667  1.1832 -0.4893
18322SOL    HW256255   1.107   1.626   1.896  1.1654  1.0748  3.1799
18323SOL     OW56256   0.689   1.237   8.548 -0.3572 -0.1241  0.9100
18323SOL    HW156257   0.596   1.239   8.570 -0.9413 -1.3322 -1.1497
18323SOL    HW256258   0.697   1.293   8.472  1.1807  2.1878  2.6400
18324SOL     OW56259   1.746   4.488   8.373 -0.2420 -0.1738 -0.0906
18324SOL    HW156260   1.795   4.429   8.431  0.5735  0.7998  0.2357
18324SOL    HW256261   1.666   4.507   8.421  0.6690  1.0685  1.0155
18325SOL     OW56262   0.177   6.504   5.838  0.1991 -0.0695 -0.6515
18325SOL    HW156263   0.271   6.515   5.824  0.3841 -0.4769  0.2056
18325SOL    HW256264   0.139   6.589   5.816  0.8218  0.2478 -0.5171
18326SOL     OW56265   6.960   6.152   2.334 -0.4309 -0.5072  0.1234
18326SOL    HW156266   7.014   6.074   2.345 -0.3660 -0.2940  1.5010
18326SOL    HW256267   6.917   6.165   2.420 -1.7810 -0.0183 -0.5864
18327SOL     OW56268   6.463   4.591   1.518 -0.0862  0.3530  0.1789
18327SOL    HW156269   6.540   4.575   1.463 -0.9423 -1.3227 -0.5743
18327SOL    HW256270   6.483   4.548   1.601 -1.1499 -2.2915 -0.8382
18328SOL     OW56271   2.228   1.668   2.917  0.2698  0.2546 -0.4526
18328SOL    HW156272   2.309   1.712   2.891  0.2216  0.4993 -0.1916
18328SOL    HW256273   2.173   1.673   2.839  1.0181 -1.1563 -1.1072
18329SOL     OW56274   8.527   4.128   4.405  0.2598  0.3384  0.0874
18329SOL    HW156275   8.433   4.115   4.415 -0.0529  2.3250  0.1776
18329SOL    HW256276   8.543   4.116   4.311 -0.0609 -0.1093  0.0897
18330SOL     OW56277   7.769   6.949   2.640  0.0624 -0.7643  0.1987
18330SOL    HW156278   7.861   6.973   2.645 -0.1381 -0.1895  2.3000
18330SOL    HW256279   7.727   7.021   2.593  0.6504 -0.9869 -0.6868
18331SOL     OW56280   4.305   6.907   7.247  0.3091 -0.0192  0.1565
18331SOL    HW156281   4.246   6.849   7.199 -0.2412  0.3111  0.4216
18331SOL    HW256282   4.353   6.849   7.306  1.8484 -0.6083 -1.5715
18332SOL     OW56283   5.490   5.219   2.090  0.6548 -0.2676  0.2837
18332SOL    HW156284   5.475   5.236   2.184  0.6327 -1.0890  0.4354
18332SOL    HW256285   5.417   5.263   2.046 -0.7835 -1.9923  0.8383
18333SOL     OW56286   3.445   4.293   1.751  0.3531 -0.1838  0.0424
18333SOL    HW156287   3.398   4.284   1.668  0.2059 -0.6677  0.1759
18333SOL    HW256288   3.521   4.236   1.741  0.0223 -0.7106  0.4617
18334SOL     OW56289   2.926   1.083   5.764  0.1389 -0.1778 -0.0982
18334SOL    HW156290   2.951   1.033   5.685  1.0157  0.4957 -0.2659
18334SOL    HW256291   2.997   1.066   5.825  0.0578  0.2645  0.1161
18335SOL     OW56292   0.305   8.111   4.950 -0.4408 -0.1749 -0.0572
18335SOL    HW156293   0.300   8.160   4.868 -0.6973  0.4616  0.3378
18335SOL    HW256294   0.397   8.085   4.956  0.0394  1.5198  0.4467
18336SOL     OW56295   5.131   4.334   3.466  0.5095 -0.2376 -0.4006
18336SOL    HW156296   5.102   4.423   3.445  0.9143 -0.0818 -0.3030
18336SOL    HW256297   5.189   4.344   3.540 -2.3385 -0.9771  2.1352
18337SOL     OW56298   6.045   5.776   2.005  0.4050  0.0173 -0.1750
18337SOL    HW156299   6.124   5.736   2.040  0.4444 -0.9682 -1.3064
18337SOL    HW256300   6.018   5.839   2.071  1.2011 -0.8203  0.9882
18338SOL     OW56301   7.787   5.253   3.545 -0.3847 -0.5491  0.4117
18338SOL    HW156302   7.799   5.299   3.628  0.8673 -0.7529  0.3622
18338SOL    HW256303   7.711   5.296   3.505  0.5487  1.2954  0.5143
18339SOL     OW56304   7.662   4.403   2.066  0.0761 -0.2425 -0.6741
18339SOL    HW156305   7.710   4.415   2.148  0.8710 -0.4583 -1.0979
18339SOL    HW256306   7.577   4.444   2.082 -0.5323 -1.9838  0.9283
18340SOL     OW56307   7.875   3.170   3.542  0.1926  0.1277  0.4211
18340SOL    HW156308   7.857   3.263   3.532  0.2875  0.1628  0.5780
18340SOL    HW256309   7.790   3.132   3.566  0.2971  0.2780  1.0496
18341SOL     OW56310   4.417   2.177   6.664 -0.1172  0.3941  0.2264
18341SOL    HW156311   4.329   2.216   6.664 -0.2730  0.0601  0.9566
18341SOL    HW256312   4.473   2.245   6.626 -0.2636  1.6491  2.1222
18342SOL     OW56313   4.347   4.875   5.938  0.1061  0.5446 -0.3141
18342SOL    HW156314   4.407   4.814   5.980  1.3971  0.9104 -1.5512
18342SOL    HW256315   4.275   4.820   5.906  0.1613 -0.0107  0.4829
18343SOL     OW56316   5.052   6.924   7.362 -0.1207 -0.0260 -0.9182
18343SOL    HW156317   5.095   6.846   7.328 -0.5719 -0.0914 -1.3448
18343SOL    HW256318   5.002   6.958   7.288  0.1592  0.7290 -0.7705
18344SOL     OW56319   1.604   5.160   5.347 -0.3019 -0.1296  0.2029
18344SOL    HW156320   1.514   5.165   5.377 -0.2918 -0.9047  0.3751
18344SOL    HW256321   1.653   5.217   5.406 -0.6528  0.1970  0.1825
18345SOL     OW56322   8.046   4.456   5.645 -0.0010  0.0530  0.6145
18345SOL    HW156323   7.987   4.507   5.588  0.9158  0.9155  0.4090
18345SOL    HW256324   8.022   4.484   5.734 -1.2012 -1.0412  0.6567
18346SOL     OW56325   1.047   5.839   5.965  0.0929 -1.0043 -0.1404
18346SOL    HW156326   1.028   5.911   6.025  1.9235 -2.1214  1.9299
18346SOL    HW256327   0.961   5.802   5.944 -0.6246 -1.5128  3.1088
18347SOL     OW56328   8.491   7.020   8.122  0.1342  0.2331 -0.4036
18347SOL    HW156329   8.426   7.085   8.094  0.0192 -0.1466 -1.0636
18347SOL    HW256330   8.449   6.936   8.102  0.6874 -0.0189 -0.5151
18348SOL     OW56331   1.698   3.807   4.425 -0.3401 -0.1848  0.1660
18348SOL    HW156332   1.638   3.767   4.487 -0.7605  0.6069  0.2864
18348SOL    HW256333   1.767   3.742   4.412 -0.1158 -0.2642  1.6541
18349SOL     OW56334   3.633   0.143   3.486 -0.5085  0.5495 -0.1777
18349SOL    HW156335   3.707   0.198   3.512 -1.2320  1.1170  0.7151
18349SOL    HW256336   3.670   0.055   3.478  0.4506  0.9774 -0.6549
18350SOL     OW56337   1.582   3.763   4.149  0.4773 -0.6277  0.2884
18350SOL    HW156338   1.608   3.810   4.228  0.9145 -0.9845  0.3625
18350SOL    HW256339   1.513   3.817   4.110  1.6548  0.6134 -0.1771
18351SOL     OW56340   2.813   7.355   3.593  0.0575  0.1005  0.3236
18351SOL    HW156341   2.753   7.323   3.525  0.3511 -0.6608  0.4141
18351SOL    HW256342   2.776   7.321   3.675 -1.1274  2.2112  0.7648
18352SOL     OW56343   6.880   3.946   7.359 -0.3107 -0.1121 -0.2421
18352SOL    HW156344   6.891   3.892   7.437 -0.1536  0.8870  0.4423
18352SOL    HW256345   6.790   3.978   7.364  0.4191  1.9604  0.8867
18353SOL     OW56346   4.157   1.154   5.757  0.4287 -0.1500  0.0215
18353SOL    HW156347   4.247   1.143   5.786  0.5134  0.2258 -0.0901
18353SOL    HW256348   4.139   1.247   5.771  0.5485  0.0937 -1.3245
18354SOL     OW56349   2.168   0.954   3.492 -0.1413 -0.8021  0.1150
18354SOL    HW156350   2.210   0.900   3.558  2.4624  0.7853 -0.0773
18354SOL    HW256351   2.139   1.032   3.539  1.7669  0.3582 -0.4657
18355SOL     OW56352   7.599   8.410   3.847  0.1130 -0.0291 -0.0481
18355SOL    HW156353   7.571   8.448   3.764  0.5831 -0.3749 -0.3635
18355SOL    HW256354   7.675   8.357   3.826  2.2961  2.3912  1.0721
18356SOL     OW56355   7.695   4.111   1.840  0.0018 -0.0470 -0.7042
18356SOL    HW156356   7.747   4.165   1.900  0.3568  1.8444 -2.5707
18356SOL    HW256357   7.628   4.072   1.895 -0.0664  2.0900  0.8651
18357SOL     OW56358   2.232   3.444   7.888 -0.2367 -0.4422 -0.2033
18357SOL    HW156359   2.159   3.444   7.950 -0.3403 -1.5061 -0.2957
18357SOL    HW256360   2.212   3.515   7.827 -1.1353 -0.6368 -0.1546
18358SOL     OW56361   2.537   1.303   5.196 -0.5150  0.0759 -0.0560
18358SOL    HW156362   2.576   1.354   5.126 -1.7432  2.5029  0.8872
18358SOL    HW256363   2.611   1.271   5.248  0.3255  1.8794 -0.0740
18359SOL     OW56364   8.245   7.633   3.760 -0.1562 -0.1121  0.5759
18359SOL    HW156365   8.175   7.596   3.814 -0.1623 -1.2429 -0.1654
18359SOL    HW256366   8.310   7.563   3.754  0.1078  0.1982 -0.3997
18360SOL     OW56367   6.029   3.803   5.949 -0.8345 -0.6550 -0.5297
18360SOL    HW156368   5.982   3.806   6.032 -2.0292 -0.5742 -1.1894
18360SOL    HW256369   6.090   3.877   5.953  0.4520 -1.7228  1.0164
18361SOL     OW56370   6.862   5.475   8.283  0.4171  0.1738  0.4973
18361SOL    HW156371   6.768   5.468   8.264  0.5366 -2.3901  0.5257
18361SOL    HW256372   6.869   5.550   8.342 -1.2709  1.9163 -1.3668
18362SOL     OW56373   0.987   1.760   0.348 -0.5021 -0.1227  0.3720
18362SOL    HW156374   0.990   1.823   0.420 -1.0915 -0.1858  0.4592
18362SOL    HW256375   1.076   1.759   0.313 -0.0120 -0.6334  1.5666
18363SOL     OW56376   0.022   4.448   2.279  0.2001 -0.0183 -0.1794
18363SOL    HW156377   0.017   4.390   2.355  1.0798 -0.1572 -0.2155
18363SOL    HW256378  -0.028   4.526   2.306  0.4496 -0.0917  0.5232
18364SOL     OW56379   6.157   0.002   3.482  0.7926  0.0712  0.0405
18364SOL    HW156380   6.104  -0.076   3.499  0.2660  0.2698 -0.6221
18364SOL    HW256381   6.247  -0.026   3.496  0.5201 -0.2763  1.1930
18365SOL     OW56382   5.540   7.880   6.353 -0.3493  0.1808 -0.5686
18365SOL    HW156383   5.616   7.863   6.409 -0.8161 -1.5562 -0.4157
18365SOL    HW256384   5.518   7.795   6.315 -1.2033  0.9722 -1.9277
18366SOL     OW56385   7.870   1.192   3.940 -0.7317 -0.2695  0.0776
18366SOL    HW156386   7.887   1.134   3.866 -0.3944 -1.1339  0.8268
18366SOL    HW256387   7.810   1.258   3.904 -1.5621 -1.3801 -0.6411
18367SOL     OW56388   6.077   6.973   5.433 -0.1023 -0.6301  0.4541
18367SOL    HW156389   6.024   7.044   5.470 -0.8440 -0.8687 -0.1172
18367SOL    HW256390   6.025   6.894   5.450  0.2819 -0.9209  0.2698
18368SOL     OW56391   7.904   2.527   1.165 -0.1105 -0.2760  0.0243
18368SOL    HW156392   7.964   2.574   1.108 -1.1113 -0.8002 -1.5286
18368SOL    HW256393   7.918   2.434   1.145  0.8162 -0.5987  1.9968
18369SOL     OW56394   7.439   3.340   8.210  0.4234 -0.3712  0.6867
18369SOL    HW156395   7.405   3.424   8.182  0.5998 -0.3923  0.4095
18369SOL    HW256396   7.438   3.285   8.131 -2.1953 -1.4781  1.3902
18370SOL     OW56397   6.472   3.424   3.002 -0.1466  0.1833 -0.7724
18370SOL    HW156398   6.463   3.461   3.089 -1.2607 -0.3748 -0.6217
18370SOL    HW256399   6.565   3.402   2.994 -0.1278 -0.3006  0.5069
18371SOL     OW56400   3.311   4.397   3.632 -0.1271 -0.5159 -0.2608
18371SOL    HW156401   3.263   4.361   3.706  1.8845  1.0185  1.9306
18371SOL    HW256402   3.312   4.492   3.648 -0.0185 -0.0737 -2.5290
18372SOL     OW56403   3.342   4.505   7.541  0.3803  0.0853  0.4545
18372SOL    HW156404   3.397   4.483   7.466 -1.1326 -2.4887 -0.0452
18372SOL    HW256405   3.377   4.451   7.612  0.5325  0.9553  1.0559
18373SOL     OW56406   3.911   5.449   2.502 -0.2421  0.7684 -0.2906
18373SOL    HW156407   3.947   5.402   2.426 -0.4095 -0.2008  0.2169
18373SOL    HW256408   3.817   5.433   2.497 -0.1934  0.2228  0.4312
18374SOL     OW56409   4.639   5.087   7.813  0.1898  0.0603 -0.6840
18374SOL    HW156410   4.646   4.997   7.842  0.9149 -0.0771 -1.2542
18374SOL    HW256411   4.547   5.097   7.787  0.3998 -0.9398 -1.9307
18375SOL     OW56412   3.536   0.322   6.972 -0.3069  0.0401  0.2428
18375SOL    HW156413   3.600   0.317   6.902 -0.8616 -0.9188 -0.2129
18375SOL    HW256414   3.516   0.415   6.980 -0.7032  0.1159 -1.3195
18376SOL     OW56415   7.263   3.974   1.108  0.4668 -0.2690 -0.0682
18376SOL    HW156416   7.184   4.023   1.088 -0.3652 -1.4339  0.2467
18376SOL    HW256417   7.320   3.988   1.032 -0.8479 -0.9992 -1.2347
18377SOL     OW56418   0.094   2.933   5.213  0.1425  0.1134  0.0056
18377SOL    HW156419   0.077   2.857   5.157 -1.9900  0.1193  0.5603
18377SOL    HW256420   0.044   2.916   5.292  4.0217 -0.5068  2.6320
18378SOL     OW56421   3.921   0.643   3.546 -0.0372  0.1194 -0.1389
18378SOL    HW156422   3.886   0.570   3.495  0.8446 -0.8382  0.5974
18378SOL    HW256423   3.873   0.720   3.513 -0.8344 -0.7427 -1.0656
18379SOL     OW56424   4.913   7.313   3.437  0.2861 -0.1688  0.0530
18379SOL    HW156425   4.986   7.375   3.434  0.7110 -0.7064 -1.2542
18379SOL    HW256426   4.838   7.363   3.404  0.6318 -0.3323 -1.0173
18380SOL     OW56427   5.340   0.728   2.998  0.1037  0.2043  0.1518
18380SOL    HW156428   5.264   0.731   3.057 -0.4767  2.2706 -0.6369
18380SOL    HW256429   5.416   0.724   3.057 -0.5454 -0.6557  0.9607
18381SOL     OW56430   6.710   4.618   3.601 -0.4455 -0.6876  0.1122
18381SOL    HW156431   6.726   4.708   3.572  0.4247 -0.5999  0.8146
18381SOL    HW256432   6.631   4.591   3.553 -0.5564  0.3460 -0.3209
18382SOL     OW56433   4.573   7.909   2.706 -0.2276 -0.2874  0.6429
18382SOL    HW156434   4.642   7.924   2.772 -0.3649 -0.9147  0.9397
18382SOL    HW256435   4.566   7.813   2.701  1.4275 -0.3668 -1.9986
18383SOL     OW56436   4.763   6.647   2.807 -0.2621  0.1200  0.2333
18383SOL    HW156437   4.768   6.591   2.730  1.2390  0.4926  0.0142
18383SOL    HW256438   4.671   6.670   2.815 -0.3192  0.9851 -2.1335
18384SOL     OW56439   3.549   5.998   1.529  0.0940  0.4350  0.1837
18384SOL    HW156440   3.457   6.017   1.547 -0.1650 -0.1796 -0.4418
18384SOL    HW256441   3.597   6.046   1.597 -0.6887  0.6523  0.5997
18385SOL     OW56442   5.739   6.032   5.859 -0.3161 -0.0027 -0.2222
18385SOL    HW156443   5.654   5.991   5.878 -0.0029 -0.5656 -0.0102
18385SOL    HW256444   5.779   5.974   5.794  0.0512  0.0801 -0.0688
18386SOL     OW56445   3.837   3.452   7.041  0.1230  0.4336 -0.6241
18386SOL    HW156446   3.893   3.508   6.987 -0.1219 -1.2657 -2.7758
18386SOL    HW256447   3.882   3.368   7.043 -0.4734  0.1129  0.9136
18387SOL     OW56448   2.084   4.631   4.695  0.0686 -0.5336 -0.2673
18387SOL    HW156449   2.044   4.548   4.672 -1.2400  0.2422 -0.9253
18387SOL    HW256450   2.105   4.623   4.788 -0.6268 -1.3697 -0.1696
18388SOL     OW56451   0.461   4.842   8.431 -0.7169  0.0052  0.7025
18388SOL    HW156452   0.374   4.860   8.466 -1.0373  0.0141 -0.0745
18388SOL    HW256453   0.463   4.888   8.347  0.1238  0.1923  0.8175
18389SOL     OW56454   1.234   8.132   7.785 -0.3430  0.0256 -0.0648
18389SOL    HW156455   1.199   8.063   7.729 -0.1260 -1.6092  1.7292
18389SOL    HW256456   1.324   8.105   7.804  0.5228  1.9591 -1.0666
18390SOL     OW56457   5.769   3.109   6.730  0.3047  0.1377 -0.2626
18390SOL    HW156458   5.847   3.163   6.743  0.0700  0.1952  1.1062
18390SOL    HW256459   5.707   3.166   6.685  0.6351  0.4758 -0.2907
18391SOL     OW56460   0.680   1.771   7.654 -0.1264  0.5390  0.1575
18391SOL    HW156461   0.596   1.815   7.645 -0.2586  0.3634  0.5125
18391SOL    HW256462   0.719   1.776   7.567 -0.3053  1.0185  0.0997
18392SOL     OW56463   0.059   1.402   1.650  0.4510 -0.1288 -0.4475
18392SOL    HW156464   0.147   1.379   1.620  1.2124  0.4209  1.2802
18392SOL    HW256465   0.037   1.335   1.715  0.1769  0.5301  0.1561
18393SOL     OW56466   4.758   5.805   7.099  0.5866  0.1782  0.1943
18393SOL    HW156467   4.802   5.724   7.124  1.5663  0.8377  0.6562
18393SOL    HW256468   4.678   5.776   7.054  0.8192 -1.0323  0.5328
18394SOL     OW56469   8.510   0.241   3.093 -0.3632  0.3140  0.6324
18394SOL    HW156470   8.513   0.218   3.186  3.0974  0.9967  0.7917
18394SOL    HW256471   8.494   0.157   3.048  0.2499 -0.4259  1.7511
18395SOL     OW56472   1.262   1.337   2.479 -0.1582  0.1659  0.1401
18395SOL    HW156473   1.181   1.370   2.440 -1.4848 -0.9859  1.7740
18395SOL    HW256474   1.260   1.370   2.569 -0.1428 -1.9734  0.9831
18396SOL     OW56475   7.089   4.397   1.984  0.0973  0.1663 -0.6844
18396SOL    HW156476   7.174   4.352   1.978  0.1230 -0.3160  1.9348
18396SOL    HW256477   7.025   4.330   1.962  0.3303  0.3739 -2.0970
18397SOL     OW56478   5.466   0.304   3.312 -0.1484  0.5368  0.1309
18397SOL    HW156479   5.538   0.247   3.284  0.2849  0.5588  1.1574
18397SOL    HW256480   5.392   0.277   3.259  0.3421 -0.2201 -0.1871
18398SOL     OW56481   0.815   4.046   0.382  0.0211  0.2094  0.1310
18398SOL    HW156482   0.736   4.080   0.425 -0.1978  0.0578 -0.1483
18398SOL    HW256483   0.885   4.105   0.410 -0.2673  0.5960  0.0449
18399SOL     OW56484   3.088   3.411   7.923  0.5727  0.5663  0.4210
18399SOL    HW156485   3.042   3.333   7.955  2.5271 -0.4514  0.9141
18399SOL    HW256486   3.177   3.401   7.957  1.6070  1.6244 -1.8115
18400SOL     OW56487   1.398   3.508   5.210 -0.2710 -0.2433 -0.1260
18400SOL    HW156488   1.375   3.439   5.272  1.9918 -1.2568 -0.3286
18400SOL    HW256489   1.420   3.462   5.129 -1.4184  0.9429 -1.1625
18401SOL     OW56490   6.331   8.086   4.539  0.0591 -0.4163  0.1231
18401SOL    HW156491   6.334   8.123   4.627 -0.3219 -0.2143  0.0540
18401SOL    HW256492   6.287   8.001   4.550 -0.1045 -0.3348  0.1124
18402SOL     OW56493   2.378   6.061   0.614  0.1189 -0.7443  0.3445
18402SOL    HW156494   2.284   6.063   0.635  0.0033  2.1970 -0.0770
18402SOL    HW256495   2.389   6.128   0.547  2.2319 -2.5099 -1.2055
18403SOL     OW56496   7.168   1.553   2.781 -0.0118 -0.7391 -0.3711
18403SOL    HW156497   7.114   1.572   2.857 -1.5379  0.9941 -1.7712
18403SOL    HW256498   7.109   1.510   2.719  1.3151 -2.5622 -0.4517
18404SOL     OW56499   5.596   1.115   1.804  0.0651  0.0744  0.6062
18404SOL    HW156500   5.528   1.077   1.859 -0.4703  0.1171 -0.0052
18404SOL    HW256501   5.655   1.160   1.865 -0.0322 -0.6071  1.2108
18405SOL     OW56502   1.150   3.207   7.323  0.3437 -0.3076 -0.4027
18405SOL    HW156503   1.141   3.148   7.248  1.4561  0.6227 -1.2990
18405SOL    HW256504   1.175   3.150   7.396  1.0183 -1.0056 -1.1634
18406SOL     OW56505   3.329   6.293   7.725  0.5060  0.2096  0.4312
18406SOL    HW156506   3.297   6.380   7.701 -1.8037 -0.3892  1.0029
18406SOL    HW256507   3.325   6.292   7.821  2.6587  0.1786  0.5614
18407SOL     OW56508   6.924   2.132   7.902  0.4219 -0.3012 -0.0408
18407SOL    HW156509   6.861   2.202   7.922  0.5460  0.1091 -1.0210
18407SOL    HW256510   6.959   2.156   7.816  1.5226 -0.8121  0.2545
18408SOL     OW56511   8.040   7.382   4.834  0.1724  0.3952 -0.6314
18408SOL    HW156512   8.038   7.388   4.738 -0.1202 -2.0450 -0.8234
18408SOL    HW256513   7.949   7.377   4.860  0.2991 -0.5074 -0.3551
18409SOL     OW56514   2.791   8.174   3.999 -0.1201  0.0491 -0.1301
18409SOL    HW156515   2.846   8.245   4.032 -0.1014 -0.4850  1.0430
18409SOL    HW256516   2.846   8.096   4.007 -0.7751 -0.3736  0.3410
18410SOL     OW56517   3.270   3.363   7.443 -0.2861  0.4752 -0.4514
18410SOL    HW156518   3.252   3.436   7.385  1.5345  0.5708 -0.9553
18410SOL    HW256519   3.344   3.317   7.402  0.9985  0.4859  1.6711
18411SOL     OW56520   5.864   3.382   7.145 -0.0629  0.0121 -0.4983
18411SOL    HW156521   5.792   3.382   7.082 -0.1874 -0.3686 -0.3623
18411SOL    HW256522   5.871   3.473   7.174 -1.5618 -0.1836  0.6874
18412SOL     OW56523   4.816   6.222   0.369 -0.2237  0.2571  0.0556
18412SOL    HW156524   4.807   6.263   0.456  0.8714 -0.1952  0.4014
18412SOL    HW256525   4.770   6.139   0.376 -0.3362  0.3255  0.1282
18413SOL     OW56526   8.502   2.396   2.160  0.0754  0.1002 -0.1197
18413SOL    HW156527   8.565   2.346   2.109 -0.4286 -1.0909  0.3919
18413SOL    HW256528   8.430   2.413   2.100  1.1710  2.1719 -0.9545
18414SOL     OW56529   0.816   7.507   2.257 -0.1515 -0.1496  0.1150
18414SOL    HW156530   0.827   7.480   2.166  1.1482 -0.9951  0.4997
18414SOL    HW256531   0.886   7.569   2.273  0.6290 -1.2026  0.9637
18415SOL     OW56532   7.308   3.542   0.466 -0.6837 -0.0218 -0.4048
18415SOL    HW156533   7.371   3.485   0.421 -1.1734 -0.5156 -0.4799
18415SOL    HW256534   7.223   3.519   0.428 -0.9297  0.5278 -0.1958
18416SOL     OW56535   6.955   3.752   3.355 -0.1416 -0.5927  0.6386
18416SOL    HW156536   6.980   3.799   3.275 -3.1320 -1.0557 -0.7038
18416SOL    HW256537   7.038   3.721   3.391  1.3890  0.0146 -2.0453
18417SOL     OW56538   4.583   2.416   6.528 -0.3167 -0.0399  0.2685
18417SOL    HW156539   4.654   2.478   6.544 -0.5873  1.0137 -2.1382
18417SOL    HW256540   4.516   2.438   6.592 -0.0601  1.5947  0.0015
18418SOL     OW56541   2.885   0.690   5.605  0.2798  0.1259  0.5034
18418SOL    HW156542   2.878   0.682   5.700 -3.0177  2.8458  0.7080
18418SOL    HW256543   2.799   0.662   5.573  0.4371  1.6266 -1.3827
18419SOL     OW56544   4.053   8.694   1.204 -0.1160 -0.1686 -0.6670
18419SOL    HW156545   4.043   8.601   1.186 -0.5119 -0.3953  0.6632
18419SOL    HW256546   4.106   8.726   1.131  1.2076 -1.7008 -0.4344
18420SOL     OW56547   3.387   7.680   2.590 -0.6048 -0.6415  0.7085
18420SOL    HW156548   3.346   7.737   2.525  0.2204 -0.0110  0.7361
18420SOL    HW256549   3.479   7.677   2.565 -0.8139 -2.9414 -0.0233
18421SOL     OW56550   4.893   7.140   2.121  0.4008 -0.0394  0.2567
18421SOL    HW156551   4.907   7.205   2.051 -0.8154  1.0694  1.0157
18421SOL    HW256552   4.897   7.056   2.075 -0.1976  0.6508 -1.1326
18422SOL     OW56553   2.201   8.280   8.245  0.0997 -0.2735  0.0483
18422SOL    HW156554   2.276   8.279   8.185 -1.2573 -1.4636 -1.7297
18422SOL    HW256555   2.180   8.187   8.257 -1.5533  0.0614 -0.1068
18423SOL     OW56556   2.595   6.033   6.729  0.6107 -0.0928  0.0152
18423SOL    HW156557   2.654   5.960   6.746 -0.4069 -0.6521  1.2686
18423SOL    HW256558   2.570   6.065   6.815 -1.8321 -0.6216 -0.4315
18424SOL     OW56559   5.453   6.655   6.792 -0.0191 -0.2847  0.4966
18424SOL    HW156560   5.444   6.588   6.724 -0.6026 -1.7073  1.9223
18424SOL    HW256561   5.539   6.638   6.831 -0.3955 -0.5506  1.2204
18425SOL     OW56562   0.608   7.478   7.838 -0.0929 -0.1568 -0.0899
18425SOL    HW156563   0.611   7.382   7.841 -1.9670 -0.2541  0.1664
18425SOL    HW256564   0.678   7.503   7.779  2.2545 -1.5118  1.9154
18426SOL     OW56565   2.857   7.232   6.221 -0.0379  0.4580  0.0828
18426SOL    HW156566   2.778   7.281   6.244 -0.6017 -0.6927  0.7029
18426SOL    HW256567   2.841   7.144   6.254  0.5754 -0.4042 -1.7699
18427SOL     OW56568   3.009   6.721   7.453  0.1557  0.0945  0.0863
18427SOL    HW156569   2.956   6.787   7.408  0.1779 -0.7040 -1.1748
18427SOL    HW256570   3.065   6.684   7.384  2.1615  0.6942  1.3065
18428SOL     OW56571   1.827   7.261   3.321 -0.1303 -0.1119 -0.1839
18428SOL    HW156572   1.897   7.198   3.340  0.0774  0.7105  2.2028
18428SOL    HW256573   1.750   7.224   3.363 -0.3796  0.4596 -0.1334
18429SOL     OW56574   5.192   3.195   3.843  0.5401  0.3705 -0.0107
18429SOL    HW156575   5.132   3.269   3.832 -1.7787 -1.3033  0.4735
18429SOL    HW256576   5.243   3.193   3.762 -0.2637  1.7279 -0.5849
18430SOL     OW56577   6.536   1.071   5.931 -0.1958 -0.1208  0.2208
18430SOL    HW156578   6.606   1.040   5.874 -0.6835 -0.7663 -0.0338
18430SOL    HW256579   6.511   0.994   5.983 -0.9075  0.0245  0.1109
18431SOL     OW56580   8.416   8.695   0.607 -0.0072 -0.4233 -0.6948
18431SOL    HW156581   8.321   8.697   0.616 -0.0441  1.3721 -1.1335
18431SOL    HW256582   8.449   8.711   0.695 -0.1178 -0.1236 -0.7085
18432SOL     OW56583   5.266   5.416   6.094  0.1301  0.5187 -0.5033
18432SOL    HW156584   5.237   5.401   6.184  0.9118  0.5361 -0.2345
18432SOL    HW256585   5.316   5.337   6.072  1.4301  1.2503 -0.2809
18433SOL     OW56586   2.036   6.719   8.244  0.0698  0.4929 -0.2231
18433SOL    HW156587   2.049   6.719   8.339  1.0223 -1.7164 -0.2951
18433SOL    HW256588   2.123   6.736   8.208  0.2485 -1.1436 -0.6657
18434SOL     OW56589   4.264   3.022   1.165 -0.0162 -0.3854 -0.4991
18434SOL    HW156590   4.233   3.015   1.255  1.9615 -0.6762  0.2057
18434SOL    HW256591   4.354   2.991   1.168  0.1993 -0.0980 -2.5303
18435SOL     OW56592   6.802   4.621   7.844 -0.3692 -0.0445 -0.2701
18435SOL    HW156593   6.835   4.550   7.789 -1.1795 -1.2191  0.7114
18435SOL    HW256594   6.740   4.668   7.787  0.0044 -0.2331 -0.8488
18436SOL     OW56595   0.481   7.478   4.618 -0.5106  0.7145 -0.0630
18436SOL    HW156596   0.422   7.518   4.554 -1.3183 -0.0882  0.1620
18436SOL    HW256597   0.501   7.392   4.581 -1.0222  0.2281  0.7796
18437SOL     OW56598   3.224   8.515   0.622 -0.5215 -0.0451  0.1315
18437SOL    HW156599   3.163   8.568   0.671 -0.7230  0.8247 -1.0160
18437SOL    HW256600   3.309   8.529   0.664 -0.3750  2.0386 -0.7546
18438SOL     OW56601   7.427   8.171   2.995 -0.6946 -0.0270  0.1683
18438SOL    HW156602   7.436   8.260   2.960  0.3999 -0.1043  0.2036
18438SOL    HW256603   7.477   8.117   2.933  2.7677  0.0524  2.6152
18439SOL     OW56604   7.410   4.109   3.363  0.4178 -0.9269 -0.1718
18439SOL    HW156605   7.409   4.110   3.267  3.0195  0.3070 -0.2785
18439SOL    HW256606   7.500   4.134   3.386 -0.8031  1.4446  2.6282
18440SOL     OW56607   7.671   4.146   7.901  0.3148 -0.0268 -0.2923
18440SOL    HW156608   7.663   4.073   7.963  0.1770  1.1994  1.1770
18440SOL    HW256609   7.615   4.121   7.828 -0.4385 -0.9874  0.5765
18441SOL     OW56610   1.915   3.535   0.831 -0.1840 -0.0786  0.4280
18441SOL    HW156611   1.967   3.501   0.758 -1.3534 -1.8278  0.3492
18441SOL    HW256612   1.925   3.630   0.825  2.2296 -0.2912 -0.1221
18442SOL     OW56613   6.018   1.785   7.211  0.0296  0.8065  0.4044
18442SOL    HW156614   6.096   1.839   7.195 -0.6492  1.4864 -0.8270
18442SOL    HW256615   5.945   1.848   7.208 -0.7775 -0.1372 -0.9576
18443SOL     OW56616   6.410   2.740   1.994  0.3319  0.4274  0.1568
18443SOL    HW156617   6.323   2.780   1.996  0.8047  1.4832  2.1170
18443SOL    HW256618   6.469   2.812   1.971  0.8648  0.1409  0.6009
18444SOL     OW56619   2.860   3.772   1.719 -0.1682  0.6367 -0.2249
18444SOL    HW156620   2.840   3.735   1.805  0.3306 -0.5420 -0.5986
18444SOL    HW256621   2.805   3.722   1.658 -2.3932  3.0590 -0.4168
18445SOL     OW56622   1.347   5.773   7.239 -0.3333 -0.4484 -0.7229
18445SOL    HW156623   1.330   5.840   7.305 -0.1403 -0.7141 -0.3973
18445SOL    HW256624   1.439   5.748   7.254  0.1097  0.3871 -1.9206
18446SOL     OW56625   5.104   0.215   4.276  0.3576  0.6673 -0.0943
18446SOL    HW156626   5.144   0.128   4.274 -0.2106  0.4082 -0.0947
18446SOL    HW256627   5.047   0.213   4.352 -0.8831  0.4951 -1.0086
18447SOL     OW56628   0.140   7.732   3.603 -0.0774  0.0575  0.2491
18447SOL    HW156629   0.165   7.751   3.513  1.4216 -0.9585  0.4168
18447SOL    HW256630   0.223   7.722   3.649 -0.8218 -0.6540  1.4843
18448SOL     OW56631   4.633   8.220   0.695 -0.4231  0.2871 -0.5640
18448SOL    HW156632   4.569   8.285   0.665 -1.1365 -0.2871 -0.3260
18448SOL    HW256633   4.580   8.153   0.738  0.3444 -0.2228 -0.3973
18449SOL     OW56634   7.499   1.668   2.564  0.1984 -0.4566  0.1671
18449SOL    HW156635   7.585   1.631   2.584  0.0506 -1.6516 -1.2832
18449SOL    HW256636   7.443   1.591   2.551 -0.7836  0.3080 -0.1764
18450SOL     OW56637   7.148   6.108   7.668  0.3827  0.0710 -0.1479
18450SOL    HW156638   7.154   6.175   7.600  0.0594 -0.1705 -0.4212
18450SOL    HW256639   7.221   6.126   7.727  1.6328 -0.6766 -1.4131
18451SOL     OW56640   0.611   5.466   2.827 -0.8325 -0.1954  0.3353
18451SOL    HW156641   0.621   5.545   2.881 -4.7758 -0.4642  1.7305
18451SOL    HW256642   0.608   5.499   2.737  2.3105  0.6238  0.4072
18452SOL     OW56643   0.421   0.101   7.045  0.3598 -0.4478  0.2479
18452SOL    HW156644   0.384   0.106   6.956  1.6020  0.7038 -0.2284
18452SOL    HW256645   0.344   0.096   7.102 -0.4596 -2.2126 -0.9110
18453SOL     OW56646   3.554   2.545   0.894  0.3555 -0.1823  0.2429
18453SOL    HW156647   3.613   2.585   0.830  0.9776  0.4714  1.2082
18453SOL    HW256648   3.520   2.467   0.850 -0.3879  1.0276 -1.4443
18454SOL     OW56649   4.193   3.895   7.529 -0.4779 -0.1039 -0.5698
18454SOL    HW156650   4.210   3.966   7.466 -0.5108  1.3233  0.9747
18454SOL    HW256651   4.153   3.939   7.604  0.3575 -1.6268  0.8188
18455SOL     OW56652   0.396   1.552   8.487 -0.2380 -0.1111 -0.4748
18455SOL    HW156653   0.346   1.611   8.431 -0.6476 -0.5620 -0.5875
18455SOL    HW256654   0.469   1.605   8.518 -0.7620  0.5433 -0.3407
18456SOL     OW56655   7.787   2.862   7.609 -0.7749 -0.2130  0.4705
18456SOL    HW156656   7.735   2.782   7.602 -1.7942  0.4149  0.7751
18456SOL    HW256657   7.867   2.834   7.655 -1.0377 -1.0889  0.4153
18457SOL     OW56658   5.773   5.722   6.144  0.1544  0.3107  0.1261
18457SOL    HW156659   5.803   5.654   6.204 -0.1866 -0.8516 -0.9759
18457SOL    HW256660   5.691   5.688   6.108 -0.8136  1.9869  0.6430
18458SOL     OW56661   1.674   3.088   6.248 -0.1606  0.9120  0.0661
18458SOL    HW156662   1.628   3.094   6.332  3.3906 -1.2552  2.4523
18458SOL    HW256663   1.635   3.012   6.205 -0.3035  0.4080  1.0469
18459SOL     OW56664   0.222   8.110   3.637 -0.0404  0.3907  0.0454
18459SOL    HW156665   0.231   8.125   3.543  1.4741 -1.1735 -0.1012
18459SOL    HW256666   0.161   8.038   3.645 -4.0147  3.4682  0.5754
18460SOL     OW56667   6.835   6.970   2.371 -0.3810  0.2397 -0.0960
18460SOL    HW156668   6.785   7.040   2.328 -0.8901 -0.3295 -0.4421
18460SOL    HW256669   6.770   6.926   2.426 -0.1234 -0.1379 -0.1002
18461SOL     OW56670   3.418   7.239   2.917 -0.3733 -0.1342 -0.5854
18461SOL    HW156671   3.420   7.153   2.957  2.2843 -0.1365 -0.5570
18461SOL    HW256672   3.358   7.230   2.842  0.4003 -2.1997 -1.0018
18462SOL     OW56673   5.679   7.325   1.710  0.6265 -0.0966  0.1736
18462SOL    HW156674   5.602   7.340   1.765 -0.6834 -1.4636 -1.2083
18462SOL    HW256675   5.709   7.412   1.687 -0.8748  0.4767  0.2604
18463SOL     OW56676   8.373   0.616   3.371  0.5624  0.0072 -0.4471
18463SOL    HW156677   8.293   0.656   3.405  0.1151 -0.8565 -0.4451
18463SOL    HW256678   8.434   0.619   3.445  0.5789  0.7882 -0.4899
18464SOL     OW56679   8.460   0.340   1.099 -0.2965  0.0918  0.3381
18464SOL    HW156680   8.457   0.248   1.072  1.2736 -0.4978  1.9473
18464SOL    HW256681   8.475   0.389   1.018  0.1562 -1.1837 -0.3761
18465SOL     OW56682   3.834   3.708   5.381  0.1871  0.2845 -1.2879
18465SOL    HW156683   3.772   3.659   5.327  1.2387  0.3090 -2.5787
18465SOL    HW256684   3.780   3.765   5.435 -0.9270 -0.0319 -2.0370
18466SOL     OW56685   5.826   4.575   8.020 -0.1700  1.0325 -0.4943
18466SOL    HW156686   5.873   4.500   8.056 -0.6560  0.4194 -1.1160
18466SOL    HW256687   5.803   4.628   8.096 -1.6753 -0.5190  0.1837
18467SOL     OW56688   3.543   0.024   7.119 -0.0907 -0.6323 -0.6136
18467SOL    HW156689   3.554   0.067   7.034 -3.0082 -0.0714 -0.8259
18467SOL    HW256690   3.543  -0.069   7.099  1.2913 -0.5938 -0.8874
18468SOL     OW56691   1.313   3.976   7.621 -0.0661 -0.4849  0.0569
18468SOL    HW156692   1.234   4.017   7.657  0.3136 -0.9155  1.4151
18468SOL    HW256693   1.337   3.909   7.685 -1.3896 -3.8374 -2.6306
18469SOL     OW56694   2.131   7.285   3.887  0.0371 -0.0197 -0.4913
18469SOL    HW156695   2.052   7.332   3.859 -0.3231 -0.2513  0.1184
18469SOL    HW256696   2.153   7.323   3.972 -0.1173 -0.7713 -0.1050
18470SOL     OW56697   2.721   8.371   4.731  0.6502  0.2604 -0.6590
18470SOL    HW156698   2.809   8.364   4.694  0.8847  0.1847 -0.0984
18470SOL    HW256699   2.690   8.458   4.705  1.6125  1.0459  0.6586
18471SOL     OW56700   6.145   5.779   1.286 -0.7002  0.4997 -0.4836
18471SOL    HW156701   6.217   5.821   1.239  1.4730 -1.9382  0.3954
18471SOL    HW256702   6.138   5.829   1.367  0.7384  0.2029 -0.1424
18472SOL     OW56703   3.860   0.144   7.874  0.2199 -0.3708  0.2898
18472SOL    HW156704   3.805   0.150   7.952  0.9759  0.0350  0.8076
18472SOL    HW256705   3.799   0.125   7.803 -0.5144 -0.4828  0.9370
18473SOL     OW56706   3.854   8.041   4.878  0.2935  0.3298 -0.4510
18473SOL    HW156707   3.894   7.969   4.829 -1.0420 -0.1167 -0.9467
18473SOL    HW256708   3.815   7.998   4.954  0.1056  0.6316 -0.3768
18474SOL     OW56709   4.662   1.652   4.043  0.0018 -0.1720 -0.1374
18474SOL    HW156710   4.610   1.721   4.002 -0.8845 -1.6714 -1.6346
18474SOL    HW256711   4.695   1.692   4.124  1.9822  3.0087 -2.2802
18475SOL     OW56712   5.450   4.011   4.457  0.0247  0.2076 -0.6361
18475SOL    HW156713   5.525   3.996   4.514  0.7949  0.4767 -1.5468
18475SOL    HW256714   5.452   3.938   4.395 -0.8282 -0.1106 -0.2986
18476SOL     OW56715   7.247   6.266   8.106  0.0981  0.2925 -0.2515
18476SOL    HW156716   7.242   6.172   8.127 -0.0208  0.1159 -1.0444
18476SOL    HW256717   7.207   6.309   8.181 -0.5812 -0.3413 -0.2333
18477SOL     OW56718   4.128   8.695   7.946  0.1262  0.2453 -0.1762
18477SOL    HW156719   4.079   8.613   7.945  0.9274 -0.2534 -0.0680
18477SOL    HW256720   4.062   8.763   7.943 -0.5526 -0.4080 -0.4363
18478SOL     OW56721   1.682   0.622   1.559 -0.5339 -0.6015 -0.1137
18478SOL    HW156722   1.691   0.682   1.485  0.4170  0.1530  0.5874
18478SOL    HW256723   1.707   0.537   1.524 -0.8071 -0.3888 -0.8418
18479SOL     OW56724   8.134   2.878   6.159  0.2396 -0.0337  0.2811
18479SOL    HW156725   8.184   2.839   6.231  0.5979  0.5706  0.3680
18479SOL    HW256726   8.070   2.811   6.135  1.7324 -1.2502 -0.5040
18480SOL     OW56727   0.170   2.029   1.753  0.0949 -0.0050 -0.2470
18480SOL    HW156728   0.198   1.968   1.685 -1.5866 -0.2820 -0.7379
18480SOL    HW256729   0.226   2.008   1.828  0.5755 -1.1163 -0.8830
18481SOL     OW56730   5.280   5.515   0.580 -0.1456 -0.6075  0.0773
18481SOL    HW156731   5.228   5.439   0.553 -1.3389 -0.1516  0.9847
18481SOL    HW256732   5.310   5.494   0.668 -1.4542  0.4171  0.7991
18482SOL     OW56733   6.294   3.436   4.147  0.3120 -0.3024 -0.0606
18482SOL    HW156734   6.255   3.377   4.082  1.3604 -1.2774  0.1648
18482SOL    HW256735   6.289   3.523   4.107 -1.7422 -0.4269 -0.1787
18483SOL     OW56736   3.901   7.831   0.461  0.1987  0.0143  0.0360
18483SOL    HW156737   3.995   7.847   0.455  0.1019  1.9803  2.3165
18483SOL    HW256738   3.894   7.736   0.475  1.9833  0.0359  1.4921
18484SOL     OW56739   1.872   5.352   5.313  0.1449  0.4873 -0.1973
18484SOL    HW156740   1.809   5.422   5.331 -0.1296 -0.1397  1.5420
18484SOL    HW256741   1.949   5.376   5.365  0.8872  0.6195 -1.3434
18485SOL     OW56742   8.601   2.901   6.573 -0.2069 -0.0448 -0.2911
18485SOL    HW156743   8.543   2.930   6.503 -0.6066  2.4024  0.9316
18485SOL    HW256744   8.689   2.906   6.535 -0.5606 -0.9943 -1.2795
18486SOL     OW56745   5.603   5.741   1.225 -0.5299 -0.1607 -0.0729
18486SOL    HW156746   5.654   5.805   1.175 -1.8728  1.6896  0.8283
18486SOL    HW256747   5.513   5.755   1.197 -0.7745 -2.4400 -0.6293
18487SOL     OW56748   5.007   4.410   5.643  0.4797  0.2200 -0.4717
18487SOL    HW156749   5.063   4.364   5.580  2.0451  0.6363  0.5615
18487SOL    HW256750   5.003   4.500   5.611  1.2621  0.4281  0.0025
18488SOL     OW56751   3.565   6.533   0.145 -0.5758  0.5704  0.3141
18488SOL    HW156752   3.630   6.482   0.097 -1.4371  0.4370 -0.7412
18488SOL    HW256753   3.566   6.496   0.234  0.4425  0.2589  0.1809
18489SOL     OW56754   3.289   6.408   7.323  0.4109 -0.2820  0.4432
18489SOL    HW156755   3.332   6.482   7.366 -0.1638 -0.0269  0.5871
18489SOL    HW256756   3.346   6.333   7.341  0.5993 -0.0210  0.9479
18490SOL     OW56757   8.344   2.484   2.836 -0.0767 -1.0645  0.1547
18490SOL    HW156758   8.379   2.399   2.810  0.5564 -0.5620 -0.7182
18490SOL    HW256759   8.249   2.471   2.841 -0.1061 -1.5286 -1.1892
18491SOL     OW56760   2.794   2.023   3.139 -0.0774 -0.0102  0.1254
18491SOL    HW156761   2.734   2.078   3.190  0.8854  2.1811 -0.9539
18491SOL    HW256762   2.876   2.024   3.188 -0.8520 -3.1666  1.7032
18492SOL     OW56763   4.720   7.841   7.741  0.6578  0.4733 -0.4386
18492SOL    HW156764   4.677   7.758   7.762 -0.8840  1.4374  0.3438
18492SOL    HW256765   4.760   7.826   7.655  0.4598 -1.0783 -0.2904
18493SOL     OW56766   0.597   8.231   3.286 -0.0181  0.2375  0.4316
18493SOL    HW156767   0.613   8.249   3.194  1.9793 -0.0139  0.6845
18493SOL    HW256768   0.533   8.297   3.313  0.1041  0.9190 -0.8859
18494SOL     OW56769   0.581   0.127   0.152 -0.2992 -0.1875 -0.7138
18494SOL    HW156770   0.579   0.221   0.173 -0.2240 -0.3619  0.1070
18494SOL    HW256771   0.521   0.118   0.079  2.1699  1.0286 -3.0645
18495SOL     OW56772   8.481   7.723   5.893  0.0947  0.0367 -0.0941
18495SOL    HW156773   8.547   7.667   5.852  0.4000  0.4680 -0.1928
18495SOL    HW256774   8.400   7.703   5.845  0.5713  0.9851 -1.3488
18496SOL     OW56775   4.609   7.308   6.416 -0.0462 -0.1145  0.0500
18496SOL    HW156776   4.700   7.311   6.446 -0.6872  0.3389  2.0679
18496SOL    HW256777   4.613   7.261   6.333  2.3097  1.6944 -0.9814
18497SOL     OW56778   5.493   3.337   8.144 -0.9098  0.1589 -0.3544
18497SOL    HW156779   5.470   3.404   8.208  1.2706  1.0524 -0.4298
18497SOL    HW256780   5.505   3.385   8.062  1.3708 -0.1454 -0.2634
18498SOL     OW56781   3.213   2.156   8.261 -0.0679 -0.0206 -0.2458
18498SOL    HW156782   3.238   2.137   8.352  2.0390  1.7338 -0.3609
18498SOL    HW256783   3.272   2.102   8.209 -0.0719  0.2836 -0.5660
18499SOL     OW56784   4.460   3.868   5.019 -0.1707  0.1866 -0.1718
18499SOL    HW156785   4.516   3.933   5.061 -0.3575 -0.9224  1.9192
18499SOL    HW256786   4.388   3.855   5.082 -1.0637 -0.7583 -1.3504
18500SOL     OW56787   0.800   2.102   2.400 -0.0648  0.2476  0.1664
18500SOL    HW156788   0.739   2.030   2.386 -1.0932  1.2408 -0.6302
18500SOL    HW256789   0.867   2.091   2.333 -0.6758  0.5009 -0.4908
18501SOL     OW56790   7.795   7.587   0.327 -0.0654  0.0130  0.3779
18501SOL    HW156791   7.884   7.605   0.357  0.3355 -1.7036  0.3154
18501SOL    HW256792   7.776   7.499   0.359 -1.2345 -0.1751 -0.7472
18502SOL     OW56793   3.603   5.029   2.847 -0.2016  0.6999 -0.1081
18502SOL    HW156794   3.561   5.108   2.881 -1.2473  1.3321 -2.6736
18502SOL    HW256795   3.697   5.045   2.856 -0.3900  0.7353  2.4987
18503SOL     OW56796   3.008   2.248   1.023  0.4116 -0.1285  0.3222
18503SOL    HW156797   3.083   2.231   1.080  0.3982  0.8244  0.6292
18503SOL    HW256798   2.962   2.321   1.063  0.2806  0.4236 -0.7886
18504SOL     OW56799   3.154   1.254   8.318 -0.2098  0.5240  0.6039
18504SOL    HW156800   3.067   1.257   8.277  0.6185 -0.0228 -1.2605
18504SOL    HW256801   3.147   1.185   8.384 -0.3498 -1.7634 -1.6787
18505SOL     OW56802   2.848   2.657   0.109  0.0787  0.1232  0.0791
18505SOL    HW156803   2.813   2.684   0.193 -0.6905 -0.7053  0.0289
18505SOL    HW256804   2.928   2.609   0.130 -0.6567 -0.9711  0.4023
18506SOL     OW56805   4.442   5.838   5.477 -0.2026 -0.1244 -0.6249
18506SOL    HW156806   4.427   5.848   5.571 -1.8883  0.6827 -0.9412
18506SOL    HW256807   4.488   5.919   5.452 -0.3643 -0.0289 -0.6130
18507SOL     OW56808   7.294   1.785   6.502 -0.3236  0.6136  0.0832
18507SOL    HW156809   7.237   1.816   6.572 -0.4913  0.3877  0.0476
18507SOL    HW256810   7.312   1.863   6.450  0.8025  1.0466  1.0672
18508SOL     OW56811   6.972   4.449   5.619  0.3764 -0.3243  0.1549
18508SOL    HW156812   7.058   4.411   5.603  0.9565  1.2312 -0.5377
18508SOL    HW256813   6.911   4.376   5.604  1.5941 -1.9074  2.2404
18509SOL     OW56814   2.750   0.020   2.430 -0.4364  0.1198 -0.0715
18509SOL    HW156815   2.688  -0.033   2.480 -0.7174  0.0861 -0.4575
18509SOL    HW256816   2.711   0.108   2.428 -0.6212  0.0238 -0.5818
18510SOL     OW56817   3.931   8.262   1.493 -0.0195  0.2693 -0.5929
18510SOL    HW156818   3.892   8.342   1.458  2.2915  1.7361 -0.0998
18510SOL    HW256819   4.002   8.293   1.550  0.7251 -2.1403 -0.0715
18511SOL     OW56820   5.511   6.201   1.832 -0.0216 -0.1036 -0.1957
18511SOL    HW156821   5.471   6.287   1.819  0.5819  0.2047 -0.0378
18511SOL    HW256822   5.568   6.190   1.756 -0.1544 -0.4011 -0.2541
18512SOL     OW56823   7.639   8.255   0.787 -0.3397  0.4282  0.3035
18512SOL    HW156824   7.650   8.350   0.790 -0.5341  0.4904 -0.7409
18512SOL    HW256825   7.562   8.239   0.841 -1.6536  1.1135 -1.2823
18513SOL     OW56826   5.637   1.794   1.203 -0.0934 -0.2194 -0.3244
18513SOL    HW156827   5.627   1.717   1.260 -0.5144 -1.1351 -1.5640
18513SOL    HW256828   5.621   1.759   1.115 -1.2980  1.4924 -0.8235
18514SOL     OW56829   2.043   0.990   6.028 -0.2569 -1.2235  0.1025
18514SOL    HW156830   2.134   1.013   6.046 -0.6206 -1.3627  2.3812
18514SOL    HW256831   2.021   1.040   5.949  0.8153  1.4998  1.3956
18515SOL     OW56832   5.933   2.095   2.913  0.1392 -0.4192 -0.4583
18515SOL    HW156833   5.958   2.187   2.916 -0.1626 -0.3582  0.2404
18515SOL    HW256834   5.950   2.069   2.822  0.0231  0.3798 -0.7183
18516SOL     OW56835   2.815   5.240   2.541  0.4621 -0.0962  0.3464
18516SOL    HW156836   2.800   5.334   2.545 -2.2335 -0.3479 -1.4036
18516SOL    HW256837   2.749   5.202   2.598 -1.2807 -0.9932 -2.0736
18517SOL     OW56838   5.618   7.324   0.813  0.2526  0.2614 -0.0025
18517SOL    HW156839   5.694   7.317   0.870  1.2124  1.8271 -1.0128
18517SOL    HW256840   5.623   7.246   0.757 -0.6470 -1.2377  1.8968
18518SOL     OW56841   6.180   4.991   2.138 -0.2070 -0.0430 -0.3432
18518SOL    HW156842   6.253   4.962   2.083  1.7150  2.3087  0.7813
18518SOL    HW256843   6.119   5.033   2.076  0.0508 -0.8026 -1.1290
18519SOL     OW56844   1.655   1.155   7.707  0.1856  0.2517  0.4168
18519SOL    HW156845   1.717   1.162   7.778  0.4170 -0.1095  0.2542
18519SOL    HW256846   1.641   1.245   7.677  0.6209  0.3339  0.4607
18520SOL     OW56847   6.435   8.621   4.273  0.0340  0.5968 -0.1874
18520SOL    HW156848   6.465   8.574   4.351 -0.0853  2.0839  0.8016
18520SOL    HW256849   6.344   8.595   4.263  0.0957  0.2705  0.0747
18521SOL     OW56850   5.581   2.653   0.331 -0.2506  0.1326 -0.7564
18521SOL    HW156851   5.669   2.619   0.312 -0.9471 -1.0747 -2.0142
18521SOL    HW256852   5.579   2.740   0.291  1.6763  2.0574  2.7981
18522SOL     OW56853   5.260   2.734   6.235 -0.0651 -0.1150  0.3432
18522SOL    HW156854   5.263   2.669   6.305  0.2708  0.3333  0.7512
18522SOL    HW256855   5.351   2.750   6.212 -0.1143  0.6485  0.6581
18523SOL     OW56856   6.462   6.202   0.971  0.0218  0.0789 -0.1508
18523SOL    HW156857   6.436   6.164   1.055 -1.2975  0.1472 -0.5102
18523SOL    HW256858   6.381   6.207   0.921  0.8056 -0.0717 -1.4816
18524SOL     OW56859   6.875   6.459   2.332  0.3121  0.0901 -0.3266
18524SOL    HW156860   6.903   6.549   2.350 -0.9420  0.6925 -1.2506
18524SOL    HW256861   6.942   6.424   2.273  0.9206  0.3328  0.2090
18525SOL     OW56862   5.766   7.510   6.748  0.0953  0.0465 -0.4149
18525SOL    HW156863   5.673   7.530   6.757  0.4376  1.2786  0.6712
18525SOL    HW256864   5.786   7.457   6.825  0.5113  0.6895 -0.0727
18526SOL     OW56865   5.897   4.270   3.631 -0.0172 -0.3518  0.1197
18526SOL    HW156866   5.807   4.286   3.600 -0.4867 -2.2666  0.3859
18526SOL    HW256867   5.929   4.200   3.575  1.1079 -0.1077  0.4433
18527SOL     OW56868   7.625   4.990   0.410 -0.1381 -0.5607  0.0920
18527SOL    HW156869   7.575   4.909   0.398  1.3146 -1.2530 -1.7672
18527SOL    HW256870   7.716   4.963   0.415  0.2810  0.8688  0.8108
18528SOL     OW56871   3.209   6.508   3.649  1.0411 -0.3053  0.1361
18528SOL    HW156872   3.281   6.449   3.629 -0.1042 -1.8871  0.4616
18528SOL    HW256873   3.132   6.465   3.612 -0.1602 -0.0924  2.1991
18529SOL     OW56874   6.387   8.549   5.731  0.6170  0.1421  0.6146
18529SOL    HW156875   6.360   8.568   5.820  0.7632  0.5634  0.5716
18529SOL    HW256876   6.313   8.576   5.677  0.9887  1.0209  0.5196
18530SOL     OW56877   8.168   8.148   0.584 -0.3708 -0.1099 -0.2601
18530SOL    HW156878   8.147   8.241   0.591  0.6943  0.0144  2.1660
18530SOL    HW256879   8.097   8.112   0.531  0.5731  2.4461 -3.6052
18531SOL     OW56880   5.746   3.659   3.930  0.2923 -0.0752 -0.1594
18531SOL    HW156881   5.660   3.697   3.911  0.6671  1.4815  1.0442
18531SOL    HW256882   5.791   3.659   3.846 -0.6077 -0.1975 -0.6569
18532SOL     OW56883   7.113   3.444   4.441  0.5562  0.4144  0.1232
18532SOL    HW156884   7.093   3.358   4.477 -0.5735  0.3018 -0.7137
18532SOL    HW256885   7.085   3.439   4.350  0.7851  1.5674 -0.0245
18533SOL     OW56886   3.800   5.910   2.987 -0.0600 -0.4517 -0.7161
18533SOL    HW156887   3.885   5.950   2.970 -0.6002  1.0734 -0.0183
18533SOL    HW256888   3.808   5.873   3.075 -0.8169  1.8779  0.4228
18534SOL     OW56889   8.329   4.398   8.165 -0.2395  0.7365  0.6534
18534SOL    HW156890   8.281   4.316   8.154 -1.5923  1.4600  0.9478
18534SOL    HW256891   8.407   4.373   8.215 -0.5534 -0.3889  0.6209
18535SOL     OW56892   1.860   4.183   2.375  0.0792 -0.5022 -0.1893
18535SOL    HW156893   1.946   4.214   2.402  0.6459 -0.5428 -1.8742
18535SOL    HW256894   1.803   4.259   2.385  0.6035 -0.0754 -0.4285
18536SOL     OW56895   3.863   3.229   6.390 -0.3834 -0.3382  0.0449
18536SOL    HW156896   3.847   3.135   6.389  0.4128 -0.5088 -2.2311
18536SOL    HW256897   3.786   3.266   6.434 -0.6282 -2.0463  1.1280
18537SOL     OW56898   2.662   0.751   2.085 -0.0270 -0.5567 -0.4934
18537SOL    HW156899   2.660   0.814   2.157  0.0680 -0.3489 -0.6714
18537SOL    HW256900   2.609   0.678   2.115 -1.2545  0.1804 -0.8087
18538SOL     OW56901   4.394   7.358   8.243 -0.0493  0.1131 -0.3052
18538SOL    HW156902   4.389   7.419   8.170 -1.3338 -0.9417 -1.1504
18538SOL    HW256903   4.468   7.389   8.295 -0.3444  2.0758 -0.9546
18539SOL     OW56904   7.029   8.462   7.871 -0.1006 -0.3717 -0.3378
18539SOL    HW156905   7.005   8.465   7.964  1.5305 -1.3670  0.1676
18539SOL    HW256906   7.075   8.544   7.856  0.3178 -0.5470 -0.0420
18540SOL     OW56907   5.833   3.704   0.299  0.3558  0.1367 -0.9043
18540SOL    HW156908   5.874   3.756   0.368 -0.7532  2.2466 -1.7430
18540SOL    HW256909   5.907   3.675   0.245  1.1669 -0.8999  0.6876
18541SOL     OW56910   2.313   3.058   1.330 -0.3317  0.2345 -0.8289
18541SOL    HW156911   2.253   3.094   1.396 -0.5727 -0.3381 -0.7281
18541SOL    HW256912   2.294   2.964   1.329 -0.7170  0.3033 -2.1102
18542SOL     OW56913   3.381   5.761   0.358 -0.0565 -0.3028 -0.5637
18542SOL    HW156914   3.342   5.831   0.306 -0.4884 -0.1432 -0.0315
18542SOL    HW256915   3.475   5.777   0.353 -0.0465 -0.6043 -1.7360
18543SOL     OW56916   4.541   0.390   3.478  0.5651  0.7951  0.2449
18543SOL    HW156917   4.613   0.448   3.504  0.9857  0.3102  0.1625
18543SOL    HW256918   4.570   0.302   3.502 -0.9455  0.7901  2.3304
18544SOL     OW56919   6.300   1.530   7.732  0.0194 -0.3115 -0.4759
18544SOL    HW156920   6.318   1.610   7.782  0.0734 -0.2888 -0.5311
18544SOL    HW256921   6.373   1.472   7.754  0.3984 -0.0562 -1.0452
18545SOL     OW56922   0.187   2.795   6.779  0.6015 -0.0523  0.3558
18545SOL    HW156923   0.106   2.788   6.830  0.1816  0.8767 -0.1571
18545SOL    HW256924   0.173   2.737   6.705  1.2229 -1.4261  1.2754
18546SOL     OW56925   3.768   8.654   6.495 -0.3396 -0.6701 -0.0214
18546SOL    HW156926   3.749   8.695   6.411 -1.0871 -0.4620  0.2449
18546SOL    HW256927   3.709   8.579   6.500  0.5709 -1.4292 -0.2197
18547SOL     OW56928   6.092   7.228   6.102  0.2406  0.2102 -0.4245
18547SOL    HW156929   6.005   7.224   6.142  0.4922 -0.4571  0.0758
18547SOL    HW256930   6.131   7.142   6.120  1.6244  1.0431  0.7674
18548SOL     OW56931   0.104   3.684   1.443  0.1314  0.1042  0.0063
18548SOL    HW156932   0.049   3.727   1.509 -0.9296 -1.4827  0.2062
18548SOL    HW256933   0.089   3.590   1.457 -0.9675 -0.3038 -3.1261
18549SOL     OW56934   2.975   3.194   8.503 -0.0704 -0.3221 -0.0938
18549SOL    HW156935   3.004   3.277   8.539 -1.2405 -0.1743  0.5395
18549SOL    HW256936   2.882   3.206   8.485 -0.4766 -1.7621  0.8443
18550SOL     OW56937   5.993   3.296   6.630 -0.0140  0.0787 -0.6877
18550SOL    HW156938   5.977   3.361   6.562  0.8330  1.5976  0.4990
18550SOL    HW256939   6.085   3.272   6.620 -0.4151 -1.3045 -1.3722
18551SOL     OW56940   4.711   2.236   4.072 -0.2268 -0.1812  0.4833
18551SOL    HW156941   4.726   2.282   3.990  0.9638 -1.2524  0.0687
18551SOL    HW256942   4.663   2.158   4.047 -0.7437 -0.0184  0.9513
18552SOL     OW56943   3.905   4.196   3.859  0.1497 -0.6231  0.0740
18552SOL    HW156944   3.852   4.226   3.932 -1.2301  1.2044 -1.5804
18552SOL    HW256945   3.993   4.229   3.879  0.0656 -1.1518  1.4298
18553SOL     OW56946   1.549   3.025   6.723  0.4782 -0.1042 -0.3653
18553SOL    HW156947   1.506   3.077   6.655 -0.6963 -1.6018 -0.8058
18553SOL    HW256948   1.527   3.070   6.805  0.7829  0.9415 -0.8390
18554SOL     OW56949   2.736   3.304   5.609 -0.4959 -0.7509  0.2529
18554SOL    HW156950   2.642   3.297   5.627 -0.8825  1.6449 -0.4697
18554SOL    HW256951   2.742   3.300   5.513  0.0074  0.1983  0.2331
18555SOL     OW56952   5.082   4.584   7.720  0.1482 -0.1281  0.5577
18555SOL    HW156953   5.145   4.576   7.648  0.4445 -0.0758  0.8121
18555SOL    HW256954   5.001   4.547   7.684  0.3822 -0.4039  0.3074
18556SOL     OW56955   6.751   5.182   4.252 -0.5145 -0.0479 -0.0013
18556SOL    HW156956   6.657   5.197   4.254 -0.5398  0.0034 -1.2230
18556SOL    HW256957   6.762   5.097   4.294 -0.9932  0.3921  1.0592
18557SOL     OW56958   0.943   4.499   2.138  0.2555  0.1927 -0.7017
18557SOL    HW156959   0.924   4.462   2.224 -0.8426 -1.0627 -1.4464
18557SOL    HW256960   1.023   4.550   2.151  0.7272 -0.8554  0.8120
18558SOL     OW56961   1.595   0.766   6.123 -0.4053 -0.0111  0.2878
18558SOL    HW156962   1.566   0.856   6.115 -0.5776 -0.1206 -0.3622
18558SOL    HW256963   1.687   0.772   6.148 -0.1076  0.3551 -0.8312
18559SOL     OW56964   5.892   0.832   7.030 -0.1863  0.0030  0.2101
18559SOL    HW156965   5.875   0.922   7.001 -1.4193 -0.7672 -1.5925
18559SOL    HW256966   5.812   0.807   7.077 -1.3289 -1.2465 -2.2283
18560SOL     OW56967   2.921   4.770   5.442 -0.1911 -0.0358  0.0525
18560SOL    HW156968   2.886   4.808   5.362 -0.0807  0.6860  0.3393
18560SOL    HW256969   2.847   4.769   5.503 -0.7493 -2.1723 -0.5627
18561SOL     OW56970   5.981   7.063   2.885  0.3429  0.4222  0.1148
18561SOL    HW156971   5.959   6.988   2.829 -0.2046  2.2584 -2.3012
18561SOL    HW256972   5.906   7.122   2.876  1.0683  1.5886  1.4017
18562SOL     OW56973   3.017   0.734   7.736  0.1422  0.2932 -0.2477
18562SOL    HW156974   3.026   0.691   7.651 -0.6109 -0.6227  0.1133
18562SOL    HW256975   2.955   0.805   7.721  1.6049  1.4739 -0.9145
18563SOL     OW56976   1.367   0.802   3.949  0.8045 -0.1198 -0.1227
18563SOL    HW156977   1.300   0.869   3.961 -0.3176 -1.1850 -0.2203
18563SOL    HW256978   1.421   0.835   3.877 -0.8627 -0.1460 -1.4706
18564SOL     OW56979   1.352   6.090   4.608 -0.0818  0.0996  0.0743
18564SOL    HW156980   1.421   6.052   4.554  0.6701  1.5460 -0.0186
18564SOL    HW256981   1.305   6.149   4.549 -0.9829 -0.3639  0.3124
18565SOL     OW56982   0.186   4.486   3.055  0.1306 -0.2050  0.3432
18565SOL    HW156983   0.119   4.549   3.027 -0.4898 -0.2474  1.6319
18565SOL    HW256984   0.164   4.405   3.009  0.2995  0.2163 -0.5086
18566SOL     OW56985   3.102   8.185   7.635  0.2415 -0.8946  0.0970
18566SOL    HW156986   3.161   8.231   7.695  2.0457 -1.5313 -1.0801
18566SOL    HW256987   3.143   8.099   7.624 -0.0149 -0.7808 -2.0453
18567SOL     OW56988   6.983   1.776   7.469  0.1649 -0.6640  0.1953
18567SOL    HW156989   7.032   1.735   7.398 -0.2948 -0.0725 -0.4908
18567SOL    HW256990   7.047   1.831   7.515  0.1609  0.1424 -0.7252
18568SOL     OW56991   6.828   6.089   0.273  0.2951  0.5875 -0.3673
18568SOL    HW156992   6.912   6.065   0.233 -0.5257  0.9265 -2.3578
18568SOL    HW256993   6.846   6.173   0.316  1.1469  0.2911 -0.1025
18569SOL     OW56994   7.198   4.350   5.539 -0.0801 -0.3950 -0.0528
18569SOL    HW156995   7.234   4.262   5.536  0.9807  0.0421 -0.9725
18569SOL    HW256996   7.175   4.370   5.448 -0.5383  0.1840  0.1814
18570SOL     OW56997   3.226   2.653   4.102  0.6165 -0.8615 -0.4928
18570SOL    HW156998   3.149   2.650   4.046  0.8692 -0.5732 -0.8524
18570SOL    HW256999   3.205   2.718   4.169  1.0847  0.2207 -1.3805
18571SOL     OW57000   2.558   6.796   2.226  0.6454 -0.1069  0.1908
18571SOL    HW157001   2.616   6.751   2.287  0.4388 -1.9049 -0.8577
18571SOL    HW257002   2.574   6.754   2.141 -0.6833  0.7696 -0.5484
18572SOL     OW57003   5.049   3.364   4.911  0.3430 -0.1046  0.6474
18572SOL    HW157004   5.026   3.446   4.954  0.2451 -0.1714  0.7215
18572SOL    HW257005   4.970   3.311   4.915 -0.0271  0.3153 -0.6366
18573SOL     OW57006   6.232   1.515   3.446 -0.0432 -0.0415 -0.2361
18573SOL    HW157007   6.252   1.596   3.399  1.6791 -1.7579 -2.7686
18573SOL    HW257008   6.297   1.511   3.516  1.1096 -0.1109 -1.2876
18574SOL     OW57009   5.004   6.140   2.423  0.2083 -0.2653 -0.0250
18574SOL    HW157010   4.979   6.051   2.398 -2.9662  0.0212  1.6401
18574SOL    HW257011   5.028   6.133   2.515 -0.8901  0.7122  0.3473
18575SOL     OW57012   5.587   1.781   0.457 -0.1984 -0.1921 -0.4207
18575SOL    HW157013   5.665   1.756   0.506 -0.0924  0.2582 -0.3588
18575SOL    HW257014   5.621   1.830   0.381 -0.4298  0.1913 -0.2791
18576SOL     OW57015   2.974   3.490   8.599  0.2858  0.2128  0.0728
18576SOL    HW157016   2.994   3.542   8.521  0.7803 -1.3108 -0.8864
18576SOL    HW257017   2.907   3.540   8.645 -1.4054  0.3370 -2.3211
18577SOL     OW57018   5.771   2.563   5.063  0.3593 -0.3718 -0.1681
18577SOL    HW157019   5.782   2.606   4.978  0.0914  0.2816  0.1223
18577SOL    HW257020   5.702   2.613   5.106  1.6657  0.3883  1.1342
18578SOL     OW57021   6.050   7.085   4.158  0.2467  0.0443  0.4904
18578SOL    HW157022   6.031   7.162   4.105 -0.2882  1.3335  2.4572
18578SOL    HW257023   5.976   7.078   4.218  1.2809 -0.7376  1.7240
18579SOL     OW57024   8.024   0.524   6.861 -0.3826  0.3493 -0.7949
18579SOL    HW157025   8.062   0.497   6.945 -0.7704 -1.9764 -1.2970
18579SOL    HW257026   7.998   0.615   6.875  1.9084  0.8702  0.7517
18580SOL     OW57027   0.453   1.587   7.186 -0.2215 -0.6010 -0.4783
18580SOL    HW157028   0.396   1.662   7.168  0.0992 -0.7813 -2.4784
18580SOL    HW257029   0.430   1.560   7.275  1.6046  3.5682  1.5009
18581SOL     OW57030   7.720   3.744   4.252  0.6574  0.0477  0.6135
18581SOL    HW157031   7.690   3.653   4.250 -0.9585  0.5536 -0.4515
18581SOL    HW257032   7.815   3.738   4.262  0.7168 -1.7953 -0.5184
18582SOL     OW57033   2.465   0.791   3.576 -0.2173 -0.5703  0.9867
18582SOL    HW157034   2.557   0.789   3.602 -0.0260 -0.3728  0.3497
18582SOL    HW257035   2.422   0.726   3.632  0.5096 -1.4475  0.5413
18583SOL     OW57036   3.628   4.310   0.460 -0.6080  0.0126  0.0527
18583SOL    HW157037   3.639   4.304   0.555 -1.3724 -2.1811  0.0679
18583SOL    HW257038   3.704   4.359   0.430  0.4459 -0.5430  1.6702
18584SOL     OW57039   3.471   4.692   6.957  0.0343  0.4120 -0.2910
18584SOL    HW157040   3.390   4.675   6.909 -0.6266 -0.5479  1.0930
18584SOL    HW257041   3.540   4.689   6.891 -0.9987  0.7609 -1.4177
18585SOL     OW57042   1.951   2.348   3.363  0.3378  0.0366  0.0400
18585SOL    HW157043   1.888   2.344   3.435  0.8258 -0.7617  0.4369
18585SOL    HW257044   1.897   2.350   3.284 -0.2041  0.8686  0.4105
18586SOL     OW57045   5.064   3.167   7.399  0.3836  0.2702 -0.1007
18586SOL    HW157046   5.152   3.171   7.435  0.2872  3.2222  0.0791
18586SOL    HW257047   5.076   3.137   7.309  1.3357 -0.9699  0.4148
18587SOL     OW57048   6.290   0.732   2.397 -0.6016  0.0925  0.0980
18587SOL    HW157049   6.323   0.645   2.378  0.1731  0.1131  1.2564
18587SOL    HW257050   6.201   0.732   2.362  0.2491 -0.2641 -2.3070
18588SOL     OW57051   2.484   8.035   2.165 -0.4102  0.0832 -0.1999
18588SOL    HW157052   2.422   8.010   2.233  0.2681 -1.3538 -0.0914
18588SOL    HW257053   2.503   7.955   2.117  0.7293  0.6458 -0.7558
18589SOL     OW57054   0.040   0.696   8.357  1.0208 -0.5398  0.2090
18589SOL    HW157055   0.094   0.618   8.352  2.0695  0.1770 -0.0027
18589SOL    HW257056  -0.029   0.682   8.293  1.1067 -1.3539  0.2856
18590SOL     OW57057   4.181   0.018   8.199 -0.5963  0.5234 -0.8229
18590SOL    HW157058   4.180   0.111   8.222 -2.7558  0.5035 -0.5720
18590SOL    HW257059   4.172   0.016   8.104  1.7976  0.5480 -1.0986
18591SOL     OW57060   3.203   8.081   8.174 -0.1166 -0.5834 -0.4557
18591SOL    HW157061   3.185   7.992   8.202  1.5627 -0.7594  0.1701
18591SOL    HW257062   3.253   8.071   8.093 -2.1923 -0.1253 -1.8836
18592SOL     OW57063   2.276   1.175   8.476  0.4030  0.0613  0.0575
18592SOL    HW157064   2.291   1.251   8.420  4.1599  0.1870  0.9389
18592SOL    HW257065   2.229   1.210   8.551  0.6954  1.2067 -0.2609
18593SOL     OW57066   4.787   4.727   8.397 -0.4292  0.1159 -0.1266
18593SOL    HW157067   4.760   4.669   8.326 -0.9024 -0.0918  0.2221
18593SOL    HW257068   4.706   4.752   8.441 -0.0477 -0.9220  1.2530
18594SOL     OW57069   3.441   5.535   5.221  0.0906 -0.7992  0.8429
18594SOL    HW157070   3.420   5.443   5.237  0.7546 -1.0530  0.2837
18594SOL    HW257071   3.536   5.540   5.233  0.2936 -0.5276 -0.6927
18595SOL     OW57072   2.699   3.839   3.616  0.4336 -0.8707  0.0616
18595SOL    HW157073   2.654   3.837   3.531  1.3114  0.3061 -0.4504
18595SOL    HW257074   2.665   3.763   3.663 -0.3526 -1.3177 -1.1987
18596SOL     OW57075   7.954   3.657   1.385  0.3707  0.4879  0.0500
18596SOL    HW157076   7.921   3.572   1.415 -0.7060  0.6327 -0.6571
18596SOL    HW257077   7.899   3.679   1.310  1.8253  0.9670 -0.9230
18597SOL     OW57078   6.083   7.401   5.205  0.3397  0.1945 -0.0611
18597SOL    HW157079   6.106   7.491   5.184 -0.5249  0.5532  0.5223
18597SOL    HW257080   6.066   7.401   5.299 -0.3038 -0.4360 -0.1702
18598SOL     OW57081   3.842   0.802   7.030 -0.1992  0.0543 -0.3310
18598SOL    HW157082   3.758   0.773   7.065 -0.7218  1.0070 -0.7815
18598SOL    HW257083   3.852   0.891   7.061 -0.4007  0.7264 -2.0909
18599SOL     OW57084   7.186   6.045   5.231  0.0318  0.1016  0.4380
18599SOL    HW157085   7.142   6.048   5.146  0.5458 -0.7219  0.1219
18599SOL    HW257086   7.116   6.028   5.294 -0.2102 -0.4276  0.0349
18600SOL     OW57087   5.890   4.986   2.411 -0.1471 -0.3893 -0.2722
18600SOL    HW157088   5.848   4.904   2.385 -0.9683  0.3639 -1.4012
18600SOL    HW257089   5.983   4.973   2.393 -0.2027 -1.2408  0.0362
18601SOL     OW57090   1.021   5.191   0.578 -0.2176 -0.3232  0.2727
18601SOL    HW157091   1.015   5.284   0.604 -1.3929 -0.5140  0.7647
18601SOL    HW257092   0.975   5.187   0.494 -0.7574 -0.5684  0.5756
18602SOL     OW57093   1.483   3.974   5.530  0.1681  0.1616  0.4296
18602SOL    HW157094   1.441   3.893   5.559 -0.1111 -0.3508 -1.2927
18602SOL    HW257095   1.568   3.945   5.494  0.5076  0.7595  0.7399
18603SOL     OW57096   4.808   1.886   1.717 -0.0034 -0.1228  0.0289
18603SOL    HW157097   4.859   1.953   1.761  0.9739  0.0792 -1.3620
18603SOL    HW257098   4.862   1.807   1.722 -0.3933 -0.3897  0.1522
18604SOL     OW57099   6.877   1.211   3.736  0.1307  0.1050  0.1506
18604SOL    HW157100   6.886   1.162   3.654 -1.4286  0.3984 -0.2315
18604SOL    HW257101   6.795   1.259   3.726 -0.4607 -0.4023  2.1698
18605SOL     OW57102   0.390   6.920   5.877 -0.0384  0.1019  0.4385
18605SOL    HW157103   0.408   6.836   5.920  1.3493  0.4800  0.6338
18605SOL    HW257104   0.344   6.971   5.943 -0.2690 -0.2505  0.5574
18606SOL     OW57105   2.609   1.441   0.526 -0.5687 -0.3392  0.5802
18606SOL    HW157106   2.515   1.437   0.507 -0.6755  0.5499  0.8945
18606SOL    HW257107   2.645   1.362   0.484 -1.3929 -0.4898  0.1313
18607SOL     OW57108   4.715   3.355   8.257 -0.2993  0.1576  0.1931
18607SOL    HW157109   4.808   3.357   8.276  0.0023  2.0139 -1.1895
18607SOL    HW257110   4.699   3.267   8.224  0.8336 -0.3482  0.9465
18608SOL     OW57111   2.032   0.358   3.553  0.6590  0.2891 -0.5494
18608SOL    HW157112   2.016   0.298   3.480 -1.0662  0.6029 -0.4628
18608SOL    HW257113   1.962   0.423   3.546  0.7638  0.6021  1.0943
18609SOL     OW57114   3.851   2.335   3.239 -0.3175  0.2370 -0.3673
18609SOL    HW157115   3.890   2.386   3.310  0.3011  1.4841 -1.5673
18609SOL    HW257116   3.786   2.280   3.282  0.3612  0.6259  1.2242
18610SOL     OW57117   0.117   5.054   0.527 -0.1131  0.1367  0.2542
18610SOL    HW157118   0.166   4.972   0.514 -1.4535 -0.6409 -0.0337
18610SOL    HW257119   0.110   5.091   0.439 -2.6492 -1.3193 -0.2437
18611SOL     OW57120   6.928   1.558   3.227 -0.6068  0.2174  0.2437
18611SOL    HW157121   6.997   1.549   3.292 -0.8469 -1.2732  0.3317
18611SOL    HW257122   6.870   1.624   3.263  0.9918  1.8564 -0.0610
18612SOL     OW57123   5.987   4.195   4.296 -0.4310 -0.3651 -0.2079
18612SOL    HW157124   6.008   4.168   4.206  0.3335 -1.4726  0.2785
18612SOL    HW257125   5.933   4.124   4.331 -1.6183  0.5614 -0.1152
18613SOL     OW57126   0.635   4.792   6.021 -0.0090  0.3747  0.5492
18613SOL    HW157127   0.608   4.718   5.967  0.9868  0.2828  0.1563
18613SOL    HW257128   0.588   4.867   5.985 -0.4551  0.0631  0.4798
18614SOL     OW57129   2.986   6.123   1.260  0.2423 -0.0350  0.1964
18614SOL    HW157130   2.909   6.179   1.257  1.1072  1.1564 -1.5359
18614SOL    HW257131   2.954   6.036   1.233 -0.7425  0.0694  0.9837
18615SOL     OW57132   3.787   5.391   6.726 -0.2434 -0.6429  0.5459
18615SOL    HW157133   3.794   5.314   6.670 -1.3097  0.0513 -0.5833
18615SOL    HW257134   3.851   5.453   6.690 -2.3813  0.6232 -1.3654
18616SOL     OW57135   4.757   1.197   3.506  0.5106 -0.1363 -0.7311
18616SOL    HW157136   4.696   1.240   3.446  2.2122  1.7994 -1.1685
18616SOL    HW257137   4.718   1.209   3.592  0.7442  2.0498 -0.8824
18617SOL     OW57138   0.621   7.821   0.177 -0.1309  0.0633 -0.0897
18617SOL    HW157139   0.533   7.838   0.142 -0.3208 -1.5466 -0.4746
18617SOL    HW257140   0.647   7.737   0.138  1.8105  0.7582 -0.3992
18618SOL     OW57141   2.276   0.707   2.174 -0.1895  0.1101  0.1745
18618SOL    HW157142   2.336   0.635   2.159 -0.2448  0.3958 -1.6539
18618SOL    HW257143   2.309   0.750   2.253  1.2577 -0.4944 -0.0693
18619SOL     OW57144   4.101   7.378   8.199 -0.3394  0.2906  0.3595
18619SOL    HW157145   4.100   7.283   8.204 -2.5661  0.2485 -0.0631
18619SOL    HW257146   4.146   7.406   8.279 -0.6677 -1.0756  1.0476
18620SOL     OW57147   8.275   1.821   1.261  0.0941  0.4335 -0.2313
18620SOL    HW157148   8.364   1.787   1.267  0.1550  0.8116  2.0346
18620SOL    HW257149   8.222   1.757   1.308 -0.4919  1.1920  0.1636
18621SOL     OW57150   6.851   8.107   2.587 -0.2357 -0.5648  0.2931
18621SOL    HW157151   6.915   8.056   2.637  1.1960  1.6830  0.9230
18621SOL    HW257152   6.858   8.074   2.498 -0.9569 -2.8838  1.0090
18622SOL     OW57153   8.055   2.221   0.943 -0.3877  0.1697  0.2664
18622SOL    HW157154   8.028   2.228   0.851  1.6974  1.1102 -0.3454
18622SOL    HW257155   8.077   2.311   0.968  2.3023 -0.4850  0.5674
18623SOL     OW57156   7.497   6.369   7.653 -0.0034  0.1139 -0.7721
18623SOL    HW157157   7.471   6.361   7.745 -0.0114  0.9131 -0.6974
18623SOL    HW257158   7.428   6.324   7.605 -0.7215  0.8525 -0.4658
18624SOL     OW57159   4.260   4.616   7.069  0.2281  0.3941  0.4914
18624SOL    HW157160   4.250   4.680   6.998  0.4969  1.9433  1.8004
18624SOL    HW257161   4.170   4.590   7.089  0.1146  0.3327 -0.0737
18625SOL     OW57162   5.166   3.011   6.534 -0.0129  0.1499  0.0914
18625SOL    HW157163   5.236   2.971   6.586  0.2582  0.1544 -0.2685
18625SOL    HW257164   5.194   3.102   6.522 -0.2096  0.2223  0.1685
18626SOL     OW57165   7.087   0.730   8.292 -0.9249  0.0502  0.2087
18626SOL    HW157166   7.057   0.642   8.270  0.7299 -0.2789 -0.8441
18626SOL    HW257167   7.081   0.779   8.210  1.1449  0.0256  0.0057
18627SOL     OW57168   4.407   1.617   6.699  0.2422 -0.5503 -0.0347
18627SOL    HW157169   4.378   1.675   6.629  0.4194 -0.2928  0.1015
18627SOL    HW257170   4.490   1.581   6.667 -1.0089 -2.6002 -1.1597
18628SOL     OW57171   4.752   5.498   4.918 -1.2925 -0.1982  0.4174
18628SOL    HW157172   4.781   5.426   4.975 -1.5919  0.7492  1.8148
18628SOL    HW257173   4.660   5.509   4.939 -0.9377  1.5034  1.2872
18629SOL     OW57174   4.000   2.311   7.932 -0.0767  0.0715  0.7172
18629SOL    HW157175   4.061   2.363   7.879 -1.3227 -0.4607 -1.3701
18629SOL    HW257176   4.053   2.241   7.969  0.5270 -0.9070 -1.7615
18630SOL     OW57177   4.089   2.017   5.597 -0.0787  0.3347  0.1830
18630SOL    HW157178   4.025   2.036   5.666  0.0918  0.9254  0.1802
18630SOL    HW257179   4.054   1.939   5.554 -1.4464  1.3278 -0.6076
18631SOL     OW57180   7.225   3.935   2.450  0.3256  0.0512  0.2766
18631SOL    HW157181   7.147   3.880   2.456 -0.9016  1.6812 -0.1254
18631SOL    HW257182   7.236   3.968   2.539  0.9380 -0.6462  0.4695
18632SOL     OW57183   5.775   7.838   6.456 -0.3744 -0.0478  0.0710
18632SOL    HW157184   5.760   7.868   6.546  1.6216  0.8496  0.1580
18632SOL    HW257185   5.815   7.913   6.412 -0.5255 -0.7610 -1.3347
18633SOL     OW57186   3.896   4.860   0.804 -0.1446  0.0543 -0.3076
18633SOL    HW157187   3.910   4.901   0.890 -1.1512  1.0198 -0.5812
18633SOL    HW257188   3.966   4.896   0.749 -1.7329  2.5304 -0.8865
18634SOL     OW57189   6.396   7.383   7.752  0.1551  0.1875 -0.1605
18634SOL    HW157190   6.321   7.396   7.809 -0.4361 -2.2347 -0.2683
18634SOL    HW257191   6.471   7.408   7.806 -0.6571  2.2598  0.0822
18635SOL     OW57192   2.978   3.653   4.682  0.3685 -0.1166 -0.0364
18635SOL    HW157193   2.935   3.569   4.668 -0.5076  0.1207  1.1073
18635SOL    HW257194   2.951   3.707   4.607 -1.3620  0.0277  0.6484
18636SOL     OW57195   1.465   4.510   1.497 -0.0707 -0.2179  1.0340
18636SOL    HW157196   1.479   4.478   1.408  0.4911  0.1197  0.9976
18636SOL    HW257197   1.374   4.487   1.517 -0.0673 -0.6738  0.5338
18637SOL     OW57198   3.404   4.304   5.114  0.0445  0.2399 -0.1746
18637SOL    HW157199   3.316   4.282   5.144 -0.5543  2.0867 -0.4613
18637SOL    HW257200   3.399   4.301   5.018  0.6889 -0.9662 -0.2006
18638SOL     OW57201   6.077   6.385   6.843 -0.3211  0.0313 -0.0142
18638SOL    HW157202   5.986   6.366   6.823 -1.0610  3.2563 -0.2055
18638SOL    HW257203   6.094   6.469   6.800  2.7629 -0.4693 -0.0151
18639SOL     OW57204   4.208   3.309   0.805  0.3271 -0.1526 -0.2120
18639SOL    HW157205   4.262   3.370   0.754 -1.5330  1.2687 -0.6066
18639SOL    HW257206   4.239   3.318   0.895  0.5073  0.9143 -0.3700
18640SOL     OW57207   6.337   0.235   8.006  0.1959  0.2741  0.5476
18640SOL    HW157208   6.273   0.216   8.075  0.0252  1.2434  0.6722
18640SOL    HW257209   6.405   0.169   8.017 -0.0957  0.0962  1.3129
18641SOL     OW57210   8.155   3.488   7.227  0.0680  0.2871  0.0010
18641SOL    HW157211   8.075   3.533   7.254 -1.2842 -0.7109 -2.0718
18641SOL    HW257212   8.173   3.425   7.297  2.0107  3.7626  2.9790
18642SOL     OW57213   3.459   2.083   3.774 -0.7574 -0.2646 -1.1417
18642SOL    HW157214   3.453   1.989   3.757 -0.8011 -0.1863 -1.5933
18642SOL    HW257215   3.546   2.096   3.811 -1.8784 -0.9207  1.9918
18643SOL     OW57216   4.379   5.455   0.483 -0.3272  0.1094  0.0154
18643SOL    HW157217   4.436   5.498   0.421  0.5214  0.3806  0.9553
18643SOL    HW257218   4.371   5.517   0.556  0.0686 -0.8582  0.9187
18644SOL     OW57219   1.090   3.210   0.789  0.5133  0.1785 -0.1045
18644SOL    HW157220   1.007   3.204   0.837  0.3530 -1.1905 -0.5254
18644SOL    HW257221   1.066   3.193   0.698  1.5473 -2.6960  0.0659
18645SOL     OW57222   6.525   5.155   6.774  0.3539 -0.0842 -0.0989
18645SOL    HW157223   6.563   5.101   6.843  0.6786 -0.6707 -0.7356
18645SOL    HW257224   6.540   5.245   6.803  1.6665 -0.3142 -0.0338
18646SOL     OW57225   3.425   7.218   7.905 -0.3729 -0.8416  0.4334
18646SOL    HW157226   3.457   7.219   7.815 -0.9250  1.4444  0.2244
18646SOL    HW257227   3.481   7.280   7.951  0.9567 -3.1429  2.1157
18647SOL     OW57228   6.278   4.002   8.011 -0.2914  0.1456 -0.3095
18647SOL    HW157229   6.356   4.038   8.054  0.5571 -0.4862 -1.2573
18647SOL    HW257230   6.269   4.053   7.931 -1.5864  1.0034  0.3437
18648SOL     OW57231   1.022   7.429   3.970 -0.1063  0.0534 -0.4230
18648SOL    HW157232   1.089   7.459   4.031  0.4174  0.5224 -1.2039
18648SOL    HW257233   1.006   7.338   3.994 -0.7883  0.5606  1.1733
18649SOL     OW57234   3.400   0.269   5.149  0.1065  0.5016 -0.2576
18649SOL    HW157235   3.477   0.234   5.102 -0.1848  0.4565 -0.7066
18649SOL    HW257236   3.339   0.195   5.152 -0.1229  0.6881 -0.3489
18650SOL     OW57237   0.765   1.408   8.290  0.3078  0.0206 -0.1329
18650SOL    HW157238   0.716   1.409   8.208  0.6879 -0.3056 -0.3697
18650SOL    HW257239   0.845   1.360   8.269 -0.3013 -1.4857  0.8442
18651SOL     OW57240   8.392   5.259   5.741  0.6959  0.4019  0.0646
18651SOL    HW157241   8.394   5.272   5.836  0.4451 -1.1668  0.3173
18651SOL    HW257242   8.425   5.170   5.729  2.1594  1.0969 -1.4533
18652SOL     OW57243   0.524   1.219   0.806 -0.1477  0.1764  0.1840
18652SOL    HW157244   0.525   1.284   0.735  1.1385  1.1926  1.0843
18652SOL    HW257245   0.520   1.272   0.885 -1.2908 -0.9364  0.8999
18653SOL     OW57246   1.387   1.213   8.688 -0.7409 -0.8743  0.1319
18653SOL    HW157247   1.376   1.238   8.596 -1.0179 -0.9672  0.1373
18653SOL    HW257248   1.342   1.128   8.695 -1.2496 -0.5788  0.4890
18654SOL     OW57249   4.223   1.435   6.766  0.2292 -0.0229 -0.6104
18654SOL    HW157250   4.247   1.360   6.820 -1.1579  0.0666  0.1705
18654SOL    HW257251   4.305   1.481   6.750  0.9575 -1.1917 -0.3189
18655SOL     OW57252   0.530   1.877   4.555 -0.6693  0.3196 -0.1351
18655SOL    HW157253   0.449   1.856   4.601 -0.6920  1.1362  0.2091
18655SOL    HW257254   0.579   1.794   4.553 -1.0218  0.0861  0.6496
18656SOL     OW57255   1.960   3.985   7.492  0.2088  0.7663 -0.8351
18656SOL    HW157256   2.049   4.021   7.493 -0.0273  1.3628 -0.1344
18656SOL    HW257257   1.959   3.925   7.417  1.0637  1.0946 -1.1237
18657SOL     OW57258   6.888   4.694   0.527 -0.0998 -0.0169  0.1638
18657SOL    HW157259   6.855   4.772   0.482 -1.2480 -1.3422 -1.4442
18657SOL    HW257260   6.819   4.671   0.590  0.2197  0.2497  0.6101
18658SOL     OW57261   7.249   4.905   3.082  0.5986  0.3458 -0.5275
18658SOL    HW157262   7.290   4.982   3.120  1.8137 -1.0500  1.1602
18658SOL    HW257263   7.224   4.851   3.157 -0.1949 -0.9329 -1.6492
18659SOL     OW57264   8.284   4.146   8.083  0.0808 -0.3348  0.7761
18659SOL    HW157265   8.199   4.152   8.038  0.1105  0.1209  0.7792
18659SOL    HW257266   8.325   4.068   8.045 -0.0267 -0.1378  0.2400
18660SOL     OW57267   2.478   4.176   3.612 -0.1311  0.4441  0.0761
18660SOL    HW157268   2.408   4.198   3.550  0.8047  0.1243 -1.1254
18660SOL    HW257269   2.448   4.095   3.653  0.6833 -1.1942 -2.3693
18661SOL     OW57270   3.103   2.147   4.094  0.8147 -0.0582  0.2610
18661SOL    HW157271   3.168   2.214   4.114 -0.3974  1.4193 -0.4915
18661SOL    HW257272   3.058   2.180   4.016  0.9238 -2.3308 -0.8313
18662SOL     OW57273   4.254   4.398   7.870  0.3067  0.0727  0.2668
18662SOL    HW157274   4.275   4.322   7.816 -0.3252  0.4006 -0.4606
18662SOL    HW257275   4.282   4.473   7.817 -2.0312  0.4984 -0.4854
18663SOL     OW57276   5.541   0.557   2.064 -0.4380  0.2816 -0.9352
18663SOL    HW157277   5.523   0.520   2.151 -0.3027  1.7867 -0.2406
18663SOL    HW257278   5.554   0.480   2.008  0.6887 -0.7374  0.6170
18664SOL     OW57279   2.177   6.163   4.766  0.0736 -0.0762  0.3097
18664SOL    HW157280   2.229   6.200   4.837  0.9892 -0.2192 -0.2729
18664SOL    HW257281   2.159   6.073   4.793 -2.4308  0.8006  1.8807
18665SOL     OW57282   7.681   5.621   0.115  1.0304  0.4785  0.1194
18665SOL    HW157283   7.702   5.678   0.041 -1.2212  1.5227  0.1818
18665SOL    HW257284   7.653   5.539   0.074  0.6905  0.7292 -0.1617
18666SOL     OW57285   0.229   0.505   0.754 -0.0377  0.2238  0.0886
18666SOL    HW157286   0.170   0.564   0.707  1.1977  1.6504  0.2235
18666SOL    HW257287   0.193   0.418   0.740 -1.0205  0.8427 -1.5088
18667SOL     OW57288   2.219   2.220   4.294 -0.5889  0.6115  0.3155
18667SOL    HW157289   2.178   2.170   4.365 -0.7252 -0.2956 -0.3873
18667SOL    HW257290   2.191   2.310   4.310 -2.0013  0.1803  0.4845
18668SOL     OW57291   0.121   3.327   6.588 -0.0782 -0.1707  0.0805
18668SOL    HW157292   0.133   3.332   6.683 -1.9266  0.1576  0.3298
18668SOL    HW257293   0.026   3.321   6.576  0.0557  0.7316 -1.7880
18669SOL     OW57294   8.098   3.040   7.267  0.8537  0.2797 -0.2375
18669SOL    HW157295   8.118   3.122   7.314 -0.4786 -0.1063  1.0909
18669SOL    HW257296   8.083   3.068   7.177 -1.2018  1.8285  0.4833
18670SOL     OW57297   3.647   2.238   0.361 -0.0353  0.9082 -0.1263
18670SOL    HW157298   3.561   2.202   0.336 -0.5152  0.8183  1.5383
18670SOL    HW257299   3.638   2.333   0.347 -0.4590  0.9141  0.1585
18671SOL     OW57300   7.215   2.508   4.042  0.0828 -0.0644  0.3720
18671SOL    HW157301   7.198   2.497   3.948 -1.9194  0.3491  0.6424
18671SOL    HW257302   7.265   2.590   4.047  0.4893 -0.2553 -0.3406
18672SOL     OW57303   8.355   1.595   3.294  0.4610 -0.1849 -0.0954
18672SOL    HW157304   8.434   1.556   3.256  1.4676  1.0984  0.5904
18672SOL    HW257305   8.320   1.651   3.225  0.0031 -0.9383 -0.4829
18673SOL     OW57306   6.640   8.322   5.878  0.1761  0.6175 -0.0132
18673SOL    HW157307   6.583   8.344   5.804 -1.0322  0.3737  0.8052
18673SOL    HW257308   6.580   8.285   5.944  1.4815 -0.8701  0.3885
18674SOL     OW57309   7.294   2.252   4.945  0.2040 -0.8227  0.3538
18674SOL    HW157310   7.261   2.190   5.010 -0.0247 -0.2441  0.7939
18674SOL    HW257311   7.358   2.201   4.894 -2.1895 -2.3309 -1.3408
18675SOL     OW57312   3.175   0.340   7.653  0.4526 -0.2651 -0.3151
18675SOL    HW157313   3.228   0.286   7.595  1.3807  1.2305 -0.9113
18675SOL    HW257314   3.228   0.351   7.731  0.4211  0.0666 -0.3378
18676SOL     OW57315   7.660   5.881   7.745  0.4323 -0.2333 -0.1107
18676SOL    HW157316   7.716   5.952   7.713 -0.0615 -0.0432 -0.5644
18676SOL    HW257317   7.674   5.881   7.840  0.8260  0.1346 -0.1636
18677SOL     OW57318   7.185   1.879   2.125 -0.0810  0.0606 -0.5353
18677SOL    HW157319   7.245   1.821   2.078 -1.8459  0.1029 -3.0316
18677SOL    HW257320   7.138   1.821   2.186  1.7028 -0.1274  0.7533
18678SOL     OW57321   7.119   7.570   8.421 -0.5372  0.1644 -0.0060
18678SOL    HW157322   7.058   7.568   8.494  0.3600  1.5473  0.8291
18678SOL    HW257323   7.181   7.499   8.439 -1.0754 -0.3506 -0.1420
18679SOL     OW57324   1.273   2.279   6.043 -0.2497  0.1768 -0.1990
18679SOL    HW157325   1.197   2.228   6.015  0.3337  0.5542 -2.6346
18679SOL    HW257326   1.236   2.348   6.099 -1.6908  0.2801 -1.2264
18680SOL     OW57327   1.225   0.591   6.519  0.5504 -0.4035  0.0912
18680SOL    HW157328   1.287   0.630   6.581  0.6952 -1.3737  0.5737
18680SOL    HW257329   1.163   0.662   6.500  2.5053  1.0191 -1.4381
18681SOL     OW57330   0.301   6.431   6.106 -0.1551  0.3033 -0.4380
18681SOL    HW157331   0.270   6.450   6.194 -1.4474 -0.7702 -0.6213
18681SOL    HW257332   0.228   6.455   6.049 -0.3548 -1.3865 -0.9701
18682SOL     OW57333   6.189   5.571   7.177 -0.0744  0.4312  0.2294
18682SOL    HW157334   6.125   5.564   7.247  0.0370 -0.5001  0.2466
18682SOL    HW257335   6.216   5.481   7.160 -1.5736  0.3812 -2.3992
18683SOL     OW57336   6.687   0.513   7.739 -0.1463  0.2018  0.0523
18683SOL    HW157337   6.629   0.437   7.735  0.7475 -0.7097  2.6506
18683SOL    HW257338   6.629   0.588   7.723 -1.6287 -0.8236  0.3999
18684SOL     OW57339   2.320   2.704   1.456 -0.1443 -0.6298  0.5167
18684SOL    HW157340   2.313   2.749   1.372  2.5174 -0.5892  0.2213
18684SOL    HW257341   2.325   2.611   1.434 -1.2164 -0.7707  0.7996
18685SOL     OW57342   7.661   3.320   7.402  0.6597  0.2611 -0.2725
18685SOL    HW157343   7.580   3.322   7.453  0.1750  1.0487 -1.0363
18685SOL    HW257344   7.705   3.239   7.429  1.6058  1.7774  3.1132
18686SOL     OW57345   7.506   6.197   2.323  0.1539 -0.3112 -0.2784
18686SOL    HW157346   7.501   6.102   2.310 -0.3624 -0.1688 -1.1910
18686SOL    HW257347   7.516   6.207   2.418 -0.8165 -1.2349 -0.0568
18687SOL     OW57348   0.497   6.456   4.310 -0.4109 -0.5294  0.7344
18687SOL    HW157349   0.567   6.455   4.244 -0.6451 -0.2352  0.4783
18687SOL    HW257350   0.512   6.537   4.359 -1.2968  0.1789 -0.1197
18688SOL     OW57351   0.173   3.309   8.018  0.0540 -0.6988  0.4843
18688SOL    HW157352   0.128   3.275   8.096 -1.2884  0.0617  0.0682
18688SOL    HW257353   0.141   3.254   7.946 -1.9786  1.1691 -0.1650
18689SOL     OW57354   0.327   7.361   1.579  0.3723 -0.2995 -0.6954
18689SOL    HW157355   0.310   7.268   1.568 -0.1719 -0.2357 -0.4649
18689SOL    HW257356   0.261   7.404   1.523 -1.3745 -0.0057  1.4220
18690SOL     OW57357   0.767   5.598   2.096  0.2896  0.2046  0.1857
18690SOL    HW157358   0.701   5.614   2.164  0.9787 -0.7789  1.1146
18690SOL    HW257359   0.820   5.678   2.095 -1.2221  1.2465 -0.9718
18691SOL     OW57360   4.166   4.599   4.970 -0.2662 -0.2868  0.0319
18691SOL    HW157361   4.189   4.509   4.946 -0.2966  0.0542 -1.3952
18691SOL    HW257362   4.086   4.617   4.919 -0.3033  0.5135  0.3713
18692SOL     OW57363   4.926   1.562   2.573  0.5027  0.1087  0.0402
18692SOL    HW157364   4.932   1.497   2.643  1.5291 -0.5711 -0.6535
18692SOL    HW257365   4.921   1.646   2.619 -1.3193 -0.4519  0.9603
18693SOL     OW57366   4.294   5.457   2.439  0.1955  0.5672  0.7362
18693SOL    HW157367   4.278   5.422   2.352 -1.0402  4.3741 -0.8066
18693SOL    HW257368   4.214   5.436   2.488 -0.6542  1.3804 -0.2374
18694SOL     OW57369   0.394   3.403   7.519  0.0499  0.1380  0.4290
18694SOL    HW157370   0.438   3.380   7.438 -0.8765 -0.1263 -0.0141
18694SOL    HW257371   0.371   3.495   7.509 -3.2272 -0.7046 -1.1957
18695SOL     OW57372   6.084   2.740   3.669  0.3684 -0.3158 -0.0735
18695SOL    HW157373   6.040   2.681   3.607  0.4135 -0.1502 -0.2632
18695SOL    HW257374   6.132   2.801   3.614  1.6170 -1.0690  0.1340
18696SOL     OW57375   0.629   7.902   2.842  0.4421 -0.1992  0.4129
18696SOL    HW157376   0.683   7.842   2.790  2.6486 -0.3064  2.6435
18696SOL    HW257377   0.651   7.989   2.809  0.5290 -0.3619  0.0365
18697SOL     OW57378   0.336   6.703   2.285 -0.5144 -0.5293 -0.2054
18697SOL    HW157379   0.387   6.778   2.252  1.0586 -1.4596  0.0014
18697SOL    HW257380   0.275   6.683   2.214 -0.8193  0.8070 -0.3497
18698SOL     OW57381   7.055   3.954   4.528 -0.5601 -0.8246  0.1031
18698SOL    HW157382   6.993   3.882   4.542 -1.1232 -0.1745  1.0162
18698SOL    HW257383   7.023   4.025   4.583  1.3330 -0.6461  1.0654
18699SOL     OW57384   2.758   5.461   6.140 -0.0569 -0.1909 -0.5357
18699SOL    HW157385   2.732   5.405   6.066 -1.4252 -0.1643 -0.1136
18699SOL    HW257386   2.840   5.502   6.112  1.5609 -3.1268 -0.4640
18700SOL     OW57387   4.176   7.820   0.422  0.3014  0.4727 -0.2403
18700SOL    HW157388   4.213   7.882   0.359  0.4086 -0.2533 -0.9005
18700SOL    HW257389   4.246   7.807   0.486  1.3239 -1.0696 -1.6071
18701SOL     OW57390   5.081   8.205   4.619 -0.4597  0.4851  0.0821
18701SOL    HW157391   5.107   8.136   4.680  0.3659 -1.1974 -2.0671
18701SOL    HW257392   5.152   8.269   4.623  0.6353 -0.6490 -0.5963
18702SOL     OW57393   1.114   2.865   6.525  0.2213 -0.2338 -0.4638
18702SOL    HW157394   1.174   2.933   6.556  0.2123  0.0595 -1.0582
18702SOL    HW257395   1.043   2.864   6.589 -0.9424  1.9341 -1.5956
18703SOL     OW57396   0.435   7.135   3.880  0.1576 -0.3393  0.1567
18703SOL    HW157397   0.412   7.210   3.936  0.0960 -1.3446  1.5177
18703SOL    HW257398   0.353   7.112   3.836  0.8318  2.4856 -3.0089
18704SOL     OW57399   8.471   4.120   3.820  0.4915 -0.0332 -0.6896
18704SOL    HW157400   8.387   4.144   3.781 -0.1125  1.0128  1.1467
18704SOL    HW257401   8.458   4.030   3.851  0.3628 -0.1990 -1.2149
18705SOL     OW57402   5.865   5.449   3.337 -0.3152 -0.1236 -0.1240
18705SOL    HW157403   5.948   5.494   3.347 -0.7636  0.8285 -0.5824
18705SOL    HW257404   5.885   5.370   3.287 -0.0100  1.2025 -2.2227
18706SOL     OW57405   7.174   0.634   1.132 -0.4792  0.4785 -0.0340
18706SOL    HW157406   7.097   0.594   1.172 -0.8825  1.3690  0.0928
18706SOL    HW257407   7.197   0.706   1.191  0.8652 -0.1901  0.2974
18707SOL     OW57408   6.336   7.881   3.901 -1.1574  0.0049  0.1150
18707SOL    HW157409   6.286   7.799   3.897 -0.8075 -0.2210  0.3680
18707SOL    HW257410   6.274   7.945   3.936 -1.1854 -0.3480  0.7350
18708SOL     OW57411   0.752   0.726   5.350  0.4325 -0.2558 -0.4053
18708SOL    HW157412   0.665   0.706   5.386  0.4468 -0.9761 -0.7482
18708SOL    HW257413   0.766   0.818   5.371 -1.2900  0.4746 -2.0669
18709SOL     OW57414   0.212   8.373   2.016  0.0948 -0.6165 -0.2649
18709SOL    HW157415   0.177   8.453   2.055  0.0462  0.1868 -1.8644
18709SOL    HW257416   0.159   8.359   1.937 -0.2424 -2.5437  0.2509
18710SOL     OW57417   4.100   6.391   0.279  0.0198  0.6785  0.7605
18710SOL    HW157418   4.175   6.331   0.275 -0.5681 -0.0595  0.6820
18710SOL    HW257419   4.128   6.459   0.340  1.0324  0.7985  0.1768
18711SOL     OW57420   5.738   2.587   2.198 -0.0520  0.0264 -0.4509
18711SOL    HW157421   5.666   2.575   2.136 -1.0599  1.3718  0.4340
18711SOL    HW257422   5.749   2.500   2.238  0.6645 -0.8985 -2.4883
18712SOL     OW57423   8.259   4.816   3.679  0.2076 -0.7400 -0.1842
18712SOL    HW157424   8.338   4.856   3.644  0.1272 -0.9662 -0.6308
18712SOL    HW257425   8.262   4.836   3.772  0.1058  0.4103 -0.4102
18713SOL     OW57426   3.454   3.065   0.945  0.0880 -0.0741  0.5013
18713SOL    HW157427   3.529   3.119   0.968 -0.6355  1.1987 -0.0198
18713SOL    HW257428   3.435   3.088   0.854 -1.6576  0.5529  0.9756
18714SOL     OW57429   6.633   4.517   1.937  0.1471 -0.2597 -0.3436
18714SOL    HW157430   6.618   4.523   2.031 -0.3306 -0.7507 -0.3899
18714SOL    HW257431   6.706   4.577   1.921  0.7930 -0.8091  0.4717
18715SOL     OW57432   5.962   5.872   3.268 -0.4353  0.3422  0.1435
18715SOL    HW157433   5.989   5.953   3.312 -0.5675  0.3962  0.1257
18715SOL    HW257434   6.023   5.806   3.300 -2.3419 -0.2968  2.7613
18716SOL     OW57435   7.649   7.262   1.186 -0.3824 -0.2182  0.1860
18716SOL    HW157436   7.571   7.242   1.135  0.2324 -2.4005 -0.0175
18716SOL    HW257437   7.620   7.261   1.277 -0.4360 -2.2250  0.1956
18717SOL     OW57438   1.256   8.627   5.957 -0.1032 -0.0257  0.1384
18717SOL    HW157439   1.289   8.614   6.046 -0.9732 -0.1891  0.4496
18717SOL    HW257440   1.169   8.586   5.958  0.1844 -0.6895 -1.0042
18718SOL     OW57441   8.267   3.194   6.746  0.2749  0.0546 -0.0858
18718SOL    HW157442   8.247   3.131   6.678  1.0654  0.0594 -0.3206
18718SOL    HW257443   8.227   3.276   6.715  0.0658 -0.0971 -0.2225
18719SOL     OW57444   3.244   4.862   8.313 -0.1309 -0.0994  0.2073
18719SOL    HW157445   3.291   4.920   8.373 -0.4292  0.8831 -0.4914
18719SOL    HW257446   3.162   4.907   8.296 -0.2478 -0.5927 -0.5699
18720SOL     OW57447   4.589   0.031   7.091  0.1822  0.1159 -0.1958
18720SOL    HW157448   4.661   0.059   7.034 -0.0515  0.4541 -0.3308
18720SOL    HW257449   4.522  -0.001   7.030 -0.5064  1.4738 -0.1944
18721SOL     OW57450   4.506   0.594   4.574  0.7650 -0.6073 -0.2905
18721SOL    HW157451   4.466   0.635   4.650  1.0074 -1.8760  0.5633
18721SOL    HW257452   4.554   0.664   4.530  0.0066  0.2935  0.3036
18722SOL     OW57453   7.840   5.383   3.810 -0.0343  0.1093 -0.1515
18722SOL    HW157454   7.901   5.341   3.871  1.3457 -1.7056 -2.5717
18722SOL    HW257455   7.892   5.452   3.768 -0.7831  0.9427  0.2728
18723SOL     OW57456   2.046   7.000   0.289 -0.0014  0.1995  0.1224
18723SOL    HW157457   1.982   6.958   0.232 -1.4299  1.4012  0.7733
18723SOL    HW257458   1.996   7.023   0.368  1.7178 -0.6804  1.5328
18724SOL     OW57459   1.571   1.447   0.387 -0.0791 -0.3936  0.2496
18724SOL    HW157460   1.567   1.352   0.401  1.2191 -0.7661 -1.4673
18724SOL    HW257461   1.657   1.461   0.347 -1.0197  1.2220 -1.3589
18725SOL     OW57462   0.199   6.517   6.856 -0.1115 -0.0665 -0.4483
18725SOL    HW157463   0.121   6.465   6.877  0.1145 -0.5462 -0.7566
18725SOL    HW257464   0.270   6.452   6.851  0.4075  0.4211  0.3297
18726SOL     OW57465   3.517   4.083   4.560  0.1550 -0.1398  0.1340
18726SOL    HW157466   3.461   4.091   4.483 -0.3790  0.5823  0.5841
18726SOL    HW257467   3.537   4.174   4.584  0.4757 -0.3661  0.7336
18727SOL     OW57468   2.138   3.270   3.130  0.3817 -0.0137 -0.4869
18727SOL    HW157469   2.065   3.330   3.119  0.0086 -0.5026 -0.7245
18727SOL    HW257470   2.118   3.197   3.071  0.6538 -0.5318  0.0477
18728SOL     OW57471   2.526   4.453   6.899  0.2374  0.4279 -0.4493
18728SOL    HW157472   2.537   4.358   6.899  1.0214  0.5104  0.0890
18728SOL    HW257473   2.611   4.487   6.927  0.4098  1.3485 -1.9733
18729SOL     OW57474   3.454   2.119   6.529 -1.0604  0.5813 -0.1900
18729SOL    HW157475   3.489   2.145   6.614 -0.6681  0.0621 -0.1909
18729SOL    HW257476   3.531   2.108   6.473 -1.1574 -1.1182 -0.0408
18730SOL     OW57477   5.691   2.073   7.847  0.1132 -0.4937 -0.2538
18730SOL    HW157478   5.692   2.083   7.752 -0.9283 -0.0712 -0.2342
18730SOL    HW257479   5.777   2.104   7.875 -0.4712  1.8465 -0.8441
18731SOL     OW57480   8.330   2.106   1.163 -0.1222 -0.2925 -0.4884
18731SOL    HW157481   8.280   2.064   1.093  0.4760 -0.5501 -0.7690
18731SOL    HW257482   8.354   2.035   1.221 -1.4920  0.0528  0.5563
18732SOL     OW57483   1.632   1.823   3.420 -0.3392  0.3106 -0.5202
18732SOL    HW157484   1.593   1.736   3.433 -0.8334  0.2773 -1.9976
18732SOL    HW257485   1.713   1.806   3.372 -0.0221  0.6119 -0.0962
18733SOL     OW57486   2.343   0.612   0.099 -0.3460  0.1256 -0.1376
18733SOL    HW157487   2.318   0.534   0.049 -1.7775 -1.0917  2.3055
18733SOL    HW257488   2.290   0.682   0.061 -1.9686 -0.9170  0.1052
18734SOL     OW57489   4.089   3.763   1.789  0.5949  0.0886 -0.6044
18734SOL    HW157490   4.085   3.789   1.881 -0.7686 -0.6201 -0.4388
18734SOL    HW257491   4.149   3.688   1.787  0.0797 -0.3380 -0.1745
18735SOL     OW57492   7.115   0.760   8.658 -0.3943  0.5786  0.1682
18735SOL    HW157493   7.197   0.754   8.608  0.9364  3.0592  1.8328
18735SOL    HW257494   7.136   0.724   8.744 -0.9020  1.5838  0.7294
18736SOL     OW57495   8.330   5.898   1.221 -0.3093  0.0513 -0.1681
18736SOL    HW157496   8.381   5.819   1.202  1.1884  0.8260  0.4372
18736SOL    HW257497   8.240   5.867   1.228  0.1561 -1.4967 -0.5600
18737SOL     OW57498   6.030   7.072   5.143 -0.5529 -0.1866  0.1302
18737SOL    HW157499   6.050   7.026   5.224 -0.3436 -0.9443 -0.3429
18737SOL    HW257500   5.984   7.151   5.171 -2.9925 -1.7691  0.8551
18738SOL     OW57501   3.913   3.862   8.508 -0.1864  0.0436 -0.3407
18738SOL    HW157502   3.921   3.957   8.508  0.0950  0.0199 -0.0282
18738SOL    HW257503   4.002   3.831   8.493 -0.1682 -0.1793  0.2076
18739SOL     OW57504   2.328   6.323   4.960  0.0271 -0.5541  0.2445
18739SOL    HW157505   2.308   6.377   5.037  0.4603 -0.4665  0.3028
18739SOL    HW257506   2.325   6.385   4.887 -1.7332 -0.8906 -0.0154
18740SOL     OW57507   2.051   1.793   0.731  0.1080  0.1952 -0.4030
18740SOL    HW157508   2.056   1.762   0.822 -1.7253  0.4371 -0.1744
18740SOL    HW257509   2.029   1.886   0.739 -0.3615  0.1506 -1.0793
18741SOL     OW57510   3.445   2.891   8.698 -0.1445 -0.0758  0.2855
18741SOL    HW157511   3.459   2.796   8.700 -0.3139 -0.1081 -0.0077
18741SOL    HW257512   3.349   2.901   8.697 -0.1490  0.0429 -1.5541
18742SOL     OW57513   6.406   2.874   8.584  0.3654 -0.6299 -0.4051
18742SOL    HW157514   6.398   2.803   8.521 -1.3756  1.7925 -3.2111
18742SOL    HW257515   6.498   2.898   8.583  0.7365 -2.0004 -0.3539
18743SOL     OW57516   6.597   7.322   5.197  0.3095  0.1468  0.3085
18743SOL    HW157517   6.507   7.294   5.215 -0.4569  2.1526 -0.1761
18743SOL    HW257518   6.645   7.240   5.187 -1.7839 -1.0260 -1.0570
18744SOL     OW57519   0.867   8.021   0.973  0.6627  0.3409 -0.0309
18744SOL    HW157520   0.772   8.011   0.971  0.7036 -0.0309 -0.2978
18744SOL    HW257521   0.882   8.106   1.014  0.2528 -0.2493  1.4170
18745SOL     OW57522   1.335   7.897   0.176 -0.4238 -0.4360  0.6455
18745SOL    HW157523   1.363   7.958   0.109  1.0459 -1.6008  0.1417
18745SOL    HW257524   1.335   7.949   0.257 -1.9702  0.9125 -0.1665
18746SOL     OW57525   5.443   2.216   3.110 -0.4430 -0.3364 -0.1702
18746SOL    HW157526   5.348   2.222   3.097 -0.5668 -0.4972  0.6181
18746SOL    HW257527   5.458   2.255   3.195 -0.0383 -2.0332  0.5809
18747SOL     OW57528   5.510   4.036   1.172  0.2274 -0.1267 -0.4622
18747SOL    HW157529   5.536   3.980   1.099 -0.3115 -1.7187  0.5281
18747SOL    HW257530   5.424   4.070   1.147 -0.0574 -0.8483 -0.4734
18748SOL     OW57531   4.803   7.389   7.238 -0.3283  0.5209  0.5475
18748SOL    HW157532   4.766   7.467   7.279  0.3742 -0.0627  2.4012
18748SOL    HW257533   4.737   7.321   7.252  0.2796  0.1121  1.5174
18749SOL     OW57534   7.258   8.655   8.571 -0.1832 -0.5734 -0.1825
18749SOL    HW157535   7.341   8.701   8.563 -0.3113 -0.4745 -1.0661
18749SOL    HW257536   7.221   8.686   8.653  1.3562 -1.7873  1.0462
18750SOL     OW57537   0.218   5.098   4.373 -0.1743  0.6243  0.4869
18750SOL    HW157538   0.182   5.153   4.443 -2.3929  1.8302 -1.4696
18750SOL    HW257539   0.172   5.015   4.382  0.3574  0.3892  1.1073
18751SOL     OW57540   8.042   5.540   0.091 -0.0851  0.0248 -0.2207
18751SOL    HW157541   8.018   5.573   0.004 -0.9057 -0.7770 -0.3137
18751SOL    HW257542   8.037   5.617   0.148  0.1903  0.5055 -0.8275
18752SOL     OW57543   0.798   6.370   0.698 -0.2922 -0.3656  0.2802
18752SOL    HW157544   0.831   6.406   0.615 -2.0029 -0.1410 -0.3271
18752SOL    HW257545   0.875   6.330   0.738  0.9318  0.9429 -0.6496
18753SOL     OW57546   1.604   7.686   0.866  0.0413  0.0330 -0.1095
18753SOL    HW157547   1.644   7.729   0.790 -2.3944 -1.0435 -2.1693
18753SOL    HW257548   1.519   7.730   0.876 -0.6587 -1.3843  0.4784
18754SOL     OW57549   3.780   5.311   5.108 -0.9193 -0.2326  0.4163
18754SOL    HW157550   3.692   5.275   5.096 -1.5315  0.5735  2.1617
18754SOL    HW257551   3.770   5.377   5.177  0.7855  0.9302 -0.3691
18755SOL     OW57552   0.249   7.305   2.215 -1.0736 -0.1695  0.0805
18755SOL    HW157553   0.206   7.389   2.197  0.2005  0.4969 -0.0263
18755SOL    HW257554   0.338   7.330   2.241 -0.7470 -1.4912  0.2801
18756SOL     OW57555   5.435   3.027   5.370 -0.0156  0.3915  0.5686
18756SOL    HW157556   5.486   2.947   5.386  0.1086  0.4296  0.3596
18756SOL    HW257557   5.390   3.043   5.453  0.6442  0.5967  0.8959
18757SOL     OW57558   6.562   1.549   3.312 -0.0486  0.3891  0.0914
18757SOL    HW157559   6.632   1.602   3.349 -0.0485  0.3521  0.1434
18757SOL    HW257560   6.490   1.610   3.299 -0.4999  0.1524  1.3435
18758SOL     OW57561   3.557   2.372   3.185 -0.2249  0.4126  0.6107
18758SOL    HW157562   3.637   2.380   3.133  0.5612  0.1238  1.7258
18758SOL    HW257563   3.489   2.348   3.122  0.7269 -0.0971 -0.2480
18759SOL     OW57564   5.511   6.706   0.848  0.1251 -0.7356 -0.7039
18759SOL    HW157565   5.549   6.662   0.925 -0.8537  0.4341  0.4892
18759SOL    HW257566   5.417   6.703   0.863  0.0196  2.3040 -0.1992
18760SOL     OW57567   5.949   4.184   5.762  0.0944  0.1782  0.6104
18760SOL    HW157568   5.902   4.262   5.735  0.5996 -0.2931 -1.9043
18760SOL    HW257569   6.042   4.206   5.748  0.2390 -0.8464 -0.2129
18761SOL     OW57570   5.382   0.410   8.667 -0.5644  1.0655 -0.5375
18761SOL    HW157571   5.371   0.316   8.651 -2.2668  0.9470  1.0056
18761SOL    HW257572   5.475   0.426   8.650 -0.1514 -0.9717 -0.4961
18762SOL     OW57573   6.027   3.426   2.576  0.3402 -0.1731 -0.5275
18762SOL    HW157574   5.968   3.351   2.563 -0.3414  0.2055  0.2879
18762SOL    HW257575   6.109   3.388   2.606  0.6125 -0.7318 -1.9113
18763SOL     OW57576   5.000   1.024   4.240 -0.2680 -0.0328 -0.3499
18763SOL    HW157577   4.939   1.069   4.181 -0.9406  1.0930  1.1374
18763SOL    HW257578   4.959   1.032   4.327  1.3453 -0.4252  0.4736
18764SOL     OW57579   2.830   3.695   1.986 -0.6411  0.7589 -0.5663
18764SOL    HW157580   2.868   3.607   1.994 -0.5363  0.8807  0.4754
18764SOL    HW257581   2.901   3.754   2.012 -1.8163  0.9241  2.8239
18765SOL     OW57582   5.319   8.672   0.647  0.4984  0.2872  0.0463
18765SOL    HW157583   5.280   8.733   0.585  1.1085 -1.5576 -2.2965
18765SOL    HW257584   5.348   8.598   0.594  1.7533 -1.1011  2.4543
18766SOL     OW57585   6.538   1.650   7.438  0.4601  0.2631 -0.5652
18766SOL    HW157586   6.556   1.591   7.511  2.4723  1.3428 -0.1298
18766SOL    HW257587   6.456   1.693   7.462 -0.2081 -1.1679 -0.1552
18767SOL     OW57588   0.183   4.519   2.063 -0.8125  0.0601 -0.0228
18767SOL    HW157589   0.105   4.512   2.118 -2.2327  1.3863 -1.7817
18767SOL    HW257590   0.160   4.583   1.996  1.3411 -0.4897 -1.3733
18768SOL     OW57591   5.455   5.676   7.532  0.1531  0.4612  0.2519
18768SOL    HW157592   5.443   5.627   7.613  0.8124  1.2969  0.8686
18768SOL    HW257593   5.492   5.612   7.471  1.3325  0.2451  1.1485
18769SOL     OW57594   5.885   2.863   2.616  0.0108  0.6473 -0.8737
18769SOL    HW157595   5.912   2.937   2.561  0.6968  1.4805  0.5291
18769SOL    HW257596   5.832   2.809   2.558 -1.7765  2.9865 -1.5771
18770SOL     OW57597   6.174   2.471   3.427 -0.1202  0.3723  0.5228
18770SOL    HW157598   6.091   2.436   3.394  0.5595 -1.9084  1.0113
18770SOL    HW257599   6.200   2.409   3.495  1.5694  1.5151  0.9809
18771SOL     OW57600   0.383   0.407   8.603 -0.0583  0.0722 -0.0040
18771SOL    HW157601   0.333   0.435   8.525 -1.0624  2.5874  1.4225
18771SOL    HW257602   0.458   0.466   8.606  1.7792 -2.0784 -0.7315
18772SOL     OW57603   2.317   7.184   5.438  0.0612  0.4749 -0.0837
18772SOL    HW157604   2.396   7.157   5.484  0.1751  0.6495 -0.1737
18772SOL    HW257605   2.304   7.117   5.372 -0.9438 -0.5855  1.1417
18773SOL     OW57606   2.606   1.581   7.885  0.1928 -0.4254 -0.4422
18773SOL    HW157607   2.514   1.592   7.910  0.6953 -1.2967  2.1397
18773SOL    HW257608   2.639   1.670   7.876 -0.6633 -0.0958 -0.4112
18774SOL     OW57609   3.736   5.167   1.831  0.2394  0.0224  0.3041
18774SOL    HW157610   3.723   5.072   1.825  1.1686 -0.0604 -0.8039
18774SOL    HW257611   3.780   5.190   1.749  1.3792  1.1867  1.2103
18775SOL     OW57612   0.651   7.738   0.442  0.3711 -0.0188 -0.2364
18775SOL    HW157613   0.641   7.804   0.373  1.4902 -0.5440 -0.9199
18775SOL    HW257614   0.607   7.661   0.408 -1.8333  0.6015  0.9845
18776SOL     OW57615   7.430   8.154   2.583 -0.3274  0.5614 -0.6926
18776SOL    HW157616   7.499   8.116   2.528  1.1458  2.6213 -0.3631
18776SOL    HW257617   7.421   8.244   2.551 -2.9438  0.3737 -0.7450
18777SOL     OW57618   7.224   2.941   7.350 -0.0691  0.1393 -0.2489
18777SOL    HW157619   7.255   2.880   7.417 -0.5304  0.5024  0.3042
18777SOL    HW257620   7.304   2.978   7.313  0.2006  1.3635  1.4397
18778SOL     OW57621   3.098   5.349   3.552  0.2306  0.7613  0.0979
18778SOL    HW157622   3.169   5.379   3.495  0.4241  1.7718  0.8371
18778SOL    HW257623   3.119   5.387   3.638  1.1266 -2.4091  1.4456
18779SOL     OW57624   2.302   4.795   4.661 -0.5465 -0.1782 -0.2752
18779SOL    HW157625   2.247   4.717   4.670  1.3427 -1.6245 -0.7410
18779SOL    HW257626   2.280   4.830   4.574  1.1138 -2.3219 -1.6496
18780SOL     OW57627   7.533   5.017   2.708 -0.0066  0.1991 -0.0221
18780SOL    HW157628   7.460   5.070   2.740 -0.0674  0.0043  0.1647
18780SOL    HW257629   7.500   4.975   2.629  0.1741  0.7550 -0.3966
18781SOL     OW57630   6.556   2.380   7.831  0.2828 -0.1557 -0.9762
18781SOL    HW157631   6.596   2.314   7.774  3.8976  0.1538  0.9470
18781SOL    HW257632   6.577   2.463   7.789 -0.6301 -0.0537 -1.2486
18782SOL     OW57633   7.157   1.590   3.932  0.1540  0.5208  0.2912
18782SOL    HW157634   7.197   1.584   4.019 -1.4724 -0.6919  0.9953
18782SOL    HW257635   7.191   1.672   3.896 -0.3958  1.8863  2.7067
18783SOL     OW57636   8.219   3.445   0.789 -0.5572 -0.6894 -0.2488
18783SOL    HW157637   8.128   3.468   0.767  0.3198  1.8383 -1.6542
18783SOL    HW257638   8.229   3.355   0.760 -2.5695 -0.9824 -0.1691
18784SOL     OW57639   2.067   1.678   1.004  0.4540  0.2512 -0.2202
18784SOL    HW157640   2.156   1.653   1.029  0.4785 -2.0329 -2.1844
18784SOL    HW257641   2.025   1.595   0.981 -1.5600  1.4789 -1.2302
18785SOL     OW57642   1.787   7.249   5.912 -0.2406  0.3143 -0.2974
18785SOL    HW157643   1.812   7.235   5.820  0.3270 -1.5094  0.0877
18785SOL    HW257644   1.863   7.220   5.962 -2.0119 -2.8644  0.8460
18786SOL     OW57645   0.235   6.747   8.703 -0.1505  0.3810 -0.2044
18786SOL    HW157646   0.159   6.740   8.761 -1.0207  0.4344 -1.2961
18786SOL    HW257647   0.200   6.727   8.616  0.9224  1.1888 -0.8456
18787SOL     OW57648   3.476   0.764   4.287  0.4264  0.3926  0.6135
18787SOL    HW157649   3.558   0.745   4.334  0.2182  1.6833  1.5413
18787SOL    HW257650   3.419   0.691   4.309  1.3138 -0.5247 -0.0431
18788SOL     OW57651   7.336   4.328   2.972 -0.3480  0.1168 -0.7724
18788SOL    HW157652   7.253   4.367   2.998 -1.1092 -1.1755 -1.1850
18788SOL    HW257653   7.363   4.378   2.895 -0.3497  1.0205 -0.2032
18789SOL     OW57654   4.105   6.076   7.983 -0.4569  0.0625  0.3524
18789SOL    HW157655   4.103   5.985   7.954  2.1143  0.1354 -0.2578
18789SOL    HW257656   4.105   6.071   8.079 -0.7233 -0.5332  0.3259
18790SOL     OW57657   1.328   4.031   5.247 -0.3563 -0.0180  0.3126
18790SOL    HW157658   1.319   3.936   5.256  1.3493 -0.2715 -0.2415
18790SOL    HW257659   1.375   4.058   5.326 -1.8503  0.5690  1.0326
18791SOL     OW57660   7.077   4.627   4.730  0.5055 -0.3247 -0.4348
18791SOL    HW157661   7.105   4.591   4.815  0.6936 -3.2910 -1.6141
18791SOL    HW257662   7.157   4.625   4.676 -0.3460 -2.2330 -1.7609
18792SOL     OW57663   8.389   1.544   7.693  0.5272 -0.0193  0.1890
18792SOL    HW157664   8.428   1.489   7.625 -0.1377  0.8279 -0.8957
18792SOL    HW257665   8.460   1.560   7.755  0.4343 -3.2283  1.3260
18793SOL     OW57666   8.471   6.565   4.409 -0.3725 -0.1719 -0.9240
18793SOL    HW157667   8.516   6.481   4.415 -0.7075 -0.2698  2.8219
18793SOL    HW257668   8.540   6.628   4.393  0.1634 -0.9505 -1.7636
18794SOL     OW57669   5.669   7.137   1.476  0.7653  0.2464 -0.2504
18794SOL    HW157670   5.584   7.158   1.438  0.9444  1.2240 -0.1265
18794SOL    HW257671   5.669   7.179   1.561  0.9475 -0.6955  0.2346
18795SOL     OW57672   4.523   4.787   0.531 -0.2502  0.6537  0.0638
18795SOL    HW157673   4.492   4.710   0.483  1.1223  0.2378 -0.1870
18795SOL    HW257674   4.461   4.796   0.604 -2.8126  1.7385 -2.0998
18796SOL     OW57675   6.732   0.338   0.973  0.6073  0.5585  0.3239
18796SOL    HW157676   6.648   0.380   0.952  0.6358  1.0631  1.1826
18796SOL    HW257677   6.774   0.325   0.888 -0.4232  0.1222 -0.1345
18797SOL     OW57678   2.266   2.619   2.777 -0.0269  0.2386  0.0669
18797SOL    HW157679   2.274   2.571   2.695 -1.2643 -0.9537  0.6064
18797SOL    HW257680   2.176   2.605   2.805  0.1698  1.2091  1.2808
18798SOL     OW57681   2.052   5.120   8.201 -0.6525 -0.0494 -0.6556
18798SOL    HW157682   2.081   5.109   8.291  0.1151 -1.2317 -1.0189
18798SOL    HW257683   2.129   5.099   8.148 -0.8584  1.4074 -1.5951
18799SOL     OW57684   0.254   2.208   2.580 -0.1792 -0.2528  0.9905
18799SOL    HW157685   0.227   2.220   2.670 -0.8333  0.0002  0.7627
18799SOL    HW257686   0.345   2.179   2.586  0.0836  0.6806  1.6889
18800SOL     OW57687   6.153   5.837   3.557 -0.4182  0.0051  0.5983
18800SOL    HW157688   6.194   5.902   3.501 -2.7626  0.3953 -0.8056
18800SOL    HW257689   6.084   5.885   3.603 -1.8906 -1.3534 -0.1000
18801SOL     OW57690   7.622   4.177   5.579  0.0552 -0.6624  0.0586
18801SOL    HW157691   7.607   4.215   5.665  1.5572 -0.3550  0.2088
18801SOL    HW257692   7.565   4.227   5.520  0.7688  0.7249  0.5124
18802SOL     OW57693   2.858   3.307   7.494  0.0456  0.0244  0.3585
18802SOL    HW157694   2.851   3.283   7.587 -2.2172 -0.7348  0.0560
18802SOL    HW257695   2.799   3.382   7.485  0.9941  0.7077 -0.2988
18803SOL     OW57696   3.122   6.781   6.959  0.2655 -0.3431 -0.0583
18803SOL    HW157697   3.172   6.850   6.915  1.1828 -1.1044 -0.2506
18803SOL    HW257698   3.047   6.766   6.902 -0.5326  1.2131  0.5240
18804SOL     OW57699   2.830   7.160   8.086 -0.0257  0.0952  0.2279
18804SOL    HW157700   2.819   7.248   8.050  1.1099  1.0083  1.9658
18804SOL    HW257701   2.924   7.144   8.082 -0.2939 -1.5032 -0.9765
18805SOL     OW57702   8.186   8.345   5.270 -0.6996 -0.0311 -0.0835
18805SOL    HW157703   8.217   8.387   5.351 -0.2713 -0.7516  0.1411
18805SOL    HW257704   8.266   8.312   5.229 -0.9289  0.2505 -0.7605
18806SOL     OW57705   4.452   7.112   7.131  0.1934  0.4826  0.1498
18806SOL    HW157706   4.463   7.104   7.036 -0.5547  0.8992  0.0239
18806SOL    HW257707   4.399   7.036   7.156  1.2595 -0.2106  0.4084
18807SOL     OW57708   8.500   3.388   5.049 -0.5529 -0.1318  0.0350
18807SOL    HW157709   8.463   3.476   5.049 -1.4188 -0.4855  0.2193
18807SOL    HW257710   8.517   3.369   4.957  1.5629  0.9937  0.1400
18808SOL     OW57711   3.478   0.811   1.730  0.3392 -0.2292  0.3063
18808SOL    HW157712   3.508   0.850   1.812 -0.1269 -0.2715  0.5035
18808SOL    HW257713   3.463   0.885   1.673  0.1991 -0.1649  0.4243
18809SOL     OW57714   6.111   4.639   0.220 -0.4815 -0.4099  0.0075
18809SOL    HW157715   6.157   4.666   0.140 -0.3660  0.3474  0.3249
18809SOL    HW257716   6.018   4.651   0.199 -0.4123  1.0212  0.4002
18810SOL     OW57717   5.773   0.235   1.569  0.3714 -0.9555 -0.5266
18810SOL    HW157718   5.749   0.153   1.612  0.7942 -0.5439  0.5403
18810SOL    HW257719   5.690   0.282   1.559  0.3505 -0.7266  0.5843
18811SOL     OW57720   1.682   6.330   0.554 -0.2493  0.7788 -0.4214
18811SOL    HW157721   1.705   6.422   0.564 -0.1162  0.5798  1.3341
18811SOL    HW257722   1.627   6.310   0.629 -3.0351  0.2097 -2.4687
18812SOL     OW57723   1.212   1.244   0.782  0.4908 -0.0973 -0.1509
18812SOL    HW157724   1.236   1.166   0.731  0.9120 -0.4016  0.5112
18812SOL    HW257725   1.291   1.267   0.831  0.8202  1.5961 -1.3869
18813SOL     OW57726   4.794   0.383   2.334  0.2917 -0.0107  0.1473
18813SOL    HW157727   4.818   0.401   2.243  1.2528  0.2576  0.4434
18813SOL    HW257728   4.823   0.461   2.382 -1.1376  0.3133  0.5496
18814SOL     OW57729   3.992   8.278   4.898  0.8699  0.6688 -0.0472
18814SOL    HW157730   3.931   8.340   4.940  1.7273 -0.7230  3.6766
18814SOL    HW257731   3.937   8.204   4.872  0.6811 -0.2481  2.5987
18815SOL     OW57732   1.001   3.502   5.493  0.0448 -0.0244 -0.1150
18815SOL    HW157733   0.948   3.564   5.544 -3.3986 -0.2909 -2.9615
18815SOL    HW257734   0.978   3.416   5.528 -1.0744 -0.0963 -0.9576
18816SOL     OW57735   6.802   4.572   6.557  0.2474  0.0004 -0.2580
18816SOL    HW157736   6.853   4.571   6.476  0.4410  1.0934 -0.1647
18816SOL    HW257737   6.819   4.658   6.595 -1.7380  0.4745 -0.2936
18817SOL     OW57738   3.909   0.497   8.086 -0.0035 -0.0301 -0.2301
18817SOL    HW157739   3.937   0.438   8.156  0.0231  1.0681  0.7144
18817SOL    HW257740   3.819   0.519   8.108 -0.1545 -0.0559 -0.8140
18818SOL     OW57741   2.904   5.529   8.701 -0.3114  0.1671 -0.0366
18818SOL    HW157742   2.889   5.623   8.692 -1.4858  0.0602  0.5816
18818SOL    HW257743   2.889   5.511   8.794 -0.9594 -0.7698 -0.3078
18819SOL     OW57744   2.492   3.598   6.710 -0.0807 -0.1401  0.2983
18819SOL    HW157745   2.496   3.645   6.793 -1.4488 -0.9135  0.8419
18819SOL    HW257746   2.543   3.518   6.725 -0.6161 -0.4468  0.5328
18820SOL     OW57747   8.436   5.260   1.759 -0.5920  0.1988 -0.0692
18820SOL    HW157748   8.384   5.297   1.830 -3.0965 -1.6118 -0.8178
18820SOL    HW257749   8.377   5.261   1.683  1.6931  1.2800 -1.9585
18821SOL     OW57750   6.692   6.174   4.842 -0.4285  0.6434 -0.0685
18821SOL    HW157751   6.757   6.241   4.825  2.1229 -1.6623 -0.1105
18821SOL    HW257752   6.715   6.140   4.929  0.0388 -1.8096 -1.0604
18822SOL     OW57753   4.095   2.632   5.450 -0.4061 -0.4843  0.1480
18822SOL    HW157754   4.148   2.575   5.506  3.1048  2.8000  0.5398
18822SOL    HW257755   4.034   2.675   5.510 -0.4360 -0.9710  0.4733
18823SOL     OW57756   0.242   0.955   6.449  0.3556 -0.8446  0.3786
18823SOL    HW157757   0.237   0.920   6.360  1.6385  0.0265 -0.0722
18823SOL    HW257758   0.317   1.014   6.447 -0.3814  0.2045  1.6940
18824SOL     OW57759   8.304   6.477   6.171  0.2092 -0.5740 -0.3356
18824SOL    HW157760   8.365   6.475   6.098  0.8346  0.3638  0.1267
18824SOL    HW257761   8.359   6.491   6.248 -0.6084  1.1855  0.0056
18825SOL     OW57762   8.650   2.845   7.584 -0.1242 -0.2561  0.8111
18825SOL    HW157763   8.562   2.810   7.570 -0.4345  0.6231  0.4816
18825SOL    HW257764   8.705   2.799   7.521 -0.2603 -1.1141  1.3050
18826SOL     OW57765   0.104   0.628   8.031 -0.2901 -0.0316 -0.0421
18826SOL    HW157766   0.128   0.546   7.988  0.6765  0.9921 -1.5693
18826SOL    HW257767   0.176   0.646   8.091  0.1434  0.3270 -0.6580
18827SOL     OW57768   8.188   3.005   7.746 -0.8265  0.5454 -0.1111
18827SOL    HW157769   8.121   3.046   7.691 -0.9106  0.7200  0.1158
18827SOL    HW257770   8.139   2.973   7.822 -0.9237 -0.8783 -0.7487
18828SOL     OW57771   5.770   2.745   0.582  0.3360  0.2718  0.6277
18828SOL    HW157772   5.781   2.782   0.495 -0.9114  0.0196  0.3564
18828SOL    HW257773   5.685   2.702   0.580  0.4800 -0.1076  1.8391
18829SOL     OW57774   8.649   6.164   6.636 -0.1718 -0.2215  0.2286
18829SOL    HW157775   8.658   6.073   6.610  0.2837  0.4507 -2.2459
18829SOL    HW257776   8.556   6.184   6.623  0.2625  0.4760 -2.6108
18830SOL     OW57777   5.921   6.550   1.422  0.1730 -0.4727 -0.4173
18830SOL    HW157778   6.007   6.590   1.405  0.3591 -0.2398  0.9114
18830SOL    HW257779   5.858   6.617   1.397  0.4556  0.2174  0.6190
18831SOL     OW57780   4.690   7.385   2.226  0.4420 -0.5645  0.2507
18831SOL    HW157781   4.774   7.415   2.193  0.3096  1.4820  1.6045
18831SOL    HW257782   4.646   7.465   2.257 -0.9524 -1.8783  1.8625
18832SOL     OW57783   3.681   3.340   7.511 -0.6334  0.4325  0.1865
18832SOL    HW157784   3.665   3.307   7.599 -0.2581  0.6970  0.3567
18832SOL    HW257785   3.742   3.277   7.473  0.5426  1.2236  0.7148
18833SOL     OW57786   8.154   5.456   2.500  0.5432  0.0268 -0.3041
18833SOL    HW157787   8.170   5.438   2.592  0.4180  0.8690 -0.1079
18833SOL    HW257788   8.122   5.547   2.499 -0.2878 -0.2679 -1.0825
18834SOL     OW57789   8.208   7.044   2.852  0.2266 -0.4096  0.0102
18834SOL    HW157790   8.303   7.035   2.854  0.4431  1.5646  1.0554
18834SOL    HW257791   8.178   6.994   2.928  0.4375 -0.8642 -0.2015
18835SOL     OW57792   5.300   0.810   5.655  0.1072  0.2473 -0.2381
18835SOL    HW157793   5.388   0.840   5.675  1.1404  1.1304 -4.8793
18835SOL    HW257794   5.243   0.861   5.713  2.5053  1.7864  0.9154
18836SOL     OW57795   8.248   8.319   5.833  0.2173 -0.0036  0.1081
18836SOL    HW157796   8.336   8.309   5.796  0.0027 -0.1377 -0.3782
18836SOL    HW257797   8.201   8.241   5.804 -0.7896  1.2164 -1.7444
18837SOL     OW57798   2.541   5.327   1.775  0.0903 -0.2929  0.2348
18837SOL    HW157799   2.453   5.305   1.806  0.4611 -2.8016 -0.2571
18837SOL    HW257800   2.581   5.372   1.849 -0.7607 -1.4705  1.4699
18838SOL     OW57801   7.716   0.739   6.892 -0.3331  0.1805 -0.2615
18838SOL    HW157802   7.696   0.693   6.811 -0.1193  0.9388 -0.7516
18838SOL    HW257803   7.754   0.823   6.864 -1.0573  0.8200  0.5951
18839SOL     OW57804   0.858   2.521   3.477  0.3175  0.0390 -0.2762
18839SOL    HW157805   0.789   2.512   3.543 -0.1427 -0.0133 -0.7551
18839SOL    HW257806   0.884   2.432   3.457 -1.1610 -0.0977 -1.8230
18840SOL     OW57807   1.843   2.450   6.354 -0.0757 -0.6156  0.2283
18840SOL    HW157808   1.871   2.371   6.308 -1.3677  0.3864 -2.4699
18840SOL    HW257809   1.824   2.420   6.443  0.6301 -3.0702 -0.3629
18841SOL     OW57810   7.664   3.517   7.880 -0.1746  0.1767  0.0036
18841SOL    HW157811   7.723   3.570   7.934 -0.0566  0.2337 -0.1790
18841SOL    HW257812   7.607   3.581   7.838 -0.0694  0.1545 -0.1724
18842SOL     OW57813   3.737   1.038   2.526  0.0717  0.4161 -0.3694
18842SOL    HW157814   3.667   0.980   2.496  0.1348 -0.1327  0.5100
18842SOL    HW257815   3.804   1.033   2.458  0.1167 -0.6225 -0.2596
18843SOL     OW57816   7.036   4.171   7.485 -0.1229 -0.4657 -0.0625
18843SOL    HW157817   7.126   4.201   7.473 -0.0261 -0.3034  0.9672
18843SOL    HW257818   6.989   4.205   7.408  0.3745  0.7748  0.1590
18844SOL     OW57819   8.709   1.776   1.855  0.2193  0.3015 -0.1049
18844SOL    HW157820   8.693   1.781   1.949 -1.7792 -3.2431 -0.0822
18844SOL    HW257821   8.799   1.806   1.845  1.4771 -1.6907  3.3728
18845SOL     OW57822   7.648   2.256   3.472 -0.4899 -0.3652 -0.1508
18845SOL    HW157823   7.695   2.179   3.502 -0.9828 -0.3200  0.7898
18845SOL    HW257824   7.593   2.226   3.400  0.7950 -0.4627 -1.1088
18846SOL     OW57825   8.109   8.081   6.735  0.1351 -0.4791  0.1562
18846SOL    HW157826   8.060   8.087   6.652 -1.8374 -0.4680  1.2509
18846SOL    HW257827   8.090   8.163   6.780  2.2957  0.1064  0.0974
18847SOL     OW57828   6.966   4.491   0.826  0.0783 -0.6241 -0.2056
18847SOL    HW157829   7.047   4.497   0.776  0.4072  1.5343  0.4760
18847SOL    HW257830   6.981   4.547   0.903 -1.3204 -1.8168  1.0027
18848SOL     OW57831   3.284   0.613   4.423  0.2863  0.1222  0.3256
18848SOL    HW157832   3.244   0.532   4.454  0.0637 -0.7196 -1.9753
18848SOL    HW257833   3.225   0.645   4.355  2.7197 -0.3979 -2.1969
18849SOL     OW57834   5.088   7.088   5.221  0.6432 -0.3998 -0.3555
18849SOL    HW157835   5.166   7.108   5.170  0.5128 -1.0451 -0.8234
18849SOL    HW257836   5.057   7.005   5.185  0.4456 -0.7770  0.6511
18850SOL     OW57837   1.531   0.525   2.706  0.1892  0.1621  0.3970
18850SOL    HW157838   1.612   0.493   2.665 -1.1735 -0.0003 -2.3102
18850SOL    HW257839   1.506   0.454   2.765  0.3380 -1.2528 -1.1585
18851SOL     OW57840   4.961   2.931   2.042 -0.3524  0.0388  0.0656
18851SOL    HW157841   4.956   3.023   2.016  1.2230  0.3566  0.7953
18851SOL    HW257842   5.022   2.929   2.115  1.0942 -1.8081 -1.0848
18852SOL     OW57843   6.603   4.477   0.219 -0.3497 -0.0744  0.4992
18852SOL    HW157844   6.586   4.386   0.196 -0.0224 -0.0203  0.0171
18852SOL    HW257845   6.658   4.510   0.148  1.7582 -0.2363  1.9512
18853SOL     OW57846   3.580   7.748   6.811 -0.1095 -0.0326 -0.3458
18853SOL    HW157847   3.524   7.801   6.754 -1.9103 -0.7957  0.6380
18853SOL    HW257848   3.566   7.784   6.899 -1.8560 -2.4144  0.4433
18854SOL     OW57849   1.662   6.482   5.340  0.2380  0.5528  0.4602
18854SOL    HW157850   1.611   6.413   5.381 -1.1584  0.9314 -0.5271
18854SOL    HW257851   1.602   6.557   5.338 -0.5484  0.0826 -3.7736
18855SOL     OW57852   2.121   6.908   1.569  0.4671 -0.1688 -0.2148
18855SOL    HW157853   2.134   6.823   1.611 -0.6369  0.0694  0.6533
18855SOL    HW257854   2.099   6.887   1.478 -1.5196 -0.9299  0.3913
18856SOL     OW57855   2.705   6.534   0.556 -0.2858  0.0118  0.1809
18856SOL    HW157856   2.614   6.512   0.572 -0.6837  1.6475  0.2961
18856SOL    HW257857   2.736   6.573   0.638  0.3570 -0.0184 -0.0371
18857SOL     OW57858   4.685   6.009   1.187  0.5215  0.2357  0.1088
18857SOL    HW157859   4.735   6.035   1.264  1.0527  1.7224 -0.7057
18857SOL    HW257860   4.596   6.039   1.205 -0.0234 -1.8903  1.3031
18858SOL     OW57861   1.798   3.821   3.511  0.0212 -0.3819  0.2848
18858SOL    HW157862   1.893   3.836   3.503  0.0345 -0.3968  0.4073
18858SOL    HW257863   1.759   3.876   3.444  0.1587 -0.8784 -0.2120
18859SOL     OW57864   6.616   0.974   3.456  1.1745  0.1247  0.1391
18859SOL    HW157865   6.569   1.038   3.403  0.0341  0.2456  1.2444
18859SOL    HW257866   6.623   0.896   3.401 -1.5514 -0.3786  0.3629
18860SOL     OW57867   2.991   3.638   3.444 -0.2397 -0.4829  0.2716
18860SOL    HW157868   3.034   3.719   3.472  0.3798 -0.7993  0.2342
18860SOL    HW257869   3.030   3.569   3.497 -0.0017 -0.9061 -0.4327
18861SOL     OW57870   5.495   6.334   3.126  0.5152 -0.7259 -1.3132
18861SOL    HW157871   5.410   6.378   3.131 -0.0513 -1.7732 -1.2128
18861SOL    HW257872   5.545   6.384   3.062 -0.0100  0.1879 -1.0163
18862SOL     OW57873   5.175   2.274   3.088  0.5804  0.3406 -0.1842
18862SOL    HW157874   5.089   2.280   3.045 -0.1833  0.9517  1.3438
18862SOL    HW257875   5.154   2.276   3.182  1.8992 -3.7624  0.3925
18863SOL     OW57876   1.068   1.293   1.498  0.4871  0.2484  0.1335
18863SOL    HW157877   1.097   1.217   1.447 -1.4722 -1.3005  1.1770
18863SOL    HW257878   1.135   1.302   1.566 -0.4427 -2.2425  1.5319
18864SOL     OW57879   8.464   4.644   2.658  0.4897 -0.3913 -0.2952
18864SOL    HW157880   8.409   4.615   2.730  1.0321 -2.1150 -0.5218
18864SOL    HW257881   8.420   4.613   2.579 -0.0721  1.4288 -0.7450
18865SOL     OW57882   3.174   5.688   3.730  0.0224  0.1407  0.0504
18865SOL    HW157883   3.162   5.596   3.754  0.7876  0.2024  0.7369
18865SOL    HW257884   3.138   5.737   3.804  0.0594  0.3821 -0.0909
18866SOL     OW57885   0.401   8.289   2.894  0.2824  0.7661 -0.3638
18866SOL    HW157886   0.306   8.295   2.907  0.1964  2.0481 -1.3285
18866SOL    HW257887   0.420   8.356   2.828  1.6737 -0.3588 -1.1629
18867SOL     OW57888   4.762   5.976   4.647 -0.2075 -0.1662 -0.1909
18867SOL    HW157889   4.840   5.927   4.620  0.1828  0.2131  0.2300
18867SOL    HW257890   4.795   6.044   4.706 -0.9526 -0.5126  0.6531
18868SOL     OW57891   2.373   0.595   7.240  0.0491  0.1021  0.8220
18868SOL    HW157892   2.430   0.646   7.183 -0.3599 -0.6993 -0.3323
18868SOL    HW257893   2.432   0.544   7.295  0.4395  0.4286  0.7098
18869SOL     OW57894   2.875   0.037   4.117 -0.1247 -0.3738  0.2134
18869SOL    HW157895   2.910   0.126   4.105  0.7982 -0.8378 -0.6686
18869SOL    HW257896   2.921  -0.016   4.052 -0.8294 -1.4660  0.5756
18870SOL     OW57897   1.071   0.368   8.340 -0.6567  0.0867 -0.2746
18870SOL    HW157898   0.995   0.310   8.333 -0.1049 -0.5537 -1.1762
18870SOL    HW257899   1.051   0.440   8.280 -0.7925  0.2008 -0.0935
18871SOL     OW57900   1.655   4.021   7.877 -0.0808 -0.4289  0.0365
18871SOL    HW157901   1.696   3.977   7.951 -0.1221 -1.2360 -0.4136
18871SOL    HW257902   1.721   4.084   7.848 -0.9032  1.5467  2.1519
18872SOL     OW57903   6.813   3.060   5.114  0.2435  0.3843 -0.0846
18872SOL    HW157904   6.867   3.106   5.178  2.3731 -0.7031 -0.9817
18872SOL    HW257905   6.856   3.076   5.030 -0.7728 -0.6273 -0.8397
18873SOL     OW57906   4.427   0.721   0.995 -0.1506 -1.0218  0.2383
18873SOL    HW157907   4.358   0.723   1.061  1.0353 -0.3079  1.5040
18873SOL    HW257908   4.391   0.668   0.924 -2.2558 -0.1041  0.5495
18874SOL     OW57909   8.191   7.391   2.505 -0.0910 -0.3702  0.2973
18874SOL    HW157910   8.283   7.390   2.532 -0.2145 -0.8451  0.7136
18874SOL    HW257911   8.145   7.431   2.578 -0.3198 -0.8791  0.4324
18875SOL     OW57912   5.881   3.575   4.278  0.0078  0.1884  0.7611
18875SOL    HW157913   5.971   3.577   4.247  0.4854 -0.7503  2.0257
18875SOL    HW257914   5.883   3.519   4.356 -2.1865 -2.6164 -0.9629
18876SOL     OW57915   6.012   7.871   2.786 -0.1188 -0.0699 -0.2565
18876SOL    HW157916   5.959   7.825   2.851 -0.6058  0.2464 -0.4239
18876SOL    HW257917   5.953   7.883   2.712  0.6372 -1.0891 -1.0595
18877SOL     OW57918   6.747   1.004   1.298 -0.1860 -0.1603 -0.2946
18877SOL    HW157919   6.813   0.953   1.253 -1.1173 -0.1129 -1.7668
18877SOL    HW257920   6.784   1.093   1.302 -0.2892 -0.0571 -1.4141
18878SOL     OW57921   6.628   2.790   1.807 -0.7768  0.2905  0.1790
18878SOL    HW157922   6.670   2.784   1.893 -0.0645  2.2518  0.0149
18878SOL    HW257923   6.693   2.834   1.752 -1.0110 -1.4210 -1.5449
18879SOL     OW57924   4.551   7.643   2.713  0.4135 -0.3069 -0.0753
18879SOL    HW157925   4.638   7.603   2.706  0.0279 -0.9498 -1.2608
18879SOL    HW257926   4.490   7.576   2.682 -0.5404  0.0725  0.9114
18880SOL     OW57927   5.529   1.481   4.951  0.6295 -0.2657 -0.4011
18880SOL    HW157928   5.448   1.506   4.996  0.0273 -0.2070 -1.4737
18880SOL    HW257929   5.547   1.392   4.981 -0.5263 -0.7512 -1.0632
18881SOL     OW57930   2.930   5.927   5.434 -0.0676 -0.5453  0.1263
18881SOL    HW157931   2.998   5.990   5.456  0.2428  0.2673 -2.7027
18881SOL    HW257932   2.977   5.851   5.401 -0.4574 -0.2521 -1.1882
18882SOL     OW57933   1.900   8.048   4.586 -0.3633  0.1266  0.6358
18882SOL    HW157934   1.886   8.018   4.675  0.9921  0.3102  0.9390
18882SOL    HW257935   1.834   8.002   4.534  0.2454 -1.7343  1.4051
18883SOL     OW57936   2.149   0.766   6.864  0.0738 -0.3296 -0.1350
18883SOL    HW157937   2.151   0.706   6.939  0.3480  0.8499  0.8406
18883SOL    HW257938   2.068   0.815   6.875 -0.0965 -0.4368 -0.8608
18884SOL     OW57939   4.624   7.189   4.422  0.1746 -0.7148 -0.7813
18884SOL    HW157940   4.561   7.248   4.462 -1.1028 -1.8384 -1.0419
18884SOL    HW257941   4.584   7.166   4.338  1.6064 -0.3722 -1.5726
18885SOL     OW57942   0.242   0.431   2.361  0.4289  0.3955 -0.2035
18885SOL    HW157943   0.320   0.480   2.388  0.2013  0.5335  0.2026
18885SOL    HW257944   0.277   0.357   2.312  0.8799 -0.1526  0.9032
18886SOL     OW57945   6.056   8.133   4.816 -0.0787  0.2156 -0.4508
18886SOL    HW157946   6.049   8.098   4.905 -1.1734 -0.2497 -0.7126
18886SOL    HW257947   6.149   8.154   4.806 -0.0419  0.8558  1.0229
18887SOL     OW57948   8.643   6.338   4.381  0.1410  0.0632  0.1529
18887SOL    HW157949   8.682   6.277   4.443  0.2010 -0.4735 -0.4068
18887SOL    HW257950   8.710   6.405   4.367  1.1857 -1.2082 -1.3238
18888SOL     OW57951   1.847   8.089   1.510 -0.4462  0.3372  0.0371
18888SOL    HW157952   1.889   8.093   1.425 -2.9368  0.0545 -1.2973
18888SOL    HW257953   1.824   8.180   1.530 -0.7882  0.2782 -0.0893
18889SOL     OW57954   2.636   8.130   2.870 -0.5532 -0.5971  0.3055
18889SOL    HW157955   2.560   8.071   2.866 -2.3685  1.4496  1.6531
18889SOL    HW257956   2.673   8.114   2.957  0.9395 -1.9200 -0.5205
18890SOL     OW57957   5.021   6.459   1.015  0.6952  0.1950  0.3082
18890SOL    HW157958   5.071   6.449   0.935  3.7725 -0.0936  2.0973
18890SOL    HW257959   5.005   6.553   1.022  0.5216  0.2356 -0.5508
18891SOL     OW57960   5.354   8.138   0.863 -1.5675  0.0020 -0.2229
18891SOL    HW157961   5.417   8.072   0.892 -0.3150  0.0782 -2.5223
18891SOL    HW257962   5.393   8.221   0.888 -1.2442  0.0085 -0.7410
18892SOL     OW57963   5.819   6.816   1.753  0.0473 -0.1104 -0.4193
18892SOL    HW157964   5.892   6.756   1.768 -1.1562 -1.0307  2.4374
18892SOL    HW257965   5.858   6.903   1.752  1.2848 -0.6410  0.2512
18893SOL     OW57966   6.941   4.003   7.747  0.3022 -0.9342  0.3783
18893SOL    HW157967   6.975   4.056   7.675  2.7712 -2.3239  0.4090
18893SOL    HW257968   6.865   3.959   7.710 -0.5437  0.9744 -0.2726
18894SOL     OW57969   8.643   1.831   1.068 -0.2486 -0.0703  0.4295
18894SOL    HW157970   8.675   1.815   0.979 -0.9419 -2.6083  0.5389
18894SOL    HW257971   8.569   1.889   1.057  1.5295  2.1986 -0.2784
18895SOL     OW57972   0.171   5.773   7.072  0.0763 -0.0963 -0.7255
18895SOL    HW157973   0.101   5.777   7.137 -0.6436 -0.3686 -1.4569
18895SOL    HW257974   0.214   5.689   7.088  0.9866  0.5703  0.4549
18896SOL     OW57975   3.109   8.513   1.188 -0.6642  0.4114  0.5399
18896SOL    HW157976   3.109   8.606   1.166  0.0701  0.2421 -0.1918
18896SOL    HW257977   3.125   8.511   1.283 -3.6352  1.1288  1.1750
18897SOL     OW57978   8.252   5.827   4.758  0.1907 -0.0599 -0.3695
18897SOL    HW157979   8.236   5.908   4.710  0.4514 -0.2621 -0.8028
18897SOL    HW257980   8.201   5.761   4.711 -2.4865  0.3425  1.6951
18898SOL     OW57981   6.335   6.726   8.303  0.1739  0.0259 -0.5158
18898SOL    HW157982   6.270   6.732   8.233 -1.2657 -0.5459  0.7039
18898SOL    HW257983   6.326   6.808   8.352 -0.4259 -0.5125  0.2993
18899SOL     OW57984   3.129   8.411   2.040  0.4540 -0.6145 -0.0242
18899SOL    HW157985   3.219   8.415   2.006  0.3381  1.3551 -0.2408
18899SOL    HW257986   3.075   8.405   1.961  0.3843 -1.8913  0.1104
18900SOL     OW57987   2.275   7.660   7.811 -0.2662  0.4131 -0.4926
18900SOL    HW157988   2.363   7.646   7.847 -0.5662  0.4109  0.2601
18900SOL    HW257989   2.280   7.744   7.766  0.6869 -0.5314 -2.2949
18901SOL     OW57990   1.967   6.407   3.686  0.2788 -0.0167  0.3024
18901SOL    HW157991   1.890   6.417   3.743  0.6265  1.1210  0.5854
18901SOL    HW257992   1.986   6.496   3.656  0.5663 -0.5028 -0.9880
18902SOL     OW57993   7.906   2.923   5.893  0.3016  0.1177  0.4067
18902SOL    HW157994   7.955   2.984   5.839 -0.0478 -0.4108 -0.5381
18902SOL    HW257995   7.831   2.973   5.924  0.0099  0.1770 -0.3674
18903SOL     OW57996   2.884   5.584   7.263  0.0075 -0.0733 -0.1314
18903SOL    HW157997   2.853   5.629   7.341 -1.7522  0.2254 -0.9595
18903SOL    HW257998   2.896   5.654   7.198  0.0652 -0.4716 -0.5588
18904SOL     OW57999   2.113   0.340   8.455  0.6387  0.2798 -0.0065
18904SOL    HW158000   2.031   0.363   8.411  0.2180 -0.3306  0.4423
18904SOL    HW258001   2.174   0.318   8.384 -0.3292 -1.6951 -0.2941
18905SOL     OW58002   5.156   3.791   5.568  0.7832 -0.1524  0.7302
18905SOL    HW158003   5.189   3.761   5.653 -0.5150  0.7215  1.5851
18905SOL    HW258004   5.221   3.856   5.540  2.1426 -1.7032  0.1807
18906SOL     OW58005   7.468   7.912   4.395 -0.1159  0.0063  0.4736
18906SOL    HW158006   7.488   7.843   4.458 -1.6178  0.8649  1.9757
18906SOL    HW258007   7.489   7.873   4.310  1.5330 -1.3567  1.4374
18907SOL     OW58008   6.154   7.110   0.612 -0.2368 -0.5960 -0.4025
18907SOL    HW158009   6.129   7.123   0.521 -1.3374  0.0557 -0.0301
18907SOL    HW258010   6.250   7.117   0.612 -0.2834  0.3843 -1.3655
18908SOL     OW58011   5.256   0.841   6.546 -0.1205 -0.3008  0.3214
18908SOL    HW158012   5.224   0.893   6.472 -1.8950  0.8735  1.8349
18908SOL    HW258013   5.330   0.891   6.580 -1.4826  1.0558  1.4344
18909SOL     OW58014   2.548   0.296   2.043  0.1484 -0.0727 -0.2216
18909SOL    HW158015   2.508   0.218   2.005  0.0044  0.5403 -1.3636
18909SOL    HW258016   2.641   0.273   2.051  0.0824 -0.4112 -0.3989
18910SOL     OW58017   0.002   8.245   5.848 -0.2092 -0.5050  0.0979
18910SOL    HW158018   0.055   8.189   5.790 -0.1502 -0.1481 -0.1997
18910SOL    HW258019  -0.081   8.255   5.802  0.1358  0.4820 -0.3562
18911SOL     OW58020   1.507   7.997   2.597  0.9505 -0.4350 -0.3352
18911SOL    HW158021   1.545   7.931   2.539  2.6642  0.2213 -0.0039
18911SOL    HW258022   1.424   7.959   2.625  0.6839 -1.3344 -2.1653
18912SOL     OW58023   2.423   0.720   5.276  0.0114 -0.6506  0.3507
18912SOL    HW158024   2.338   0.756   5.302  1.2292  1.9215  1.1082
18912SOL    HW258025   2.432   0.640   5.328 -1.8781 -0.9853  0.2690
18913SOL     OW58026   0.812   6.993   4.197 -0.0175 -0.4015 -0.1699
18913SOL    HW158027   0.752   7.047   4.248 -1.5433 -1.2200 -1.0389
18913SOL    HW258028   0.761   6.915   4.175  1.7146 -1.6344 -0.0214
18914SOL     OW58029   7.580   5.096   2.236 -0.5640 -0.6052 -0.4450
18914SOL    HW158030   7.546   5.169   2.184 -0.7608 -0.1084  0.3670
18914SOL    HW258031   7.642   5.052   2.178 -0.6596  0.0396 -1.0450
18915SOL     OW58032   8.417   3.543   0.082 -0.1898 -0.7102 -0.2048
18915SOL    HW158033   8.330   3.573   0.054 -1.4550 -2.6390  1.4255
18915SOL    HW258034   8.433   3.590   0.163  0.9674  0.6505 -1.1602
18916SOL     OW58035   5.308   3.918   7.396 -0.3000 -0.7873  0.5501
18916SOL    HW158036   5.373   3.978   7.359 -1.0335 -0.4572 -0.2149
18916SOL    HW258037   5.359   3.842   7.423  0.4125 -0.5124  0.0014
18917SOL     OW58038   7.214   6.297   5.518 -0.2180 -0.2731  0.5875
18917SOL    HW158039   7.198   6.376   5.467  0.8148 -0.4886 -0.1103
18917SOL    HW258040   7.128   6.259   5.532 -0.4903 -0.6242 -1.7042
18918SOL     OW58041   2.410   7.287   2.648  0.1181 -0.4732  0.1607
18918SOL    HW158042   2.492   7.267   2.605  0.5399 -0.1931  0.8179
18918SOL    HW258043   2.404   7.383   2.646 -0.1238 -0.4840  0.2396
18919SOL     OW58044   7.075   7.004   5.178  0.1259 -0.0793 -0.5271
18919SOL    HW158045   7.016   7.078   5.187 -0.2071 -0.5262  1.6209
18919SOL    HW258046   7.160   7.043   5.160 -0.0513  0.8522  0.5349
18920SOL     OW58047   6.165   4.629   4.301 -0.0419  0.1577  0.0745
18920SOL    HW158048   6.078   4.642   4.265  0.3292  1.1139 -0.5107
18920SOL    HW258049   6.171   4.535   4.316 -1.1447  0.0780  0.0555
18921SOL     OW58050   5.835   8.071   6.356  0.4201 -0.2609 -0.1545
18921SOL    HW158051   5.801   8.158   6.374 -1.4771 -1.0040  0.0545
18921SOL    HW258052   5.883   8.080   6.274  0.6830  1.0568  0.1173
18922SOL     OW58053   6.968   3.900   5.395  0.4142 -0.3202 -0.1612
18922SOL    HW158054   6.927   3.861   5.472  1.1415 -1.6030 -0.4030
18922SOL    HW258055   7.060   3.872   5.399  0.7627  0.6688 -0.8033
18923SOL     OW58056   5.641   3.112   5.698 -0.2913 -0.0980  0.5483
18923SOL    HW158057   5.587   3.183   5.665  2.3078  0.7334 -2.4233
18923SOL    HW258058   5.690   3.150   5.771 -0.5990  0.4230  0.4835
18924SOL     OW58059   7.672   2.173   7.167  0.0062  0.4451  0.4900
18924SOL    HW158060   7.655   2.111   7.096  0.4939 -0.4333  1.1281
18924SOL    HW258061   7.704   2.119   7.239 -0.2139  1.3593  1.2916
18925SOL     OW58062   7.051   3.557   0.317  0.2527 -0.1077  0.5907
18925SOL    HW158063   6.956   3.552   0.310  0.2589 -0.7918  0.9323
18925SOL    HW258064   7.067   3.637   0.368 -0.0439  1.0840 -1.1046
18926SOL     OW58065   1.879   4.315   0.193  0.0702  0.2199 -0.8249
18926SOL    HW158066   1.869   4.385   0.128  0.6092  0.0050 -1.1414
18926SOL    HW258067   1.973   4.306   0.205 -0.0186  0.1460 -0.1270
18927SOL     OW58068   6.701   7.357   7.401  1.0374  0.7285  0.1008
18927SOL    HW158069   6.710   7.307   7.482  0.0644  0.5719  0.1268
18927SOL    HW258070   6.631   7.420   7.420  1.2821  1.1596 -0.3950
18928SOL     OW58071   1.957   5.441   5.708  0.1040 -0.1268  0.1975
18928SOL    HW158072   1.971   5.513   5.769 -1.5709  0.7468 -0.3693
18928SOL    HW258073   1.871   5.406   5.732 -0.0278 -0.5725 -0.8761
18929SOL     OW58074   8.580   2.588   1.047  0.4569  0.3158  0.7181
18929SOL    HW158075   8.586   2.657   1.114 -0.4386  0.6970  0.4294
18929SOL    HW258076   8.645   2.612   0.982  0.7936  0.3761  1.0723
18930SOL     OW58077   2.048   7.438   2.864 -0.2871  0.6692  0.8600
18930SOL    HW158078   2.097   7.356   2.865 -1.0641  0.1745  0.0525
18930SOL    HW258079   1.994   7.435   2.942  0.9597  1.2297  1.7715
18931SOL     OW58080   7.473   1.757   6.200  0.1728  0.3936 -0.3558
18931SOL    HW158081   7.412   1.824   6.230 -1.9393 -1.0953 -1.0001
18931SOL    HW258082   7.508   1.791   6.118 -0.8632  0.7412 -0.6676
18932SOL     OW58083   8.174   1.598   6.130 -0.3118  0.0493 -0.1495
18932SOL    HW158084   8.195   1.572   6.040 -0.9198  1.2423 -0.6585
18932SOL    HW258085   8.200   1.690   6.134 -1.0110  0.2155  0.6616
18933SOL     OW58086   0.963   4.874   0.312  0.3622  0.4175 -0.0772
18933SOL    HW158087   0.938   4.786   0.341 -2.3635  1.0834 -0.2079
18933SOL    HW258088   0.996   4.861   0.223 -2.1115 -0.2745 -0.9705
18934SOL     OW58089   6.906   2.993   8.507 -0.4971  0.0492  0.3795
18934SOL    HW158090   6.830   3.008   8.563 -0.6249 -1.1601  0.5626
18934SOL    HW258091   6.909   2.898   8.497 -0.0979  0.2058 -1.1467
18935SOL     OW58092   4.121   8.488   8.321  0.3396 -0.1266  0.5042
18935SOL    HW158093   4.027   8.501   8.318  0.2941 -0.4371  0.5524
18935SOL    HW258094   4.158   8.563   8.274  0.0665 -0.0437  0.4249
18936SOL     OW58095   4.759   4.911   0.792 -0.4920 -0.2448  0.1553
18936SOL    HW158096   4.811   4.949   0.721 -0.2319  0.0010  0.4724
18936SOL    HW258097   4.765   4.975   0.863  0.6692 -1.2527  1.0065
18937SOL     OW58098   7.766   2.147   7.529 -0.4412 -0.5794 -0.1850
18937SOL    HW158099   7.853   2.179   7.555 -0.4833 -0.5905 -0.0298
18937SOL    HW258100   7.782   2.095   7.450 -0.3465 -0.3338 -0.3303
18938SOL     OW58101   5.475   4.198   7.283  0.6007  0.3271 -0.3808
18938SOL    HW158102   5.424   4.180   7.204 -1.2867  0.2423  0.7765
18938SOL    HW258103   5.552   4.245   7.252 -0.4607  0.9833 -2.1828
18939SOL     OW58104   0.319   7.662   5.787 -0.3747  0.2116  0.0263
18939SOL    HW158105   0.363   7.683   5.705 -0.0392  0.5288  0.2867
18939SOL    HW258106   0.381   7.686   5.855 -0.5004 -0.4117  0.3675
18940SOL     OW58107   7.607   5.659   2.466 -0.5469 -0.3543 -0.0875
18940SOL    HW158108   7.695   5.681   2.436 -0.5565 -0.2868 -0.0658
18940SOL    HW258109   7.556   5.647   2.386 -0.8721  0.9879 -0.1019
18941SOL     OW58110   0.395   2.604   5.901 -0.6325  0.1949 -0.2246
18941SOL    HW158111   0.418   2.672   5.965  1.3042 -0.7544  0.1627
18941SOL    HW258112   0.352   2.536   5.952 -0.8386  0.2785 -0.2844
18942SOL     OW58113   5.775   0.250   2.156  0.1474 -0.1353  0.5198
18942SOL    HW158114   5.860   0.283   2.186  0.2395 -0.9624  1.2056
18942SOL    HW258115   5.792   0.158   2.134 -1.0968 -1.0974  3.1328
18943SOL     OW58116   6.104   1.878   1.245  0.1797  0.0643  0.4975
18943SOL    HW158117   6.145   1.913   1.166  0.9241 -1.7716  0.0195
18943SOL    HW258118   6.025   1.834   1.213  0.5180 -0.7414  0.7421
18944SOL     OW58119   2.135   4.052   3.820  0.0175 -1.3272 -0.1740
18944SOL    HW158120   2.098   4.005   3.895 -1.4629 -0.7737 -0.5048
18944SOL    HW258121   2.065   4.113   3.795  0.9529 -0.6792 -1.2636
18945SOL     OW58122   2.111   1.836   4.352  0.4442  0.0671  0.0285
18945SOL    HW158123   2.064   1.835   4.268  0.6852 -0.7232 -0.1089
18945SOL    HW258124   2.102   1.747   4.385 -1.1242  0.7950  1.7084
18946SOL     OW58125   6.822   2.708   8.477 -0.3766  0.2334 -0.2839
18946SOL    HW158126   6.880   2.632   8.483 -2.6991 -1.6974 -0.2981
18946SOL    HW258127   6.832   2.739   8.387  0.8218  0.1510 -0.1933
18947SOL     OW58128   5.342   3.170   3.623  0.4519  0.6283 -0.3082
18947SOL    HW158129   5.264   3.141   3.576 -0.1985  2.1053 -0.1745
18947SOL    HW258130   5.349   3.263   3.604  1.7847  0.6608  0.2531
18948SOL     OW58131   5.445   7.569   5.699  0.1316 -0.5497 -0.0344
18948SOL    HW158132   5.401   7.584   5.616  1.9290  1.0797 -0.7767
18948SOL    HW258133   5.376   7.580   5.765 -0.8017  0.9358 -1.1848
18949SOL     OW58134   7.927   6.526   1.424  0.0548  0.1134  0.2977
18949SOL    HW158135   7.927   6.449   1.368  2.5288  0.5750 -0.4473
18949SOL    HW258136   7.980   6.590   1.377 -0.4625  1.6559  1.7142
18950SOL     OW58137   1.718   5.414   1.685 -0.4342 -0.8776  0.4131
18950SOL    HW158138   1.623   5.419   1.696 -0.3408 -0.2874  0.9960
18950SOL    HW258139   1.730   5.354   1.611 -1.2105 -2.1150  1.2492
18951SOL     OW58140   5.566   0.836   5.752  0.2686 -0.1095  0.0933
18951SOL    HW158141   5.574   0.764   5.815  0.6147  0.3405  0.5764
18951SOL    HW258142   5.649   0.836   5.705  1.1625  1.2950  1.5553
18952SOL     OW58143   4.391   6.672   4.552  0.1512  0.0880 -0.0662
18952SOL    HW158144   4.353   6.684   4.639  0.5463 -0.5592  0.2100
18952SOL    HW258145   4.375   6.580   4.532 -0.3345  0.3438 -0.8802
18953SOL     OW58146   0.140   4.406   3.503  0.2350  0.8656  0.7624
18953SOL    HW158147   0.143   4.416   3.598  1.8856 -2.2273  1.1919
18953SOL    HW258148   0.227   4.372   3.480 -0.6258  0.0563 -1.6140
18954SOL     OW58149   4.370   7.725   4.323 -0.3230 -0.2338 -0.3930
18954SOL    HW158150   4.443   7.724   4.385  0.7987 -0.3991 -1.6561
18954SOL    HW258151   4.323   7.643   4.340 -2.0103  1.1676  2.3878
18955SOL     OW58152   4.632   0.598   2.191  0.1778  0.2916 -0.3998
18955SOL    HW158153   4.644   0.658   2.117  1.7091  0.2327 -0.2210
18955SOL    HW258154   4.707   0.614   2.247 -0.2421 -0.6692  0.4533
18956SOL     OW58155   5.166   1.805   0.717 -0.4066  0.1088 -0.3936
18956SOL    HW158156   5.111   1.726   0.721  1.2239 -1.0346  1.8588
18956SOL    HW258157   5.111   1.870   0.674 -2.5501 -1.6912 -0.5754
18957SOL     OW58158   7.527   4.053   1.330  0.0539  0.1509 -0.1356
18957SOL    HW158159   7.488   4.047   1.243 -0.1158 -1.2224  0.0143
18957SOL    HW258160   7.618   4.029   1.317 -0.1230 -0.7176  0.1506
18958SOL     OW58161   6.908   5.644   1.231  0.3200 -0.3100 -0.0587
18958SOL    HW158162   6.912   5.565   1.177  1.0501  0.1357 -0.6766
18958SOL    HW258163   6.867   5.709   1.174  0.9040  0.1079 -0.0117
18959SOL     OW58164   5.544   6.608   1.759 -0.3481 -0.2761 -0.0999
18959SOL    HW158165   5.514   6.581   1.846  2.1096  4.0429  2.4162
18959SOL    HW258166   5.636   6.581   1.756 -0.5135 -0.7584 -1.6169
18960SOL     OW58167   2.435   6.503   0.658 -0.0705 -0.2591  0.1814
18960SOL    HW158168   2.437   6.585   0.707  0.6061 -0.2543  0.1439
18960SOL    HW258169   2.342   6.488   0.642 -0.3113 -0.2700  1.4915
18961SOL     OW58170   6.100   4.053   1.697  0.5647  0.0569  0.2184
18961SOL    HW158171   6.020   4.001   1.688 -0.9715  2.1068  1.3188
18961SOL    HW258172   6.115   4.057   1.791  1.1744  0.8533  0.0897
18962SOL     OW58173   1.303   4.268   5.518 -0.3047 -0.0084 -0.1029
18962SOL    HW158174   1.398   4.265   5.523 -0.2485  0.9019 -0.3167
18962SOL    HW258175   1.284   4.350   5.472 -1.1897 -0.2014 -0.1077
18963SOL     OW58176   2.469   2.741   8.695 -0.2070 -0.1520 -0.0461
18963SOL    HW158177   2.430   2.810   8.749  0.0393 -0.4907  0.5724
18963SOL    HW258178   2.561   2.740   8.721 -0.5525 -1.9037  1.2539
18964SOL     OW58179   5.029   0.831   0.213  0.0927  0.2614  0.2915
18964SOL    HW158180   4.946   0.817   0.258  1.1072  2.5190  3.1308
18964SOL    HW258181   5.037   0.926   0.205  1.0149  0.0476 -2.8526
18965SOL     OW58182   3.000   5.917   2.464  0.0192 -0.1655 -0.1339
18965SOL    HW158183   2.979   5.885   2.552  2.5505 -1.4166  0.1189
18965SOL    HW258184   3.038   6.004   2.480  0.1104 -0.2244 -0.0252
18966SOL     OW58185   4.247   6.768   5.795 -0.4280 -0.6637  0.2854
18966SOL    HW158186   4.284   6.680   5.795  0.3625 -0.3395  1.1477
18966SOL    HW258187   4.168   6.761   5.848 -0.2710 -0.8188  0.5004
18967SOL     OW58188   6.629   2.928   8.359  0.6412  0.2901  0.2016
18967SOL    HW158189   6.669   2.962   8.279 -1.2714  0.9452 -0.5526
18967SOL    HW258190   6.609   3.005   8.411  0.4345 -0.0136  0.5791
18968SOL     OW58191   1.019   4.592   5.813  0.0648  0.0428  0.5859
18968SOL    HW158192   0.960   4.547   5.752  0.8449  0.8829 -0.8469
18968SOL    HW258193   1.103   4.547   5.803  0.7465  1.4961 -0.5719
18969SOL     OW58194   6.459   4.219   1.559 -0.0890  0.4119  0.3681
18969SOL    HW158195   6.393   4.279   1.524  1.8933  2.2206 -0.5062
18969SOL    HW258196   6.504   4.269   1.627  1.6825 -0.0042 -0.4325
18970SOL     OW58197   1.128   3.650   3.208 -0.1411  0.0651  0.0885
18970SOL    HW158198   1.116   3.556   3.222  2.9032 -0.5672 -0.8702
18970SOL    HW258199   1.152   3.658   3.115 -0.1884  1.7842  0.1875
18971SOL     OW58200   4.458   1.440   2.067 -0.4661 -0.1780 -0.6302
18971SOL    HW158201   4.537   1.386   2.070 -0.0245  0.5006  0.4569
18971SOL    HW258202   4.393   1.385   2.024 -0.2397 -1.8610  1.0600
18972SOL     OW58203   6.582   7.592   6.781  0.2495  0.2773  0.0831
18972SOL    HW158204   6.497   7.623   6.811  0.4908  0.4098  0.6533
18972SOL    HW258205   6.565   7.506   6.743 -0.1877  0.4525 -0.1242
18973SOL     OW58206   7.693   5.141   3.980  0.1486 -0.1142 -0.2740
18973SOL    HW158207   7.782   5.174   3.974 -0.2003  0.6581 -2.3528
18973SOL    HW258208   7.642   5.214   4.015 -0.0453  0.3607 -1.4956
18974SOL     OW58209   1.337   2.341   7.527  0.6199  0.5840 -0.0183
18974SOL    HW158210   1.401   2.410   7.547  0.4834  0.7317 -0.0859
18974SOL    HW258211   1.345   2.279   7.599 -1.0067  1.9114  1.3681
18975SOL     OW58212   8.176   5.599   6.231 -0.7790  0.5035 -0.0459
18975SOL    HW158213   8.102   5.539   6.215 -1.7023  1.4133  0.6793
18975SOL    HW258214   8.204   5.580   6.320 -0.4836  0.5375 -0.1295
18976SOL     OW58215   3.400   1.230   7.703 -0.3927  0.5679 -0.0934
18976SOL    HW158216   3.316   1.185   7.697 -1.6369  2.6942  0.2747
18976SOL    HW258217   3.406   1.280   7.621  0.5166  0.4240 -0.1194
18977SOL     OW58218   1.626   0.201   1.007  0.0837 -0.0664  0.2417
18977SOL    HW158219   1.610   0.166   0.919  2.0097  1.0307 -0.5940
18977SOL    HW258220   1.582   0.286   1.007  0.0609 -0.0783  0.3495
18978SOL     OW58221   6.429   3.441   1.561  0.4558  0.9719  0.4309
18978SOL    HW158222   6.450   3.378   1.492 -1.6773 -1.1648  1.5908
18978SOL    HW258223   6.406   3.521   1.514 -0.8177 -0.3792 -1.3722
18979SOL     OW58224   2.795   3.438   6.431  0.0629 -0.1431  0.1240
18979SOL    HW158225   2.865   3.441   6.496  0.4509  0.6755 -0.3201
18979SOL    HW258226   2.716   3.419   6.482  0.5507 -0.7521  0.6689
18980SOL     OW58227   2.019   4.796   6.341  0.5429 -0.3770 -0.3605
18980SOL    HW158228   1.968   4.804   6.261 -0.3088  0.1518  0.2183
18980SOL    HW258229   1.955   4.806   6.412  1.6727  2.5176  0.4067
18981SOL     OW58230   6.977   2.875   7.553  0.4822 -0.0600 -0.1768
18981SOL    HW158231   7.017   2.905   7.635  0.7196 -1.9367  0.4473
18981SOL    HW258232   6.957   2.955   7.505  0.5313  1.0877  1.6272
18982SOL     OW58233   3.499   3.657   2.076 -0.0672 -0.0464 -0.3226
18982SOL    HW158234   3.444   3.581   2.061  0.4724 -0.9402  1.8645
18982SOL    HW258235   3.442   3.721   2.119  0.0864 -0.1805  0.0846
18983SOL     OW58236   2.054   6.317   4.570  0.0077  0.1794  0.1383
18983SOL    HW158237   2.113   6.281   4.636  0.0933  0.8839  0.4503
18983SOL    HW258238   2.083   6.408   4.558 -0.0998  0.1092 -0.7599
18984SOL     OW58239   1.397   0.527   5.492 -0.1754  0.3970  0.1568
18984SOL    HW158240   1.426   0.456   5.549  1.5532  0.0734 -1.0566
18984SOL    HW258241   1.347   0.482   5.423  1.1343  0.2823 -0.7525
18985SOL     OW58242   3.172   3.723   2.036  0.5039  0.4826 -0.0599
18985SOL    HW158243   3.183   3.791   1.968  0.1459  0.7808  0.1760
18985SOL    HW258244   3.203   3.765   2.116  0.2086  0.3939  0.1003
18986SOL     OW58245   1.253   0.190   3.388 -0.1385 -0.9451 -0.5209
18986SOL    HW158246   1.178   0.203   3.331 -0.0278 -0.8010 -0.6343
18986SOL    HW258247   1.267   0.274   3.430 -1.0030 -1.3822  0.6880
18987SOL     OW58248   4.019   5.799   8.331  0.1630 -0.0456 -0.0753
18987SOL    HW158249   4.010   5.890   8.360 -0.8733  0.1253 -0.8709
18987SOL    HW258250   3.968   5.795   8.250 -0.2595 -1.4775  0.2419
18988SOL     OW58251   6.066   8.050   5.090  0.2030 -0.3733 -0.0703
18988SOL    HW158252   6.013   8.003   5.155  0.8965 -1.6535 -0.3994
18988SOL    HW258253   6.119   8.111   5.142  1.3303 -1.9290  0.6983
18989SOL     OW58254   5.136   4.346   0.385  0.4916  0.1742  1.1304
18989SOL    HW158255   5.143   4.255   0.413 -0.6235 -0.6450 -0.9703
18989SOL    HW258256   5.044   4.356   0.359  1.2133  0.9405 -1.4846
18990SOL     OW58257   2.954   6.289   5.320  0.1930  0.6740 -0.7930
18990SOL    HW158258   3.011   6.238   5.262 -0.0632 -0.8868  0.2847
18990SOL    HW258259   2.871   6.293   5.274 -0.4255 -1.7264 -0.0189
18991SOL     OW58260   6.312   0.346   2.546  0.1726 -0.6536 -0.1779
18991SOL    HW158261   6.316   0.400   2.467 -1.1781  1.2859  1.0066
18991SOL    HW258262   6.404   0.323   2.564  0.8296  1.3899 -0.6665
18992SOL     OW58263   0.924   5.090   5.464  0.0216 -0.0952  0.2603
18992SOL    HW158264   0.889   5.057   5.381  0.7843 -1.1702  0.3471
18992SOL    HW258265   0.848   5.092   5.522 -0.3203 -0.3240 -0.1687
18993SOL     OW58266   1.087   4.670   0.894 -0.5316  0.6889  0.0594
18993SOL    HW158267   1.147   4.744   0.905  0.0856  0.5651 -2.0869
18993SOL    HW258268   1.006   4.710   0.864  0.2202  0.4819 -2.4902
18994SOL     OW58269   2.835   5.616   3.477  0.2613  0.1492  0.7335
18994SOL    HW158270   2.836   5.533   3.429 -2.3944 -0.2490  1.2271
18994SOL    HW258271   2.927   5.642   3.481  1.1855 -2.7254  0.5273
18995SOL     OW58272   4.269   6.266   5.925  0.1315  0.5489 -0.1833
18995SOL    HW158273   4.241   6.357   5.922  0.0927  0.5511  0.2785
18995SOL    HW258274   4.241   6.230   5.841  0.6630  1.1072 -0.6094
18996SOL     OW58275   4.651   8.111   2.513 -0.1765  0.3975 -0.1759
18996SOL    HW158276   4.573   8.164   2.500 -1.0537 -1.0921 -1.3641
18996SOL    HW258277   4.619   8.033   2.559  0.7124  0.0106 -0.1986
18997SOL     OW58278   5.470   8.705   6.637  0.1090 -0.0653  0.0328
18997SOL    HW158279   5.444   8.796   6.646  0.5327  0.4602 -3.0581
18997SOL    HW258280   5.486   8.675   6.727 -1.0839  2.5500  1.1929
18998SOL     OW58281   1.670   6.565   4.854 -0.2476 -0.0928 -0.4245
18998SOL    HW158282   1.638   6.492   4.802 -1.0702  1.3423 -2.0265
18998SOL    HW258283   1.672   6.532   4.944  1.1953 -2.6484 -1.2999
18999SOL     OW58284   7.612   3.215   5.088 -0.8312 -0.5834 -0.3208
18999SOL    HW158285   7.671   3.290   5.083 -1.8186  0.1436 -2.3108
18999SOL    HW258286   7.550   3.237   5.157  0.4934 -0.8617  1.0174
19000SOL     OW58287   5.250   5.947   2.331 -0.3253 -0.5932  0.1758
19000SOL    HW158288   5.238   5.964   2.425  0.5723  0.6434  0.0913
19000SOL    HW258289   5.308   6.017   2.301 -0.5769 -0.9825 -1.3090
19001SOL     OW58290   7.241   1.045   6.622  0.1218 -0.2686  0.0768
19001SOL    HW158291   7.201   1.067   6.537 -0.2216 -1.2354 -0.0283
19001SOL    HW258292   7.168   1.014   6.675  0.3005  0.5407  0.8183
19002SOL     OW58293   8.458   2.551   0.598  0.0211  0.0307  0.0490
19002SOL    HW158294   8.370   2.519   0.582 -0.7232  1.8170  0.3025
19002SOL    HW258295   8.488   2.502   0.674 -0.2769 -1.4060 -0.7181
19003SOL     OW58296   2.683   4.884   8.366 -0.0234  0.1671 -0.0212
19003SOL    HW158297   2.759   4.830   8.385 -0.7868 -0.2856  1.9353
19003SOL    HW258298   2.614   4.850   8.422 -1.3408  1.3405 -0.8596
19004SOL     OW58299   7.503   5.395   5.340  0.4333  0.0438  0.1270
19004SOL    HW158300   7.419   5.400   5.386 -1.0120  0.4587 -2.3826
19004SOL    HW258301   7.499   5.311   5.294  1.2619  0.2257 -0.2808
19005SOL     OW58302   1.405   7.500   0.627 -0.3615  0.0110 -0.5398
19005SOL    HW158303   1.494   7.489   0.594  0.9434 -0.9315  2.8780
19005SOL    HW258304   1.394   7.595   0.633  1.6460  0.2078  1.6676
19006SOL     OW58305   6.757   3.506   3.243  0.3478 -0.1405  0.5680
19006SOL    HW158306   6.802   3.591   3.248  0.3564 -0.1183  0.1656
19006SOL    HW258307   6.667   3.526   3.269  0.7727 -0.3710  2.3843
19007SOL     OW58308   7.556   1.899   5.989  0.2212  0.7891 -0.2283
19007SOL    HW158309   7.644   1.878   5.958  0.5171 -0.6338  1.3942
19007SOL    HW258310   7.565   1.983   6.035  0.5046  1.1387 -0.9151
19008SOL     OW58311   6.287   3.481   0.833  0.1036  0.3083 -0.4269
19008SOL    HW158312   6.334   3.526   0.763  0.4782 -1.1465 -1.1474
19008SOL    HW258313   6.206   3.532   0.844  0.9707  1.7480 -0.4593
19009SOL     OW58314   3.571   5.653   0.111  0.1398 -0.4543  0.2480
19009SOL    HW158315   3.580   5.668   0.205 -0.5366 -0.4261  0.3175
19009SOL    HW258316   3.555   5.559   0.103  2.7555 -0.9472 -0.0610
19010SOL     OW58317   3.498   5.918   0.125 -0.7901 -0.1604 -0.2611
19010SOL    HW158318   3.551   5.960   0.057 -1.5078  2.0905  0.4505
19010SOL    HW258319   3.495   5.826   0.101  1.7057 -0.0120 -1.4314
19011SOL     OW58320   7.201   1.142   2.637 -0.2241  0.1185  0.0493
19011SOL    HW158321   7.213   1.095   2.720 -0.4235  2.9643  1.8190
19011SOL    HW258322   7.106   1.147   2.625 -0.2739  1.4490  0.7897
19012SOL     OW58323   7.727   6.634   4.770 -0.2311  0.3127  0.9914
19012SOL    HW158324   7.807   6.687   4.777 -0.1472  0.0744  2.1105
19012SOL    HW258325   7.733   6.592   4.684  0.9617  0.1295  1.1432
19013SOL     OW58326   6.732   4.579   7.567 -0.4285 -0.2293  0.6667
19013SOL    HW158327   6.657   4.568   7.509  0.4069 -1.5319 -0.2446
19013SOL    HW258328   6.767   4.490   7.577  1.2680  0.3980  0.6608
19014SOL     OW58329   0.373   5.157   5.584  0.1965  0.1523  0.3365
19014SOL    HW158330   0.311   5.216   5.541  1.3927  0.2701 -1.2886
19014SOL    HW258331   0.399   5.204   5.664  1.0008  1.7947 -0.8398
19015SOL     OW58332   2.164   4.705   7.996 -0.4624 -0.1182 -0.0540
19015SOL    HW158333   2.176   4.659   7.913 -1.1427 -1.2397  0.4347
19015SOL    HW258334   2.121   4.640   8.052  1.7714 -0.0877  1.8205
19016SOL     OW58335   0.355   4.042   6.758  0.3088 -0.2068 -0.4818
19016SOL    HW158336   0.438   4.056   6.712 -0.6774 -0.0819 -2.3277
19016SOL    HW258337   0.361   4.096   6.837  2.4061 -1.0634  0.0163
19017SOL     OW58338   6.007   2.796   4.654  0.5471 -0.0321  0.3472
19017SOL    HW158339   6.006   2.795   4.558  1.7321  1.2458  0.2878
19017SOL    HW258340   6.087   2.750   4.677 -0.2199 -1.1910  0.7842
19018SOL     OW58341   4.441   8.358   8.158  0.0761  0.4503 -0.4423
19018SOL    HW158342   4.462   8.452   8.160  1.1363  0.2235 -0.0097
19018SOL    HW258343   4.454   8.332   8.067 -1.2770  0.9346 -0.7915
19019SOL     OW58344   5.908   6.481   7.483 -0.4222 -0.1529 -0.1695
19019SOL    HW158345   6.000   6.468   7.457  0.6337  1.7801  2.1827
19019SOL    HW258346   5.905   6.453   7.574 -1.8624  0.8672  0.1291
19020SOL     OW58347   8.257   2.496   8.208 -0.0640  0.0092  0.0555
19020SOL    HW158348   8.287   2.587   8.206 -0.1097  0.0665 -3.0348
19020SOL    HW258349   8.284   2.463   8.294  0.3908  2.7736  1.0579
19021SOL     OW58350   4.960   3.024   8.099  0.3077  0.4855 -0.3166
19021SOL    HW158351   5.032   2.977   8.142 -1.5712 -0.4119  2.0566
19021SOL    HW258352   4.971   3.115   8.126 -0.3700  0.0665  1.4881
19022SOL     OW58353   5.304   4.340   3.847  0.2777 -0.5631  0.3163
19022SOL    HW158354   5.230   4.280   3.855 -0.0146 -0.2035  0.3414
19022SOL    HW258355   5.299   4.396   3.925  1.4882 -1.5286  1.1293
19023SOL     OW58356   5.212   2.904   1.372  0.0132  0.0571 -0.0004
19023SOL    HW158357   5.230   2.980   1.316  2.0833 -1.3337 -1.3784
19023SOL    HW258358   5.287   2.900   1.431  0.2751 -1.2670 -0.3945
19024SOL     OW58359   3.273   5.881   3.357 -0.2883  0.4707  0.1700
19024SOL    HW158360   3.353   5.832   3.378 -0.9130 -0.1568  1.1706
19024SOL    HW258361   3.276   5.957   3.416 -0.5663  0.2875  0.4246
19025SOL     OW58362   0.636   2.208   0.682 -0.3486  0.3635  0.2197
19025SOL    HW158363   0.543   2.203   0.661 -0.3064 -1.3765  0.2736
19025SOL    HW258364   0.681   2.184   0.601 -0.1124 -2.8288  1.1307
19026SOL     OW58365   8.003   7.662   2.960 -0.2214  0.4256 -0.0817
19026SOL    HW158366   8.049   7.604   3.020 -1.9339 -0.2053  0.6651
19026SOL    HW258367   8.031   7.750   2.986 -0.0733  0.0970  0.8992
19027SOL     OW58368   5.758   3.907   1.983  0.0442 -0.3064 -0.1039
19027SOL    HW158369   5.775   3.813   1.983 -1.6895 -0.6842 -1.5915
19027SOL    HW258370   5.782   3.936   1.895 -0.1723  0.4778  0.0840
19028SOL     OW58371   4.531   8.019   1.820  0.1174 -0.0562 -0.1756
19028SOL    HW158372   4.613   7.975   1.840 -0.7741 -0.7984  2.2620
19028SOL    HW258373   4.550   8.112   1.829  0.6399 -0.2318  0.6537
19029SOL     OW58374   0.367   5.106   1.260 -0.4320  0.4906  0.2373
19029SOL    HW158375   0.392   5.021   1.296 -0.8853  0.0804 -0.3946
19029SOL    HW258376   0.413   5.111   1.176 -1.6288  0.1597 -0.4746
19030SOL     OW58377   7.748   5.617   6.770  0.1627  0.1680 -0.2068
19030SOL    HW158378   7.799   5.582   6.844  1.0297  0.4498 -0.6579
19030SOL    HW258379   7.665   5.643   6.809 -0.5106 -2.2795  0.1707
19031SOL     OW58380   1.830   1.498   8.509  0.1943  0.0789 -0.7520
19031SOL    HW158381   1.743   1.462   8.494  0.6393 -0.7312 -1.4533
19031SOL    HW258382   1.837   1.570   8.446  0.0745  0.0588 -0.7890
19032SOL     OW58383   5.776   7.608   1.899 -0.0539 -0.5165 -0.1086
19032SOL    HW158384   5.743   7.557   1.973  0.5437 -0.4525  0.2066
19032SOL    HW258385   5.831   7.675   1.939 -3.0770  2.3047 -0.2288
19033SOL     OW58386   7.779   3.968   5.486 -0.3774 -0.4550  0.7103
19033SOL    HW158387   7.742   4.046   5.526  0.4293  0.6593 -0.6293
19033SOL    HW258388   7.873   3.973   5.505 -0.0002  0.0309 -1.1292
19034SOL     OW58389   6.066   7.147   3.162  0.0149 -0.2583  0.6509
19034SOL    HW158390   6.078   7.063   3.209 -0.8666 -1.4731 -1.1951
19034SOL    HW258391   6.042   7.121   3.073 -1.6299  1.9967  0.3821
19035SOL     OW58392   7.589   5.929   4.488 -0.2988  0.4470  0.3271
19035SOL    HW158393   7.655   5.982   4.533 -0.1865  1.0291 -0.5023
19035SOL    HW258394   7.509   5.981   4.490 -0.2610  0.5407 -0.2460
19036SOL     OW58395   3.190   6.041   4.638  0.1321 -1.1190  0.1162
19036SOL    HW158396   3.113   6.091   4.609  0.9363 -0.3252 -0.7079
19036SOL    HW258397   3.153   5.964   4.682 -1.1326 -0.0132  1.0597
19037SOL     OW58398   6.742   5.299   2.623  0.3390 -0.2117 -0.0472
19037SOL    HW158399   6.795   5.328   2.548 -0.4812 -1.1105 -1.0110
19037SOL    HW258400   6.768   5.208   2.637  1.7564  0.4237  1.9345
19038SOL     OW58401   1.426   5.927   4.136 -0.0526  0.4590  0.0530
19038SOL    HW158402   1.376   5.996   4.180  0.1280 -0.2827  1.5018
19038SOL    HW258403   1.379   5.847   4.157  2.0386 -0.3728  2.1053
19039SOL     OW58404   8.493   5.589   4.079 -0.2071  0.0062  0.1500
19039SOL    HW158405   8.582   5.619   4.059  0.1103 -0.2746  1.0849
19039SOL    HW258406   8.499   5.556   4.169 -1.1679 -0.3851  0.0756
19040SOL     OW58407   3.528   7.626   1.572 -0.1322  0.4240 -0.3565
19040SOL    HW158408   3.615   7.666   1.569 -0.8017  2.0268  0.5587
19040SOL    HW258409   3.492   7.655   1.656 -2.1192  1.0107 -1.3626
19041SOL     OW58410   0.829   3.212   1.566  0.0091  0.1875 -0.3281
19041SOL    HW158411   0.870   3.141   1.616 -0.1047 -0.9024 -1.7189
19041SOL    HW258412   0.819   3.176   1.478 -2.8343  0.8094 -0.3663
19042SOL     OW58413   7.095   6.348   3.430 -0.1547 -0.5451  0.1047
19042SOL    HW158414   7.008   6.348   3.469  0.6569 -1.5764  2.0606
19042SOL    HW258415   7.129   6.436   3.447 -1.1501  0.2056 -1.5839
19043SOL     OW58416   4.372   4.644   0.320 -0.1923 -0.3930  0.1537
19043SOL    HW158417   4.293   4.695   0.304  0.4208  0.5517  0.1008
19043SOL    HW258418   4.346   4.553   0.303 -1.0408 -0.0032 -0.6734
19044SOL     OW58419   8.463   6.015   7.826  0.4583 -0.1634 -0.3216
19044SOL    HW158420   8.482   5.923   7.842 -1.5826 -0.8772 -1.5848
19044SOL    HW258421   8.514   6.062   7.892 -0.6172 -2.3492  2.2842
19045SOL     OW58422   5.881   4.817   0.654  0.1614  0.5723 -0.3509
19045SOL    HW158423   5.972   4.794   0.637  0.5731  2.6353 -1.2569
19045SOL    HW258424   5.849   4.748   0.711  1.9221 -0.8724 -1.0073
19046SOL     OW58425   4.940   7.575   0.216 -0.2306 -0.0434 -0.4376
19046SOL    HW158426   5.003   7.577   0.143  0.8813 -0.6619  0.4869
19046SOL    HW258427   4.863   7.532   0.179  0.5491 -0.9350 -1.0868
19047SOL     OW58428   4.729   0.873   5.360  0.2008  0.3305  0.3771
19047SOL    HW158429   4.765   0.807   5.301 -0.2077  0.5898 -0.1726
19047SOL    HW258430   4.653   0.831   5.400  0.4513  0.1696  0.6806
19048SOL     OW58431   3.302   5.798   0.973 -0.8489  0.5610 -0.3669
19048SOL    HW158432   3.361   5.722   0.970 -0.9289  0.4084  1.0453
19048SOL    HW258433   3.347   5.865   0.922 -1.1495 -0.6462 -2.3553
19049SOL     OW58434   6.926   7.977   2.977  0.4934  1.1175 -0.8945
19049SOL    HW158435   6.967   8.037   2.916 -0.1754  2.0828 -0.4264
19049SOL    HW258436   6.832   7.984   2.959  0.4610 -1.0635 -1.9660
19050SOL     OW58437   7.780   2.337   0.895 -0.0568  0.2959 -1.1505
19050SOL    HW158438   7.784   2.243   0.914 -2.5197  0.5242  1.1946
19050SOL    HW258439   7.730   2.343   0.814 -0.5641 -0.4039 -0.8989
19051SOL     OW58440   5.939   7.702   4.432  0.5494 -0.0999  0.2724
19051SOL    HW158441   5.931   7.606   4.434  0.5824 -0.1668 -1.3110
19051SOL    HW258442   6.018   7.718   4.380  1.0361  0.8014  1.2419
19052SOL     OW58443   6.330   1.909   1.038  0.1453  0.1853 -0.2036
19052SOL    HW158444   6.283   1.992   1.044 -0.9227 -0.2919 -1.5712
19052SOL    HW258445   6.294   1.866   0.961  1.8710 -0.8250 -0.5010
19053SOL     OW58446   4.754   1.765   7.033 -0.1394 -0.2131 -0.2464
19053SOL    HW158447   4.740   1.707   7.108 -1.8611  0.3036 -0.1238
19053SOL    HW258448   4.848   1.759   7.015  0.1272 -1.1604  1.2826
19054SOL     OW58449   5.802   6.728   4.786  0.4747  0.5602 -0.1199
19054SOL    HW158450   5.825   6.643   4.824 -0.7421 -0.3153 -1.2526
19054SOL    HW258451   5.742   6.766   4.849 -0.0611 -0.0431 -0.2554
19055SOL     OW58452   7.857   4.731   0.737 -0.8762 -0.3576 -0.3823
19055SOL    HW158453   7.841   4.637   0.735 -1.2533 -0.3140  0.4226
19055SOL    HW258454   7.826   4.759   0.823  0.7602  0.2371  0.0467
19056SOL     OW58455   7.092   8.556   1.299  0.0406 -0.4865  0.2225
19056SOL    HW158456   7.161   8.525   1.241  0.6921 -0.2230  0.8339
19056SOL    HW258457   7.014   8.561   1.244  0.2978 -1.6109 -0.2811
19057SOL     OW58458   1.587   2.410   0.309 -0.1745  0.3912  0.0279
19057SOL    HW158459   1.523   2.473   0.276 -0.3030  1.0480  1.4987
19057SOL    HW258460   1.652   2.463   0.355  0.0772 -0.4934  0.7159
19058SOL     OW58461   7.478   7.551   1.572 -0.2839  0.0345  0.2239
19058SOL    HW158462   7.545   7.548   1.640 -1.8844  1.0449  1.9157
19058SOL    HW258463   7.462   7.644   1.556 -0.3911 -0.1800 -1.1026
19059SOL     OW58464   8.270   8.475   5.522 -0.2724 -0.9824 -0.2997
19059SOL    HW158465   8.348   8.526   5.500 -2.0786  2.9764  1.4680
19059SOL    HW258466   8.274   8.465   5.617 -2.0139 -0.3050 -0.1125
19060SOL     OW58467   2.322   0.782   6.402  0.4296  0.1786 -0.8111
19060SOL    HW158468   2.357   0.751   6.319 -1.5346  0.0644 -1.6713
19060SOL    HW258469   2.238   0.737   6.411  0.1934  0.8462  0.8153
19061SOL     OW58470   1.251   3.167   3.154  0.5302  0.4690 -0.1453
19061SOL    HW158471   1.337   3.196   3.186 -0.1731  3.2099 -0.4472
19061SOL    HW258472   1.251   3.192   3.062  0.6127 -2.6646 -1.1089
19062SOL     OW58473   0.428   0.846   1.098 -0.2546  0.1423 -0.4949
19062SOL    HW158474   0.507   0.832   1.150 -0.9010  1.1023  0.8113
19062SOL    HW258475   0.370   0.897   1.156 -0.7198  1.9151 -2.4171
19063SOL     OW58476   0.756   5.314   6.366  0.2452  0.6808  0.1400
19063SOL    HW158477   0.773   5.297   6.273  0.4216  0.3471  0.2335
19063SOL    HW258478   0.757   5.410   6.372  1.0291  0.6932 -0.0608
19064SOL     OW58479   0.198   5.590   1.852 -0.4721  0.1288 -0.3316
19064SOL    HW158480   0.116   5.597   1.803 -1.3709  0.8669  1.2044
19064SOL    HW258481   0.173   5.553   1.936  0.9672 -0.7109 -0.2437
19065SOL     OW58482   8.671   0.298   6.484 -0.8278  0.4929 -0.6399
19065SOL    HW158483   8.698   0.380   6.526 -0.0960  0.5506 -1.1960
19065SOL    HW258484   8.701   0.306   6.393  0.0563 -0.7491 -0.4876
19066SOL     OW58485   5.346   1.520   6.634 -0.0028 -0.1355 -0.3653
19066SOL    HW158486   5.284   1.471   6.581  0.1929  0.4356 -1.1376
19066SOL    HW258487   5.415   1.457   6.656 -0.8412 -0.7736  0.5143
19067SOL     OW58488   2.319   0.973   6.002 -0.4008 -0.3958  0.1779
19067SOL    HW158489   2.369   0.980   5.921  1.3753 -0.8506  1.1530
19067SOL    HW258490   2.328   0.880   6.027  0.9075  0.1323  1.9172
19068SOL     OW58491   5.098   3.123   0.264  0.3616 -0.1301  0.2147
19068SOL    HW158492   5.102   3.190   0.331 -1.3161  1.0090 -0.7688
19068SOL    HW258493   5.164   3.150   0.199 -1.4886  1.6425 -1.0496
19069SOL     OW58494   3.156   7.319   3.295 -0.0059 -0.2990 -0.0011
19069SOL    HW158495   3.166   7.359   3.382  0.6508 -1.3092  0.4029
19069SOL    HW258496   3.222   7.363   3.241  0.1043 -0.2104  0.2040
19070SOL     OW58497   5.935   3.502   5.973 -0.4212 -0.1799  0.0286
19070SOL    HW158498   5.842   3.523   5.959 -0.1197  0.0352 -1.9563
19070SOL    HW258499   5.978   3.587   5.978  0.2324 -0.1128 -3.8075
19071SOL     OW58500   6.233   7.940   7.512 -0.0019  0.2613  0.3472
19071SOL    HW158501   6.283   8.020   7.495  0.7705 -0.4018 -0.6117
19071SOL    HW258502   6.294   7.884   7.561 -0.3512  0.0432  0.5382
19072SOL     OW58503   6.102   3.270   1.635 -0.3135 -0.0288 -0.2868
19072SOL    HW158504   6.041   3.259   1.561  1.9796 -1.0189 -2.1638
19072SOL    HW258505   6.084   3.358   1.667 -3.1305 -0.4983 -0.3221
19073SOL     OW58506   1.554   1.418   8.529 -0.4307 -0.0510 -0.4327
19073SOL    HW158507   1.459   1.412   8.539 -0.5359  1.4590 -0.2960
19073SOL    HW258508   1.588   1.341   8.575 -1.5509 -0.2179  0.1417
19074SOL     OW58509   2.733   2.597   2.618  0.2837 -0.4072 -0.0509
19074SOL    HW158510   2.688   2.677   2.646  1.7973  0.5711 -0.2897
19074SOL    HW258511   2.798   2.581   2.686 -0.9783 -2.3784  0.8195
19075SOL     OW58512   6.917   5.322   8.006  0.6378 -0.2302  0.4714
19075SOL    HW158513   6.892   5.250   7.948  1.8000  0.0133 -0.3646
19075SOL    HW258514   6.851   5.321   8.075  1.1037 -2.6557  0.9743
19076SOL     OW58515   2.862   7.097   1.688  0.2433  0.0259 -0.5085
19076SOL    HW158516   2.783   7.042   1.684  0.1441  0.1750 -0.6480
19076SOL    HW258517   2.849   7.162   1.619 -0.0573  0.7698  0.2248
19077SOL     OW58518   6.367   3.659   5.117 -0.1310 -0.1534 -0.6436
19077SOL    HW158519   6.301   3.717   5.154 -0.8434 -0.6325 -1.1479
19077SOL    HW258520   6.406   3.615   5.193  0.9494  1.4958 -0.1789
19078SOL     OW58521   1.978   2.376   2.787 -0.5538 -0.3745 -0.3275
19078SOL    HW158522   2.013   2.331   2.864 -1.0486  0.1242  0.1917
19078SOL    HW258523   1.940   2.457   2.821 -0.2965  0.1122 -1.1629
19079SOL     OW58524   1.644   3.271   8.490 -0.2245  0.0408  0.3362
19079SOL    HW158525   1.632   3.361   8.519 -1.6487  0.0748 -0.3137
19079SOL    HW258526   1.569   3.253   8.434 -1.0156 -2.1612  1.9608
19080SOL     OW58527   3.123   7.549   8.001  1.0467 -0.0966 -0.1641
19080SOL    HW158528   3.050   7.572   8.058  0.5917  1.9946 -1.4955
19080SOL    HW258529   3.110   7.456   7.982 -1.2294  0.1745 -0.2489
19081SOL     OW58530   2.786   3.648   7.238 -0.3140  0.0921  0.0623
19081SOL    HW158531   2.845   3.678   7.307  0.2700 -0.7041 -0.0737
19081SOL    HW258532   2.799   3.553   7.235 -0.1375  0.1456 -1.3219
19082SOL     OW58533   0.623   6.457   5.369 -0.6819  0.3083  0.1522
19082SOL    HW158534   0.689   6.397   5.403  0.2195  0.9514 -0.4157
19082SOL    HW258535   0.660   6.490   5.288 -2.4516 -0.6236 -1.1090
19083SOL     OW58536   2.424   0.150   0.016  0.6905 -0.2646 -0.5579
19083SOL    HW158537   2.387   0.103  -0.058 -0.2416 -1.2414  0.4982
19083SOL    HW258538   2.443   0.083   0.081  1.7412  0.5425  0.0163
19084SOL     OW58539   1.193   4.931   4.205 -0.5135 -0.3728  0.1892
19084SOL    HW158540   1.165   5.019   4.232  1.1034  0.5191 -0.8653
19084SOL    HW258541   1.280   4.921   4.243 -0.1855 -1.0251 -0.7109
19085SOL     OW58542   1.134   8.306   0.168  0.1978 -0.4306  0.0038
19085SOL    HW158543   1.145   8.304   0.263  1.6658  1.6174 -0.0479
19085SOL    HW258544   1.053   8.257   0.152 -0.1493 -0.7288  2.2999
19086SOL     OW58545   0.003   7.385   4.115 -0.7164  0.2507  0.5394
19086SOL    HW158546  -0.078   7.355   4.156 -0.9754 -0.2850 -0.3356
19086SOL    HW258547  -0.015   7.379   4.021 -0.9056  3.4043  0.2489
19087SOL     OW58548   0.927   8.208   2.188 -0.0608  0.1846 -0.4717
19087SOL    HW158549   0.855   8.256   2.230  0.6443  0.3655  0.5610
19087SOL    HW258550   0.884   8.154   2.122 -1.0523  0.9675 -0.4964
19088SOL     OW58551   2.543   5.462   2.997  0.1592  0.4879  0.3393
19088SOL    HW158552   2.608   5.531   2.982 -1.9023  2.3520 -0.5881
19088SOL    HW258553   2.507   5.482   3.084 -0.8434  0.9924 -0.1692
19089SOL     OW58554   8.095   0.330   6.657 -0.3230  0.3223  0.4078
19089SOL    HW158555   8.081   0.407   6.711  3.2676  1.2330  0.2907
19089SOL    HW258556   8.159   0.358   6.591 -0.3630 -2.2474 -0.8558
19090SOL     OW58557   0.706   5.760   7.941 -0.1167  0.4449  0.3359
19090SOL    HW158558   0.696   5.855   7.936  1.2144  0.7107  1.8162
19090SOL    HW258559   0.675   5.728   7.856 -0.9615  2.1540 -0.0414
19091SOL     OW58560   5.539   5.810   5.355  0.1811  0.7786  0.5983
19091SOL    HW158561   5.493   5.842   5.433 -0.4594 -1.1804  1.0804
19091SOL    HW258562   5.474   5.809   5.286  0.3409  1.0221  0.4420
19092SOL     OW58563   1.128   2.994   2.567 -0.1445  0.3216 -0.4988
19092SOL    HW158564   1.117   2.921   2.505 -2.6727  0.2686 -0.0739
19092SOL    HW258565   1.176   2.955   2.640 -0.9885 -0.7830 -0.5148
19093SOL     OW58566   6.298   6.799   7.361 -0.4566 -0.2403  0.8300
19093SOL    HW158567   6.220   6.810   7.415 -0.5341 -1.3555  0.9675
19093SOL    HW258568   6.367   6.776   7.423 -0.4825 -1.2504  0.5025
19094SOL     OW58569   6.889   0.969   0.063  0.2706 -0.3886 -0.2066
19094SOL    HW158570   6.981   0.992   0.072 -0.2677  1.8032  0.5801
19094SOL    HW258571   6.861   0.944   0.151 -0.4514  1.6312  0.1997
19095SOL     OW58572   3.906   6.551   8.113  0.3793  0.2139 -0.0633
19095SOL    HW158573   3.963   6.592   8.177 -1.0303  1.4761  0.4416
19095SOL    HW258574   3.817   6.580   8.137 -0.2016  0.8522 -2.6051
19096SOL     OW58575   3.393   4.490   4.359 -0.4681  0.2903 -0.0481
19096SOL    HW158576   3.364   4.569   4.314 -0.5337  1.0222  1.2204
19096SOL    HW258577   3.314   4.436   4.367  0.0387 -1.0941 -3.1115
19097SOL     OW58578   3.626   7.692   4.458 -0.1908  0.7454  0.0464
19097SOL    HW158579   3.607   7.617   4.401  0.2504  1.3726 -0.9489
19097SOL    HW258580   3.573   7.763   4.422  0.1557  1.1727  0.3771
19098SOL     OW58581   7.952   5.870   4.681 -0.4314  0.4338  0.1553
19098SOL    HW158582   7.900   5.948   4.698  0.0751  0.5279  1.3096
19098SOL    HW258583   7.899   5.820   4.618 -1.1805  1.2579  0.1033
19099SOL     OW58584   4.597   7.340   5.948 -0.4998 -0.2823  0.6908
19099SOL    HW158585   4.535   7.395   5.995 -1.3716  0.6078 -1.3860
19099SOL    HW258586   4.548   7.308   5.872  1.3008 -0.2443 -0.5523
19100SOL     OW58587   1.857   4.018   0.857 -0.2730 -0.1944  0.0208
19100SOL    HW158588   1.830   4.102   0.896  1.0563  0.5482 -0.5792
19100SOL    HW258589   1.775   3.973   0.838 -1.0589  1.3867 -0.5147
19101SOL     OW58590   3.449   2.954   1.395  0.3751  0.1790 -0.4064
19101SOL    HW158591   3.406   2.943   1.310  0.5481  1.6095 -0.7079
19101SOL    HW258592   3.488   3.041   1.390 -0.1716  0.5540  1.4050
19102SOL     OW58593   5.561   0.897   5.154  0.0047 -0.4147 -0.1209
19102SOL    HW158594   5.503   0.895   5.230  0.0090 -0.2398 -0.1134
19102SOL    HW258595   5.622   0.968   5.172 -1.2300  0.9775 -1.2139
19103SOL     OW58596   5.183   4.638   2.452  0.5825 -0.5194  0.0050
19103SOL    HW158597   5.139   4.575   2.395 -1.1714  0.4234  0.2294
19103SOL    HW258598   5.169   4.723   2.410  0.4112  0.0392  1.1357
19104SOL     OW58599   6.783   6.915   7.232  0.3204 -0.3197 -0.3059
19104SOL    HW158600   6.739   6.967   7.300  2.7277 -0.0252  1.1466
19104SOL    HW258601   6.752   6.826   7.246  0.8816 -0.2980  1.3766
19105SOL     OW58602   5.232   1.159   4.189  0.0424 -0.3261  0.0014
19105SOL    HW158603   5.158   1.102   4.206 -1.1797  1.3146  0.3840
19105SOL    HW258604   5.293   1.142   4.261  0.4410 -2.2338 -0.7197
19106SOL     OW58605   8.512   2.962   8.244  0.1295 -0.4614 -0.3302
19106SOL    HW158606   8.578   2.938   8.309  1.0937 -0.2892 -1.2186
19106SOL    HW258607   8.499   2.883   8.192 -1.1652 -0.8145  0.4791
19107SOL     OW58608   6.168   4.593   0.986  0.5047 -0.3291 -0.2031
19107SOL    HW158609   6.106   4.665   0.996  1.3241  0.3096  0.4077
19107SOL    HW258610   6.114   4.514   0.988 -0.3194  0.2312  0.0111
19108SOL     OW58611   6.485   0.732   8.625  0.2217 -0.1422 -0.3611
19108SOL    HW158612   6.554   0.666   8.618 -0.6172 -1.1587  0.5877
19108SOL    HW258613   6.432   0.720   8.546  0.0914 -0.6033 -0.2074
19109SOL     OW58614   2.449   7.031   3.081 -0.3856 -0.2299 -0.1762
19109SOL    HW158615   2.526   7.016   3.136 -0.8622  2.2910  1.3184
19109SOL    HW258616   2.473   7.104   3.025 -1.2350 -0.2642 -0.6012
19110SOL     OW58617   3.142   0.097   2.980 -0.0803 -0.0818  0.2479
19110SOL    HW158618   3.100   0.161   3.037 -0.0853 -1.4418  1.8548
19110SOL    HW258619   3.081   0.085   2.907  0.2947  2.2872 -0.5217
19111SOL     OW58620   5.695   6.729   5.659 -1.0881  0.0415  0.1099
19111SOL    HW158621   5.725   6.746   5.748 -1.5261  2.4187 -0.1258
19111SOL    HW258622   5.616   6.782   5.650 -2.1102 -1.6080 -1.1319
19112SOL     OW58623   7.629   7.823   1.081  0.1348  0.9681 -0.2862
19112SOL    HW158624   7.701   7.876   1.049  0.4428  1.3777  1.0462
19112SOL    HW258625   7.591   7.784   1.002  0.1143  2.8687 -1.2608
19113SOL     OW58626   0.059   5.531   7.730  0.6411  0.4754 -0.1383
19113SOL    HW158627   0.010   5.582   7.666 -1.8596 -1.6728 -0.0888
19113SOL    HW258628   0.134   5.586   7.751 -0.6927  3.1143 -1.6981
19114SOL     OW58629   6.523   0.128   3.530  0.1998 -0.1596  0.0202
19114SOL    HW158630   6.473   0.163   3.604 -0.3153 -3.2769  1.3250
19114SOL    HW258631   6.604   0.096   3.570  1.3899  0.9732 -1.3787
19115SOL     OW58632   6.816   8.488   4.372  0.1478 -0.8115 -0.2785
19115SOL    HW158633   6.848   8.496   4.282 -0.6926 -0.1536 -0.5365
19115SOL    HW258634   6.890   8.513   4.427  0.5337 -0.7980 -0.8034
19116SOL     OW58635   6.171   4.400   5.839  0.0955 -0.3414 -0.2769
19116SOL    HW158636   6.237   4.469   5.836 -0.0387 -0.2307 -1.0725
19116SOL    HW258637   6.137   4.396   5.749  0.0989 -1.4399 -0.2492
19117SOL     OW58638   3.307   2.894   8.103  0.2280 -0.5176  0.1714
19117SOL    HW158639   3.268   2.919   8.187  0.5447 -0.7209  0.3818
19117SOL    HW258640   3.233   2.886   8.043  0.0220 -0.1096  0.3641
19118SOL     OW58641   4.376   7.013   0.349  0.6161  0.4905  0.1750
19118SOL    HW158642   4.408   6.926   0.371  0.5245  0.5766  0.6533
19118SOL    HW258643   4.283   7.000   0.329  0.4008  0.6043  1.0632
19119SOL     OW58644   2.857   8.178   6.786 -0.0740  0.2577  0.2393
19119SOL    HW158645   2.946   8.157   6.759 -0.2088 -1.9315  1.2318
19119SOL    HW258646   2.802   8.131   6.723 -0.5095  0.8476  0.1761
19120SOL     OW58647   6.538   3.268   4.210 -0.5908  0.2716  0.7933
19120SOL    HW158648   6.469   3.333   4.194 -1.5465 -0.6712  0.9663
19120SOL    HW258649   6.494   3.184   4.201  1.0015 -0.4387 -1.1878
19121SOL     OW58650   5.004   5.254   8.095  0.5450  0.1516  0.3039
19121SOL    HW158651   5.040   5.169   8.117  0.1023 -0.1249 -0.0155
19121SOL    HW258652   4.981   5.247   8.002  0.2438  0.5193  0.3483
19122SOL     OW58653   2.304   1.914   0.329  0.3366  0.3311  0.1258
19122SOL    HW158654   2.376   1.968   0.295  1.2182 -0.5626  0.5125
19122SOL    HW258655   2.316   1.829   0.286 -1.1091  0.4583 -0.5800
19123SOL     OW58656   6.249   7.602   8.179 -0.2385  0.4574 -0.0706
19123SOL    HW158657   6.276   7.689   8.210  0.9787 -0.1914  0.7803
19123SOL    HW258658   6.217   7.558   8.257 -1.7217  0.4243 -0.6649
19124SOL     OW58659   5.853   6.170   1.851  0.2132  0.1430  0.7441
19124SOL    HW158660   5.801   6.095   1.880 -1.0738  0.7315 -0.0047
19124SOL    HW258661   5.904   6.194   1.928  0.8415 -1.6356  0.9380
19125SOL     OW58662   8.285   7.267   1.918  0.7064  0.3425 -0.0333
19125SOL    HW158663   8.285   7.219   1.835  2.6618  0.1014  0.0653
19125SOL    HW258664   8.267   7.200   1.985  1.4750  0.0971 -0.0673
19126SOL     OW58665   5.203   1.011   1.884  0.2301 -0.3385 -0.4134
19126SOL    HW158666   5.194   0.917   1.902  2.2941 -0.7150 -1.0404
19126SOL    HW258667   5.179   1.053   1.967  0.7001 -1.5151  0.3605
19127SOL     OW58668   3.578   5.364   3.736 -0.0766  0.0444 -0.6780
19127SOL    HW158669   3.543   5.452   3.740  1.5683  0.7566 -0.9440
19127SOL    HW258670   3.648   5.363   3.801 -0.8948 -1.4890  0.2350
19128SOL     OW58671   5.279   4.106   6.581 -0.7274 -0.2599 -0.3238
19128SOL    HW158672   5.291   4.144   6.494  2.4103  2.5147  1.0881
19128SOL    HW258673   5.368   4.091   6.613 -1.7444 -0.6202  2.6080
19129SOL     OW58674   7.251   3.315   7.557 -0.4028 -0.9853 -0.3522
19129SOL    HW158675   7.194   3.275   7.492  0.5693 -0.2149 -1.7350
19129SOL    HW258676   7.322   3.252   7.569 -1.9229 -2.3899  2.0895
19130SOL     OW58677   1.906   7.526   1.552 -0.8265 -0.4367 -0.2927
19130SOL    HW158678   1.925   7.433   1.537 -1.0805 -0.5823  0.2567
19130SOL    HW258679   1.822   7.526   1.599 -0.4914  0.0310  0.3314
19131SOL     OW58680   7.502   7.216   1.725 -0.3449  0.9035  0.2896
19131SOL    HW158681   7.457   7.140   1.763 -0.3810  0.3858 -0.7523
19131SOL    HW258682   7.448   7.291   1.752 -0.3968  0.5537  1.1989
19132SOL     OW58683   5.297   0.722   2.354 -0.1105  0.0786  0.8816
19132SOL    HW158684   5.283   0.641   2.304 -1.5781  0.4147  0.6906
19132SOL    HW258685   5.388   0.746   2.336 -0.2548 -0.4286 -0.7455
19133SOL     OW58686   4.178   2.081   0.241 -0.0416 -0.6753 -0.4654
19133SOL    HW158687   4.106   2.143   0.229  1.7613  1.6489  0.0732
19133SOL    HW258688   4.205   2.058   0.152  0.3721  0.7241 -0.7264
19134SOL     OW58689   8.182   6.469   1.849  0.1982  0.1272  0.3321
19134SOL    HW158690   8.263   6.520   1.847  2.0240 -2.5610 -0.3365
19134SOL    HW258691   8.120   6.521   1.797  2.2318  1.2089 -1.1900
19135SOL     OW58692   3.834   2.436   4.682  0.2470  0.1614 -0.0427
19135SOL    HW158693   3.779   2.358   4.677  1.8166 -0.9478 -0.3247
19135SOL    HW258694   3.806   2.489   4.607  0.2953 -0.8795 -0.8137
19136SOL     OW58695   4.437   3.711   5.454 -0.1463  0.1647 -0.5290
19136SOL    HW158696   4.469   3.636   5.405  0.2701  0.4467 -0.6886
19136SOL    HW258697   4.500   3.780   5.437  0.1136  0.2175  0.5478
19137SOL     OW58698   2.404   6.012   1.785  0.5750 -0.2519  0.2230
19137SOL    HW158699   2.422   6.092   1.834 -1.3260  0.5798 -0.3474
19137SOL    HW258700   2.371   5.951   1.850  2.9837 -1.0084  0.8518
19138SOL     OW58701   4.185   4.833   6.921 -0.2552  0.2365 -0.5356
19138SOL    HW158702   4.159   4.896   6.987 -1.2038  0.2487 -0.9045
19138SOL    HW258703   4.105   4.783   6.902  0.3650 -0.7918 -0.5598
19139SOL     OW58704   5.718   1.920   3.501 -0.6897  0.1896 -0.0869
19139SOL    HW158705   5.733   1.827   3.518 -1.7310 -0.1065 -0.7320
19139SOL    HW258706   5.719   1.961   3.588  0.5845 -0.2828  0.1386
19140SOL     OW58707   7.699   7.515   8.515 -0.1566 -0.4215 -0.4766
19140SOL    HW158708   7.724   7.481   8.429  0.6329 -0.4893 -0.2212
19140SOL    HW258709   7.776   7.501   8.570  0.4247  2.2494 -0.4704
19141SOL     OW58710   0.153   3.594   4.589 -0.3962 -0.1772  0.0829
19141SOL    HW158711   0.095   3.595   4.665 -0.7249 -1.9088 -0.1072
19141SOL    HW258712   0.185   3.684   4.582 -1.0068  0.2040  1.7620
19142SOL     OW58713   1.771   5.974   0.699 -0.1902 -0.1932  0.1999
19142SOL    HW158714   1.842   5.956   0.638 -1.5255  2.0247 -2.2188
19142SOL    HW258715   1.814   5.993   0.782  1.8615 -0.8742 -0.6396
19143SOL     OW58716   6.270   8.251   1.787  0.6921 -0.0580 -0.0401
19143SOL    HW158717   6.216   8.242   1.865  0.0255 -3.6803 -0.7305
19143SOL    HW258718   6.359   8.228   1.816  0.3395 -2.0094 -0.3519
19144SOL     OW58719   7.375   7.639   0.630 -0.1112  0.4646 -0.8072
19144SOL    HW158720   7.322   7.562   0.610  0.5978  0.4462 -2.8597
19144SOL    HW258721   7.465   7.612   0.612  0.5685  0.7810  1.7293
19145SOL     OW58722   7.833   2.742   5.623  0.5832 -0.0813 -0.1553
19145SOL    HW158723   7.741   2.766   5.634  0.0772 -1.6201 -0.7334
19145SOL    HW258724   7.866   2.804   5.558  0.4922  1.6603  1.3903
19146SOL     OW58725   0.842   0.584   0.156  0.8951  0.5474  0.2765
19146SOL    HW158726   0.778   0.639   0.109  1.3291 -1.0214 -2.3874
19146SOL    HW258727   0.797   0.500   0.166  1.7722  0.0768  0.3201
19147SOL     OW58728   1.139   6.736   7.285  0.0898  0.4864  0.2647
19147SOL    HW158729   1.074   6.668   7.267 -0.4922  0.7766  1.1983
19147SOL    HW258730   1.221   6.689   7.295 -0.0553  0.0652 -0.4690
19148SOL     OW58731   2.775   4.415   1.364 -0.6682 -0.3541  0.8876
19148SOL    HW158732   2.692   4.375   1.338 -0.4241 -0.4897  0.2977
19148SOL    HW258733   2.839   4.344   1.357 -0.4723 -0.2111  1.1891
19149SOL     OW58734   4.098   2.448   7.715 -0.2627  0.3102 -0.1534
19149SOL    HW158735   4.176   2.497   7.689  0.7101 -0.7676  0.6114
19149SOL    HW258736   4.070   2.403   7.635  3.0750 -3.4931  0.4883
19150SOL     OW58737   2.910   5.910   1.116  0.8817  0.5291 -0.1510
19150SOL    HW158738   2.977   5.851   1.081  0.9105  1.6558 -2.1635
19150SOL    HW258739   2.893   5.971   1.044 -3.7539 -0.8203 -0.5215
19151SOL     OW58740   6.131   5.696   4.023 -0.5477  0.3760 -0.0026
19151SOL    HW158741   6.045   5.738   4.029 -0.7848 -0.2722  1.4253
19151SOL    HW258742   6.147   5.689   3.929  0.0253  4.6210 -0.3928
19152SOL     OW58743   2.629   2.008   2.292  0.2063 -0.3772  0.4875
19152SOL    HW158744   2.634   1.940   2.224 -0.5194  0.8133 -0.8169
19152SOL    HW258745   2.690   2.076   2.262 -1.3692  0.9159  0.0835
19153SOL     OW58746   0.321   8.499   7.216 -0.2055  1.0989  0.1493
19153SOL    HW158747   0.414   8.511   7.232 -0.3507  1.7050  0.5853
19153SOL    HW258748   0.291   8.582   7.179 -0.2153  0.2817 -1.7876
19154SOL     OW58749   6.226   4.206   5.183  0.1856  0.2984  0.6513
19154SOL    HW158750   6.141   4.184   5.222 -1.3161  0.5465 -2.2255
19154SOL    HW258751   6.281   4.130   5.200 -1.9524 -1.7527 -0.9500
19155SOL     OW58752   1.406   2.077   4.026 -0.2998  0.5278 -0.2245
19155SOL    HW158753   1.437   2.139   4.092  2.2669 -0.5915 -0.2744
19155SOL    HW258754   1.315   2.060   4.050  0.3959  0.5303  2.7537
19156SOL     OW58755   7.056   6.259   6.560 -0.4435 -1.0726  0.0716
19156SOL    HW158756   7.078   6.338   6.609  0.4059  0.1261 -2.1015
19156SOL    HW258757   7.127   6.197   6.581  1.0966  0.1694 -1.1731
19157SOL     OW58758   2.105   8.001   5.638 -0.3862  0.1514  0.0609
19157SOL    HW158759   2.040   8.064   5.607  0.8040 -0.0838 -3.2695
19157SOL    HW258760   2.056   7.919   5.646 -0.9790  0.4930  0.0211
19158SOL     OW58761   6.860   2.565   0.558  0.2630  0.4206  0.3883
19158SOL    HW158762   6.910   2.577   0.639  1.9516  0.0792 -0.5563
19158SOL    HW258763   6.795   2.499   0.580  1.5461 -0.6487  1.1394
19159SOL     OW58764   3.059   4.471   6.280 -0.0151 -0.2073 -0.3700
19159SOL    HW158765   3.151   4.487   6.262 -0.1061  1.5911  0.5783
19159SOL    HW258766   3.038   4.528   6.354 -1.7818 -0.9111 -0.2652
19160SOL     OW58767   0.898   6.323   3.980 -0.1634  0.2909  0.1108
19160SOL    HW158768   0.937   6.239   4.005 -0.4103  0.2750  0.4456
19160SOL    HW258769   0.831   6.301   3.915  0.8725  0.3844 -1.0435
19161SOL     OW58770   7.873   7.913   8.569  0.5164 -0.3188  0.3725
19161SOL    HW158771   7.803   7.962   8.525  0.9097  0.8246  0.9775
19161SOL    HW258772   7.829   7.871   8.644  0.0839 -1.3088 -0.4098
19162SOL     OW58773   5.956   7.824   8.547 -0.2639 -0.5593 -0.0720
19162SOL    HW158774   6.035   7.868   8.517 -0.3041  0.5451  1.3110
19162SOL    HW258775   5.987   7.753   8.604 -0.2516 -0.9436 -0.5513
19163SOL     OW58776   7.427   8.603   0.575 -0.0790  0.2295 -0.2860
19163SOL    HW158777   7.426   8.655   0.495 -0.7565 -1.1769 -1.2366
19163SOL    HW258778   7.353   8.637   0.626  0.2886  1.0599 -0.2915
19164SOL     OW58779   1.639   0.723   2.484  0.2315 -0.4367  0.2115
19164SOL    HW158780   1.680   0.659   2.425  0.8493 -0.7585  0.9693
19164SOL    HW258781   1.561   0.679   2.516 -1.1291  0.4208 -1.7409
19165SOL     OW58782   7.472   5.972   5.106  0.0746 -0.2400  0.3380
19165SOL    HW158783   7.411   6.043   5.125 -0.9282 -1.6682  3.0433
19165SOL    HW258784   7.551   5.994   5.155 -0.2530 -0.9379  1.2158
19166SOL     OW58785   0.644   7.779   2.222 -0.5443 -0.3099 -0.1209
19166SOL    HW158786   0.598   7.739   2.148  0.0376 -0.2984 -0.4985
19166SOL    HW258787   0.707   7.713   2.249 -0.3706 -0.0962 -0.0007
19167SOL     OW58788   3.183   7.032   2.999  0.6235 -0.0636 -0.0330
19167SOL    HW158789   3.252   6.986   2.951  0.0268 -1.6689  0.5974
19167SOL    HW258790   3.134   7.079   2.931  1.6066  0.1378 -0.6199
19168SOL     OW58791   2.142   7.486   0.493 -0.2574 -0.7377 -0.2840
19168SOL    HW158792   2.121   7.434   0.416 -2.3281 -0.6003  0.1180
19168SOL    HW258793   2.222   7.447   0.528  0.5917 -0.9392 -2.3353
19169SOL     OW58794   6.729   7.545   0.199 -0.7558  0.1123 -0.0436
19169SOL    HW158795   6.772   7.462   0.179 -0.6391 -0.1675  1.2884
19169SOL    HW258796   6.656   7.522   0.256 -0.2188  0.9772  1.0481
19170SOL     OW58797   4.902   4.309   7.626 -0.3578 -1.0323  0.3699
19170SOL    HW158798   4.925   4.235   7.571 -2.3618  0.9298 -3.5278
19170SOL    HW258799   4.808   4.302   7.639 -0.7557  1.1751 -0.8384
19171SOL     OW58800   6.678   7.827   4.364 -0.5438 -0.7618 -0.3874
19171SOL    HW158801   6.757   7.877   4.388 -1.3218  0.7293 -0.7804
19171SOL    HW258802   6.687   7.812   4.270 -0.0848 -1.8295 -0.1889
19172SOL     OW58803   8.149   4.631   1.129 -0.3144  0.1382 -0.3121
19172SOL    HW158804   8.191   4.567   1.071  0.3246 -1.2166  1.5506
19172SOL    HW258805   8.178   4.716   1.096  1.2274 -0.6475 -1.0783
19173SOL     OW58806   5.629   5.793   4.964 -0.2409 -0.5536 -0.4512
19173SOL    HW158807   5.641   5.832   4.878  0.3087 -0.0375 -0.1476
19173SOL    HW258808   5.536   5.804   4.982 -0.5533 -1.4963 -1.3581
19174SOL     OW58809   1.330   3.608   4.308 -0.1934  0.0612  0.2728
19174SOL    HW158810   1.319   3.571   4.221 -2.7612  1.2988 -0.0191
19174SOL    HW258811   1.265   3.563   4.362  0.3291  0.3751  1.1981
19175SOL     OW58812   4.428   7.787   4.970 -0.5212  0.4431 -0.4186
19175SOL    HW158813   4.485   7.862   4.986  0.3033 -0.4535  1.0276
19175SOL    HW258814   4.375   7.780   5.049 -0.8273 -0.2939 -0.6847
19176SOL     OW58815   3.333   7.438   1.518  0.2655  0.1409 -0.5414
19176SOL    HW158816   3.361   7.393   1.438 -0.5029  0.3188 -0.9173
19176SOL    HW258817   3.395   7.510   1.528  1.0412 -0.5304 -0.3557
19177SOL     OW58818   5.412   2.780   1.095 -0.0264  0.1031 -0.1978
19177SOL    HW158819   5.397   2.799   1.002 -3.7184 -2.9442 -0.4727
19177SOL    HW258820   5.357   2.842   1.142  0.4948  0.5054 -0.1053
19178SOL     OW58821   8.033   3.051   8.685  0.3344 -0.8062 -0.0649
19178SOL    HW158822   8.097   3.121   8.681  0.0123 -0.5081 -0.0403
19178SOL    HW258823   8.027   3.019   8.595 -2.1640  1.6161 -0.9103
19179SOL     OW58824   7.139   1.648   7.266  0.3042  0.2728  0.1630
19179SOL    HW158825   7.155   1.565   7.221  1.1587 -0.0321  0.9946
19179SOL    HW258826   7.226   1.687   7.275  0.0296  0.7789  0.6922
19180SOL     OW58827   1.854   2.406   3.866 -0.1277  0.1103  0.3495
19180SOL    HW158828   1.895   2.334   3.818 -1.1391 -1.9201  2.3622
19180SOL    HW258829   1.925   2.469   3.880  1.4272 -1.5879  0.5604
19181SOL     OW58830   1.813   3.027   0.100  0.5232 -0.0303  0.3469
19181SOL    HW158831   1.765   3.074   0.168  0.6112 -0.1100  0.4644
19181SOL    HW258832   1.862   2.959   0.147  2.1585  1.1625  0.4667
19182SOL     OW58833   6.579   1.761   1.041  0.3956 -0.0238 -0.0434
19182SOL    HW158834   6.513   1.831   1.034  0.4352 -0.0258 -0.4528
19182SOL    HW258835   6.588   1.728   0.952  1.2422  0.2393 -0.0608
19183SOL     OW58836   2.970   2.011   5.380 -0.0537 -0.0067  0.3480
19183SOL    HW158837   2.939   1.924   5.406  1.5206  0.0075  2.5168
19183SOL    HW258838   3.035   2.034   5.446 -1.2889  3.3594  0.5665
19184SOL     OW58839   1.524   2.811   0.101 -0.1686  0.3351 -0.0162
19184SOL    HW158840   1.594   2.758   0.062 -0.6397 -0.5168  0.2762
19184SOL    HW258841   1.454   2.748   0.119 -0.9238  1.1468 -0.1009
19185SOL     OW58842   6.408   0.200   5.707  0.2328  0.5469  0.4395
19185SOL    HW158843   6.461   0.260   5.655 -0.0519  0.3324 -0.1118
19185SOL    HW258844   6.471   0.151   5.760  0.6736 -0.3185 -0.8385
19186SOL     OW58845   2.039   2.030   0.850 -0.2651  0.1725 -0.4220
19186SOL    HW158846   2.053   2.018   0.944  0.8898 -0.0916 -0.6167
19186SOL    HW258847   1.947   2.055   0.843 -1.0568 -2.1695  0.5818
19187SOL     OW58848   7.623   7.657   3.315 -0.5602  0.0483  0.1163
19187SOL    HW158849   7.606   7.746   3.284  0.0902 -0.0627 -0.5692
19187SOL    HW258850   7.718   7.651   3.320 -0.5854 -0.7212 -0.1651
19188SOL     OW58851   2.876   4.131   1.356  0.1243  0.1142 -0.3593
19188SOL    HW158852   2.951   4.074   1.340 -0.0784 -0.3087  0.1493
19188SOL    HW258853   2.806   4.093   1.302 -0.1528 -0.4386  0.3667
19189SOL     OW58854   3.556   7.871   0.013  0.8346  0.5570  0.7356
19189SOL    HW158855   3.478   7.911   0.051  1.5071 -0.2045  3.1475
19189SOL    HW258856   3.560   7.904  -0.076 -1.5787  1.5294  0.9208
19190SOL     OW58857   7.833   3.684   0.834 -0.2251 -0.1278  0.2506
19190SOL    HW158858   7.861   3.767   0.795 -0.6378 -0.4336 -0.7341
19190SOL    HW258859   7.739   3.696   0.848 -0.7137 -1.1368 -1.8305
19191SOL     OW58860   6.011   1.893   3.529  0.0226  0.1352  0.4191
19191SOL    HW158861   5.918   1.910   3.545 -0.4044 -1.9380  0.4465
19191SOL    HW258862   6.035   1.828   3.596  1.2135 -0.1766 -0.2803
19192SOL     OW58863   2.008   2.277   5.708  0.0701 -0.2479  0.5178
19192SOL    HW158864   2.076   2.210   5.714 -1.3498 -1.9744 -1.4248
19192SOL    HW258865   2.057   2.359   5.700  1.8978 -1.2440  0.8502
19193SOL     OW58866   5.837   4.547   5.906 -0.2962  0.0926  0.2624
19193SOL    HW158867   5.781   4.623   5.893  0.8346  0.9223  0.1332
19193SOL    HW258868   5.912   4.580   5.957  0.8419 -0.6258 -0.8909
19194SOL     OW58869   4.406   4.273   7.513  0.4268 -0.0643  0.1739
19194SOL    HW158870   4.350   4.232   7.579 -0.2764  2.0355  0.9739
19194SOL    HW258871   4.352   4.278   7.435  1.0993 -2.1078 -0.5104
19195SOL     OW58872   5.494   3.132   2.497 -0.6620 -0.0243 -0.4948
19195SOL    HW158873   5.546   3.069   2.448 -1.0274 -0.4820 -0.2979
19195SOL    HW258874   5.518   3.118   2.589 -0.9495 -0.0694 -0.4248
19196SOL     OW58875   1.637   3.163   0.280  0.0391  0.3668  0.1514
19196SOL    HW158876   1.611   3.238   0.226  3.0086  1.7738  0.4948
19196SOL    HW258877   1.656   3.200   0.366 -3.2245 -1.6296  1.9313
19197SOL     OW58878   4.122   6.845   2.930 -0.3174 -0.4650  0.1160
19197SOL    HW158879   4.139   6.912   2.863  0.0294 -1.3214 -0.6804
19197SOL    HW258880   4.097   6.894   3.008 -0.3445  0.5766 -0.5346
19198SOL     OW58881   3.347   0.032   8.164 -0.3379  0.1740 -0.1724
19198SOL    HW158882   3.308   0.015   8.079 -1.8527  2.4017 -0.0179
19198SOL    HW258883   3.285   0.091   8.207  1.2222  0.4870  1.7907
19199SOL     OW58884   2.672   1.005   3.374  0.4179  0.0664  0.4807
19199SOL    HW158885   2.652   0.974   3.286 -0.1071  3.0681 -0.5800
19199SOL    HW258886   2.591   0.992   3.423 -0.8686  2.4378 -0.8283
19200SOL     OW58887   4.251   5.429   3.819  0.6978 -0.0366  0.3925
19200SOL    HW158888   4.334   5.440   3.866  1.2719  2.6527 -1.0760
19200SOL    HW258889   4.241   5.509   3.768 -1.8258 -1.1549 -1.0575
19201SOL     OW58890   4.413   5.564   7.780  1.2417  0.2132  0.3081
19201SOL    HW158891   4.343   5.566   7.845  0.9900  0.6611  0.0302
19201SOL    HW258892   4.493   5.568   7.832  1.0345  1.1194  0.5863
19202SOL     OW58893   6.897   8.083   3.772  0.0932  0.1353  0.0837
19202SOL    HW158894   6.831   8.110   3.707  1.4389  1.2383 -0.8821
19202SOL    HW258895   6.979   8.117   3.737  1.2182 -1.3973  1.1658
19203SOL     OW58896   8.524   1.629   7.914  0.5014 -0.5739 -0.2750
19203SOL    HW158897   8.567   1.687   7.976  1.2665  1.7378 -2.7890
19203SOL    HW258898   8.455   1.586   7.966  0.5421  1.8155  1.9704
19204SOL     OW58899   1.028   4.247   0.788 -0.9808 -0.1266  0.2220
19204SOL    HW158900   1.101   4.309   0.794 -0.9978  0.1248 -1.5491
19204SOL    HW258901   1.047   4.181   0.855 -0.0257  0.8286  0.9270
19205SOL     OW58902   1.416   1.736   7.696  0.0388  0.4069  0.4719
19205SOL    HW158903   1.401   1.822   7.658  0.0132  0.1012 -0.2171
19205SOL    HW258904   1.397   1.674   7.626  0.7618 -0.1328  0.7363
19206SOL     OW58905   2.863   0.442   0.190  0.1372 -0.3596 -0.4023
19206SOL    HW158906   2.877   0.436   0.095 -1.1863  0.6812 -0.7086
19206SOL    HW258907   2.778   0.485   0.198  0.3348 -0.2245  1.2725
19207SOL     OW58908   6.427   0.223   3.771 -0.3285  0.3840 -0.1612
19207SOL    HW158909   6.343   0.267   3.782  0.5760  1.9795  0.6586
19207SOL    HW258910   6.480   0.254   3.844  0.3032 -2.3006  0.6522
19208SOL     OW58911   1.233   3.623   6.728 -0.4751 -0.0130  0.2322
19208SOL    HW158912   1.277   3.688   6.782  0.2357  0.1817 -0.5715
19208SOL    HW258913   1.301   3.559   6.707 -0.1032  1.0893 -2.3036
19209SOL     OW58914   3.728   7.662   3.324 -0.2606 -0.0679 -0.5066
19209SOL    HW158915   3.765   7.637   3.409  1.8579 -0.7790 -1.5770
19209SOL    HW258916   3.682   7.584   3.294  1.0448 -0.6525 -1.0549
19210SOL     OW58917   1.291   2.855   2.846  0.5121 -0.0284 -0.0928
19210SOL    HW158918   1.359   2.815   2.900 -0.6864 -0.7621  0.9411
19210SOL    HW258919   1.215   2.863   2.905 -0.1976  1.0960 -1.0944
19211SOL     OW58920   3.300   7.462   3.078 -0.1295  0.1350 -0.1385
19211SOL    HW158921   3.343   7.524   3.137 -0.1542  0.1244 -0.1091
19211SOL    HW258922   3.366   7.395   3.061 -0.5317 -0.5649  0.9208
19212SOL     OW58923   5.047   3.018   7.805  0.2281 -0.2297  0.2897
19212SOL    HW158924   5.045   3.071   7.884 -2.3476  0.2185  0.0160
19212SOL    HW258925   5.052   2.928   7.836  0.8390  0.0048  0.8867
19213SOL     OW58926   3.580   0.972   6.274 -0.3169 -0.4086 -0.1378
19213SOL    HW158927   3.513   1.019   6.323 -2.0065 -0.6464 -2.0945
19213SOL    HW258928   3.656   1.030   6.277 -0.2871 -0.4421  2.7095
19214SOL     OW58929   0.625   7.579   3.638  0.0971 -0.3692  0.2351
19214SOL    HW158930   0.623   7.507   3.702 -1.3823 -0.4486  0.1510
19214SOL    HW258931   0.659   7.539   3.558  0.6520 -0.6161  0.5880
19215SOL     OW58932   1.100   5.640   4.624  0.3650  0.1561  0.3857
19215SOL    HW158933   1.123   5.555   4.585 -1.8911  0.7523 -2.5880
19215SOL    HW258934   1.039   5.618   4.695  1.0050 -0.7306  0.6867
19216SOL     OW58935   4.156   6.677   7.136 -0.4323  0.0601  0.7915
19216SOL    HW158936   4.124   6.689   7.225  0.2711  0.3816  1.0121
19216SOL    HW258937   4.200   6.592   7.137 -1.2859 -0.3880  0.4856
19217SOL     OW58938   5.416   6.474   6.278 -0.7814  0.2717 -0.3302
19217SOL    HW158939   5.372   6.490   6.195  3.2939  2.1720 -2.3607
19217SOL    HW258940   5.483   6.409   6.259  0.9687  1.5267  1.1126
19218SOL     OW58941   5.307   8.502   8.184 -0.4850  0.4586 -0.0408
19218SOL    HW158942   5.285   8.593   8.203 -0.0097  1.1803 -2.5157
19218SOL    HW258943   5.397   8.506   8.150 -0.7963 -0.7859 -1.1009
19219SOL     OW58944   7.965   6.637   6.669 -0.0015  0.2436 -0.1759
19219SOL    HW158945   8.009   6.672   6.746 -1.0122  0.4714  0.3094
19219SOL    HW258946   7.872   6.652   6.685 -0.1526  1.7043 -2.1273
19220SOL     OW58947   0.777   4.725   7.057  0.0592  0.3298  0.5273
19220SOL    HW158948   0.833   4.787   7.012 -0.0493  0.1304  0.1158
19220SOL    HW258949   0.696   4.724   7.007  0.9762 -2.1226 -1.1015
19221SOL     OW58950   7.220   4.609   0.771 -0.2150 -0.3411  0.1049
19221SOL    HW158951   7.197   4.677   0.834  0.1803 -0.8725  0.8296
19221SOL    HW258952   7.196   4.647   0.686  0.0936  0.7505  0.4798
19222SOL     OW58953   5.388   2.471   6.822 -0.0997 -0.1282  0.4250
19222SOL    HW158954   5.411   2.397   6.765 -1.3579 -0.0441 -0.2195
19222SOL    HW258955   5.308   2.507   6.784 -0.2369  0.7572  1.4991
19223SOL     OW58956   6.535   7.476   5.870 -0.5445 -0.2012  0.2031
19223SOL    HW158957   6.452   7.434   5.895 -0.8523  0.7694  0.8494
19223SOL    HW258958   6.600   7.405   5.876 -1.3137 -0.9737 -0.3161
19224SOL     OW58959   3.688   2.111   2.309 -0.1875  0.4161 -0.3477
19224SOL    HW158960   3.631   2.171   2.260  0.3891 -0.7102 -2.5678
19224SOL    HW258961   3.629   2.064   2.368 -1.8133 -1.1472 -3.0004
19225SOL     OW58962   0.684   7.416   6.923 -0.2148 -0.2938 -0.0679
19225SOL    HW158963   0.676   7.362   6.845  0.5118  0.0987 -0.4224
19225SOL    HW258964   0.688   7.506   6.891  0.1828 -0.1333  0.4087
19226SOL     OW58965   6.757   0.939   5.226 -0.0665  0.1925  0.3744
19226SOL    HW158966   6.852   0.938   5.235  0.1026  1.3945 -0.9400
19226SOL    HW258967   6.740   0.875   5.156 -0.1963  0.1973  0.4022
19227SOL     OW58968   2.282   0.247   0.316  0.4483 -0.6639  0.6967
19227SOL    HW158969   2.360   0.300   0.335  0.1752  0.6147 -1.3726
19227SOL    HW258970   2.222   0.308   0.274 -0.4654 -2.3217 -0.5159
19228SOL     OW58971   5.041   6.102   1.810 -0.4747 -0.3459 -0.8171
19228SOL    HW158972   5.076   6.032   1.866  1.3163  0.9252 -0.2562
19228SOL    HW258973   5.017   6.058   1.729  0.0819 -1.7011 -0.2812
19229SOL     OW58974   7.733   1.855   0.146 -0.2401 -0.3177 -0.0184
19229SOL    HW158975   7.729   1.813   0.060  0.9357  0.3252 -0.4041
19229SOL    HW258976   7.728   1.783   0.209 -0.0038 -0.8770 -0.6394
19230SOL     OW58977   6.036   0.930   5.509  0.1269  0.0458  0.2480
19230SOL    HW158978   6.093   1.005   5.489  0.3690  0.0929  1.0890
19230SOL    HW258979   6.070   0.895   5.591  1.2938 -2.2349 -1.0915
19231SOL     OW58980   6.619   3.005   7.324 -0.1008  1.3064 -0.3199
19231SOL    HW158981   6.696   3.044   7.364  0.9525 -0.4437 -0.5250
19231SOL    HW258982   6.654   2.937   7.266 -1.8349 -1.0388  1.2138
19232SOL     OW58983   7.178   5.616   2.651 -0.0349 -0.0302 -0.4360
19232SOL    HW158984   7.249   5.623   2.586  0.1710  1.0244 -0.1204
19232SOL    HW258985   7.098   5.632   2.601  0.1049  0.5543 -0.4856
19233SOL     OW58986   8.402   6.711   7.168 -0.0873  0.2274 -0.2996
19233SOL    HW158987   8.495   6.691   7.180 -0.1729 -0.1014 -0.1675
19233SOL    HW258988   8.383   6.780   7.231  0.1257  0.4595 -0.4920
19234SOL     OW58989   1.415   1.657   5.270 -0.5318  0.0742  0.0526
19234SOL    HW158990   1.479   1.699   5.327 -1.2098 -1.1062  1.7830
19234SOL    HW258991   1.331   1.671   5.314 -0.9255 -1.8974  0.0255
19235SOL     OW58992   0.375   8.553   3.578 -0.2587 -0.3116 -0.3396
19235SOL    HW158993   0.399   8.617   3.512 -0.0635  0.3903  0.3941
19235SOL    HW258994   0.289   8.580   3.608  0.5419  0.6793  1.2059
19236SOL     OW58995   6.659   5.633   8.479 -0.2381 -0.0684  0.2768
19236SOL    HW158996   6.641   5.554   8.428  0.4159 -0.5655  0.8005
19236SOL    HW258997   6.615   5.704   8.431  0.1253 -0.5691 -0.8106
19237SOL     OW58998   1.552   6.827   4.924  0.0361 -0.5037 -0.5937
19237SOL    HW158999   1.601   6.752   4.890  1.0178 -0.7253  1.1936
19237SOL    HW259000   1.548   6.812   5.018  0.6929  1.9232 -0.1078
19238SOL     OW59001   3.719   4.524   4.748 -0.6756 -0.6274  0.0303
19238SOL    HW159002   3.681   4.497   4.664 -2.1682  0.1562  0.4141
19238SOL    HW259003   3.671   4.603   4.771  1.5929  0.7415  0.3431
19239SOL     OW59004   8.478   0.290   6.864  1.0663  0.4969 -0.2023
19239SOL    HW159005   8.438   0.377   6.871 -1.0639 -0.3795 -0.6594
19239SOL    HW259006   8.571   0.308   6.852  0.3701  2.8802 -3.7315
19240SOL     OW59007   7.511   3.293   6.497  0.3949 -0.2885 -0.0407
19240SOL    HW159008   7.579   3.271   6.561  0.9412 -2.0420 -1.1369
19240SOL    HW259009   7.560   3.335   6.426  0.3558 -1.4730 -0.7924
19241SOL     OW59010   7.235   4.749   6.416  0.6216  0.2185 -0.9406
19241SOL    HW159011   7.318   4.702   6.411  0.1272 -0.6314 -1.3578
19241SOL    HW259012   7.193   4.716   6.495 -0.0306 -0.5715 -1.6024
19242SOL     OW59013   5.534   7.830   2.097  0.0158  0.6494  0.2320
19242SOL    HW159014   5.607   7.795   2.046 -0.5006 -0.5588  0.2776
19242SOL    HW259015   5.575   7.873   2.172  0.7571  1.8698 -0.8201
19243SOL     OW59016   1.189   6.807   8.566  1.0300 -0.2250  0.0201
19243SOL    HW159017   1.124   6.869   8.534 -0.1916 -1.0748  0.7713
19243SOL    HW259018   1.256   6.862   8.607  1.9846  0.7972 -2.7368
19244SOL     OW59019   8.649   7.005   4.351 -0.4209  0.0642  0.4846
19244SOL    HW159020   8.668   6.924   4.398  1.3729  0.5228  0.5971
19244SOL    HW259021   8.714   7.068   4.383 -1.9509  1.6581  0.6192
19245SOL     OW59022   2.801   5.076   6.325  0.5919  0.0822 -0.3902
19245SOL    HW159023   2.713   5.101   6.297  0.6662 -0.7297 -1.4149
19245SOL    HW259024   2.797   4.981   6.334  1.3230  0.0588 -0.2824
19246SOL     OW59025   6.841   1.244   7.613  0.0978 -0.0260  0.0238
19246SOL    HW159026   6.873   1.301   7.682  0.1248  1.7934 -1.4115
19246SOL    HW259027   6.901   1.258   7.540 -1.2742 -0.0818 -1.1674
19247SOL     OW59028   7.609   5.457   8.293  0.0483  0.1215  0.3486
19247SOL    HW159029   7.580   5.366   8.290 -0.0135  0.1593 -0.2263
19247SOL    HW259030   7.687   5.459   8.239 -0.5649  0.6281 -0.5366
19248SOL     OW59031   0.278   3.426   0.761  0.1963  0.3932 -0.1386
19248SOL    HW159032   0.216   3.353   0.759  0.5151  0.0471  1.3588
19248SOL    HW259033   0.318   3.427   0.674  1.9322 -2.7935  0.4738
19249SOL     OW59034   7.074   3.483   5.851 -0.3020 -0.0247  0.3360
19249SOL    HW159035   7.018   3.559   5.863  1.1267  1.3781 -1.3329
19249SOL    HW259036   7.163   3.519   5.847  0.3397 -1.6193 -1.5008
19250SOL     OW59037   6.547   2.046   2.609 -0.2557 -0.3878  0.2759
19250SOL    HW159038   6.529   2.001   2.692 -0.7300 -0.9812 -0.1406
19250SOL    HW259039   6.634   2.083   2.620  0.0051 -1.1368  0.7539
19251SOL     OW59040   8.268   4.391   7.840 -0.0738  0.8487 -0.0637
19251SOL    HW159041   8.288   4.407   7.932  0.1342  0.6704 -0.0771
19251SOL    HW259042   8.332   4.443   7.792 -0.6192  1.4968 -0.1162
19252SOL     OW59043   5.526   0.614   6.842  0.5712  0.4416 -0.3910
19252SOL    HW159044   5.479   0.590   6.762 -1.6575  0.3528  0.8531
19252SOL    HW259045   5.508   0.707   6.854 -0.2393  0.1789  0.6520
19253SOL     OW59046   5.210   2.959   4.334  0.1676  0.4252 -0.1860
19253SOL    HW159047   5.150   3.008   4.389 -0.3796 -1.5344  1.0339
19253SOL    HW259048   5.224   3.016   4.258 -0.6470  2.3111  1.0093
19254SOL     OW59049   7.629   3.997   8.487 -0.0767  0.6506 -0.0056
19254SOL    HW159050   7.652   4.090   8.486 -0.2111  0.7327  1.8422
19254SOL    HW259051   7.710   3.951   8.465 -0.2383  1.1910 -1.9373
19255SOL     OW59052   2.516   1.600   8.217 -0.4811  0.1217 -0.2069
19255SOL    HW159053   2.492   1.631   8.129 -2.1607  0.1933  0.2352
19255SOL    HW259054   2.465   1.656   8.276 -0.0298 -0.4901  0.7817
19256SOL     OW59055   0.556   1.411   4.666  0.0400 -0.3755 -0.0962
19256SOL    HW159056   0.493   1.365   4.722  0.2093 -1.3058 -0.6411
19256SOL    HW259057   0.564   1.355   4.588  1.1065  0.0153 -0.2861
19257SOL     OW59058   0.464   7.731   1.997  0.0098 -0.1876 -0.7349
19257SOL    HW159059   0.481   7.785   1.920 -1.7349  0.9613 -0.3553
19257SOL    HW259060   0.459   7.641   1.964  4.1292 -0.4277 -1.2238
19258SOL     OW59061   3.061   8.663   2.116  0.5614 -0.1991 -0.1471
19258SOL    HW159062   3.084   8.572   2.096  0.8439 -0.6746  2.0673
19258SOL    HW259063   3.121   8.688   2.187 -1.5888  0.6166  1.4853
19259SOL     OW59064   7.325   0.243   1.184 -0.2867 -0.0655  0.0236
19259SOL    HW159065   7.314   0.330   1.145 -0.5711 -0.9903 -2.1035
19259SOL    HW259066   7.415   0.219   1.165  0.2570  0.3302  1.9304
19260SOL     OW59067   7.554   1.892   7.827 -0.6594 -0.0901 -0.4065
19260SOL    HW159068   7.500   1.819   7.858  1.4106 -1.5787 -0.1254
19260SOL    HW259069   7.586   1.934   7.906 -0.5085  0.1212 -0.5774
19261SOL     OW59070   6.853   6.638   1.845  0.2556  0.2388  0.3282
19261SOL    HW159071   6.838   6.685   1.927 -0.5029  0.1869  0.2283
19261SOL    HW259072   6.815   6.551   1.860 -2.5568  1.1121 -1.0061
19262SOL     OW59073   0.774   6.222   1.377 -0.0798  0.1314 -0.1862
19262SOL    HW159074   0.774   6.276   1.298  0.4528 -0.7228 -0.7752
19262SOL    HW259075   0.812   6.279   1.444  2.0667 -0.0387 -1.1849
19263SOL     OW59076   6.760   4.499   0.012 -0.1136  0.0569  0.2453
19263SOL    HW159077   6.818   4.426  -0.014  0.5540  0.9170 -0.8007
19263SOL    HW259078   6.800   4.576  -0.030 -1.5518  0.8087  0.2184
19264SOL     OW59079   4.036   6.020   5.144  0.0880  0.0651 -0.1350
19264SOL    HW159080   4.109   6.078   5.121 -0.1831  0.2131 -0.6334
19264SOL    HW259081   4.072   5.962   5.211  0.8965 -0.3644 -0.9209
19265SOL     OW59082   8.545   3.953   2.271 -0.2914  0.1444 -0.1496
19265SOL    HW159083   8.615   3.932   2.208  1.0644  1.3664  0.8685
19265SOL    HW259084   8.488   4.013   2.223 -0.0303  0.0118 -0.6400
19266SOL     OW59085   0.681   2.542   7.547 -0.2298 -0.2700 -0.8188
19266SOL    HW159086   0.740   2.561   7.621  1.6478  0.3353 -2.3742
19266SOL    HW259087   0.680   2.446   7.541 -2.1798 -0.4486  1.2867
19267SOL     OW59088   7.682   2.257   8.001 -0.1619  0.8385  0.1355
19267SOL    HW159089   7.687   2.161   7.994 -0.2870  0.6899  1.6973
19267SOL    HW259090   7.589   2.276   8.007 -0.0784  0.7776  2.5308
19268SOL     OW59091   7.103   3.038   1.978  0.4966  0.0291 -0.4563
19268SOL    HW159092   7.028   3.086   1.942 -1.6233 -2.3257  0.5218
19268SOL    HW259093   7.072   3.005   2.063  3.3106  0.4759  0.8620
19269SOL     OW59094   2.285   7.280   8.695  0.2063 -0.1075  0.3022
19269SOL    HW159095   2.261   7.367   8.728 -3.4961 -1.0077  0.4524
19269SOL    HW259096   2.274   7.286   8.600  1.6731  0.0149  0.1257
19270SOL     OW59097   3.911   8.534   1.461 -0.6948  0.1146  0.3618
19270SOL    HW159098   3.988   8.487   1.490  0.2128  0.4370 -1.3940
19270SOL    HW259099   3.921   8.622   1.497  1.3226  1.0426 -2.1842
19271SOL     OW59100   1.538   1.623   6.075  0.9606  0.2254  0.6749
19271SOL    HW159101   1.465   1.589   6.126  1.3220 -0.2438  0.8889
19271SOL    HW259102   1.549   1.560   6.003  1.6272 -0.1196  1.0675
19272SOL     OW59103   1.157   4.685   1.860 -0.6835  0.3173  0.2265
19272SOL    HW159104   1.230   4.747   1.867  0.1923 -0.7570  1.0481
19272SOL    HW259105   1.079   4.740   1.864  0.0563  1.3530  1.4946
19273SOL     OW59106   3.794   0.416   4.538 -0.2288 -0.5541 -0.0768
19273SOL    HW159107   3.771   0.505   4.512 -0.9439 -1.5162 -3.1297
19273SOL    HW259108   3.728   0.393   4.604 -0.5504  0.8579  0.1308
19274SOL     OW59109   7.803   3.843   2.025 -0.3841 -0.2538  0.2502
19274SOL    HW159110   7.808   3.931   2.062 -0.3076 -0.5593  0.9799
19274SOL    HW259111   7.807   3.784   2.101  1.5534 -0.9590 -0.3474
19275SOL     OW59112   3.176   2.813   4.328  0.1432 -0.3249 -0.1514
19275SOL    HW159113   3.126   2.763   4.394 -1.3740  0.2150 -0.8380
19275SOL    HW259114   3.209   2.889   4.376  1.1531 -1.1664  0.5364
19276SOL     OW59115   1.330   8.605   4.178 -0.4768 -0.0824 -0.0869
19276SOL    HW159116   1.389   8.680   4.170 -0.8456  0.4683  1.7869
19276SOL    HW259117   1.284   8.619   4.261 -2.7070 -0.8819 -1.0816
19277SOL     OW59118   1.549   1.405   7.454  0.1936  0.6188 -0.0814
19277SOL    HW159119   1.539   1.401   7.549  1.8861  1.5951  0.1839
19277SOL    HW259120   1.464   1.380   7.419 -0.2220 -0.5675  1.6766
19278SOL     OW59121   0.822   2.013   2.670  0.1614 -0.2152 -0.2351
19278SOL    HW159122   0.916   2.016   2.689  0.1668 -0.7059 -0.1768
19278SOL    HW259123   0.813   2.056   2.585  0.3048  0.7820  0.2288
19279SOL     OW59124   0.990   3.832   1.201 -0.1644  0.3193  0.0504
19279SOL    HW159125   0.949   3.749   1.178  0.6920 -0.5604  1.5704
19279SOL    HW259126   0.917   3.891   1.218 -0.7801 -0.3772 -0.1265
19280SOL     OW59127   5.384   1.929   8.656 -0.5662 -0.0432 -0.1893
19280SOL    HW159128   5.467   1.916   8.700  0.7759 -2.9212 -3.1693
19280SOL    HW259129   5.393   2.013   8.611  2.3790 -1.8229 -3.3489
19281SOL     OW59130   6.001   6.410   2.730 -0.0810 -0.3819 -0.2403
19281SOL    HW159131   5.991   6.447   2.818  1.8906  0.9252 -0.5003
19281SOL    HW259132   5.924   6.354   2.719 -0.1100 -1.0655  2.5422
19282SOL     OW59133   6.201   0.507   4.731 -0.2426  0.3181 -0.5596
19282SOL    HW159134   6.279   0.455   4.711  0.0353  1.2275 -2.0208
19282SOL    HW259135   6.231   0.571   4.795  0.2147  0.6475 -1.0944
19283SOL     OW59136   4.346   5.241   5.646 -0.4959 -0.1691 -0.4696
19283SOL    HW159137   4.391   5.225   5.563  0.5544  1.4544 -0.2579
19283SOL    HW259138   4.401   5.200   5.712 -0.0219  0.6467 -0.3468
19284SOL     OW59139   5.289   2.479   7.867 -0.6923  0.0636 -0.6562
19284SOL    HW159140   5.324   2.419   7.933  0.9046  2.5844  0.9715
19284SOL    HW259141   5.342   2.462   7.789  2.1524  1.5242  0.7918
19285SOL     OW59142   1.666   4.890   1.116  0.0350  0.2121  0.0482
19285SOL    HW159143   1.737   4.901   1.052  0.0542  0.3227  0.0871
19285SOL    HW259144   1.696   4.820   1.174  0.3285  0.5886  0.3570
19286SOL     OW59145   5.781   4.174   5.468  0.5966  0.1078 -1.0203
19286SOL    HW159146   5.806   4.228   5.542 -1.0877 -0.7055  0.2141
19286SOL    HW259147   5.847   4.104   5.466 -1.0109 -1.7086  1.8317
19287SOL     OW59148   1.272   3.877   4.115  0.6984  0.4806  0.0923
19287SOL    HW159149   1.263   3.874   4.211  2.6613  0.7538  0.3161
19287SOL    HW259150   1.257   3.787   4.087 -0.9212  0.5822  0.5183
19288SOL     OW59151   2.182   8.643   7.258 -0.1814  0.1863  0.1189
19288SOL    HW159152   2.189   8.548   7.252 -0.8246  0.0084  1.8177
19288SOL    HW259153   2.263   8.671   7.300  0.4784  0.5288 -1.3176
19289SOL     OW59154   4.356   3.654   1.711 -0.2334  0.0689 -0.1518
19289SOL    HW159155   4.337   3.699   1.629  0.2913  1.0934  0.2725
19289SOL    HW259156   4.451   3.656   1.718 -0.1898 -1.2716 -0.1984
19290SOL     OW59157   6.994   4.866   7.715 -0.2129 -0.0368  0.1660
19290SOL    HW159158   6.985   4.771   7.715 -1.4668 -0.0349  3.5261
19290SOL    HW259159   6.913   4.898   7.675  0.0854 -0.3361 -0.7047
19291SOL     OW59160   0.039   4.529   3.291  0.1993 -0.0697  0.3536
19291SOL    HW159161   0.104   4.519   3.221  0.3904  0.3902  0.4612
19291SOL    HW259162   0.057   4.457   3.352 -1.5323 -2.0205 -1.2696
19292SOL     OW59163   1.953   3.078   3.503  0.2719  0.1161  0.0707
19292SOL    HW159164   1.880   3.121   3.460 -0.6416 -1.0257  0.4255
19292SOL    HW259165   1.960   3.120   3.588 -0.8725 -0.6855  0.5744
19293SOL     OW59166   1.195   2.929   7.543 -0.5816  0.2603 -0.2814
19293SOL    HW159167   1.117   2.873   7.545  0.4294 -1.2036  0.3455
19293SOL    HW259168   1.245   2.898   7.468  0.0122  0.2750  0.0941
19294SOL     OW59169   6.963   6.813   6.305 -0.1057  0.1076 -0.6980
19294SOL    HW159170   6.999   6.873   6.370 -1.5771  0.2445  0.0378
19294SOL    HW259171   6.936   6.736   6.355  0.5429 -0.6213 -1.4408
19295SOL     OW59172   5.353   6.070   0.928 -0.1648 -0.1355 -0.6100
19295SOL    HW159173   5.418   6.006   0.900 -1.2053 -0.1811 -3.1969
19295SOL    HW259174   5.397   6.155   0.919  1.0268 -0.3401  2.2832
19296SOL     OW59175   2.189   7.187   8.051  0.2048  0.2468  0.6806
19296SOL    HW159176   2.094   7.192   8.042  0.3089 -0.2358 -0.8053
19296SOL    HW259177   2.223   7.237   7.978  1.1073 -0.0317  0.9004
19297SOL     OW59178   1.965   7.823   3.468 -0.0235 -0.6047  0.4273
19297SOL    HW159179   1.980   7.729   3.479  0.5410 -0.5817 -0.1289
19297SOL    HW259180   1.870   7.833   3.482 -0.0551 -1.2219  0.6975
19298SOL     OW59181   4.791   7.891   4.702 -0.7907  0.0144 -0.0932
19298SOL    HW159182   4.838   7.974   4.705  0.1726 -0.5175 -0.3658
19298SOL    HW259183   4.759   7.885   4.612 -0.8828  0.0920 -0.0666
19299SOL     OW59184   4.467   7.666   5.898  0.2727 -0.2087  0.0223
19299SOL    HW159185   4.539   7.670   5.961  0.2762 -1.7425  0.1585
19299SOL    HW259186   4.510   7.639   5.816 -0.2141 -1.9496  0.2981
19300SOL     OW59187   4.126   0.871   7.825 -0.1309 -0.4593  0.0920
19300SOL    HW159188   4.163   0.822   7.753 -1.7680 -0.5481 -0.7424
19300SOL    HW259189   4.114   0.807   7.895 -1.5205 -1.1184 -0.7163
19301SOL     OW59190   5.372   1.165   2.254  0.5441 -0.0186 -0.5568
19301SOL    HW159191   5.346   1.255   2.236  0.4803 -0.3811 -2.6535
19301SOL    HW259192   5.290   1.120   2.275  0.4450  0.2330 -0.4070
19302SOL     OW59193   0.412   5.785   3.125 -0.0199  1.2783  0.5203
19302SOL    HW159194   0.429   5.852   3.059  1.7164  0.3444 -0.0487
19302SOL    HW259195   0.350   5.725   3.082  0.9514  0.7798 -0.2334
19303SOL     OW59196   3.018   4.655   2.152  0.1155 -0.0076  0.4708
19303SOL    HW159197   3.021   4.695   2.239  0.6656 -0.1105  0.5057
19303SOL    HW259198   3.017   4.730   2.092 -0.5041  0.0653  0.5663
19304SOL     OW59199   0.338   0.575   6.441 -0.1300  0.4529  0.1411
19304SOL    HW159200   0.310   0.611   6.357 -2.1568 -0.9745  0.1283
19304SOL    HW259201   0.420   0.530   6.422 -0.2119  0.7189 -0.9093
19305SOL     OW59202   2.494   6.925   5.517 -0.1059  0.3049  0.1945
19305SOL    HW159203   2.416   6.894   5.564 -0.4825 -1.0878 -1.2451
19305SOL    HW259204   2.563   6.925   5.583 -0.8595 -0.4897  1.0195
19306SOL     OW59205   3.960   5.495   4.333  0.0670 -1.3361  0.2639
19306SOL    HW159206   4.007   5.436   4.393  0.5668 -0.8336  0.3687
19306SOL    HW259207   3.881   5.446   4.310 -0.3649 -1.3685  1.6871
19307SOL     OW59208   8.254   7.116   7.032  0.3554 -0.0793  0.0632
19307SOL    HW159209   8.208   7.161   7.103  1.3129  1.9654 -0.5305
19307SOL    HW259210   8.262   7.182   6.963  1.5680 -1.2732 -0.9929
19308SOL     OW59211   0.034   1.715   0.541 -0.2911 -0.0915 -0.0767
19308SOL    HW159212   0.009   1.636   0.494 -0.9658  0.0184  0.0736
19308SOL    HW259213  -0.019   1.784   0.500  1.8176  0.6873 -1.6379
19309SOL     OW59214   8.297   7.774   3.312  0.5356 -0.0466  0.0738
19309SOL    HW159215   8.289   7.832   3.389 -1.5311 -0.1569  0.0130
19309SOL    HW259216   8.289   7.686   3.348  1.8874 -0.2379 -0.0414
19310SOL     OW59217   8.546   1.229   4.266 -0.5527 -0.8330 -1.0228
19310SOL    HW159218   8.563   1.175   4.188  1.7990  0.6298 -1.6137
19310SOL    HW259219   8.599   1.188   4.335  0.5666  0.1800 -1.2584
19311SOL     OW59220   8.602   8.643   1.759 -0.2669 -0.5507 -0.3821
19311SOL    HW159221   8.510   8.664   1.743 -0.4169 -0.4917  0.5238
19311SOL    HW259222   8.611   8.643   1.854  0.6767 -0.5473 -0.4591
19312SOL     OW59223   8.021   1.529   8.381  0.3517  0.9277  0.2362
19312SOL    HW159224   8.070   1.553   8.460  0.7057 -1.0873  0.6879
19312SOL    HW259225   8.071   1.570   8.309  1.9801  0.0173  0.8015
19313SOL     OW59226   2.963   3.080   5.215 -0.3383  0.3820 -0.2643
19313SOL    HW159227   3.041   3.045   5.259 -0.8364 -0.7801 -0.2671
19313SOL    HW259228   2.947   3.018   5.144 -1.2603  0.6196 -0.2690
19314SOL     OW59229   8.605   8.220   4.653 -0.2700 -0.1271 -0.2442
19314SOL    HW159230   8.513   8.245   4.660 -0.7100 -1.6624 -0.0064
19314SOL    HW259231   8.615   8.150   4.718  1.5991  1.3836  1.1823
19315SOL     OW59232   1.668   2.296   3.159 -0.1370 -0.8810  0.0555
19315SOL    HW159233   1.749   2.246   3.173 -0.7935 -1.4686  2.0547
19315SOL    HW259234   1.600   2.229   3.147 -0.4642 -0.3911 -1.0058
19316SOL     OW59235   3.416   3.260   7.956 -0.1228 -0.0442 -0.1038
19316SOL    HW159236   3.446   3.200   8.024 -0.9996  1.7242  1.9720
19316SOL    HW259237   3.429   3.347   7.994  0.4686  1.0811 -2.7231
19317SOL     OW59238   7.418   2.736   0.459 -0.0847  0.3596  0.0888
19317SOL    HW159239   7.494   2.683   0.482  0.0257  0.4044 -0.1704
19317SOL    HW259240   7.436   2.767   0.370  0.3688  1.7664  0.6549
19318SOL     OW59241   5.576   6.416   0.512 -0.0700 -0.3754  0.1139
19318SOL    HW159242   5.603   6.372   0.432 -0.6978  0.2516 -0.4535
19318SOL    HW259243   5.594   6.353   0.582  1.1761 -0.6486 -0.4264
19319SOL     OW59244   3.269   7.364   8.687 -0.6337 -0.0268 -0.4479
19319SOL    HW159245   3.276   7.459   8.690 -2.3987  0.1141  0.2886
19319SOL    HW259246   3.216   7.341   8.764 -1.3231 -1.4718 -1.3040
19320SOL     OW59247   3.717   7.635   1.806 -0.0574  0.1266  0.0616
19320SOL    HW159248   3.751   7.546   1.799  1.2467  0.6496 -0.6038
19320SOL    HW259249   3.775   7.678   1.869 -1.6608  0.0925  1.6597
19321SOL     OW59250   7.782   1.581   1.501 -0.4492  0.3992 -0.1960
19321SOL    HW159251   7.697   1.618   1.476 -0.4970 -0.2426 -1.0252
19321SOL    HW259252   7.843   1.614   1.434 -0.0376  0.8283  0.3714
19322SOL     OW59253   4.294   6.422   7.141 -0.1682 -0.9177  0.4871
19322SOL    HW159254   4.309   6.337   7.182 -0.2586 -1.0668  0.2164
19322SOL    HW259255   4.374   6.472   7.157  0.2967 -1.4071 -0.2223
19323SOL     OW59256   5.149   4.438   7.984  0.0030  0.7030 -0.4623
19323SOL    HW159257   5.155   4.499   7.910  0.5700 -0.4814 -1.4283
19323SOL    HW259258   5.090   4.369   7.954 -0.7990  0.8522  0.6962
19324SOL     OW59259   0.226   8.245   0.218 -0.8332  0.7187  0.0577
19324SOL    HW159260   0.173   8.289   0.285  0.9608  1.0487  1.3533
19324SOL    HW259261   0.276   8.316   0.178 -0.2533  0.2443 -0.0680
19325SOL     OW59262   0.043   1.142   3.371  0.8467 -0.8221 -0.0455
19325SOL    HW159263  -0.037   1.129   3.422 -1.0057  3.5842 -1.3337
19325SOL    HW259264   0.044   1.069   3.309 -2.0147 -1.2378  0.2613
19326SOL     OW59265   3.060   1.734   8.029 -0.7576  0.5869  0.0249
19326SOL    HW159266   3.017   1.653   8.002  0.1505  0.5463 -1.3449
19326SOL    HW259267   3.038   1.742   8.122  1.0960 -2.5172  0.9011
19327SOL     OW59268   7.769   6.640   7.877  0.3717  0.1705 -0.0475
19327SOL    HW159269   7.814   6.607   7.799  1.8651  0.6422  0.5858
19327SOL    HW259270   7.693   6.583   7.887  1.8059 -1.8100 -0.0907
19328SOL     OW59271   0.625   2.794   1.092  0.5135  0.0960 -0.3353
19328SOL    HW159272   0.571   2.723   1.056  0.8611  0.1968 -1.0810
19328SOL    HW259273   0.690   2.749   1.147 -0.6761  0.0160  1.0566
19329SOL     OW59274   8.521   6.779   6.602  0.1808  0.4931  0.1607
19329SOL    HW159275   8.566   6.695   6.602 -2.9723 -1.3307 -0.5667
19329SOL    HW259276   8.588   6.842   6.574  2.6470 -1.6984  0.7329
19330SOL     OW59277   8.189   0.725   8.625  0.2620 -0.3487  0.3726
19330SOL    HW159278   8.193   0.635   8.592 -1.7108 -1.1436  2.0485
19330SOL    HW259279   8.237   0.777   8.561  1.6942 -2.6295 -0.4927
19331SOL     OW59280   8.231   4.076   6.165 -0.5684  0.0197 -0.2873
19331SOL    HW159281   8.268   4.161   6.190 -1.1301  0.4579 -0.9078
19331SOL    HW259282   8.176   4.052   6.240 -0.5798  0.3074 -0.1987
19332SOL     OW59283   0.972   2.062   7.651 -0.3043  0.0632 -0.2059
19332SOL    HW159284   1.018   2.131   7.698  0.1551 -1.6192  1.9492
19332SOL    HW259285   0.907   2.029   7.713 -1.5780 -0.4370 -1.7314
19333SOL     OW59286   8.649   8.117   4.383 -0.2761 -0.3409  0.5084
19333SOL    HW159287   8.629   8.038   4.433 -0.4150  0.2867  1.4605
19333SOL    HW259288   8.619   8.189   4.438 -2.4401  0.3161 -1.4045
19334SOL     OW59289   1.106   4.344   1.389 -0.1543 -0.3917  0.2496
19334SOL    HW159290   1.200   4.324   1.394  0.2756  1.5351  0.6378
19334SOL    HW259291   1.098   4.432   1.425 -1.9911 -0.1192 -0.6948
19335SOL     OW59292   4.251   4.162   7.719  0.4505 -0.1434  0.0769
19335SOL    HW159293   4.303   4.112   7.782  1.2300 -0.0506 -0.4715
19335SOL    HW259294   4.160   4.145   7.743  0.7277  0.3444  1.5890
19336SOL     OW59295   7.593   7.678   2.188 -0.2160 -0.0904 -0.2797
19336SOL    HW159296   7.499   7.695   2.182 -0.0663  0.9393  0.0558
19336SOL    HW259297   7.633   7.744   2.131  0.3242 -0.2853 -0.1358
19337SOL     OW59298   1.852   7.977   2.369  0.1278 -0.0989  0.4735
19337SOL    HW159299   1.875   8.013   2.454 -2.1353  0.4618  0.9205
19337SOL    HW259300   1.907   8.025   2.307  0.7643  0.5212  1.4951
19338SOL     OW59301   3.264   4.768   7.545 -0.4785  0.0339 -0.1288
19338SOL    HW159302   3.296   4.679   7.559 -0.4530  0.0814  0.1231
19338SOL    HW259303   3.194   4.779   7.609  0.6341  0.7664  0.9943
19339SOL     OW59304   8.149   0.220   1.154 -0.8658 -0.7728  0.1000
19339SOL    HW159305   8.165   0.126   1.152  0.9724 -0.5388  1.5872
19339SOL    HW259306   8.222   0.256   1.203 -1.6777  1.4234 -0.1957
19340SOL     OW59307   0.008   1.636   4.416  0.3650  0.2158 -0.7942
19340SOL    HW159308  -0.080   1.608   4.393 -0.3133  2.3004 -0.8698
19340SOL    HW259309   0.058   1.554   4.423 -1.4614 -0.9713 -1.1121
19341SOL     OW59310   6.777   6.994   0.711  0.4535  0.2944  0.1489
19341SOL    HW159311   6.711   6.982   0.643  0.6062  1.8649 -0.3144
19341SOL    HW259312   6.808   6.905   0.729 -1.8414 -0.5264  0.4835
19342SOL     OW59313   1.460   7.498   8.298 -0.1337  0.7796  0.0348
19342SOL    HW159314   1.534   7.456   8.253  0.0462  0.4718  0.6040
19342SOL    HW259315   1.456   7.586   8.261 -1.2465 -0.0816 -2.0235
19343SOL     OW59316   4.623   4.692   1.177 -0.2237 -0.1160 -0.7033
19343SOL    HW159317   4.690   4.732   1.232  0.4554 -0.3344 -1.3502
19343SOL    HW259318   4.665   4.614   1.140 -0.3569  0.4799 -2.1907
19344SOL     OW59319   4.068   2.567   3.752  0.4255 -0.2941  0.2046
19344SOL    HW159320   4.030   2.544   3.667  1.4624  0.4546 -0.4910
19344SOL    HW259321   4.153   2.606   3.730  0.0382  1.3548  1.4881
19345SOL     OW59322   8.617   2.131   2.454  0.5000 -0.0492  0.1159
19345SOL    HW159323   8.657   2.045   2.444  2.4415  0.8118 -0.2036
19345SOL    HW259324   8.618   2.147   2.549 -1.8264 -1.1894  0.3830
19346SOL     OW59325   0.674   4.822   5.419 -0.0413 -0.0985  0.9669
19346SOL    HW159326   0.639   4.786   5.501 -0.7620 -0.3441  0.5623
19346SOL    HW259327   0.618   4.898   5.400 -1.0847 -1.1100 -0.2370
19347SOL     OW59328   3.760   8.418   1.815  0.1387 -0.4375 -0.2211
19347SOL    HW159329   3.736   8.407   1.907  0.6561 -0.0094 -0.0303
19347SOL    HW259330   3.815   8.341   1.795  0.3361 -0.3386 -0.0634
19348SOL     OW59331   0.256   3.879   7.255  0.3350 -0.1984 -0.1877
19348SOL    HW159332   0.328   3.937   7.279  1.4724 -1.1710 -1.1601
19348SOL    HW259333   0.217   3.920   7.177  0.3318 -0.0811 -0.1246
19349SOL     OW59334   8.014   3.030   8.423 -0.0421 -0.5642 -0.0046
19349SOL    HW159335   8.005   3.118   8.387 -1.2579 -0.9895 -0.8234
19349SOL    HW259336   7.948   2.979   8.377  1.1796 -2.1024 -0.1377
19350SOL     OW59337   3.464   1.816   3.748  0.9172 -0.4911  0.2291
19350SOL    HW159338   3.443   1.810   3.841 -0.1025  2.4191  0.3027
19350SOL    HW259339   3.379   1.813   3.704  1.3590 -1.4173 -0.5961
19351SOL     OW59340   7.046   7.616   3.475 -0.3054 -0.5213 -0.2311
19351SOL    HW159341   7.112   7.549   3.493 -0.5921 -0.5491  0.7402
19351SOL    HW259342   6.967   7.566   3.451 -0.2777 -0.5109 -0.3442
19352SOL     OW59343   1.206   0.021   8.389  0.1294  0.3436 -0.3575
19352SOL    HW159344   1.245  -0.043   8.447  1.5451 -0.6016 -2.2501
19352SOL    HW259345   1.257   0.015   8.308 -1.7634  1.5515 -1.7306
19353SOL     OW59346   6.620   1.312   3.429  0.1596 -0.0049 -0.4609
19353SOL    HW159347   6.628   1.330   3.523 -0.6602 -0.3554 -0.3210
19353SOL    HW259348   6.567   1.384   3.395 -0.6781 -0.5852 -0.4102
19354SOL     OW59349   0.984   2.228   0.709 -0.1001  0.2797 -0.3495
19354SOL    HW159350   1.005   2.310   0.753  1.1754 -0.7851  1.1046
19354SOL    HW259351   0.919   2.186   0.766  1.0930 -0.8259  0.2282
19355SOL     OW59352   7.177   8.133   7.218  0.3087  0.3575 -0.1878
19355SOL    HW159353   7.255   8.100   7.263 -0.3773  0.6709  1.2931
19355SOL    HW259354   7.118   8.160   7.289 -1.2115 -0.0185 -1.2670
19356SOL     OW59355   4.504   4.760   7.691 -0.0644  0.2544  0.3519
19356SOL    HW159356   4.517   4.727   7.780  1.6884 -0.3032 -0.0708
19356SOL    HW259357   4.444   4.834   7.701  0.8052  0.7740  2.1317
19357SOL     OW59358   7.782   4.070   3.830 -0.2245  0.2915  0.1879
19357SOL    HW159359   7.800   4.097   3.920  0.8425  1.8461 -0.4545
19357SOL    HW259360   7.699   4.022   3.836  0.4334 -0.7251  2.1581
19358SOL     OW59361   3.903   3.225   5.938  0.1426 -0.2477 -0.1059
19358SOL    HW159362   3.851   3.279   5.878  0.4987 -0.4905 -0.6469
19358SOL    HW259363   3.906   3.275   6.019  2.6922  1.9121 -1.3631
19359SOL     OW59364   3.091   3.687   2.490  0.5534 -0.1073 -0.0141
19359SOL    HW159365   3.053   3.602   2.510 -0.7143  0.1899 -1.0129
19359SOL    HW259366   3.184   3.677   2.509  0.3565 -1.5805  0.2832
19360SOL     OW59367   2.342   2.992   4.383 -0.4696  0.3992  0.0173
19360SOL    HW159368   2.387   2.976   4.466  1.1246 -1.0596 -1.0478
19360SOL    HW259369   2.333   3.087   4.379  1.5657  0.6878  0.8224
19361SOL     OW59370   7.436   6.153   1.092 -0.3017  0.4502  0.5967
19361SOL    HW159371   7.395   6.179   1.010 -2.2065 -0.6441  1.1241
19361SOL    HW259372   7.443   6.234   1.143  0.3093  1.0262 -0.3914
19362SOL     OW59373   2.403   5.102   6.047  0.3715 -0.6220 -0.3568
19362SOL    HW159374   2.326   5.061   6.086  0.4358 -1.7047 -1.3245
19362SOL    HW259375   2.458   5.029   6.019  1.4983  0.1342 -0.1859
19363SOL     OW59376   0.418   0.984   2.130  0.4674  0.7283 -0.4120
19363SOL    HW159377   0.331   0.943   2.125  0.3132  1.0152 -0.1075
19363SOL    HW259378   0.462   0.956   2.050  0.7180 -0.8524  0.2270
19364SOL     OW59379   2.718   6.501   3.808  0.3835 -0.0215  0.2924
19364SOL    HW159380   2.659   6.456   3.868 -1.1182  2.2519  0.6582
19364SOL    HW259381   2.666   6.512   3.728 -0.0897  2.7176  0.8846
19365SOL     OW59382   5.744   0.180   7.715 -0.0680 -0.2039 -0.0056
19365SOL    HW159383   5.654   0.148   7.719 -0.0953 -0.2580 -0.8891
19365SOL    HW259384   5.740   0.267   7.756  0.0616 -1.3449  2.6512
19366SOL     OW59385   0.602   1.898   3.753  0.1740  0.0491  0.1839
19366SOL    HW159386   0.572   1.947   3.829  0.0785  0.9347 -0.4129
19366SOL    HW259387   0.696   1.890   3.764  0.1075 -0.1833  0.5962
19367SOL     OW59388   7.942   2.310   5.072 -0.2615  0.5888 -0.3524
19367SOL    HW159389   7.898   2.360   5.141  3.3664  0.3289  2.4963
19367SOL    HW259390   7.983   2.377   5.017  3.3778  1.1561  2.6149
19368SOL     OW59391   0.512   7.937   1.819  0.5619  0.2288 -0.1431
19368SOL    HW159392   0.533   8.009   1.877  3.1600 -1.0942  0.7243
19368SOL    HW259393   0.416   7.940   1.810  0.1728  1.2451  3.1807
19369SOL     OW59394   1.930   2.269   7.388  0.7665 -0.5756 -0.3585
19369SOL    HW159395   1.966   2.297   7.472 -0.9894  0.4784  0.0920
19369SOL    HW259396   1.942   2.345   7.331 -2.1473  0.5059  0.2854
19370SOL     OW59397   1.984   3.078   2.651 -0.5280 -0.0040 -0.0344
19370SOL    HW159398   2.004   3.163   2.689 -1.4177  0.2240 -0.0433
19370SOL    HW259399   2.068   3.044   2.621 -0.3322  1.5118 -1.3536
19371SOL     OW59400   4.568   3.992   6.847  0.0386 -0.3011  0.0111
19371SOL    HW159401   4.662   4.004   6.843 -0.0884  0.8870  0.4119
19371SOL    HW259402   4.544   3.962   6.760  0.6464  0.4422 -0.4210
19372SOL     OW59403   6.105   1.430   6.297 -0.1860  0.7076 -0.3362
19372SOL    HW159404   6.180   1.486   6.315  0.9115 -0.4390 -1.1841
19372SOL    HW259405   6.049   1.440   6.374  1.0669  1.2039  0.5489
19373SOL     OW59406   2.570   6.748   8.003 -0.3608  0.3787 -0.0850
19373SOL    HW159407   2.624   6.766   7.926  0.7989 -1.1550  0.3280
19373SOL    HW259408   2.569   6.831   8.051 -1.5908  1.5577 -1.9694
19374SOL     OW59409   7.119   0.505   5.715 -0.2958  0.0296 -0.7090
19374SOL    HW159410   7.204   0.469   5.689  0.6703  0.5627  1.5186
19374SOL    HW259411   7.125   0.598   5.696  0.1728  0.3088  0.7130
19375SOL     OW59412   4.729   0.489   1.352  0.1903  0.3788  0.2064
19375SOL    HW159413   4.638   0.505   1.326 -0.7856 -1.2587  2.3744
19375SOL    HW259414   4.748   0.558   1.416  0.7729  1.1433 -0.7490
19376SOL     OW59415   7.620   4.553   0.913 -0.2283 -0.1539 -0.0800
19376SOL    HW159416   7.551   4.525   0.973  0.4697 -0.0757  0.7931
19376SOL    HW259417   7.633   4.646   0.932 -0.0160 -0.1237 -0.3613
19377SOL     OW59418   5.886   2.413   8.449 -0.8608 -0.6178  0.3004
19377SOL    HW159419   5.804   2.365   8.436 -0.7078 -0.6967 -0.4315
19377SOL    HW259420   5.911   2.394   8.539 -0.6523 -2.1539 -0.0675
19378SOL     OW59421   7.287   6.777   4.212  0.5931 -0.3200 -0.0442
19378SOL    HW159422   7.261   6.686   4.196 -0.8275  0.1847 -0.8229
19378SOL    HW259423   7.378   6.772   4.238 -0.0574 -2.1859  2.2405
19379SOL     OW59424   4.714   5.242   6.738  0.0040  0.1063 -0.7847
19379SOL    HW159425   4.682   5.263   6.650 -0.1328  2.7615 -0.1878
19379SOL    HW259426   4.780   5.174   6.724 -0.0965  0.3756 -2.9318
19380SOL     OW59427   1.512   3.451   6.918  0.1361  0.1246 -0.4525
19380SOL    HW159428   1.503   3.444   6.823  1.3116 -0.1198 -0.5639
19380SOL    HW259429   1.529   3.362   6.947  1.5767  0.4439 -0.2442
19381SOL     OW59430   7.651   2.473   6.327  0.2991  0.5992  0.4523
19381SOL    HW159431   7.668   2.401   6.388  2.2414  0.6662  0.0704
19381SOL    HW259432   7.632   2.548   6.383 -0.7050  0.0316  0.8810
19382SOL     OW59433   2.741   5.026   7.056 -0.8201 -0.5934  0.2774
19382SOL    HW159434   2.804   5.052   6.989 -0.9364 -1.1650 -0.0593
19382SOL    HW259435   2.792   4.972   7.117 -0.6993 -0.0219  0.6910
19383SOL     OW59436   3.919   6.485   1.886 -0.3175  0.5809 -0.1072
19383SOL    HW159437   3.833   6.451   1.859  0.0174 -1.2232  0.9269
19383SOL    HW259438   3.982   6.438   1.832  0.0512  3.6196 -2.6105
19384SOL     OW59439   5.763   0.878   1.247  0.2280  0.5787 -0.2644
19384SOL    HW159440   5.826   0.868   1.318  0.2697  0.2501 -0.3465
19384SOL    HW259441   5.750   0.973   1.239 -1.0437  0.5790  1.2874
19385SOL     OW59442   5.493   4.479   0.696  0.3851  0.3587 -0.1123
19385SOL    HW159443   5.517   4.453   0.607 -1.0998 -0.4974 -0.3032
19385SOL    HW259444   5.550   4.427   0.752 -0.3454 -1.0060 -0.5620
19386SOL     OW59445   6.769   2.779   2.066  0.3155 -0.1643  0.3951
19386SOL    HW159446   6.864   2.783   2.069  0.3878  0.9524 -1.5657
19386SOL    HW259447   6.739   2.832   2.140  1.1705 -1.2617  1.5705
19387SOL     OW59448   5.451   5.888   5.758 -0.3917 -0.7382 -0.6245
19387SOL    HW159449   5.376   5.903   5.817  0.9475 -2.0981  1.5438
19387SOL    HW259450   5.445   5.795   5.736 -0.8985 -0.2392 -2.7928
19388SOL     OW59451   0.794   2.238   3.024  0.2093 -0.2503  0.2111
19388SOL    HW159452   0.881   2.221   3.060  0.5017  0.9918  0.1087
19388SOL    HW259453   0.810   2.270   2.936 -0.1323  2.9763  1.1988
19389SOL     OW59454   4.585   4.453   6.349  0.3448  0.2479  0.0852
19389SOL    HW159455   4.655   4.514   6.327  0.1954 -0.1825 -1.7325
19389SOL    HW259456   4.621   4.367   6.332 -0.7223  0.0382 -1.3419
19390SOL     OW59457   6.393   7.732   0.418  0.1674 -0.4507 -0.2676
19390SOL    HW159458   6.298   7.720   0.414 -0.1432  1.7481 -1.2788
19390SOL    HW259459   6.429   7.649   0.389 -1.5588 -0.4326 -2.7909
19391SOL     OW59460   3.941   2.146   3.767  0.2138  0.6887  0.1241
19391SOL    HW159461   4.006   2.205   3.727  0.8365  0.1558  0.3253
19391SOL    HW259462   3.994   2.077   3.807 -0.5365 -0.9322 -1.5579
19392SOL     OW59463   2.265   1.229   7.792  0.6641  0.1855 -0.2567
19392SOL    HW159464   2.347   1.179   7.796 -0.1404 -1.1884 -0.0577
19392SOL    HW259465   2.197   1.164   7.809 -0.4825  1.2792 -0.5081
19393SOL     OW59466   2.892   1.610   1.242  0.2562  0.2228 -0.2082
19393SOL    HW159467   2.827   1.617   1.172  0.9699 -1.3310 -1.0824
19393SOL    HW259468   2.936   1.695   1.242 -0.3552  0.5621 -1.0453
19394SOL     OW59469   5.413   2.471   1.131  0.4970 -0.1388 -0.2689
19394SOL    HW159470   5.428   2.565   1.126  0.3453  0.0947  2.2859
19394SOL    HW259471   5.380   2.447   1.044 -0.9259  2.4384 -0.5357
19395SOL     OW59472   2.403   2.548   4.998  0.0929  0.2717  0.3475
19395SOL    HW159473   2.457   2.537   5.075 -0.8927 -0.9660  0.9017
19395SOL    HW259474   2.341   2.618   5.021 -0.0084  0.1080  0.5756
19396SOL     OW59475   6.052   8.245   1.469 -0.2879 -0.4464 -0.0032
19396SOL    HW159476   6.081   8.180   1.404  0.2991  1.5923 -1.9448
19396SOL    HW259477   6.118   8.314   1.463 -0.7501  0.2355  2.1653
19397SOL     OW59478   7.482   0.634   4.204  0.4992 -0.3430 -0.7805
19397SOL    HW159479   7.537   0.709   4.230  0.1233  0.1258 -1.3018
19397SOL    HW259480   7.545   0.566   4.179  0.8515  0.1136 -1.1635
19398SOL     OW59481   4.798   0.239   8.366  0.2433  0.0034 -0.6376
19398SOL    HW159482   4.797   0.207   8.457  1.2506  2.1281  0.1747
19398SOL    HW259483   4.706   0.255   8.346  0.0945  0.7022  0.4936
19399SOL     OW59484   1.344   7.830   1.357 -0.3659 -0.1271 -0.7517
19399SOL    HW159485   1.352   7.922   1.333  3.2031 -0.3293 -0.7655
19399SOL    HW259486   1.356   7.830   1.452 -1.0998 -0.5299 -0.6561
19400SOL     OW59487   1.790   4.300   1.013  0.1557 -0.3522 -0.0305
19400SOL    HW159488   1.703   4.266   1.033 -0.0505  0.0144 -0.3103
19400SOL    HW259489   1.780   4.346   0.930  0.8119 -1.0546 -0.4985
19401SOL     OW59490   6.213   5.590   2.316  0.3890 -0.5627  0.2378
19401SOL    HW159491   6.143   5.539   2.274  0.8966 -1.2215  0.1636
19401SOL    HW259492   6.168   5.643   2.381 -0.3082 -0.1754 -0.5301
19402SOL     OW59493   2.561   1.269   5.566  0.9749 -0.4933 -0.6341
19402SOL    HW159494   2.634   1.311   5.521 -0.5069  1.6162 -1.1882
19402SOL    HW259495   2.593   1.256   5.656  2.5980 -1.2145 -1.2775
19403SOL     OW59496   1.966   7.252   4.624 -0.3479 -0.2322 -0.4334
19403SOL    HW159497   2.056   7.221   4.608 -0.9118 -2.2812  0.0732
19403SOL    HW259498   1.912   7.197   4.567 -1.5084 -1.0140  1.3412
19404SOL     OW59499   1.113   5.952   4.688 -0.6705 -0.3508 -0.2939
19404SOL    HW159500   1.184   6.002   4.648  0.9063 -1.7017  0.6784
19404SOL    HW259501   1.119   5.865   4.648 -1.2969 -0.6960  0.3379
19405SOL     OW59502   4.418   7.328   3.804 -0.3858 -0.3497 -0.4966
19405SOL    HW159503   4.465   7.394   3.855 -0.6324  0.5583 -1.4108
19405SOL    HW259504   4.486   7.285   3.753 -0.2839 -0.5134 -0.2290
19406SOL     OW59505   5.494   2.977   3.685  0.3596  0.2666  0.1573
19406SOL    HW159506   5.584   2.971   3.652  1.3315  1.3117  2.4054
19406SOL    HW259507   5.449   3.031   3.621  1.5097  0.3059 -0.6612
19407SOL     OW59508   5.421   2.206   3.811 -0.0096  0.4536  0.2768
19407SOL    HW159509   5.487   2.169   3.752  0.0537  1.7482 -0.5205
19407SOL    HW259510   5.452   2.295   3.829 -0.5344  0.4094  1.4975
19408SOL     OW59511   8.707   8.138   6.302  0.0805 -0.2435 -0.1265
19408SOL    HW159512   8.654   8.166   6.228 -1.5534  2.3301  1.8224
19408SOL    HW259513   8.783   8.196   6.301  1.8218 -2.3669 -1.5357
19409SOL     OW59514   4.645   6.038   7.787 -0.0415  0.4927 -0.3335
19409SOL    HW159515   4.556   6.019   7.818  0.0240 -0.6037 -0.7714
19409SOL    HW259516   4.702   6.004   7.855  0.0558  1.9302  0.3390
19410SOL     OW59517   3.413   7.876   6.226 -0.1303  0.5916 -0.2493
19410SOL    HW159518   3.508   7.870   6.211 -0.3370  0.3713 -1.5506
19410SOL    HW259519   3.404   7.946   6.290  0.9302  0.4427  0.0884
19411SOL     OW59520   7.824   1.980   5.419 -0.4430 -0.2414  0.6464
19411SOL    HW159521   7.909   1.937   5.409 -0.6156 -0.2089 -1.4121
19411SOL    HW259522   7.844   2.063   5.463  0.8051  0.3041 -0.8490
19412SOL     OW59523   5.435   5.126   6.797 -0.8092 -0.4858 -0.3682
19412SOL    HW159524   5.518   5.083   6.813 -1.3259 -1.1764  0.5834
19412SOL    HW259525   5.395   5.135   6.884 -0.6904  2.0152 -0.4914
19413SOL     OW59526   4.979   1.399   2.782  0.0160  0.0998 -0.6595
19413SOL    HW159527   5.034   1.418   2.857 -1.3862  2.2912 -0.0892
19413SOL    HW259528   4.968   1.304   2.784 -0.6969  0.1292  2.4972
19414SOL     OW59529   7.297   6.586   6.040 -0.5700 -0.1158  0.0831
19414SOL    HW159530   7.340   6.672   6.040 -1.2220  0.2213  0.1143
19414SOL    HW259531   7.337   6.539   6.114 -0.1115  0.1068 -0.0181
19415SOL     OW59532   5.755   6.417   5.931 -0.0774  0.2672 -0.3832
19415SOL    HW159533   5.787   6.353   5.994 -0.3769 -2.2046 -2.5732
19415SOL    HW259534   5.835   6.457   5.895  0.2066 -0.2178 -0.3037
19416SOL     OW59535   6.241   6.776   5.319 -0.4760 -0.3227  0.3160
19416SOL    HW159536   6.334   6.792   5.336 -0.1175 -1.6016 -0.3327
19416SOL    HW259537   6.196   6.838   5.375  0.7656  2.5386 -1.6207
19417SOL     OW59538   0.364   7.222   1.086  0.3253  0.7940  0.5750
19417SOL    HW159539   0.326   7.174   1.013 -0.8786 -0.0562  1.7055
19417SOL    HW259540   0.454   7.241   1.058  0.4246 -0.9499 -0.4666
19418SOL     OW59541   6.305   1.323   4.160 -0.1398 -0.1298  0.9162
19418SOL    HW159542   6.282   1.390   4.095 -0.6104 -0.8847  0.2833
19418SOL    HW259543   6.399   1.335   4.174 -0.4283  1.4407  1.7259
19419SOL     OW59544   7.951   6.790   4.765  0.1911  0.1326  0.0274
19419SOL    HW159545   8.017   6.780   4.833  2.6535 -1.6275 -2.3993
19419SOL    HW259546   7.926   6.882   4.770  2.8101  0.8796  1.1165
19420SOL     OW59547   5.889   8.040   3.384  0.6068 -0.0020 -0.0604
19420SOL    HW159548   5.848   8.046   3.298  1.2188 -0.4993 -0.4000
19420SOL    HW259549   5.890   7.946   3.404  0.9887  0.0566  0.2190
19421SOL     OW59550   3.016   5.021   8.228  0.2440  0.2963  0.1149
19421SOL    HW159551   2.933   5.053   8.193 -1.1634 -3.5286 -0.5291
19421SOL    HW259552   3.083   5.060   8.171 -1.5416 -0.5465 -2.7560
19422SOL     OW59553   3.790   1.850   4.938 -0.1030 -0.2614 -0.0133
19422SOL    HW159554   3.702   1.888   4.936  0.2764  0.6300 -0.1334
19422SOL    HW259555   3.784   1.772   4.884 -0.7092  0.0493 -0.3966
19423SOL     OW59556   0.462   0.964   7.219  0.5900 -0.3692 -0.0393
19423SOL    HW159557   0.378   1.009   7.226 -0.1022 -1.5892 -0.1726
19423SOL    HW259558   0.523   1.019   7.268 -0.3555  0.3683  0.3381
19424SOL     OW59559   0.859   5.289   2.684 -0.1317  0.6709 -0.1056
19424SOL    HW159560   0.874   5.266   2.776 -0.6400  1.7242  0.2606
19424SOL    HW259561   0.942   5.330   2.656 -0.7972  2.6864  0.6767
19425SOL     OW59562   0.641   6.997   2.470 -0.3783 -0.1001  0.3326
19425SOL    HW159563   0.687   7.057   2.412 -0.0555  0.5462  1.2370
19425SOL    HW259564   0.584   6.947   2.412  0.6163 -0.1294 -0.6621
19426SOL     OW59565   6.062   5.393   1.238 -0.1578  0.4269 -0.4721
19426SOL    HW159566   6.154   5.419   1.239  0.1211 -0.5350  0.3785
19426SOL    HW259567   6.046   5.358   1.326 -0.9736 -0.6531 -1.0235
19427SOL     OW59568   5.224   4.890   7.679  0.4322 -0.0375  0.0892
19427SOL    HW159569   5.184   4.953   7.620 -0.3577  0.4668  1.1477
19427SOL    HW259570   5.161   4.819   7.686  0.0731  0.3661  1.0960
19428SOL     OW59571   7.011   0.958   8.432 -0.3838  0.0493  0.7835
19428SOL    HW159572   6.961   0.925   8.507  0.1283 -1.5381  0.4636
19428SOL    HW259573   7.058   0.881   8.399 -2.9624 -0.1378 -3.1372
19429SOL     OW59574   1.087   4.203   0.426 -0.4116  0.0035 -0.3729
19429SOL    HW159575   1.160   4.212   0.366 -1.0631 -0.2387 -1.2127
19429SOL    HW259576   1.086   4.285   0.476  0.8003 -0.2359  0.0895
19430SOL     OW59577   4.073   1.133   6.408  0.0399  0.2529  0.1064
19430SOL    HW159578   4.167   1.147   6.422  0.3695 -0.2466 -1.4167
19430SOL    HW259579   4.050   1.063   6.468  0.9604 -0.5531 -0.4481
19431SOL     OW59580   5.770   0.879   5.578  0.3277 -0.1573 -0.2651
19431SOL    HW159581   5.773   0.966   5.617  1.8191 -0.4763  0.4186
19431SOL    HW259582   5.836   0.881   5.509  0.1672 -0.6692 -0.4420
19432SOL     OW59583   5.322   7.391   2.322 -0.0474 -0.2019  0.0606
19432SOL    HW159584   5.248   7.397   2.382  0.2462  0.1597  0.3970
19432SOL    HW259585   5.395   7.427   2.372  0.2444 -0.0934 -0.4428
19433SOL     OW59586   3.210   8.480   6.080  0.6433 -0.3497  0.3451
19433SOL    HW159587   3.297   8.508   6.106  1.1908  0.3268 -1.9532
19433SOL    HW259588   3.150   8.529   6.136  1.7193  0.3807  0.8763
19434SOL     OW59589   5.174   3.768   0.330  0.2197 -0.2971 -0.0222
19434SOL    HW159590   5.221   3.686   0.312 -0.6641 -1.0776  1.0593
19434SOL    HW259591   5.207   3.829   0.265  2.4884 -0.8866  0.4874
19435SOL     OW59592   2.056   8.329   7.500  0.0122 -0.1662 -0.5745
19435SOL    HW159593   1.979   8.359   7.549 -0.6247 -2.8994  0.2701
19435SOL    HW259594   2.115   8.295   7.566  0.6026 -0.8855 -1.4504
19436SOL     OW59595   1.354   8.521   1.279  0.3085  0.3766 -0.6618
19436SOL    HW159596   1.389   8.433   1.273 -1.4755 -0.2899 -2.3406
19436SOL    HW259597   1.414   8.576   1.230  1.3777  0.1194  0.3202
19437SOL     OW59598   6.878   4.417   5.027  0.4303  0.1554  0.0832
19437SOL    HW159599   6.866   4.362   5.104 -0.7157 -0.0616 -0.2324
19437SOL    HW259600   6.972   4.435   5.025  0.4583  0.3362  1.6311
19438SOL     OW59601   3.275   1.875   8.679  0.0499  0.1375  0.8347
19438SOL    HW159602   3.268   1.830   8.763 -1.0251  1.2855  1.3998
19438SOL    HW259603   3.359   1.921   8.683  0.0542  0.0980  1.2356
19439SOL     OW59604   2.080   3.744   5.326 -0.0299 -0.5671 -0.1852
19439SOL    HW159605   2.033   3.805   5.382 -2.2280 -0.9888 -1.4581
19439SOL    HW259606   2.143   3.701   5.384  1.0024  2.2395  0.9174
19440SOL     OW59607   8.656   8.703   2.548 -0.6127 -0.0585  0.4425
19440SOL    HW159608   8.690   8.675   2.633 -1.2500 -0.7266  0.4842
19440SOL    HW259609   8.583   8.762   2.570 -0.6693 -0.0962  0.3552
19441SOL     OW59610   0.926   3.083   3.766  0.4133 -0.0563  0.1384
19441SOL    HW159611   0.975   3.001   3.768 -1.8776 -1.5726 -1.1686
19441SOL    HW259612   0.927   3.114   3.856  4.7223  0.7639  0.0593
19442SOL     OW59613   0.641   5.363   1.982 -0.2803  0.2224 -0.2008
19442SOL    HW159614   0.663   5.373   1.890  2.4415 -0.8180  0.2457
19442SOL    HW259615   0.682   5.439   2.025  0.1593 -0.3240  0.3598
19443SOL     OW59616   6.444   8.193   2.805 -0.2055  0.2044 -0.9649
19443SOL    HW159617   6.433   8.178   2.711  0.8296  1.2544 -1.2836
19443SOL    HW259618   6.525   8.148   2.827 -0.8403 -0.6845 -0.3915
19444SOL     OW59619   2.296   2.362   6.772 -0.1001 -0.2793  0.0455
19444SOL    HW159620   2.261   2.351   6.860  1.4754  0.3419  0.7857
19444SOL    HW259621   2.245   2.435   6.735  1.9981  2.4086  2.0575
19445SOL     OW59622   1.642   1.292   4.907  0.2917 -0.2604  0.2240
19445SOL    HW159623   1.704   1.319   4.975  0.5643  0.8741 -0.4688
19445SOL    HW259624   1.695   1.280   4.829 -0.2403 -0.1084 -0.1669
19446SOL     OW59625   1.130   6.611   1.016  0.9420  0.4162  0.1803
19446SOL    HW159626   1.053   6.593   1.070 -0.5210 -0.7338 -2.1013
19446SOL    HW259627   1.136   6.706   1.013 -0.9305  0.5633 -0.2251
19447SOL     OW59628   2.549   8.687   1.403 -0.7689  0.1635 -0.4708
19447SOL    HW159629   2.601   8.640   1.468 -0.1698  1.8258  0.2914
19447SOL    HW259630   2.590   8.665   1.319  1.7803  2.0750  0.1560
19448SOL     OW59631   2.081   5.301   6.278 -0.2804  0.0315  0.0955
19448SOL    HW159632   2.124   5.386   6.289  0.5489 -0.1177 -1.7035
19448SOL    HW259633   2.007   5.304   6.338  0.2384  1.6784  0.7096
19449SOL     OW59634   7.613   3.041   8.038  0.6849 -0.4270  0.2170
19449SOL    HW159635   7.658   3.063   8.120 -0.4092 -1.2060  1.0607
19449SOL    HW259636   7.625   2.947   8.028 -2.8403 -1.2450  1.9138
19450SOL     OW59637   2.911   4.637   8.362  0.2923 -0.3941  0.6515
19450SOL    HW159638   2.994   4.624   8.317 -0.0501 -0.5330  0.0457
19450SOL    HW259639   2.934   4.682   8.443  0.8596  0.3765  0.0754
19451SOL     OW59640   6.945   1.398   5.111 -0.8699 -0.6973  0.5662
19451SOL    HW159641   6.917   1.445   5.033  0.4952  0.4436  0.7151
19451SOL    HW259642   6.893   1.435   5.182 -1.5406 -1.1664  0.3257
19452SOL     OW59643   7.978   6.289   7.294 -0.0823  0.4357 -0.0196
19452SOL    HW159644   7.939   6.366   7.333  3.0766  1.5737  1.1450
19452SOL    HW259645   7.990   6.312   7.202  0.3273  1.1262  0.2032
19453SOL     OW59646   7.522   4.900   1.109 -0.0117  0.1159 -0.2636
19453SOL    HW159647   7.445   4.866   1.154  0.6215 -0.5277  0.3594
19453SOL    HW259648   7.488   4.968   1.050 -1.0107  0.0455  0.2190
19454SOL     OW59649   0.725   2.277   7.252 -0.1276 -0.5412 -0.0685
19454SOL    HW159650   0.723   2.290   7.157 -0.6005 -1.0567 -0.1311
19454SOL    HW259651   0.635   2.288   7.280 -0.0728 -0.9034  0.2527
19455SOL     OW59652   8.318   7.977   7.839  0.1309 -0.3302 -0.0653
19455SOL    HW159653   8.285   8.067   7.833  0.8969 -0.0369  0.0309
19455SOL    HW259654   8.385   7.971   7.771  1.5965 -0.1483  1.2971
19456SOL     OW59655   1.797   1.194   0.955  0.4211 -0.5444 -0.1629
19456SOL    HW159656   1.778   1.137   0.880 -0.7232  0.2011 -0.4688
19456SOL    HW259657   1.775   1.141   1.031  1.7204 -1.3597 -0.3201
19457SOL     OW59658   0.791   7.211   4.680 -0.0025 -0.0804  0.1455
19457SOL    HW159659   0.751   7.267   4.615  0.1515 -0.9920 -0.7624
19457SOL    HW259660   0.876   7.187   4.643 -1.4521 -3.7931 -1.2541
19458SOL     OW59661   8.181   6.543   7.102  0.2312 -0.0228 -0.7196
19458SOL    HW159662   8.265   6.565   7.141  0.0687  2.3792 -1.5613
19458SOL    HW259663   8.195   6.456   7.063  2.4911  0.5428 -1.3216
19459SOL     OW59664   7.185   1.252   2.290  0.3998 -0.3280 -0.3376
19459SOL    HW159665   7.099   1.257   2.331  1.0348  1.3706  0.9276
19459SOL    HW259666   7.186   1.325   2.228  0.6098 -0.9014 -1.0134
19460SOL     OW59667   6.920   1.469   5.631 -0.2061  0.0062 -0.1545
19460SOL    HW159668   6.985   1.535   5.651 -2.5828  2.6334 -0.4473
19460SOL    HW259669   6.902   1.426   5.715 -0.5000  1.6067  0.6218
19461SOL     OW59670   1.125   7.316   1.564  0.2513  0.1122  0.4252
19461SOL    HW159671   1.110   7.354   1.651 -1.8769  1.0538 -0.2890
19461SOL    HW259672   1.052   7.347   1.512  1.9944  0.3797 -2.0138
19462SOL     OW59673   7.078   6.027   0.139 -0.4101 -0.0344  0.4945
19462SOL    HW159674   7.088   5.937   0.108 -0.7983  0.1150 -0.0649
19462SOL    HW259675   7.157   6.072   0.107  1.1894 -0.7897  3.0819
19463SOL     OW59676   2.914   6.063   0.133  0.1690  0.5517  0.0986
19463SOL    HW159677   2.914   5.968   0.146 -0.3320  0.4331 -0.7058
19463SOL    HW259678   2.821   6.087   0.130  0.2562  0.7989 -1.4299
19464SOL     OW59679   6.716   2.940   7.732 -0.4328 -0.4834 -0.4284
19464SOL    HW159680   6.722   2.900   7.646 -2.7050 -0.2080 -0.7792
19464SOL    HW259681   6.741   3.032   7.718 -1.3939 -0.2881 -0.9490
19465SOL     OW59682   3.829   6.644   3.818  0.2897 -0.0568  0.0392
19465SOL    HW159683   3.782   6.711   3.868 -1.2746 -1.9646  1.2690
19465SOL    HW259684   3.760   6.600   3.767  1.1426 -1.2379 -0.1218
19466SOL     OW59685   5.519   0.049   0.039  0.0265 -0.2705 -0.5628
19466SOL    HW159686   5.558   0.056  -0.048  1.6972  0.1533  0.1830
19466SOL    HW259687   5.529  -0.043   0.062  1.5479  0.0102  0.0145
19467SOL     OW59688   3.644   3.664   3.577 -0.1867  0.4518  0.2822
19467SOL    HW159689   3.661   3.758   3.571  2.2492 -0.0111 -2.2240
19467SOL    HW259690   3.555   3.653   3.543  0.1013  1.7087 -0.9340
19468SOL     OW59691   7.810   7.030   6.086 -0.0747  0.0073  0.3094
19468SOL    HW159692   7.815   6.937   6.064 -1.5683 -0.1926  0.6793
19468SOL    HW259693   7.839   7.035   6.177  2.1487  0.2558 -0.3536
19469SOL     OW59694   7.216   1.356   6.429 -0.0112  0.0087 -0.5880
19469SOL    HW159695   7.167   1.371   6.509  0.3245  1.2349 -0.6053
19469SOL    HW259696   7.156   1.306   6.373  0.5356 -3.0083  1.2490
19470SOL     OW59697   2.119   1.077   7.073 -0.5254 -0.5778  0.1986
19470SOL    HW159698   2.169   1.084   6.992  2.4441  2.2036  2.0204
19470SOL    HW259699   2.064   1.156   7.074 -1.5984 -1.3044  0.3139
19471SOL     OW59700   6.883   5.079   7.868 -0.3305 -0.1766 -0.2922
19471SOL    HW159701   6.952   5.024   7.830  0.1732 -0.1719  0.5736
19471SOL    HW259702   6.815   5.082   7.801 -0.0058 -1.1707 -0.6927
19472SOL     OW59703   1.602   5.875   1.697 -0.3362 -0.3988  0.2801
19472SOL    HW159704   1.555   5.806   1.650 -0.1773 -0.2077 -0.1652
19472SOL    HW259705   1.673   5.831   1.742 -0.2432 -0.5244  0.0062
19473SOL     OW59706   4.615   5.658   6.108  0.0169 -0.1760 -0.1607
19473SOL    HW159707   4.652   5.570   6.105  3.0748  0.9897 -2.0893
19473SOL    HW259708   4.537   5.654   6.053 -1.4105 -2.1590  1.8378
19474SOL     OW59709   8.138   6.896   3.971  0.1575 -0.1777  0.2887
19474SOL    HW159710   8.173   6.922   4.057 -0.4308 -0.0144  0.4833
19474SOL    HW259711   8.215   6.874   3.920  0.5200 -0.2522  0.8537
19475SOL     OW59712   3.143   8.369   2.959 -0.5118 -0.3142 -0.3534
19475SOL    HW159713   3.140   8.286   3.005 -0.4151 -0.4181 -0.5337
19475SOL    HW259714   3.143   8.346   2.866  0.7612 -0.1636 -0.4063
19476SOL     OW59715   2.465   3.782   6.915  0.3224 -0.0565  0.6643
19476SOL    HW159716   2.411   3.836   6.858  0.2110 -1.1607 -0.3135
19476SOL    HW259717   2.408   3.761   6.989 -0.5809 -1.0869 -0.2859
19477SOL     OW59718   8.355   1.164   8.706 -0.1246  1.3823 -0.3441
19477SOL    HW159719   8.293   1.209   8.650 -0.3533  0.1951 -1.0682
19477SOL    HW259720   8.301   1.125   8.775 -0.0466  1.3043 -0.3272
19478SOL     OW59721   1.354   6.351   1.469 -0.3157  0.6282 -0.0518
19478SOL    HW159722   1.271   6.318   1.435  0.4879 -0.9208 -0.5853
19478SOL    HW259723   1.371   6.299   1.548  1.0735 -0.4977 -1.0291
19479SOL     OW59724   2.497   4.630   5.808  0.1424  0.1304 -0.2357
19479SOL    HW159725   2.467   4.586   5.728  0.4275  1.4131 -1.0657
19479SOL    HW259726   2.421   4.680   5.838 -1.1333 -2.9902  2.3063
19480SOL     OW59727   0.384   6.708   7.155 -0.1737 -0.3218  0.1858
19480SOL    HW159728   0.343   6.639   7.208  0.4121  1.2011  2.7986
19480SOL    HW259729   0.327   6.784   7.167 -0.1179  0.0335 -1.5894
19481SOL     OW59730   4.118   6.735   6.394 -0.6744  0.7882  0.8438
19481SOL    HW159731   4.154   6.722   6.481  1.3157  0.7132  0.0745
19481SOL    HW259732   4.141   6.655   6.346 -0.0544  1.5956 -0.2566
19482SOL     OW59733   6.270   8.416   3.028  0.2086  0.9141  0.2401
19482SOL    HW159734   6.294   8.339   3.079 -1.8510 -1.1098 -1.5984
19482SOL    HW259735   6.345   8.430   2.970  0.3797 -0.1039  0.1959
19483SOL     OW59736   1.373   3.481   4.781 -0.1174 -0.1220  0.5909
19483SOL    HW159737   1.355   3.572   4.757 -2.2548 -0.7169 -0.3002
19483SOL    HW259738   1.292   3.450   4.821  0.5785 -1.6271  0.9133
19484SOL     OW59739   4.516   4.393   2.691  0.3071  0.5413  0.7811
19484SOL    HW159740   4.600   4.394   2.645  0.1275 -0.1674  0.4198
19484SOL    HW259741   4.460   4.451   2.639  0.1022 -0.2598  0.0783
19485SOL     OW59742   6.372   5.390   7.022 -0.5866 -0.3419 -0.2847
19485SOL    HW159743   6.464   5.369   7.034 -0.7916 -1.8007 -1.0099
19485SOL    HW259744   6.371   5.481   6.993  0.5742 -0.1328  0.2751
19486SOL     OW59745   5.041   5.574   8.107  0.2611 -0.5109  0.6380
19486SOL    HW159746   4.973   5.599   8.170  2.4277 -0.0890  2.9821
19486SOL    HW259747   5.070   5.488   8.137  1.4537 -0.2298  0.3414
19487SOL     OW59748   5.044   0.485   0.535  0.1964  0.0535  0.0355
19487SOL    HW159749   4.995   0.559   0.498 -0.7380  1.2604  3.3800
19487SOL    HW259750   5.129   0.522   0.558 -0.3290  0.2225  1.8611
19488SOL     OW59751   4.074   5.800   3.368 -0.0337 -0.7502  0.2529
19488SOL    HW159752   4.137   5.866   3.339 -2.0662  0.9384 -0.5823
19488SOL    HW259753   4.082   5.799   3.463  0.9580 -0.2667  0.1907
19489SOL     OW59754   4.355   1.249   0.131 -0.3244  0.2381  0.0281
19489SOL    HW159755   4.416   1.319   0.108  0.2695  0.0891  1.0885
19489SOL    HW259756   4.271   1.293   0.142  0.0051  0.7618  0.5000
19490SOL     OW59757   3.336   6.702   2.486 -0.2505  0.1170 -0.3839
19490SOL    HW159758   3.317   6.786   2.442 -0.3807  0.6692  0.7044
19490SOL    HW259759   3.418   6.717   2.532 -0.6650 -0.1123  0.4373
19491SOL     OW59760   0.957   0.830   5.857 -0.8114 -0.5785  0.6578
19491SOL    HW159761   0.910   0.798   5.779 -0.9166  0.0493  0.4595
19491SOL    HW259762   0.889   0.847   5.921 -1.4223  3.9549 -0.8385
19492SOL     OW59763   0.322   8.409   3.960  0.1218  0.4573 -0.8903
19492SOL    HW159764   0.236   8.416   3.918 -0.6769  0.4679  0.6584
19492SOL    HW259765   0.306   8.434   4.051  1.0649 -2.6053  0.2406
19493SOL     OW59766   2.462   7.970   0.435  0.7592 -0.2999  0.4443
19493SOL    HW159767   2.529   8.015   0.486 -0.2607  0.6391  0.9976
19493SOL    HW259768   2.466   8.009   0.348  0.2252  0.5203  0.7780
19494SOL     OW59769   1.522   1.657   0.628 -0.6604  0.0737  0.2937
19494SOL    HW159770   1.582   1.704   0.570 -0.6423  2.3225  2.0022
19494SOL    HW259771   1.447   1.716   0.636  0.0480  0.6794  3.8219
19495SOL     OW59772   1.507   8.468   4.395  0.2093  0.3605  0.5257
19495SOL    HW159773   1.599   8.440   4.396 -0.0264 -0.4425  1.5176
19495SOL    HW259774   1.474   8.440   4.310  0.7442  0.1944  0.3675
19496SOL     OW59775   0.035   2.901   5.793 -0.1969 -0.3975  0.4688
19496SOL    HW159776   0.067   2.871   5.707  0.7424  1.6729  0.0304
19496SOL    HW259777  -0.033   2.965   5.771 -0.5825 -0.5165  1.3072
19497SOL     OW59778   7.049   4.935   2.346 -0.3220 -0.0314  0.0719
19497SOL    HW159779   7.135   4.915   2.309  0.2661  0.3234  1.2233
19497SOL    HW259780   6.999   4.854   2.333  0.3079 -0.3838 -0.2336
19498SOL     OW59781   8.414   5.541   2.130  0.2089 -0.2305  0.5447
19498SOL    HW159782   8.373   5.610   2.182 -0.4616 -0.5750  0.4852
19498SOL    HW259783   8.354   5.467   2.137 -0.4157 -0.0065 -1.4656
19499SOL     OW59784   0.259   8.272   7.333  0.0037  0.0222 -0.4327
19499SOL    HW159785   0.233   8.203   7.271  0.8572  1.3796 -2.4069
19499SOL    HW259786   0.274   8.349   7.278 -0.2118  1.6060  1.6251
19500SOL     OW59787   8.260   6.840   1.378  0.2546 -0.0757 -0.0523
19500SOL    HW159788   8.277   6.746   1.377  0.5519 -0.0393  0.8259
19500SOL    HW259789   8.192   6.852   1.312  0.8582 -0.7734 -0.8283
19501SOL     OW59790   7.142   4.672   5.312 -0.2274 -0.2878  0.2951
19501SOL    HW159791   7.068   4.623   5.347  0.0217  0.8573  2.6730
19501SOL    HW259792   7.109   4.761   5.302  0.1848 -0.2549 -0.9336
19502SOL     OW59793   1.373   1.996   8.401 -0.2390 -0.2512 -0.0580
19502SOL    HW159794   1.282   2.023   8.390 -0.6709 -1.6592 -0.2226
19502SOL    HW259795   1.424   2.058   8.349 -0.8096  2.1043  1.9890
19503SOL     OW59796   6.584   6.380   6.220 -0.2311  0.8598  0.3062
19503SOL    HW159797   6.661   6.410   6.172  0.3309 -3.4666 -2.0611
19503SOL    HW259798   6.510   6.398   6.162 -0.3742  0.9174  0.5030
19504SOL     OW59799   5.843   4.020   1.440 -0.8255  0.3108  0.3919
19504SOL    HW159800   5.768   3.961   1.440 -0.3410 -0.3223 -0.3667
19504SOL    HW259801   5.918   3.965   1.419 -0.4840  1.3169 -1.2757
19505SOL     OW59802   5.616   7.636   0.600  0.0842 -0.3296  0.0827
19505SOL    HW159803   5.552   7.573   0.566 -0.2212 -0.1408  0.2976
19505SOL    HW259804   5.696   7.585   0.612  0.1791 -0.4124 -0.8579
19506SOL     OW59805   5.747   2.997   3.601  0.3967 -0.1854  0.1424
19506SOL    HW159806   5.753   2.962   3.512  0.5065  0.3598 -0.0675
19506SOL    HW259807   5.781   3.086   3.594 -0.6118  0.2442  0.5108
19507SOL     OW59808   8.167   4.892   3.341  0.1021  0.2128  0.3940
19507SOL    HW159809   8.130   4.946   3.411 -0.4939  1.6808 -0.9863
19507SOL    HW259810   8.091   4.860   3.292  0.5197 -0.6360  0.2853
19508SOL     OW59811   5.051   5.893   2.061  0.2300  0.5377 -0.4676
19508SOL    HW159812   5.013   5.928   2.141  0.0214  0.9640 -0.7465
19508SOL    HW259813   5.142   5.923   2.062  0.0471  1.1189 -0.7152
19509SOL     OW59814   8.573   7.766   1.489  0.6233 -0.1779 -0.3866
19509SOL    HW159815   8.514   7.841   1.480  1.7011  0.8008  0.4205
19509SOL    HW259816   8.557   7.734   1.577 -0.2797 -1.3230 -0.9395
19510SOL     OW59817   6.412   8.605   1.766 -0.0223 -0.1167 -0.6608
19510SOL    HW159818   6.342   8.606   1.832 -0.8525 -2.0866 -1.4123
19510SOL    HW259819   6.490   8.579   1.814  0.3519  2.4670  0.2648
19511SOL     OW59820   2.000   5.258   2.870 -0.4713  0.4465  0.1038
19511SOL    HW159821   2.091   5.253   2.841 -1.0022  0.4750 -1.6328
19511SOL    HW259822   1.980   5.352   2.871 -0.7262  0.3950 -0.2836
19512SOL     OW59823   2.097   8.671   3.531 -0.1110  0.0064  0.5286
19512SOL    HW159824   2.155   8.598   3.552 -0.6927 -0.1621  1.6494
19512SOL    HW259825   2.041   8.638   3.461  0.0412 -0.4113  0.6007
19513SOL     OW59826   3.858   4.364   0.303 -0.0622 -0.3090 -0.3461
19513SOL    HW159827   3.887   4.455   0.310  0.5760 -0.5830  1.0809
19513SOL    HW259828   3.856   4.346   0.209 -0.1654  1.1569 -0.6462
19514SOL     OW59829   7.258   7.250   7.253 -0.1896  0.6498  0.2875
19514SOL    HW159830   7.239   7.187   7.183  0.4206  0.7171  0.0499
19514SOL    HW259831   7.172   7.280   7.283 -0.4573  0.7440 -0.5459
19515SOL     OW59832   0.088   5.196   0.275  0.6784 -0.5511 -0.7493
19515SOL    HW159833   0.028   5.262   0.241  1.5683  0.2874 -0.7428
19515SOL    HW259834   0.167   5.245   0.298  1.7009 -1.7233 -1.5822
19516SOL     OW59835   2.678   2.591   6.563 -0.1640 -0.3544  0.7818
19516SOL    HW159836   2.672   2.590   6.658 -0.3435 -0.4198  0.7702
19516SOL    HW259837   2.713   2.505   6.540 -0.9306 -0.6570  0.7366
19517SOL     OW59838   6.500   8.184   1.175  0.7839 -0.0868  0.3906
19517SOL    HW159839   6.428   8.203   1.236  1.6598 -0.7348  1.6687
19517SOL    HW259840   6.574   8.233   1.210  0.6816  1.6649 -1.6731
19518SOL     OW59841   8.102   2.449   2.098 -0.9019 -0.0271 -0.0078
19518SOL    HW159842   8.009   2.428   2.087 -0.7414 -0.8869  0.2634
19518SOL    HW259843   8.107   2.491   2.184 -0.8671 -1.0950  0.5295
19519SOL     OW59844   3.740   6.076   8.255 -0.3258  0.4017 -0.1518
19519SOL    HW159845   3.795   6.115   8.187  0.5131 -0.9441 -0.2843
19519SOL    HW259846   3.761   6.125   8.335 -1.1288  1.8220 -0.7728
19520SOL     OW59847   2.812   8.378   0.867  0.0140  0.8755 -0.6432
19520SOL    HW159848   2.832   8.471   0.868 -2.4724  1.5009 -0.0127
19520SOL    HW259849   2.775   8.362   0.780 -1.1908  0.9394 -0.1701
19521SOL     OW59850   1.788   7.071   1.486  0.0456  0.0216  0.1234
19521SOL    HW159851   1.812   7.121   1.408  0.6233  0.0769  0.3277
19521SOL    HW259852   1.859   7.088   1.548 -0.0938 -0.5094  0.4387
19522SOL     OW59853   8.585   7.659   3.566 -0.7974  0.0015 -0.6662
19522SOL    HW159854   8.591   7.599   3.491 -1.3777  1.1102 -1.6212
19522SOL    HW259855   8.676   7.672   3.593 -0.3917  1.0169 -2.3624
19523SOL     OW59856   0.647   5.462   3.939  0.2391  0.2448 -0.4576
19523SOL    HW159857   0.558   5.430   3.958 -0.5882  2.2522 -0.7162
19523SOL    HW259858   0.698   5.439   4.017  0.2224 -3.1888 -1.2816
19524SOL     OW59859   6.579   7.718   3.938  0.0621  0.4238  0.7117
19524SOL    HW159860   6.572   7.656   3.864 -1.5559 -0.1409  1.3025
19524SOL    HW259861   6.506   7.778   3.926  0.4955  1.0664  1.2199
19525SOL     OW59862   3.324   5.445   3.406 -0.0863  0.5406  0.2883
19525SOL    HW159863   3.346   5.451   3.313 -1.6262  0.8735 -0.0876
19525SOL    HW259864   3.387   5.502   3.450  1.6882 -0.8430 -0.3355
19526SOL     OW59865   4.505   0.818   2.311 -0.1495  0.6480  0.0915
19526SOL    HW159866   4.417   0.804   2.347  0.4515  1.1987  1.8722
19526SOL    HW259867   4.532   0.731   2.280 -0.7235  0.1236  0.9907
19527SOL     OW59868   3.873   5.807   0.746  0.6044 -0.3976  0.1337
19527SOL    HW159869   3.870   5.884   0.803 -2.1596  0.4440 -0.9572
19527SOL    HW259870   3.829   5.739   0.796 -0.2862 -0.1511 -0.2910
19528SOL     OW59871   3.542   4.542   7.953  0.3022  0.6548 -0.5129
19528SOL    HW159872   3.459   4.589   7.944 -0.0975 -0.0992 -0.9206
19528SOL    HW259873   3.597   4.600   8.006 -0.7868  0.7963  0.5331
19529SOL     OW59874   5.415   5.951   4.743 -0.0887 -0.5248 -0.6130
19529SOL    HW159875   5.421   5.924   4.835 -1.0747  1.3659  0.0410
19529SOL    HW259876   5.501   5.930   4.707  1.1890  0.9546  1.3877
19530SOL     OW59877   7.282   5.600   0.951 -0.3086 -0.2964  0.4227
19530SOL    HW159878   7.363   5.615   0.903  0.7095  2.3254  2.6841
19530SOL    HW259879   7.217   5.651   0.904  0.3129  0.9138  0.8289
19531SOL     OW59880   1.224   4.261   2.810  0.7918 -0.4030  0.4555
19531SOL    HW159881   1.224   4.185   2.867  2.3676  1.4022  3.0714
19531SOL    HW259882   1.146   4.310   2.834  0.8956 -0.1511  0.2905
19532SOL     OW59883   4.829   3.130   8.654  0.5140 -0.5399 -0.2907
19532SOL    HW159884   4.755   3.191   8.660 -2.0003 -3.3276 -0.2231
19532SOL    HW259885   4.867   3.130   8.741  1.1414  1.4689 -0.5080
19533SOL     OW59886   7.979   4.151   0.207 -0.0896  0.6198 -0.0658
19533SOL    HW159887   7.984   4.118   0.297 -0.9316  2.6842  0.7801
19533SOL    HW259888   7.888   4.139   0.181  0.0104  0.6228 -0.4350
19534SOL     OW59889   8.263   6.372   8.452 -0.4150 -0.4272 -0.9812
19534SOL    HW159890   8.198   6.420   8.502 -0.0507 -0.6366 -0.2831
19534SOL    HW259891   8.278   6.292   8.503  1.1182  0.0747 -0.5822
19535SOL     OW59892   3.168   0.268   1.682 -0.1146  0.3001  0.2737
19535SOL    HW159893   3.141   0.237   1.596  1.1583  0.5938 -0.2569
19535SOL    HW259894   3.154   0.194   1.741  1.0604 -0.6667 -0.6069
19536SOL     OW59895   2.016   6.213   0.631  0.2466  0.4349  0.2445
19536SOL    HW159896   1.924   6.225   0.606 -0.0300  0.5745  1.2709
19536SOL    HW259897   2.059   6.182   0.551 -0.8609 -0.4797 -0.0257
19537SOL     OW59898   7.457   4.105   3.089  0.3139  0.0041 -0.2527
19537SOL    HW159899   7.442   4.183   3.036 -0.4783  1.7712  2.3816
19537SOL    HW259900   7.551   4.105   3.106  0.4187 -0.0002 -0.8282
19538SOL     OW59901   5.527   3.884   4.888 -0.3506 -0.4446 -0.0533
19538SOL    HW159902   5.436   3.909   4.873 -0.2010  0.3304  0.2857
19538SOL    HW259903   5.538   3.886   4.983 -0.9417 -4.0967  0.2242
19539SOL     OW59904   6.243   0.035   8.310 -0.1049 -0.4117 -0.4571
19539SOL    HW159905   6.260  -0.011   8.393 -0.2470 -1.6268 -1.0797
19539SOL    HW259906   6.276   0.124   8.325 -0.6238 -0.4318  1.0942
19540SOL     OW59907   1.967   6.221   1.607 -0.4044  0.2948 -0.3680
19540SOL    HW159908   1.975   6.250   1.698  0.0144  0.7572 -0.5455
19540SOL    HW259909   1.873   6.203   1.595 -0.2159 -1.5885  0.6793
19541SOL     OW59910   2.229   2.685   6.907 -0.4116 -0.0321  0.0542
19541SOL    HW159911   2.171   2.617   6.873 -0.2183 -0.5565  0.7423
19541SOL    HW259912   2.171   2.750   6.946 -0.5770 -0.0391 -0.1810
19542SOL     OW59913   4.998   1.518   6.865 -0.3324 -0.1992  0.2883
19542SOL    HW159914   5.016   1.562   6.948 -0.4615 -1.1059  0.7997
19542SOL    HW259915   5.071   1.458   6.853  0.5300  1.0355 -1.0555
19543SOL     OW59916   7.051   7.575   2.856  0.5685 -0.0674  0.5926
19543SOL    HW159917   7.041   7.480   2.861  1.4756 -0.2640 -0.8066
19543SOL    HW259918   6.975   7.605   2.807  1.2646 -0.3340 -0.7086
19544SOL     OW59919   7.773   4.594   7.391 -0.7688  0.2618 -0.2567
19544SOL    HW159920   7.822   4.512   7.379  0.3288  0.9496 -0.6832
19544SOL    HW259921   7.691   4.580   7.345 -0.1552 -0.2299 -1.2322
19545SOL     OW59922   1.557   1.638   8.001  0.1954  0.1568 -0.4258
19545SOL    HW159923   1.633   1.581   7.985  0.3803  0.2788  0.0113
19545SOL    HW259924   1.519   1.605   8.082 -0.4474 -0.1406 -0.8395
19546SOL     OW59925   4.151   7.207   4.905 -0.3858  0.2877 -0.0646
19546SOL    HW159926   4.211   7.132   4.907 -1.5132 -0.6490  1.8790
19546SOL    HW259927   4.200   7.275   4.860  1.7409 -0.7558  0.5005
19547SOL     OW59928   8.228   8.284   1.461  0.2343  0.2727  0.2117
19547SOL    HW159929   8.290   8.249   1.525  0.5874 -1.4737 -1.0184
19547SOL    HW259930   8.144   8.246   1.487  0.5529 -1.2893 -0.9004
19548SOL     OW59931   7.748   2.540   2.702  0.5366  0.6316 -0.3348
19548SOL    HW159932   7.744   2.585   2.787  1.3403  1.6219 -0.8132
19548SOL    HW259933   7.785   2.604   2.642  0.1197 -0.1121 -1.4198
19549SOL     OW59934   0.766   6.846   1.716 -0.0272  0.3225  0.2814
19549SOL    HW159935   0.855   6.834   1.749 -0.0330  0.4383  0.3370
19549SOL    HW259936   0.716   6.776   1.757 -0.1525  0.7986  0.9528
19550SOL     OW59937   4.232   6.888   8.396  0.1197  0.3588  0.6513
19550SOL    HW159938   4.220   6.885   8.491  0.1243  0.1122  0.6431
19550SOL    HW259939   4.239   6.982   8.376  1.6723  0.3631  1.0867
19551SOL     OW59940   1.485   0.514   5.002  0.1287 -0.1222  0.2580
19551SOL    HW159941   1.558   0.453   5.002 -0.7719 -1.2351  1.2677
19551SOL    HW259942   1.450   0.511   4.912 -0.0603 -1.2893  0.3654
19552SOL     OW59943   3.266   4.172   3.144 -0.4827 -0.3384 -0.0088
19552SOL    HW159944   3.191   4.189   3.087 -0.2756  0.4350 -0.0535
19552SOL    HW259945   3.256   4.234   3.216  0.3595  0.0891 -0.2511
19553SOL     OW59946   1.472   3.077   8.022  0.3574  0.2641 -0.6570
19553SOL    HW159947   1.564   3.055   8.037  0.6920  2.6534  1.1580
19553SOL    HW259948   1.426   3.044   8.099 -0.0707  0.5526 -0.7848
19554SOL     OW59949   7.881   4.214   0.707  0.0619 -0.0495 -0.0027
19554SOL    HW159950   7.839   4.296   0.679 -0.1579 -0.6130 -1.3727
19554SOL    HW259951   7.971   4.221   0.678  0.2433  0.0223  0.5638
19555SOL     OW59952   8.471   7.832   2.639 -0.1091 -0.4860 -0.2361
19555SOL    HW159953   8.390   7.854   2.684 -0.1803 -2.0798  0.4694
19555SOL    HW259954   8.442   7.801   2.553 -0.2868 -1.3918  0.1435
19556SOL     OW59955   8.338   4.635   5.237 -0.2909 -0.0407 -0.2743
19556SOL    HW159956   8.325   4.631   5.331 -2.8146 -0.7527 -0.5798
19556SOL    HW259957   8.253   4.662   5.202  0.6335  0.4042 -2.3415
19557SOL     OW59958   1.852   1.978   7.809 -0.0786 -0.6539  0.3195
19557SOL    HW159959   1.925   1.990   7.870 -1.0607  0.4459  1.3381
19557SOL    HW259960   1.894   1.960   7.725  1.3770  0.1948  0.8164
19558SOL     OW59961   7.268   2.425   3.760 -0.3269  0.2908 -0.1304
19558SOL    HW159962   7.340   2.370   3.788 -0.4298  1.0040  1.7478
19558SOL    HW259963   7.212   2.368   3.708  0.6408 -0.7693 -0.0423
19559SOL     OW59964   1.229   3.863   8.296  0.3564 -0.0536  0.1383
19559SOL    HW159965   1.196   3.931   8.355  0.5660 -0.0388  0.2361
19559SOL    HW259966   1.153   3.842   8.240  0.8290  1.7284 -1.2708
19560SOL     OW59967   4.768   6.800   6.855  0.0083  0.4602  0.3158
19560SOL    HW159968   4.755   6.851   6.775 -0.6570 -1.3330 -0.7937
19560SOL    HW259969   4.680   6.789   6.890 -0.0246 -0.8438 -0.1081
19561SOL     OW59970   4.588   3.327   4.271  0.2652 -0.4962  0.0486
19561SOL    HW159971   4.639   3.384   4.214  1.4719 -1.4061  0.1809
19561SOL    HW259972   4.592   3.241   4.227  0.7220 -1.0732  1.1906
19562SOL     OW59973   6.978   6.278   8.292  0.3520 -0.4177 -0.2220
19562SOL    HW159974   7.014   6.199   8.334 -0.1623 -1.3059 -1.4152
19562SOL    HW259975   6.884   6.260   8.284  0.1367  0.5645  0.0036
19563SOL     OW59976   4.404   1.447   4.911  0.0180 -0.0465 -0.2325
19563SOL    HW159977   4.490   1.431   4.951 -0.3305 -0.1104  0.5081
19563SOL    HW259978   4.345   1.389   4.958 -0.3792 -0.2536 -0.9737
19564SOL     OW59979   7.002   2.810   0.080 -0.0204  0.1045 -0.0329
19564SOL    HW159980   7.000   2.797   0.175  1.3345 -0.6322 -0.0847
19564SOL    HW259981   6.929   2.757   0.047  1.4104 -2.2789  0.3589
19565SOL     OW59982   3.982   0.994   1.601  0.4296  0.7689  0.2778
19565SOL    HW159983   3.923   1.043   1.544 -0.7021 -2.0154 -1.1338
19565SOL    HW259984   3.925   0.936   1.651  1.8149 -1.3019 -0.3872
19566SOL     OW59985   3.611   1.389   6.031 -0.2344  0.0537 -0.4141
19566SOL    HW159986   3.552   1.346   6.093  1.1565 -0.8154  0.3375
19566SOL    HW259987   3.588   1.482   6.037 -1.3160 -0.2278  0.0850
19567SOL     OW59988   3.563   1.816   3.163  0.2081 -0.1907 -0.3352
19567SOL    HW159989   3.566   1.909   3.140  1.0099 -0.3643 -0.9958
19567SOL    HW259990   3.481   1.806   3.211  0.1083  0.8578 -0.2554
19568SOL     OW59991   7.492   3.363   8.493  0.1271  0.4509  0.3807
19568SOL    HW159992   7.470   3.322   8.409  1.0373 -1.4935  1.0367
19568SOL    HW259993   7.415   3.415   8.515 -0.8836 -0.5032 -0.7640
19569SOL     OW59994   6.487   2.177   2.098 -0.4497 -0.4547  0.1232
19569SOL    HW159995   6.447   2.168   2.185  0.4616 -0.8544  0.5146
19569SOL    HW259996   6.490   2.271   2.083 -1.1145 -0.4016  0.2793
19570SOL     OW59997   8.257   7.248   5.455 -0.0752  0.3895  0.4143
19570SOL    HW159998   8.330   7.187   5.439 -0.2391 -0.0467  1.2512
19570SOL    HW259999   8.283   7.329   5.410  0.3394 -0.1560 -0.3603
19571SOL     OW60000   7.256   7.682   3.722  0.3411  0.6928  0.5142
19571SOL    HW160001   7.324   7.652   3.662 -0.5356  0.7614 -0.5636
19571SOL    HW260002   7.265   7.777   3.724 -0.6228  0.8435 -0.8139
19572SOL     OW60003   1.343   8.094   1.597  0.0357  0.0621  0.2275
19572SOL    HW160004   1.310   8.121   1.510  1.7424  0.8421 -0.2132
19572SOL    HW260005   1.419   8.040   1.578 -0.1993 -0.6462  1.2506
19573SOL     OW60006   0.320   7.416   0.841  0.8541  0.2568 -0.1348
19573SOL    HW160007   0.383   7.352   0.807  0.5863 -1.0409  1.6921
19573SOL    HW260008   0.367   7.462   0.910  0.9871  1.9882 -1.3155
19574SOL     OW60009   2.630   5.207   1.453  0.0192  0.1715  0.1046
19574SOL    HW160010   2.664   5.140   1.393  0.7076 -0.8092  1.5497
19574SOL    HW260011   2.536   5.208   1.436  0.3397  0.8780 -1.9204
19575SOL     OW60012   1.982   5.343   6.596 -0.2612 -0.4293  0.6616
19575SOL    HW160013   2.005   5.427   6.637 -1.0885 -0.0226  0.3002
19575SOL    HW260014   1.889   5.333   6.614 -0.5529 -0.4353 -0.7951
19576SOL     OW60015   3.934   2.643   1.517 -0.2324  0.3262  0.9367
19576SOL    HW160016   3.912   2.588   1.592 -3.7891  1.2104  0.7025
19576SOL    HW260017   3.978   2.584   1.456 -1.4621 -1.5932  1.8136
19577SOL     OW60018   4.839   7.100   0.812  0.0171  0.1512 -0.3687
19577SOL    HW160019   4.934   7.088   0.817 -0.0586 -0.1525  0.4571
19577SOL    HW260020   4.826   7.193   0.827  0.2130  0.2800 -0.9701
19578SOL     OW60021   6.907   4.179   2.045  0.2360  0.4445  0.1224
19578SOL    HW160022   6.878   4.090   2.022 -0.5996  0.3356  1.5030
19578SOL    HW260023   6.828   4.231   2.043  0.2631  0.6029  1.8310
19579SOL     OW60024   1.837   4.105   2.927 -0.2645 -0.2737  0.3795
19579SOL    HW160025   1.890   4.111   2.848 -1.5111 -0.6624 -0.4997
19579SOL    HW260026   1.770   4.040   2.908 -1.9721  1.2270  0.9096
19580SOL     OW60027   5.674   8.169   5.947 -0.2400  0.4705 -0.1575
19580SOL    HW160028   5.710   8.198   5.863  2.1471  0.4546  0.7890
19580SOL    HW260029   5.721   8.221   6.012  0.9980 -2.3147  1.3737
19581SOL     OW60030   1.672   4.318   0.732 -0.2389 -0.2750  0.3677
19581SOL    HW160031   1.613   4.260   0.781 -2.0662 -0.4461 -1.9006
19581SOL    HW260032   1.620   4.350   0.659  2.3596 -0.0179 -1.5008
19582SOL     OW60033   6.657   1.657   7.195 -0.7659  0.4979  0.3470
19582SOL    HW160034   6.719   1.585   7.185  0.4162  1.6854 -1.9618
19582SOL    HW260035   6.635   1.658   7.288  2.0486 -0.5380  1.1273
19583SOL     OW60036   2.544   3.863   2.862  0.0599  0.2143 -0.5521
19583SOL    HW160037   2.588   3.879   2.779  0.8093 -0.8443 -0.3826
19583SOL    HW260038   2.612   3.874   2.928 -0.0185 -0.9539 -0.2469
19584SOL     OW60039   7.269   1.966   6.772 -1.0219  0.1015 -0.1149
19584SOL    HW160040   7.232   2.043   6.815 -0.4828 -0.7693  2.0336
19584SOL    HW260041   7.226   1.892   6.815  1.1761 -0.8727  0.5170
19585SOL     OW60042   2.618   3.670   5.782 -0.3169 -0.1037 -0.1062
19585SOL    HW160043   2.624   3.585   5.826  0.7098  0.0452  0.0630
19585SOL    HW260044   2.697   3.674   5.727  0.5578  1.4536  1.1750
19586SOL     OW60045   1.973   0.124   4.079  0.5448  0.5592 -0.7831
19586SOL    HW160046   1.906   0.057   4.091  0.1665  1.1709  0.7793
19586SOL    HW260047   2.052   0.075   4.057 -0.1775 -0.2406 -1.7132
19587SOL     OW60048   5.723   5.471   2.284  0.1423  0.4290 -0.0749
19587SOL    HW160049   5.648   5.414   2.301 -1.0559  1.7794 -0.7220
19587SOL    HW260050   5.799   5.413   2.294 -0.6642 -0.2531  4.1275
19588SOL     OW60051   5.038   1.031   4.740 -0.7314 -0.4309  0.2390
19588SOL    HW160052   5.005   1.085   4.812 -0.8691  0.8917 -0.7768
19588SOL    HW260053   4.988   0.949   4.747 -2.5701  0.6166  0.1772
19589SOL     OW60054   0.264   8.415   8.482 -0.0712 -0.4406 -0.5575
19589SOL    HW160055   0.239   8.460   8.402 -1.6659  0.6810  0.5287
19589SOL    HW260056   0.350   8.452   8.505  0.4215 -0.8127 -1.7408
19590SOL     OW60057   3.722   2.671   2.166 -0.7032  0.1113 -0.0513
19590SOL    HW160058   3.671   2.611   2.111  1.9977 -2.2619 -0.2200
19590SOL    HW260059   3.748   2.741   2.107 -1.4979 -0.0597 -0.6277
19591SOL     OW60060   8.556   4.005   2.565  0.1886  0.4553 -0.3974
19591SOL    HW160061   8.573   4.009   2.471  1.7185 -0.0368 -0.1738
19591SOL    HW260062   8.549   3.911   2.585  2.0680  0.4074  0.2870
19592SOL     OW60063   1.235   8.588   3.448  0.2576  0.2385  0.0577
19592SOL    HW160064   1.218   8.681   3.461 -0.6836  0.2212 -0.9282
19592SOL    HW260065   1.199   8.569   3.361  0.6009 -1.0026  0.1743
19593SOL     OW60066   1.082   7.855   6.250 -0.3871  0.7562  0.1812
19593SOL    HW160067   1.175   7.872   6.258  0.6025 -3.9341  1.4560
19593SOL    HW260068   1.069   7.832   6.159 -0.2523  0.9701  0.1067
19594SOL     OW60069   4.934   4.811   7.619  0.0483 -0.5803 -0.0347
19594SOL    HW160070   4.929   4.906   7.607 -1.7351 -0.6546 -0.1253
19594SOL    HW260071   4.992   4.781   7.550  2.3255  0.6298  1.2408
19595SOL     OW60072   6.307   4.603   3.800  0.2192 -0.8227 -0.3974
19595SOL    HW160073   6.326   4.546   3.874 -0.4150  1.0188  1.2632
19595SOL    HW260074   6.213   4.591   3.784  0.6057 -2.2995 -1.9439
19596SOL     OW60075   2.508   4.634   1.907  0.6958  0.2907  0.1605
19596SOL    HW160076   2.554   4.574   1.966  0.6798  0.3408  0.2244
19596SOL    HW260077   2.435   4.583   1.872  0.5352  0.3488  0.4077
19597SOL     OW60078   2.535   6.956   4.400 -0.5502 -0.5980 -0.0136
19597SOL    HW160079   2.495   6.872   4.378  0.1111 -0.7120 -0.8516
19597SOL    HW260080   2.557   6.994   4.315 -0.7499  0.3849  0.3625
19598SOL     OW60081   0.919   6.914   6.403  0.0670  0.1891 -0.1258
19598SOL    HW160082   0.962   6.852   6.462 -1.3736  1.5776  2.5603
19598SOL    HW260083   0.922   6.871   6.317  2.5049 -1.8312  0.8412
19599SOL     OW60084   0.442   4.849   0.215  0.1399  0.2787  0.1467
19599SOL    HW160085   0.487   4.835   0.132 -0.8941  0.0883 -0.4016
19599SOL    HW260086   0.349   4.854   0.192 -0.2636 -0.7563  1.3931
19600SOL     OW60087   1.143   7.031   7.855  0.2162 -0.2537 -0.3519
19600SOL    HW160088   1.159   6.956   7.798 -1.7530 -0.7734 -0.3084
19600SOL    HW260089   1.084   6.998   7.923  0.4812  0.9789  0.5256
19601SOL     OW60090   5.439   7.345   7.662  0.2710 -0.3535  0.4570
19601SOL    HW160091   5.395   7.282   7.719 -0.0122 -0.5903 -0.0136
19601SOL    HW260092   5.375   7.414   7.648  0.6671  0.1797  1.1730
19602SOL     OW60093   2.943   2.610   1.413  0.3511 -0.4898  0.3242
19602SOL    HW160094   2.859   2.634   1.452 -0.0827 -1.7879  0.2079
19602SOL    HW260095   2.920   2.554   1.338  1.3336 -1.4511  0.7254
19603SOL     OW60096   5.963   3.270   1.395 -0.3817 -0.0963 -0.4822
19603SOL    HW160097   5.968   3.174   1.397  0.3910 -0.0818  2.0195
19603SOL    HW260098   5.871   3.289   1.379 -1.1963 -1.3602  2.1140
19604SOL     OW60099   8.144   6.989   6.296  0.4305  0.4606  0.3025
19604SOL    HW160100   8.068   6.933   6.308  1.4428 -1.0346  0.0590
19604SOL    HW260101   8.155   7.033   6.380 -0.2280  0.0743  0.5955
19605SOL     OW60102   0.323   8.083   5.748 -0.3297 -0.1121 -0.4049
19605SOL    HW160103   0.258   8.137   5.703  0.3356  0.0078 -1.2485
19605SOL    HW260104   0.273   8.009   5.782 -1.4129  1.3811  1.4807
19606SOL     OW60105   3.132   1.014   8.440 -0.3389  0.0209 -0.2618
19606SOL    HW160106   3.122   0.964   8.521  0.3700  0.6434  0.2317
19606SOL    HW260107   3.083   0.965   8.374 -0.7465 -0.6066  0.5007
19607SOL     OW60108   5.591   3.254   0.777 -0.0390 -0.3296  0.3548
19607SOL    HW160109   5.674   3.207   0.776  0.3308  0.2941 -1.1067
19607SOL    HW260110   5.593   3.307   0.697 -1.6927 -0.0331  0.4868
19608SOL     OW60111   1.126   6.362   7.293 -0.1016 -0.0827 -0.3429
19608SOL    HW160112   1.220   6.372   7.276 -0.1129  0.0647 -0.3211
19608SOL    HW260113   1.086   6.440   7.253 -0.3145 -0.6073 -1.1948
19609SOL     OW60114   7.793   4.092   1.229 -0.2169  0.1197  0.5549
19609SOL    HW160115   7.844   4.158   1.276 -1.1273 -0.0442  1.8287
19609SOL    HW260116   7.852   4.059   1.162  1.5618 -0.4296  2.3026
19610SOL     OW60117   8.080   4.732   4.227  0.1086  0.0412  0.3789
19610SOL    HW160118   8.132   4.760   4.151  1.3263  1.0055  1.5283
19610SOL    HW260119   8.030   4.657   4.195  0.3854  0.5872 -1.4517
19611SOL     OW60120   4.681   3.416   5.900  0.1509 -0.4433  0.3281
19611SOL    HW160121   4.589   3.430   5.925 -0.4002 -0.5016 -1.5086
19611SOL    HW260122   4.676   3.363   5.821  1.7157  0.6183 -0.5310
19612SOL     OW60123   1.884   8.350   3.261  0.0801 -0.0818  0.6549
19612SOL    HW160124   1.879   8.287   3.333  1.0162 -0.5629  0.3219
19612SOL    HW260125   1.931   8.425   3.298  2.7506 -1.2918 -0.0527
19613SOL     OW60126   0.807   1.424   0.287 -0.2353  0.1266  0.1483
19613SOL    HW160127   0.746   1.440   0.215  2.2543  0.5747 -2.0244
19613SOL    HW260128   0.891   1.460   0.257  1.1667 -0.4637  2.9340
19614SOL     OW60129   6.007   4.651   1.613  0.1848 -0.3275  0.1140
19614SOL    HW160130   6.056   4.660   1.531 -3.5277  0.5502 -2.2488
19614SOL    HW260131   6.069   4.676   1.681  2.8881  0.9703 -2.5926
19615SOL     OW60132   1.847   1.191   7.904 -0.7324  0.1010  0.1507
19615SOL    HW160133   1.866   1.235   7.987 -1.5220 -1.7880  1.4196
19615SOL    HW260134   1.932   1.183   7.861  0.1383 -0.9420  1.9130
19616SOL     OW60135   1.051   0.493   5.908 -0.1409 -0.6403 -0.2170
19616SOL    HW160136   1.003   0.442   5.842  0.4444  0.1295 -1.2726
19616SOL    HW260137   1.069   0.576   5.864 -0.0782  0.0363  1.0727
19617SOL     OW60138   8.465   0.264   0.040  0.7992  0.0789  0.3169
19617SOL    HW160139   8.468   0.332   0.108  1.1699  1.2886 -0.8813
19617SOL    HW260140   8.376   0.229   0.047  0.6415  0.5800  1.0478
19618SOL     OW60141   1.952   7.755   5.571  0.3238  0.4984 -0.0210
19618SOL    HW160142   1.953   7.717   5.483  0.1354 -1.0526  0.6208
19618SOL    HW260143   1.885   7.705   5.618  0.7746  0.9654  1.1514
19619SOL     OW60144   3.822   0.483   6.174  0.0584 -0.4851  0.7936
19619SOL    HW160145   3.734   0.510   6.198 -0.7647 -0.9462 -1.5155
19619SOL    HW260146   3.831   0.395   6.212 -1.2871 -1.2874 -0.6261
19620SOL     OW60147   1.972   2.857   2.067 -0.0585  0.0759 -0.1379
19620SOL    HW160148   1.919   2.819   2.137  0.8232 -0.9890 -0.0215
19620SOL    HW260149   2.056   2.876   2.108  0.3329 -0.1844 -0.8038
19621SOL     OW60150   5.951   5.864   6.617 -0.5842  0.3049  0.0415
19621SOL    HW160151   6.004   5.886   6.693 -0.7536 -1.4040  0.7122
19621SOL    HW260152   5.862   5.857   6.651 -0.6467 -0.5900 -0.2656
19622SOL     OW60153   3.667   1.094   6.891 -0.0221 -0.3366 -0.6994
19622SOL    HW160154   3.722   1.129   6.961  0.6015  0.3261 -1.5077
19622SOL    HW260155   3.718   1.020   6.856 -0.7152 -1.2156  0.0857
19623SOL     OW60156   0.301   3.300   6.369 -0.3367 -0.1263 -0.2257
19623SOL    HW160157   0.368   3.237   6.398 -0.8066  0.0259  1.2687
19623SOL    HW260158   0.236   3.300   6.439 -0.7901  1.3741 -0.6113
19624SOL     OW60159   1.246   5.908   6.203 -0.1125  0.2383  0.7494
19624SOL    HW160160   1.204   5.981   6.157  0.9505  1.3417  1.4858
19624SOL    HW260161   1.275   5.850   6.132  0.5179  1.3624  0.0599
19625SOL     OW60162   0.915   2.246   1.845  0.1392  0.3959  0.2406
19625SOL    HW160163   0.986   2.200   1.800  1.9781  0.9617  2.3911
19625SOL    HW260164   0.880   2.306   1.778  3.0161  1.4872 -0.4483
19626SOL     OW60165   8.096   8.367   6.770  0.0987 -0.2674  0.0004
19626SOL    HW160166   8.140   8.412   6.699 -0.3190 -1.5163 -1.0954
19626SOL    HW260167   8.013   8.413   6.781  0.1984 -0.0247 -0.2737
19627SOL     OW60168   8.229   6.154   1.313  0.1350  0.2399 -0.0252
19627SOL    HW160169   8.268   6.074   1.276 -0.3779 -0.0119 -0.0289
19627SOL    HW260170   8.194   6.126   1.397 -2.1581 -0.1372 -1.0213
19628SOL     OW60171   7.915   5.486   7.207  0.7736  0.7019 -0.1781
19628SOL    HW160172   7.961   5.569   7.220  1.7851  0.1256  0.0105
19628SOL    HW260173   7.984   5.422   7.193  0.1480 -0.5279  1.9191
19629SOL     OW60174   3.681   7.267   7.233 -0.1779  0.7699 -0.4113
19629SOL    HW160175   3.606   7.214   7.261  0.1469  0.2935 -0.4352
19629SOL    HW260176   3.663   7.355   7.267 -0.3081  0.4425  0.3739
19630SOL     OW60177   6.892   7.224   2.042  0.2132 -0.3330  0.1904
19630SOL    HW160178   6.799   7.239   2.023  0.0804 -0.8076  0.4623
19630SOL    HW260179   6.921   7.306   2.083 -0.1293 -0.2499  0.2742
19631SOL     OW60180   2.235   4.514   7.743  0.1554 -0.0702  0.4985
19631SOL    HW160181   2.313   4.474   7.703  0.1345  0.2835  0.0799
19631SOL    HW260182   2.177   4.530   7.669  0.2511  0.9085  0.6170
19632SOL     OW60183   6.425   0.698   1.332 -0.4186 -0.1058 -0.4007
19632SOL    HW160184   6.469   0.745   1.403  0.2114  1.3613 -1.7068
19632SOL    HW260185   6.496   0.649   1.289  0.1432  2.3496 -2.5809
19633SOL     OW60186   5.669   6.184   3.534  0.1105  0.0062  0.1844
19633SOL    HW160187   5.597   6.231   3.494 -0.2057  0.9253  1.7636
19633SOL    HW260188   5.672   6.100   3.487 -1.5745  0.1952 -0.3175
19634SOL     OW60189   0.694   1.024   0.967 -0.3740 -0.1581 -0.1088
19634SOL    HW160190   0.706   0.995   1.057 -1.6707  1.3960  0.6273
19634SOL    HW260191   0.696   1.120   0.972 -0.6898 -0.0332 -1.6838
19635SOL     OW60192   5.418   4.751   7.826 -0.1146  0.5233  0.6756
19635SOL    HW160193   5.391   4.745   7.917  0.1254 -0.2009  0.7125
19635SOL    HW260194   5.345   4.793   7.781 -0.4026  0.5139  1.1308
19636SOL     OW60195   4.497   6.827   5.915 -0.0459 -0.2943  0.1632
19636SOL    HW160196   4.410   6.820   5.875  0.0042 -0.8600  0.1433
19636SOL    HW260197   4.487   6.893   5.983 -0.8672 -1.3603  1.1235
19637SOL     OW60198   1.071   6.597   8.344  0.0693  0.5153 -0.2750
19637SOL    HW160199   1.011   6.647   8.399  0.3094 -0.3630  0.8198
19637SOL    HW260200   1.043   6.506   8.355 -0.3944  0.3694 -2.2731
19638SOL     OW60201   2.114   8.091   3.247  0.5027 -1.0766  0.4693
19638SOL    HW160202   2.077   8.003   3.242 -0.1509 -0.8144  0.4674
19638SOL    HW260203   2.062   8.134   3.316 -0.0989 -0.2862 -0.4487
19639SOL     OW60204   6.968   1.132   6.523  0.2334  0.3773 -0.6273
19639SOL    HW160205   6.925   1.052   6.550 -2.5852  1.3792 -1.7349
19639SOL    HW260206   6.926   1.201   6.574  1.8949  1.3002 -0.4093
19640SOL     OW60207   1.113   6.372   0.841  0.5289  0.4485  0.0815
19640SOL    HW160208   1.143   6.428   0.770 -3.0263 -0.1956 -2.1709
19640SOL    HW260209   1.095   6.433   0.913 -0.3399  1.8178 -1.2501
19641SOL     OW60210   6.494   5.891   5.242 -0.3540 -0.1328 -0.3165
19641SOL    HW160211   6.447   5.930   5.315 -0.9817 -1.3013 -0.0657
19641SOL    HW260212   6.477   5.950   5.168 -1.8751 -0.2852 -0.1213
19642SOL     OW60213   7.307   3.483   3.446  0.7478  0.2910  0.3866
19642SOL    HW160214   7.353   3.441   3.519  1.5226 -0.0507 -0.2752
19642SOL    HW260215   7.342   3.572   3.444  1.2429  0.0985  0.0255
19643SOL     OW60216   6.627   8.644   8.252  0.3724 -0.0529 -0.0902
19643SOL    HW160217   6.720   8.637   8.232  0.6793 -0.5744  1.3789
19643SOL    HW260218   6.607   8.565   8.302 -0.8501  0.0811 -0.3322
19644SOL     OW60219   1.474   3.533   3.802  0.0056 -0.2333 -0.7418
19644SOL    HW160220   1.434   3.533   3.715 -1.7843  0.5015  0.0384
19644SOL    HW260221   1.528   3.612   3.804 -1.9564  1.1479 -0.3470
19645SOL     OW60222   6.742   8.076   5.251  0.6194 -0.0274  0.3219
19645SOL    HW160223   6.773   7.985   5.248  0.6833 -0.0265  0.8228
19645SOL    HW260224   6.670   8.079   5.188  0.3606 -0.5275  0.5880
19646SOL     OW60225   2.872   8.096   2.652  0.1552 -0.5598 -0.4825
19646SOL    HW160226   2.882   8.132   2.564 -0.3061  1.5478  0.2745
19646SOL    HW260227   2.843   8.170   2.705  2.6426 -1.1643  1.9355
19647SOL     OW60228   4.759   3.684   0.888  0.0617 -0.0896  0.3782
19647SOL    HW160229   4.696   3.745   0.926  0.8084  1.5761 -0.9376
19647SOL    HW260230   4.707   3.607   0.863 -1.3750  1.0592 -0.2604
19648SOL     OW60231   0.501   8.402   6.341  0.1375  0.6220  0.0352
19648SOL    HW160232   0.472   8.314   6.364 -1.3225  0.8668 -0.6953
19648SOL    HW260233   0.574   8.420   6.399 -0.8469 -0.2963  1.6248
19649SOL     OW60234   6.889   7.117   2.620 -0.4043 -0.0293  0.5488
19649SOL    HW160235   6.877   7.085   2.531  1.0713 -1.5938  0.8563
19649SOL    HW260236   6.825   7.069   2.672  0.4000 -0.9876  0.6843
19650SOL     OW60237   1.702   2.619   6.203 -0.0555 -0.5237  0.0393
19650SOL    HW160238   1.634   2.555   6.182 -0.5941 -0.3741  1.2509
19650SOL    HW260239   1.778   2.566   6.228 -0.2366 -0.6975  0.2244
19651SOL     OW60240   6.390   6.649   4.922 -0.0089  0.3404  0.0085
19651SOL    HW160241   6.318   6.701   4.955  0.0725  0.5173 -0.0941
19651SOL    HW260242   6.370   6.559   4.950 -1.9346 -0.2151 -2.7023
19652SOL     OW60243   0.797   4.513   2.841 -0.0691 -0.0704  0.0702
19652SOL    HW160244   0.828   4.603   2.834  1.8739 -0.7499 -0.4622
19652SOL    HW260245   0.715   4.512   2.792 -0.1839  1.4131  0.1833
19653SOL     OW60246   5.320   3.095   1.176 -0.5676 -0.0275  0.2866
19653SOL    HW160247   5.242   3.124   1.128  0.4794 -0.0976 -1.5527
19653SOL    HW260248   5.393   3.114   1.117  0.7009 -1.1975  1.3965
19654SOL     OW60249   6.078   5.677   6.428  0.0225 -0.0040  0.2561
19654SOL    HW160250   6.105   5.687   6.520  0.6935 -4.5197  0.8209
19654SOL    HW260251   5.986   5.701   6.427  0.4530  1.8948  1.6602
19655SOL     OW60252   7.404   3.982   4.487  0.6261  0.2160  0.1696
19655SOL    HW160253   7.442   4.002   4.572  0.2696 -0.3682  0.4749
19655SOL    HW260254   7.422   3.889   4.474  0.6475  0.2895 -0.3805
19656SOL     OW60255   2.285   1.329   6.079 -0.3653  0.6068 -0.5551
19656SOL    HW160256   2.347   1.315   6.007  1.0949 -0.0027  0.7733
19656SOL    HW260257   2.254   1.241   6.101  0.6061  0.5652  0.7473
19657SOL     OW60258   4.743   4.469   1.102 -0.0577 -0.0951  0.4543
19657SOL    HW160259   4.684   4.417   1.048 -0.3116  0.7132 -0.0551
19657SOL    HW260260   4.830   4.438   1.079 -0.2774 -1.8723  1.7979
19658SOL     OW60261   4.771   2.409   0.007 -0.1109  0.1977 -0.4581
19658SOL    HW160262   4.823   2.372  -0.065  0.7351  0.9436 -0.2506
19658SOL    HW260263   4.696   2.450  -0.037  1.3604  2.3221 -1.1503
19659SOL     OW60264   6.452   7.625   6.194  0.4492 -0.0410  0.2613
19659SOL    HW160265   6.486   7.689   6.257 -0.1374  1.1131 -0.5532
19659SOL    HW260266   6.377   7.585   6.239  1.6658 -1.2084  1.3181
19660SOL     OW60267   4.782   3.168   3.790 -0.1612  0.3212  0.3829
19660SOL    HW160268   4.711   3.166   3.854 -0.6731  1.1618 -0.1358
19660SOL    HW260269   4.838   3.240   3.819 -0.2158  0.4900  0.0673
19661SOL     OW60270   2.356   6.317   7.864 -0.0774  0.0876  0.2282
19661SOL    HW160271   2.437   6.350   7.904  0.1109  0.5545 -0.5053
19661SOL    HW260272   2.291   6.320   7.934 -0.3122  2.9360  0.0202
19662SOL     OW60273   8.122   0.287   4.620 -0.1316  0.1182  0.8829
19662SOL    HW160274   8.170   0.252   4.545  0.5004  2.2551  0.2196
19662SOL    HW260275   8.030   0.272   4.598  0.0043  1.5133 -0.7840
19663SOL     OW60276   5.036   0.691   1.275  0.0531 -0.4234  1.1192
19663SOL    HW160277   4.963   0.648   1.230  0.3951  1.1141 -1.0839
19663SOL    HW260278   4.995   0.741   1.345 -0.7050 -1.5022  1.4707
19664SOL     OW60279   2.727   5.190   4.170 -0.0008 -0.2627 -0.4377
19664SOL    HW160280   2.724   5.164   4.078 -0.7417 -1.2632 -0.1468
19664SOL    HW260281   2.807   5.150   4.204  0.5417  0.5274 -0.7532
19665SOL     OW60282   1.073   0.070   2.925 -0.0903 -0.5015 -0.0552
19665SOL    HW160283   1.162   0.038   2.912  0.0798  0.3374 -1.0956
19665SOL    HW260284   1.083   0.153   2.971 -0.3138 -0.2861 -0.3896
19666SOL     OW60285   2.676   4.763   5.026  0.0343 -0.6647  0.4431
19666SOL    HW160286   2.611   4.815   5.074  0.0164 -0.9770  0.7670
19666SOL    HW260287   2.755   4.769   5.079  0.6644  0.7565 -0.5901
19667SOL     OW60288   7.968   6.077   0.392 -0.0435 -0.3277  0.1934
19667SOL    HW160289   8.018   6.109   0.317 -1.3389  0.7681 -0.2329
19667SOL    HW260290   7.877   6.079   0.362 -0.5994  0.2931  1.8495
19668SOL     OW60291   0.308   4.751   7.110 -0.2070  0.2007  0.4341
19668SOL    HW160292   0.337   4.665   7.141  0.1544  0.9378  2.2621
19668SOL    HW260293   0.240   4.777   7.171 -0.3501  1.1934 -0.1344
19669SOL     OW60294   0.454   6.676   6.045 -0.4808  0.5267  0.3025
19669SOL    HW160295   0.540   6.655   6.081  0.4088 -0.1748 -2.0206
19669SOL    HW260296   0.400   6.599   6.065 -0.1687  0.3853  0.6116
19670SOL     OW60297   5.423   4.383   8.230  0.5276 -0.2614  0.5216
19670SOL    HW160298   5.397   4.292   8.242 -0.2955 -0.0024  0.7701
19670SOL    HW260299   5.427   4.395   8.135  0.8788 -0.6156  0.4876
19671SOL     OW60300   5.935   3.242   4.251 -0.1858  0.1378  0.0685
19671SOL    HW160301   5.895   3.289   4.178 -0.0959  1.0232  0.5740
19671SOL    HW260302   5.876   3.169   4.268  0.4593 -0.8771 -1.7215
19672SOL     OW60303   4.794   5.437   7.737  0.5266  0.1193  0.5045
19672SOL    HW160304   4.774   5.493   7.661 -1.2710 -1.1629 -0.0277
19672SOL    HW260305   4.801   5.498   7.810 -1.8598  1.0625  0.0361
19673SOL     OW60306   3.451   5.154   7.606 -0.2206  0.0016 -0.7081
19673SOL    HW160307   3.516   5.165   7.676 -0.0148 -1.5695 -0.6163
19673SOL    HW260308   3.374   5.120   7.651  0.1434 -1.7173 -1.2847
19674SOL     OW60309   8.319   7.997   0.027 -0.2298  0.5437  0.4233
19674SOL    HW160310   8.271   7.920  -0.004  0.6733 -0.0538  0.4769
19674SOL    HW260311   8.320   7.987   0.123 -1.1956  1.2969  0.5383
19675SOL     OW60312   0.671   3.780   6.626 -0.1906  0.4228  0.1224
19675SOL    HW160313   0.657   3.685   6.620  0.0468  0.3895  0.1028
19675SOL    HW260314   0.763   3.789   6.650 -0.4693  0.6181  1.1542
19676SOL     OW60315   6.531   8.465   4.471  0.3470  0.2287  0.8639
19676SOL    HW160316   6.526   8.370   4.479  1.0380  0.3315  3.4777
19676SOL    HW260317   6.623   8.482   4.448  0.3362  0.2973  0.8693
19677SOL     OW60318   1.202   1.515   1.388  0.4209  0.6857 -0.1109
19677SOL    HW160319   1.194   1.421   1.371  0.3152  0.4750  1.0076
19677SOL    HW260320   1.200   1.555   1.301 -0.6351 -0.2676 -0.5635
19678SOL     OW60321   6.422   2.247   2.384 -0.0455  0.0219  0.1243
19678SOL    HW160322   6.462   2.319   2.434 -0.6287 -0.0163  0.6594
19678SOL    HW260323   6.449   2.168   2.430 -2.0951  0.0653  1.5514
19679SOL     OW60324   2.557   6.471   7.982  0.8086 -0.2010  0.0556
19679SOL    HW160325   2.651   6.470   7.964  1.2176  0.5943  1.9069
19679SOL    HW260326   2.538   6.562   8.005 -0.2535 -0.5134  0.4482
19680SOL     OW60327   1.497   8.686   1.124  0.3602 -0.5663 -0.1590
19680SOL    HW160328   1.454   8.765   1.158  1.5432 -1.1436  3.0270
19680SOL    HW260329   1.582   8.716   1.093 -0.2247 -0.2276 -1.4879
19681SOL     OW60330   8.231   3.565   2.100  0.6859  0.2775  0.5987
19681SOL    HW160331   8.190   3.626   2.039  1.2010 -0.0023 -0.0346
19681SOL    HW260332   8.200   3.479   2.072 -0.1398  0.2326  1.5675
19682SOL     OW60333   1.217   5.894   0.561  0.6625  0.5227 -0.2146
19682SOL    HW160334   1.258   5.835   0.497 -0.3023  0.1921 -0.5534
19682SOL    HW260335   1.142   5.931   0.514 -1.0064 -0.9182  1.1695
19683SOL     OW60336   0.205   7.716   0.199  0.5407  0.3032  0.1654
19683SOL    HW160337   0.205   7.762   0.283  1.8788 -0.2502  0.5000
19683SOL    HW260338   0.290   7.672   0.196  0.3113 -0.0950 -1.2644
19684SOL     OW60339   1.730   7.683   4.803 -0.2617 -0.1370  0.4343
19684SOL    HW160340   1.683   7.679   4.720  0.4553  0.3262 -0.0093
19684SOL    HW260341   1.681   7.747   4.856 -0.2457  0.1887  0.0575
19685SOL     OW60342   3.966   5.045   3.372 -0.2137  0.0480  0.0972
19685SOL    HW160343   3.871   5.040   3.382  0.0863 -1.0248  3.6746
19685SOL    HW260344   3.985   5.138   3.364 -1.5131  0.3131 -0.1417
19686SOL     OW60345   0.760   2.100   0.360 -0.4075 -0.5242  0.1344
19686SOL    HW160346   0.704   2.060   0.293 -0.7937 -1.0480  0.7523
19686SOL    HW260347   0.849   2.086   0.328 -0.5619 -1.3702  0.0502
19687SOL     OW60348   7.743   4.274   6.815  0.1704 -0.1302  0.4424
19687SOL    HW160349   7.698   4.340   6.763 -0.1060 -0.1418  0.6612
19687SOL    HW260350   7.810   4.239   6.757 -0.1764 -0.1893  0.0739
19688SOL     OW60351   1.053   2.128   5.993  0.0301 -0.1064 -0.1244
19688SOL    HW160352   0.975   2.162   6.037 -0.6098 -0.5973 -0.8541
19688SOL    HW260353   1.064   2.040   6.027 -0.2206 -0.3368 -0.6371
19689SOL     OW60354   1.871   8.551   6.313 -0.1580  0.1805 -0.4303
19689SOL    HW160355   1.957   8.576   6.348 -0.0529 -0.0457 -0.5192
19689SOL    HW260356   1.832   8.633   6.283  0.1034  0.2626 -0.5509
19690SOL     OW60357   1.956   8.139   7.963 -0.0852  0.0218 -0.1241
19690SOL    HW160358   1.861   8.145   7.974 -0.3851 -0.2340 -2.1502
19690SOL    HW260359   1.981   8.058   8.008 -1.2102 -1.1483 -1.4979
19691SOL     OW60360   6.741   4.382   6.255 -0.2171 -0.4872  0.3308
19691SOL    HW160361   6.738   4.358   6.348 -0.4161  1.9562  1.0389
19691SOL    HW260362   6.833   4.375   6.232  0.2824  1.4422  1.5253
19692SOL     OW60363   0.651   1.152   1.933  0.8072  0.3858 -0.7440
19692SOL    HW160364   0.746   1.149   1.941  0.7955  1.1637 -0.1103
19692SOL    HW260365   0.622   1.198   2.012 -0.0850  0.2495 -0.9790
19693SOL     OW60366   3.092   5.016   2.249  0.0519 -0.1334 -0.2768
19693SOL    HW160367   3.143   5.086   2.209  0.4145 -1.2745 -1.9128
19693SOL    HW260368   3.119   5.016   2.341  0.9619  1.0551 -0.5241
19694SOL     OW60369   2.861   3.087   5.720  0.5357 -0.2952  0.4068
19694SOL    HW160370   2.827   3.176   5.723  1.2154  0.0720 -1.3943
19694SOL    HW260371   2.847   3.053   5.808 -1.4518  0.9364  0.6325
19695SOL     OW60372   1.012   4.925   3.629  0.2715  1.0445 -1.0693
19695SOL    HW160373   1.023   4.855   3.565  1.3677  0.2699 -0.0670
19695SOL    HW260374   0.951   4.888   3.694  0.3743  1.2470 -0.8581
19696SOL     OW60375   2.993   7.673   0.692  0.1319  0.2272 -0.4418
19696SOL    HW160376   2.988   7.580   0.712 -0.4713  0.7964  2.6612
19696SOL    HW260377   3.085   7.687   0.668  0.2265 -1.1510 -0.9591
19697SOL     OW60378   5.193   1.196   2.836 -0.0136 -0.4103  0.3935
19697SOL    HW160379   5.235   1.174   2.919  0.2402 -1.9833 -0.1130
19697SOL    HW260380   5.101   1.171   2.849  0.0538 -0.7849  0.1670
19698SOL     OW60381   4.392   6.111   2.597  0.4715 -0.0834 -0.3622
19698SOL    HW160382   4.314   6.152   2.561 -0.2512  0.9406  2.1622
19698SOL    HW260383   4.463   6.137   2.537 -1.1089 -1.4335 -2.9665
19699SOL     OW60384   7.367   6.768   5.013 -1.0305  0.7396  0.6072
19699SOL    HW160385   7.302   6.754   4.944 -0.2728 -1.3932  0.2577
19699SOL    HW260386   7.447   6.792   4.967 -0.0600 -2.2948  0.4629
19700SOL     OW60387   7.888   2.348   6.180 -1.0371  0.0360  0.4998
19700SOL    HW160388   7.806   2.392   6.201 -1.0912  0.5719 -0.7586
19700SOL    HW260389   7.878   2.322   6.089 -1.4273 -3.5134  1.4011
19701SOL     OW60390   5.988   8.600   1.560 -0.7100  0.0295 -0.3154
19701SOL    HW160391   6.041   8.522   1.573 -0.1120  0.3974 -0.5297
19701SOL    HW260392   5.986   8.614   1.466 -2.1914 -0.6597 -0.4178
19702SOL     OW60393   3.383   0.309   4.238 -0.2851  0.2203 -0.3488
19702SOL    HW160394   3.317   0.316   4.306  0.9061  1.1076  0.7665
19702SOL    HW260395   3.360   0.376   4.174 -1.7102 -0.9662 -1.1249
19703SOL     OW60396   1.522   6.253   4.166  0.5680  0.3315  0.3815
19703SOL    HW160397   1.429   6.253   4.191  0.9365  3.6946  2.2852
19703SOL    HW260398   1.523   6.296   4.080  0.4191  0.9971  0.7088
19704SOL     OW60399   2.837   5.026   0.346 -0.3958  0.3795  0.1466
19704SOL    HW160400   2.906   5.091   0.356 -0.4150  0.2752  0.9977
19704SOL    HW260401   2.768   5.072   0.298 -0.8311  1.3230  1.5953
19705SOL     OW60402   5.665   3.392   5.462 -0.0147  0.5751 -0.5385
19705SOL    HW160403   5.730   3.344   5.513  0.3759  0.0805 -1.4779
19705SOL    HW260404   5.581   3.368   5.500  0.0339 -2.0823 -1.9172
19706SOL     OW60405   4.271   1.136   8.535  0.2117 -0.4719  0.4773
19706SOL    HW160406   4.258   1.197   8.608 -1.0909  0.6807 -0.6599
19706SOL    HW260407   4.254   1.050   8.572  0.9918 -0.0549  1.8611
19707SOL     OW60408   4.400   5.356   5.994  0.1251  0.7257 -0.0114
19707SOL    HW160409   4.326   5.301   5.970  1.3858 -0.7312 -0.6811
19707SOL    HW260410   4.403   5.352   6.090  1.4283 -2.1363 -0.0894
19708SOL     OW60411   4.650   3.234   5.261 -0.5225 -0.3217 -0.0281
19708SOL    HW160412   4.732   3.277   5.284  0.7284 -1.2550 -2.4292
19708SOL    HW260413   4.609   3.215   5.346  1.4848  0.6134  1.2324
19709SOL     OW60414   4.083   0.222   6.444  0.2664  0.2015  0.0763
19709SOL    HW160415   4.131   0.223   6.362  0.9060 -0.9033  0.4207
19709SOL    HW260416   4.109   0.140   6.486  0.1247  0.8533  1.4819
19710SOL     OW60417   8.146   7.279   1.284  0.8704  0.2454  0.4384
19710SOL    HW160418   8.083   7.212   1.311  0.9314 -0.1839 -0.4580
19710SOL    HW260419   8.180   7.315   1.366 -0.2045  0.1666  0.9337
19711SOL     OW60420   3.194   8.132   3.447 -0.2909  0.6678  0.0280
19711SOL    HW160421   3.109   8.091   3.463 -0.8477  0.7310 -2.4462
19711SOL    HW260422   3.174   8.211   3.397  1.2085  0.8813 -0.2876
19712SOL     OW60423   0.026   0.015   0.799 -0.9537 -0.2476 -0.4269
19712SOL    HW160424   0.065   0.049   0.879 -0.4669 -1.2125 -0.2303
19712SOL    HW260425  -0.001  -0.074   0.822 -1.6656 -0.2070 -1.0697
19713SOL     OW60426   6.273   5.201   8.205 -0.2172  0.0968  0.0705
19713SOL    HW160427   6.329   5.192   8.282  0.5690  1.9597 -0.2199
19713SOL    HW260428   6.210   5.269   8.229  0.9612  1.7875 -1.3666
19714SOL     OW60429   8.654   5.717   8.650  0.6353 -0.4765 -0.1292
19714SOL    HW160430   8.732   5.665   8.629  0.6657 -0.6835  0.4855
19714SOL    HW260431   8.689   5.801   8.679  0.5843 -0.0683 -1.1955
19715SOL     OW60432   4.354   2.282   8.650 -0.0636 -0.0540  0.1781
19715SOL    HW160433   4.343   2.187   8.644  3.0751 -0.5713  1.0455
19715SOL    HW260434   4.294   2.308   8.720 -2.6094 -0.9543 -1.5152
19716SOL     OW60435   4.429   5.830   8.136  0.0697 -0.1224 -0.1291
19716SOL    HW160436   4.478   5.894   8.188  1.8832  0.7447 -2.6952
19716SOL    HW260437   4.394   5.768   8.200  0.3085  2.0528  2.2575
19717SOL     OW60438   4.056   4.418   4.368  0.0194  0.1633 -0.3503
19717SOL    HW160439   4.125   4.456   4.423 -0.6019  1.4753 -0.4427
19717SOL    HW260440   4.103   4.382   4.293  0.7424 -0.3830  0.3352
19718SOL     OW60441   7.449   8.180   3.651 -0.0405  0.5057  0.6864
19718SOL    HW160442   7.427   8.264   3.691  1.3324  1.9331 -1.3305
19718SOL    HW260443   7.521   8.200   3.591  0.4539 -2.1658  0.2303
19719SOL     OW60444   2.346   1.996   3.377  0.0538  0.2591  0.5570
19719SOL    HW160445   2.345   1.904   3.402 -1.0684  0.0339 -0.2437
19719SOL    HW260446   2.421   2.004   3.317  0.9633  0.1786  1.6488
19720SOL     OW60447   3.761   2.070   4.103 -0.9123  0.3778  0.2021
19720SOL    HW160448   3.758   2.151   4.053  0.7060  0.9328  0.9518
19720SOL    HW260449   3.817   2.012   4.050  2.0066  1.4436  1.9128
19721SOL     OW60450   6.862   7.345   8.111  0.0271  0.5506  0.1463
19721SOL    HW160451   6.899   7.256   8.116  0.4396  0.7378  0.4716
19721SOL    HW260452   6.938   7.402   8.119 -0.4051  0.9571  1.4319
19722SOL     OW60453   2.631   1.384   2.088  0.2505  0.2585 -0.0667
19722SOL    HW160454   2.676   1.300   2.092  0.0200  0.1462  0.2559
19722SOL    HW260455   2.628   1.406   1.995 -2.2846 -1.5227 -0.5111
19723SOL     OW60456   0.310   6.612   1.326  0.6516 -0.4979  0.2876
19723SOL    HW160457   0.278   6.700   1.302 -0.3602 -0.1560  2.6607
19723SOL    HW260458   0.405   6.618   1.314  0.7481  1.3357  1.4682
19724SOL     OW60459   6.159   4.944   7.212 -0.0185  0.6496  0.3942
19724SOL    HW160460   6.194   4.931   7.300 -0.6313  0.0123  0.5579
19724SOL    HW260461   6.228   4.988   7.164  0.4464  0.7073  1.1081
19725SOL     OW60462   6.345   4.361   7.315 -0.0633  0.0757  0.3037
19725SOL    HW160463   6.323   4.401   7.231 -3.1530  0.5596  1.2302
19725SOL    HW260464   6.287   4.286   7.322  2.5480 -2.0763  0.5880
19726SOL     OW60465   4.219   3.592   3.412 -0.0712 -0.3411  0.1580
19726SOL    HW160466   4.160   3.524   3.445  0.0596 -0.1047  0.8884
19726SOL    HW260467   4.176   3.674   3.434 -0.0313 -0.1763 -0.3611
19727SOL     OW60468   1.371   2.854   2.379 -0.0731  0.7767 -0.4218
19727SOL    HW160469   1.318   2.928   2.407 -2.5919 -1.7104  1.9953
19727SOL    HW260470   1.457   2.870   2.418 -1.6422  0.7102  3.5096
19728SOL     OW60471   2.048   4.596   6.721 -1.0046  1.0161  0.2162
19728SOL    HW160472   1.995   4.520   6.746  0.3165  0.1369  0.4649
19728SOL    HW260473   2.073   4.579   6.630 -1.1321  1.4024  0.1098
19729SOL     OW60474   0.674   0.083   7.786 -0.0861 -0.1605  0.5587
19729SOL    HW160475   0.683  -0.002   7.830  1.5140 -1.1803 -1.5585
19729SOL    HW260476   0.621   0.065   7.708 -2.4299  1.5022  1.6297
19730SOL     OW60477   5.748   2.706   4.773  0.2584 -0.5273 -0.1009
19730SOL    HW160478   5.724   2.639   4.710  0.1531  0.1487 -0.7932
19730SOL    HW260479   5.838   2.729   4.750 -0.0068  0.1940 -0.4407
19731SOL     OW60480   5.248   6.836   5.438 -0.1334  0.3959  0.0327
19731SOL    HW160481   5.292   6.892   5.374  1.1109  1.3940  1.6619
19731SOL    HW260482   5.291   6.751   5.430  2.8652  1.5563  2.1458
19732SOL     OW60483   7.987   6.933   8.258  0.0972  0.2304 -0.4240
19732SOL    HW160484   8.023   6.862   8.311  0.1715  0.7481  0.2285
19732SOL    HW260485   7.980   6.896   8.170  1.2981 -0.1959 -0.3613
19733SOL     OW60486   0.310   5.565   6.855 -0.1555  0.5808  0.1676
19733SOL    HW160487   0.287   5.556   6.947 -1.8086  0.6732 -0.2050
19733SOL    HW260488   0.302   5.477   6.819  0.3881  0.5635  0.0664
19734SOL     OW60489   8.644   4.974   0.745  0.0859  0.2914 -0.2211
19734SOL    HW160490   8.577   4.952   0.810  0.6601 -2.7878 -0.5388
19734SOL    HW260491   8.599   4.967   0.661  0.4528 -0.3881 -0.3656
19735SOL     OW60492   1.435   6.514   4.054 -0.5150 -0.0203  0.2181
19735SOL    HW160493   1.507   6.571   4.028 -1.4622  1.6826  1.1567
19735SOL    HW260494   1.357   6.567   4.042 -1.4977 -1.3201  0.6213
19736SOL     OW60495   0.801   2.734   1.313 -0.3859  0.0757 -0.7289
19736SOL    HW160496   0.726   2.705   1.364  0.3515 -0.1948  0.2287
19736SOL    HW260497   0.810   2.827   1.334  1.5720 -0.5779  1.9089
19737SOL     OW60498   7.223   6.356   2.754  0.4574 -0.0892  0.0887
19737SOL    HW160499   7.257   6.272   2.784 -1.1994 -0.6614  0.4517
19737SOL    HW260500   7.182   6.337   2.670 -0.1991  0.2792  0.3163
19738SOL     OW60501   0.732   7.497   8.173  0.0748 -0.0496  0.0312
19738SOL    HW160502   0.715   7.403   8.177  0.9633 -0.1699  1.3414
19738SOL    HW260503   0.767   7.511   8.085  1.4391 -1.2142  0.3621
19739SOL     OW60504   6.685   6.737   7.546 -0.2131  0.0684 -0.4729
19739SOL    HW160505   6.716   6.659   7.592  1.2720  1.1191  0.4218
19739SOL    HW260506   6.590   6.736   7.557 -0.0545 -0.6877  1.0660
19740SOL     OW60507   8.669   8.649   8.587  0.3232  0.7026 -0.9727
19740SOL    HW160508   8.610   8.575   8.574 -0.8155  1.7750 -2.3521
19740SOL    HW260509   8.729   8.645   8.512  2.0166 -0.3366  0.3805
19741SOL     OW60510   4.890   5.305   7.231  0.0092 -0.5010 -0.2186
19741SOL    HW160511   4.844   5.269   7.156 -1.3475  0.3777  0.1451
19741SOL    HW260512   4.823   5.313   7.299  0.9075 -0.0427  0.6520
19742SOL     OW60513   3.666   2.786   7.306 -0.0540 -0.8281 -0.6815
19742SOL    HW160514   3.629   2.843   7.239  1.4211  0.9595 -0.0843
19742SOL    HW260515   3.599   2.784   7.375 -0.1460  0.2391 -0.7171
19743SOL     OW60516   8.189   1.584   1.372  0.4380 -0.2756  0.4222
19743SOL    HW160517   8.230   1.592   1.458  1.0899 -0.8579  0.1773
19743SOL    HW260518   8.217   1.499   1.340  0.9679  0.3133 -0.7477
19744SOL     OW60519   4.369   5.197   3.782 -0.2297  0.9326  0.1531
19744SOL    HW160520   4.310   5.270   3.760  1.1696  1.9601 -0.3481
19744SOL    HW260521   4.421   5.230   3.856  1.1566  0.8820 -0.7581
19745SOL     OW60522   2.322   6.517   4.774  0.4540  0.5749 -0.4358
19745SOL    HW160523   2.255   6.545   4.711  1.5850 -0.3409 -2.1114
19745SOL    HW260524   2.405   6.546   4.736  1.2008 -0.3401  0.4387
19746SOL     OW60525   7.157   5.149   0.766  0.3977 -0.4372  0.2947
19746SOL    HW160526   7.158   5.240   0.794 -0.4667 -0.7054  1.2329
19746SOL    HW260527   7.218   5.147   0.692 -0.9779  1.2938 -0.9726
19747SOL     OW60528   5.381   4.294   1.653 -0.4421  0.2698  0.6369
19747SOL    HW160529   5.304   4.338   1.615  0.1163  1.7890  1.1832
19747SOL    HW260530   5.454   4.321   1.597  0.0248  0.6639  1.4146
19748SOL     OW60531   5.536   8.123   1.849 -0.0366  0.9601  0.6881
19748SOL    HW160532   5.567   8.049   1.796 -0.9986 -0.8546  2.5023
19748SOL    HW260533   5.498   8.184   1.785  0.1424 -0.4484 -0.8348
19749SOL     OW60534   2.629   4.447   4.664  0.1723 -0.3943 -0.0657
19749SOL    HW160535   2.612   4.459   4.758  1.5545 -2.3099  0.5018
19749SOL    HW260536   2.703   4.504   4.646 -1.7520  2.0768 -0.7245
19750SOL     OW60537   1.544   6.300   4.834  0.1453 -0.2108 -0.2110
19750SOL    HW160538   1.546   6.253   4.751 -1.2842 -0.0873 -0.3351
19750SOL    HW260539   1.522   6.233   4.899 -3.2275  0.3711 -0.5526
19751SOL     OW60540   3.736   5.781   7.215 -0.4562 -0.1445  0.0919
19751SOL    HW160541   3.646   5.789   7.245 -1.2163 -1.8776 -1.4888
19751SOL    HW260542   3.771   5.870   7.219 -1.3719  0.2265  3.1049
19752SOL     OW60543   3.458   7.775   4.204  0.2347  0.2239  0.0188
19752SOL    HW160544   3.407   7.699   4.232 -0.3468  0.9588  0.9696
19752SOL    HW260545   3.523   7.738   4.144  2.0457 -1.5677  2.8370
19753SOL     OW60546   1.210   1.985   1.625  0.2566 -0.1939  0.7819
19753SOL    HW160547   1.155   2.041   1.571  0.5462 -0.2854  0.3844
19753SOL    HW260548   1.174   1.897   1.615  0.9284 -0.3859 -0.1016
19754SOL     OW60549   3.457   5.025   5.776  0.1226  0.3692 -0.2815
19754SOL    HW160550   3.382   5.079   5.751 -1.4510 -1.1606  0.8747
19754SOL    HW260551   3.419   4.942   5.802  2.3246 -0.7586 -0.4230
19755SOL     OW60552   6.171   7.772   7.816 -0.0574 -0.2073 -0.4898
19755SOL    HW160553   6.088   7.812   7.843 -0.7424 -1.2950 -0.9118
19755SOL    HW260554   6.199   7.824   7.741  0.1146  0.7296  0.2083
19756SOL     OW60555   2.217   7.720   6.189 -0.0310 -0.2535  0.2902
19756SOL    HW160556   2.126   7.705   6.212 -0.5492 -1.6248 -2.3327
19756SOL    HW260557   2.218   7.805   6.146 -0.5977 -1.2998 -1.9110
19757SOL     OW60558   2.131   3.355   0.317  0.0725  0.2128  0.0564
19757SOL    HW160559   2.152   3.423   0.380  2.1409 -1.3236  1.1447
19757SOL    HW260560   2.080   3.291   0.366  0.4905 -0.3249 -0.2026
19758SOL     OW60561   1.564   1.153   3.541  0.1851 -0.3824  0.7400
19758SOL    HW160562   1.659   1.151   3.540  0.1911 -2.4265 -0.2976
19758SOL    HW260563   1.539   1.089   3.608 -0.4648  0.4018  1.2616
19759SOL     OW60564   5.786   8.423   1.601  0.0671  0.4030  0.0797
19759SOL    HW160565   5.860   8.483   1.599  0.7670 -0.1901  3.1662
19759SOL    HW260566   5.807   8.357   1.535  2.7652 -0.1739  1.3659
19760SOL     OW60567   5.460   5.828   1.528  0.7277 -0.2604  0.2128
19760SOL    HW160568   5.525   5.765   1.496  0.3245 -0.4201 -0.2987
19760SOL    HW260569   5.512   5.895   1.572  1.5845  1.3477 -2.9460
19761SOL     OW60570   4.922   0.257   0.102 -0.1199 -0.1917  0.0633
19761SOL    HW160571   5.016   0.266   0.113 -0.2389 -0.4230  1.5462
19761SOL    HW260572   4.885   0.311   0.172 -1.0089 -2.6940  1.6556
19762SOL     OW60573   4.164   4.400   0.134 -0.1984  0.5620  0.3641
19762SOL    HW160574   4.170   4.403   0.229 -0.8869 -1.7154  0.5481
19762SOL    HW260575   4.209   4.319   0.110 -2.3435 -0.3215 -0.9668
19763SOL     OW60576   8.065   6.937   1.228  0.4837  0.5391 -0.1211
19763SOL    HW160577   8.056   6.959   1.135  1.2359  0.7659 -0.1501
19763SOL    HW260578   7.983   6.893   1.251  0.6133 -0.2472 -1.1070
19764SOL     OW60579   6.487   3.929   1.790  0.4804 -0.6935  0.5519
19764SOL    HW160580   6.447   3.975   1.864 -0.2867 -1.2558  0.4987
19764SOL    HW260581   6.425   3.942   1.718  0.4778 -1.4245  0.4158
19765SOL     OW60582   1.862   5.560   2.352 -0.0782  0.1136 -0.3694
19765SOL    HW160583   1.777   5.596   2.327 -0.2229 -0.1593 -0.2750
19765SOL    HW260584   1.926   5.613   2.305 -0.2457  1.0821  0.4697
19766SOL     OW60585   2.081   2.755   6.166 -0.7089 -0.0033 -0.0748
19766SOL    HW160586   2.102   2.731   6.256 -2.1738  0.2221  0.3527
19766SOL    HW260587   2.163   2.789   6.130 -0.5367  1.7358  1.7741
19767SOL     OW60588   7.593   0.299   0.661  0.3877  0.0175 -0.2517
19767SOL    HW160589   7.659   0.360   0.694 -0.1295  0.0988  0.6683
19767SOL    HW260590   7.629   0.268   0.578  1.3466  0.4400 -0.0140
19768SOL     OW60591   7.010   8.559   3.258 -0.3381 -0.0032  0.2724
19768SOL    HW160592   7.103   8.536   3.264 -0.3837 -0.3794 -0.3510
19768SOL    HW260593   6.967   8.480   3.224 -0.7962  0.3483  0.0179
19769SOL     OW60594   4.403   1.682   0.194  0.7083 -0.7541 -0.3240
19769SOL    HW160595   4.464   1.674   0.268  1.8578 -0.4548 -1.2042
19769SOL    HW260596   4.437   1.756   0.143 -1.0420  0.1396 -0.2755
19770SOL     OW60597   0.590   6.765   6.641 -0.0158 -0.2760  0.2102
19770SOL    HW160598   0.684   6.758   6.660  0.2152  3.5274  1.2868
19770SOL    HW260599   0.547   6.747   6.724 -0.1384 -0.5771  0.0815
19771SOL     OW60600   6.601   8.549   5.236 -0.0051 -0.0545  0.1206
19771SOL    HW160601   6.650   8.630   5.218  1.1767 -0.8114 -0.2112
19771SOL    HW260602   6.526   8.578   5.288 -0.8949  1.5659 -1.9159
19772SOL     OW60603   7.339   6.841   6.632 -0.5980  0.2278 -0.1071
19772SOL    HW160604   7.321   6.815   6.542  0.8183  2.5767 -1.1736
19772SOL    HW260605   7.274   6.908   6.652  1.3606  2.5073 -0.8775
19773SOL     OW60606   6.161   2.988   6.539  0.2641 -0.2915 -0.2296
19773SOL    HW160607   6.118   2.974   6.623  0.5432 -2.9373 -0.4472
19773SOL    HW260608   6.199   3.076   6.546 -0.7956  0.0702  1.8827
19774SOL     OW60609   6.299   7.425   2.534 -0.6402  0.3111  0.7322
19774SOL    HW160610   6.365   7.365   2.569 -0.8881  0.2947  1.1859
19774SOL    HW260611   6.262   7.380   2.459  0.3571  0.6146  0.0374
19775SOL     OW60612   0.180   5.081   8.290 -0.8176 -0.6158 -0.1276
19775SOL    HW160613   0.164   5.175   8.293 -3.7445 -1.0688  0.9630
19775SOL    HW260614   0.193   5.056   8.381  0.9549 -1.1889 -0.4959
19776SOL     OW60615   5.606   8.236   7.633  0.5549 -0.2746 -0.3294
19776SOL    HW160616   5.517   8.200   7.627  0.1251  0.8152 -0.6917
19776SOL    HW260617   5.626   8.265   7.544  1.2701 -0.4948 -0.2434
19777SOL     OW60618   2.262   6.837   5.613 -0.3050  0.2459  0.0053
19777SOL    HW160619   2.206   6.896   5.664  0.2979  0.3518  0.5584
19777SOL    HW260620   2.210   6.758   5.601 -0.6069  0.3725  0.4532
19778SOL     OW60621   1.265   2.662   0.765  0.9262 -0.2482  0.1149
19778SOL    HW160622   1.330   2.651   0.695  0.7031 -0.7455 -0.0231
19778SOL    HW260623   1.234   2.573   0.781 -0.0025  0.0325 -0.0861
19779SOL     OW60624   3.184   7.014   4.616 -0.1025  0.3649 -0.7602
19779SOL    HW160625   3.124   6.991   4.687  0.7321  1.0919  0.2070
19779SOL    HW260626   3.147   6.970   4.539 -1.6520  0.4819 -0.1290
19780SOL     OW60627   4.874   2.393   5.943  0.5240 -0.2434 -0.4221
19780SOL    HW160628   4.945   2.374   6.004  1.3120  1.2451 -0.8462
19780SOL    HW260629   4.805   2.430   5.997  0.7372 -0.0936 -0.2532
19781SOL     OW60630   0.066   5.862   3.679 -0.2226 -0.3876 -0.6910
19781SOL    HW160631   0.120   5.864   3.758  1.4830  2.8280 -1.7415
19781SOL    HW260632  -0.017   5.902   3.706 -0.2362 -0.7525 -0.1779
19782SOL     OW60633   2.634   2.413   7.563 -0.0876 -0.2158  0.2492
19782SOL    HW160634   2.592   2.476   7.504  0.1428  0.0614  0.3791
19782SOL    HW260635   2.721   2.450   7.579  0.4805 -1.1303 -0.5771
19783SOL     OW60636   3.384   4.417   8.643  0.3801 -0.0019 -0.9546
19783SOL    HW160637   3.470   4.423   8.601  0.5005 -0.1936 -0.7394
19783SOL    HW260638   3.393   4.346   8.706  0.2938  0.4723 -0.3932
19784SOL     OW60639   8.560   4.092   2.833 -0.4095  0.7350 -0.3442
19784SOL    HW160640   8.582   4.095   2.740  1.3004  0.6686  0.0287
19784SOL    HW260641   8.495   4.021   2.840 -1.2281  1.3220 -1.5817
19785SOL     OW60642   0.807   7.646   6.277  0.2190  0.0235  0.0725
19785SOL    HW160643   0.898   7.674   6.280  0.1722  0.4629 -1.6164
19785SOL    HW260644   0.804   7.568   6.331  1.6677 -0.1713 -0.0948
19786SOL     OW60645   4.050   3.449   7.365 -0.4795  0.5273  0.5490
19786SOL    HW160646   4.075   3.359   7.344  0.2696 -0.1146  3.6035
19786SOL    HW260647   4.124   3.502   7.335 -0.8937  0.1816 -1.2094
19787SOL     OW60648   3.014   1.366   1.126 -0.9818 -0.7719 -0.2321
19787SOL    HW160649   2.931   1.322   1.107 -0.9442 -1.1219  0.3838
19787SOL    HW260650   2.989   1.449   1.164 -1.0485 -0.7662 -0.2874
19788SOL     OW60651   3.778   5.004   7.007  0.3541  0.1601 -0.5726
19788SOL    HW160652   3.687   4.975   7.014  0.5345 -0.5345 -1.0041
19788SOL    HW260653   3.778   5.091   7.046 -0.5592  0.2978 -0.8468
19789SOL     OW60654   7.418   5.913   6.859 -0.5418 -0.9686 -0.4719
19789SOL    HW160655   7.337   5.914   6.911  0.3275  1.0542  0.9897
19789SOL    HW260656   7.449   5.823   6.863 -1.0600 -1.0994  1.7194
19790SOL     OW60657   6.578   4.527   4.152  0.6997 -0.0748 -0.7177
19790SOL    HW160658   6.575   4.477   4.071 -0.5103 -0.8718 -0.2174
19790SOL    HW260659   6.664   4.507   4.189  0.1473 -2.1033 -0.3832
19791SOL     OW60660   3.627   1.394   1.337  0.1609  0.0023  0.2194
19791SOL    HW160661   3.717   1.400   1.369  0.1018 -1.9305  0.9191
19791SOL    HW260662   3.589   1.480   1.355  1.9525  0.9835 -0.4378
19792SOL     OW60663   7.636   2.235   4.562 -0.1732  0.6521  0.1281
19792SOL    HW160664   7.582   2.287   4.502  0.9131  0.3307 -1.1813
19792SOL    HW260665   7.671   2.164   4.508  2.7260  1.6696  0.4764
19793SOL     OW60666   2.791   5.983   3.153 -0.1250  0.4348  0.1718
19793SOL    HW160667   2.767   5.894   3.130  0.0181  1.3481 -4.6007
19793SOL    HW260668   2.886   5.982   3.157 -0.1668  0.1895  1.2018
19794SOL     OW60669   6.567   5.789   3.328 -0.2963 -0.1443  0.1589
19794SOL    HW160670   6.628   5.806   3.256 -1.3495 -0.7823 -0.9419
19794SOL    HW260671   6.623   5.770   3.403  0.8524  0.1654 -0.5859
19795SOL     OW60672   8.406   8.221   5.122  0.2371 -0.3938  0.4007
19795SOL    HW160673   8.499   8.240   5.125  0.0985  0.3223  0.4141
19795SOL    HW260674   8.397   8.151   5.058  0.9454 -1.4784  1.4542
19796SOL     OW60675   1.074   2.062   6.420 -0.4580 -0.2514 -0.2690
19796SOL    HW160676   1.088   1.969   6.432 -0.4320 -0.4846 -1.8893
19796SOL    HW260677   1.010   2.068   6.348  0.3748  0.9727 -0.9443
19797SOL     OW60678   6.495   3.208   6.127  0.5057  0.9731  0.8857
19797SOL    HW160679   6.557   3.145   6.165  0.4698  0.8288  0.7069
19797SOL    HW260680   6.421   3.208   6.187 -0.5813 -0.9831 -0.3436
19798SOL     OW60681   7.466   5.010   5.663 -0.0151  1.1126 -0.0212
19798SOL    HW160682   7.549   4.978   5.628  0.1981  0.4813  1.0019
19798SOL    HW260683   7.490   5.091   5.708 -0.0500  1.2178 -0.1922
19799SOL     OW60684   0.074   2.087   7.494 -0.3020 -0.0243 -0.0230
19799SOL    HW160685  -0.003   2.122   7.539 -1.2448 -0.2755 -1.3625
19799SOL    HW260686   0.123   2.165   7.467  0.9445  0.1400  2.3867
19800SOL     OW60687   3.579   1.711   6.681  0.4524  0.6547  0.2021
19800SOL    HW160688   3.668   1.729   6.653  0.4013 -0.2934 -0.6170
19800SOL    HW260689   3.587   1.636   6.741  0.3808  1.6634  1.5233
19801SOL     OW60690   3.427   2.936   2.838 -0.3587  0.0642  0.4711
19801SOL    HW160691   3.479   2.986   2.775 -1.0219  0.2099  0.0303
19801SOL    HW260692   3.392   2.863   2.787 -1.1809  0.3730  0.5780
19802SOL     OW60693   1.365   2.394   5.791  0.5887  0.5012 -0.0906
19802SOL    HW160694   1.327   2.358   5.871 -0.0553  1.7255  0.1797
19802SOL    HW260695   1.296   2.449   5.754 -0.6217 -2.9520 -3.6193
19803SOL     OW60696   4.523   6.106   0.163 -0.0642  0.0288 -0.3656
19803SOL    HW160697   4.438   6.075   0.130 -0.7036 -0.9589  2.0303
19803SOL    HW260698   4.575   6.119   0.084 -1.7591 -1.3648 -1.8136
19804SOL     OW60699   1.470   6.128   6.444 -0.1602  0.1807  0.2674
19804SOL    HW160700   1.448   6.172   6.361 -0.0261  0.4253  0.3587
19804SOL    HW260701   1.425   6.180   6.511  1.0167  0.9480  0.4998
19805SOL     OW60702   8.043   5.072   7.859  0.2948  0.2280 -0.4527
19805SOL    HW160703   8.057   5.057   7.952 -1.0615 -0.5277 -0.3464
19805SOL    HW260704   8.039   4.985   7.820  0.2320  0.5181 -1.1164
19806SOL     OW60705   0.047   8.110   0.561  0.2790  0.5516 -0.0309
19806SOL    HW160706   0.057   8.187   0.506  1.8354 -1.1398 -2.2965
19806SOL    HW260707  -0.021   8.058   0.518  0.2877 -0.0271  0.6296
19807SOL     OW60708   8.026   2.693   8.397  0.2314 -0.2415 -0.2892
19807SOL    HW160709   8.064   2.700   8.484  0.7135 -2.5773 -0.2465
19807SOL    HW260710   8.098   2.712   8.337 -0.4108  2.7723 -0.2971
19808SOL     OW60711   0.352   1.795   2.894  0.0753 -0.2569  0.1768
19808SOL    HW160712   0.325   1.703   2.906 -0.8641  0.2798  2.6943
19808SOL    HW260713   0.434   1.789   2.845  0.1848 -2.4446  0.5056
19809SOL     OW60714   0.861   3.183   0.986 -0.1125 -1.1007  0.0269
19809SOL    HW160715   0.822   3.104   0.947  0.7715 -0.7895 -1.5811
19809SOL    HW260716   0.802   3.254   0.961 -0.0767 -1.0363  0.1253
19810SOL     OW60717   7.288   0.216   0.911 -0.1352  0.6579 -0.3898
19810SOL    HW160718   7.210   0.169   0.940  0.3035 -0.7673 -1.3989
19810SOL    HW260719   7.354   0.148   0.900  1.1853  1.8089  0.1847
19811SOL     OW60720   6.128   0.738   0.364 -0.1150 -0.1659  0.4865
19811SOL    HW160721   6.120   0.647   0.391  0.7424 -0.3811  0.0550
19811SOL    HW260722   6.222   0.755   0.366 -0.1661  0.3330 -0.6355
19812SOL     OW60723   7.082   5.400   0.876  0.3196 -0.2041 -0.2377
19812SOL    HW160724   7.157   5.444   0.916 -0.7458  1.0427  0.4365
19812SOL    HW260725   7.053   5.460   0.807 -0.8762 -0.0106  0.4010
19813SOL     OW60726   4.718   6.970   8.364 -0.0082  0.2714  0.4338
19813SOL    HW160727   4.738   6.998   8.453  0.2153  1.5656 -0.0119
19813SOL    HW260728   4.644   6.910   8.375 -0.0550  0.4928  1.4784
19814SOL     OW60729   0.576   5.377   6.803 -0.1388  0.4301 -0.6904
19814SOL    HW160730   0.495   5.359   6.755 -0.7657  0.1632  0.4449
19814SOL    HW260731   0.548   5.413   6.887  0.9075  0.0680 -0.1625
19815SOL     OW60732   0.131   7.656   8.631  0.4269 -0.5738  0.0563
19815SOL    HW160733   0.159   7.688   8.716  2.5541  1.4270 -1.2979
19815SOL    HW260734   0.170   7.569   8.624  1.4572 -0.1598  0.5410
19816SOL     OW60735   5.618   8.046   0.939  0.0391 -0.4164 -0.4803
19816SOL    HW160736   5.667   8.113   0.987 -2.7503  0.8363  0.7874
19816SOL    HW260737   5.640   7.964   0.983  1.0737  0.0706 -0.0523
19817SOL     OW60738   6.639   5.042   0.729  0.0714  0.6749 -0.1552
19817SOL    HW160739   6.659   4.990   0.808 -0.6628  1.6928  0.7298
19817SOL    HW260740   6.558   5.003   0.696  0.8826 -0.3655 -0.9791
19818SOL     OW60741   2.132   4.954   3.221 -0.0587 -0.1620 -0.5662
19818SOL    HW160742   2.039   4.936   3.209  0.0440 -1.5689  0.3961
19818SOL    HW260743   2.174   4.919   3.142 -0.2471 -0.6331 -0.4611
19819SOL     OW60744   8.606   1.971   0.162  0.1462  0.1509 -0.4417
19819SOL    HW160745   8.701   1.962   0.166 -0.0553 -2.7180 -0.6002
19819SOL    HW260746   8.590   2.027   0.086  1.6734  0.1265 -0.8061
19820SOL     OW60747   1.321   5.441   3.991  0.1749 -0.4567 -0.2867
19820SOL    HW160748   1.256   5.473   4.055  1.0171  0.7359  0.0012
19820SOL    HW260749   1.307   5.346   3.989 -1.2051 -0.2892  0.1834
19821SOL     OW60750   5.166   2.068   6.690 -0.2668 -0.3890  0.3520
19821SOL    HW160751   5.132   1.984   6.659 -1.1229  0.8930 -2.6365
19821SOL    HW260752   5.088   2.119   6.714  0.2368 -0.3795  2.0855
19822SOL     OW60753   5.425   6.361   6.952  0.1803  0.0399  0.2647
19822SOL    HW160754   5.332   6.339   6.945  0.0206  0.5768  0.6897
19822SOL    HW260755   5.457   6.308   7.025  0.4037 -0.7659 -0.4007
19823SOL     OW60756   5.289   4.900   8.646 -0.4635  0.0650 -0.3449
19823SOL    HW160757   5.254   4.829   8.700  0.6507  0.1663  0.5774
19823SOL    HW260758   5.382   4.903   8.670 -0.3561  1.3909 -0.8700
19824SOL     OW60759   0.945   1.971   3.520  0.0469 -0.2673 -0.2056
19824SOL    HW160760   1.009   1.915   3.564 -1.2487 -2.6355 -1.1483
19824SOL    HW260761   0.966   1.961   3.427  0.7776  2.1725 -0.3689
19825SOL     OW60762   3.792   5.221   5.616  0.1585 -0.1011 -0.2085
19825SOL    HW160763   3.857   5.215   5.546 -1.0831 -0.3689 -1.3810
19825SOL    HW260764   3.737   5.144   5.605  0.2730 -0.4506  1.4472
19826SOL     OW60765   8.107   7.947   0.977 -0.3203  0.4302  0.4856
19826SOL    HW160766   8.020   7.951   1.018 -1.3335 -1.3114 -1.3018
19826SOL    HW260767   8.157   7.888   1.034 -1.2595 -0.8316  0.0501
19827SOL     OW60768   0.404   5.390   4.083  0.2673 -0.0171 -0.0799
19827SOL    HW160769   0.371   5.378   4.173 -2.3993 -0.2822 -0.9828
19827SOL    HW260770   0.360   5.321   4.033 -3.0983  3.4988 -2.6121
19828SOL     OW60771   1.840   7.240   4.860  0.2610 -0.3225  0.4238
19828SOL    HW160772   1.857   7.147   4.877  0.1752 -0.4742 -0.3183
19828SOL    HW260773   1.874   7.256   4.772 -3.1283 -0.6006 -1.1080
19829SOL     OW60774   8.597   8.301   0.140 -0.4710 -0.7040  0.7432
19829SOL    HW160775   8.680   8.298   0.091  0.3482 -0.4380  2.0869
19829SOL    HW260776   8.530   8.291   0.072  0.6777 -2.0881 -0.2663
19830SOL     OW60777   0.564   5.664   4.398 -0.2930 -0.3030  0.2333
19830SOL    HW160778   0.575   5.662   4.303 -0.4848 -1.3247  0.2221
19830SOL    HW260779   0.533   5.576   4.420 -0.0154 -0.1474  1.2714
19831SOL     OW60780   0.561   5.165   2.332  0.1075 -0.3345  0.6258
19831SOL    HW160781   0.523   5.145   2.246 -0.6240 -0.6722  1.0116
19831SOL    HW260782   0.512   5.109   2.393  2.1023 -1.7433  1.0103
19832SOL     OW60783   2.051   5.741   3.378  0.3418 -0.4740  0.7884
19832SOL    HW160784   1.983   5.682   3.412 -0.8962  0.6943  0.3946
19832SOL    HW260785   2.073   5.797   3.452 -0.1992  0.1239  0.4954
19833SOL     OW60786   6.351   1.362   0.941 -0.1202 -0.3683 -0.8323
19833SOL    HW160787   6.297   1.428   0.984 -0.0269 -0.9207  0.1615
19833SOL    HW260788   6.433   1.363   0.990 -0.6651 -2.2876  0.2123
19834SOL     OW60789   2.347   7.980   6.487 -0.0781 -0.8330  0.1693
19834SOL    HW160790   2.272   7.980   6.546 -1.7004 -1.4881 -1.7430
19834SOL    HW260791   2.413   8.033   6.530 -2.0108  0.5927  1.5100
19835SOL     OW60792   5.128   4.077   5.308 -1.0497 -0.1005 -0.2970
19835SOL    HW160793   5.099   3.987   5.299 -1.3637 -0.2936  1.9776
19835SOL    HW260794   5.158   4.084   5.399  3.3703  0.8802 -1.5694
19836SOL     OW60795   4.544   5.255   5.080 -0.1292 -0.0789  0.2402
19836SOL    HW160796   4.538   5.159   5.086  1.6890 -0.1964  0.6247
19836SOL    HW260797   4.599   5.280   5.154 -0.9917  1.3331  0.4277
19837SOL     OW60798   7.714   3.053   5.374  0.3801  0.1782 -0.3521
19837SOL    HW160799   7.626   3.020   5.355  0.7931 -0.7945 -0.6331
19837SOL    HW260800   7.770   2.976   5.367  1.0708  0.5149  1.2404
19838SOL     OW60801   2.646   8.014   3.132 -0.3206 -0.0187 -0.0362
19838SOL    HW160802   2.593   7.935   3.119 -0.5679  0.3706 -1.6482
19838SOL    HW260803   2.607   8.057   3.208 -1.4602 -0.4501 -0.3487
19839SOL     OW60804   0.168   8.461   6.780 -0.8892 -0.4273  0.5221
19839SOL    HW160805   0.108   8.492   6.712  0.5075  1.7672  0.2118
19839SOL    HW260806   0.142   8.509   6.859  0.9490  1.2739  0.1692
19840SOL     OW60807   5.253   8.632   6.452  0.0434 -0.0900 -0.0071
19840SOL    HW160808   5.330   8.670   6.495  1.1814 -1.8475 -0.4243
19840SOL    HW260809   5.284   8.605   6.366 -0.7158 -1.9586  0.2757
19841SOL     OW60810   2.896   6.708   6.810 -0.3629 -0.8272  0.4203
19841SOL    HW160811   2.866   6.623   6.778 -0.2822 -1.1190  1.1168
19841SOL    HW260812   2.815   6.759   6.819 -0.2917 -0.2998 -1.4522
19842SOL     OW60813   0.472   3.557   2.802 -0.2942  0.3446  0.2237
19842SOL    HW160814   0.514   3.642   2.783  0.3544  0.0085  0.1134
19842SOL    HW260815   0.529   3.493   2.759 -0.5533 -0.1812  0.6625
19843SOL     OW60816   7.670   6.062   1.470 -0.2165 -0.1701  0.6995
19843SOL    HW160817   7.638   6.037   1.383  0.5945 -2.3953  0.9577
19843SOL    HW260818   7.610   6.130   1.500  0.8066  2.3730 -2.4909
19844SOL     OW60819   7.608   0.931   7.563 -0.0963  0.1380 -0.2575
19844SOL    HW160820   7.556   1.011   7.575 -0.8780 -0.3529 -0.3216
19844SOL    HW260821   7.546   0.859   7.577  0.9103 -0.4840  1.2587
19845SOL     OW60822   5.405   1.930   1.523 -0.5087  0.1581 -0.8601
19845SOL    HW160823   5.426   2.007   1.470  0.2470 -0.8818 -2.1251
19845SOL    HW260824   5.367   1.966   1.603  2.5872  2.0632 -0.0360
19846SOL     OW60825   6.746   8.663   7.333  0.1984  0.1569 -0.0449
19846SOL    HW160826   6.795   8.732   7.375  2.1680 -0.0945 -1.7593
19846SOL    HW260827   6.718   8.701   7.249  0.4496 -0.7710 -0.5693
19847SOL     OW60828   1.282   7.742   0.533  0.1932 -0.2114 -0.4711
19847SOL    HW160829   1.275   7.790   0.615  0.1290  0.0828 -0.6484
19847SOL    HW260830   1.308   7.808   0.469 -1.2778 -0.1135 -1.0076
19848SOL     OW60831   1.079   5.866   3.196 -0.0925  0.2251  0.0887
19848SOL    HW160832   1.099   5.939   3.254  1.5647  2.5499 -3.0970
19848SOL    HW260833   1.164   5.825   3.179 -0.3520  0.2087 -1.3398
19849SOL     OW60834   7.138   6.166   0.655 -0.3451  0.1404  0.0126
19849SOL    HW160835   7.089   6.088   0.630  2.2856 -1.2653 -1.1527
19849SOL    HW260836   7.165   6.204   0.571  0.7058  0.7459  0.6143
19850SOL     OW60837   3.837   1.201   3.529 -0.1623  0.7165 -0.1149
19850SOL    HW160838   3.904   1.233   3.469 -0.5449  2.1556  0.2047
19850SOL    HW260839   3.881   1.131   3.578 -0.0509 -0.9704 -2.4726
19851SOL     OW60840   5.350   2.505   3.409 -0.6419  0.0319 -0.1628
19851SOL    HW160841   5.417   2.458   3.458  1.1016  1.3710 -1.1302
19851SOL    HW260842   5.330   2.581   3.464  0.4911  0.9397 -0.9655
19852SOL     OW60843   8.255   2.523   7.047 -0.7351  0.1438 -0.0814
19852SOL    HW160844   8.350   2.514   7.049 -0.8262 -1.4483  2.8336
19852SOL    HW260845   8.231   2.505   6.956  1.7995  2.0901 -1.2474
19853SOL     OW60846   0.202   0.377   0.152 -0.4414 -0.0022 -0.0200
19853SOL    HW160847   0.152   0.331   0.085 -0.4783  0.9744 -0.6752
19853SOL    HW260848   0.283   0.404   0.109 -0.4714  0.6513  0.3064
19854SOL     OW60849   3.558   5.085   0.113  0.1414 -0.4062 -0.6135
19854SOL    HW160850   3.603   5.103   0.030  0.1851 -0.4236 -0.5937
19854SOL    HW260851   3.629   5.071   0.176  0.1081 -0.3240 -0.5581
19855SOL     OW60852   8.660   0.521   0.594 -0.0446 -0.2644  0.0493
19855SOL    HW160853   8.684   0.465   0.520 -1.0770 -0.8844  0.1722
19855SOL    HW260854   8.595   0.470   0.643 -0.7375  0.8859  0.3641
19856SOL     OW60855   8.285   1.079   1.159 -0.3918 -0.0223 -0.1570
19856SOL    HW160856   8.353   1.023   1.198  0.0801  0.1081 -0.7737
19856SOL    HW260857   8.220   1.017   1.126 -0.1870 -0.1785 -0.2689
19857SOL     OW60858   2.273   4.228   2.013 -0.1211  0.0413  0.4904
19857SOL    HW160859   2.283   4.276   1.930  0.4204  0.4639  0.7974
19857SOL    HW260860   2.239   4.294   2.074  0.4465 -0.0089  0.8645
19858SOL     OW60861   3.294   2.086   7.239 -0.1205 -0.0167 -0.1232
19858SOL    HW160862   3.284   2.172   7.199  0.4787  0.2620  0.2956
19858SOL    HW260863   3.205   2.058   7.260 -0.2370  1.2327  1.2144
19859SOL     OW60864   7.235   2.244   3.160 -0.2708  0.6634  0.1707
19859SOL    HW160865   7.192   2.244   3.074 -0.3957  0.3780  0.2318
19859SOL    HW260866   7.242   2.151   3.183 -0.8312  0.7667  0.7664
19860SOL     OW60867   4.641   2.372   5.318  0.4619 -0.5025  0.2992
19860SOL    HW160868   4.548   2.365   5.340  0.0394  1.6494 -0.5445
19860SOL    HW260869   4.683   2.302   5.368 -1.4508 -0.7929  1.6044
19861SOL     OW60870   3.516   6.803   0.864  0.1431 -0.0627 -0.2285
19861SOL    HW160871   3.483   6.799   0.954 -0.0900  0.6362 -0.2842
19861SOL    HW260872   3.591   6.743   0.865 -0.5403 -0.9376  0.1306
19862SOL     OW60873   1.098   3.341   0.100  0.0329  0.1492 -0.2687
19862SOL    HW160874   1.090   3.429   0.136  1.0077 -0.3851  1.3507
19862SOL    HW260875   1.171   3.348   0.038 -0.4738  0.6591 -0.8311
19863SOL     OW60876   1.184   4.013   1.936 -0.0893  0.5116  0.1145
19863SOL    HW160877   1.153   4.101   1.958  0.5352  0.5234  0.9954
19863SOL    HW260878   1.147   3.996   1.850  1.1245  2.2844 -0.8161
19864SOL     OW60879   1.275   4.865   2.320  0.2527  0.3252  0.2924
19864SOL    HW160880   1.363   4.902   2.324  1.1172 -1.4788 -0.5264
19864SOL    HW260881   1.283   4.791   2.260 -1.7716 -0.0817  0.4346
19865SOL     OW60882   3.660   3.845   6.871 -0.5717  0.2276 -0.2110
19865SOL    HW160883   3.596   3.895   6.820  0.3162  0.2696 -1.3240
19865SOL    HW260884   3.729   3.908   6.890 -0.9235  0.2239  1.1237
19866SOL     OW60885   5.665   7.306   8.619  0.0780 -0.0429  0.3937
19866SOL    HW160886   5.669   7.242   8.691 -0.3676 -2.1862 -1.3727
19866SOL    HW260887   5.578   7.344   8.626 -0.8210 -1.8604 -0.2409
19867SOL     OW60888   2.755   2.673   3.005 -0.2021  0.0827 -0.0452
19867SOL    HW160889   2.659   2.664   3.001 -0.3484  1.0602  0.8302
19867SOL    HW260890   2.770   2.733   3.078  1.0680  0.2374 -0.4157
19868SOL     OW60891   2.291   8.078   4.027  0.2420 -0.4125 -0.1169
19868SOL    HW160892   2.380   8.045   4.012  0.3051 -0.7848  1.0142
19868SOL    HW260893   2.275   8.138   3.954  1.7372  0.3104  0.1086
19869SOL     OW60894   6.150   1.251   8.332 -0.1181 -0.3668  0.3947
19869SOL    HW160895   6.155   1.230   8.425 -0.4192  1.2661  0.8250
19869SOL    HW260896   6.087   1.324   8.328 -0.0818 -0.3871 -1.0785
19870SOL     OW60897   4.354   1.772   8.186 -0.3095 -0.1975 -0.1070
19870SOL    HW160898   4.301   1.832   8.134  0.3444  0.4362 -0.0481
19870SOL    HW260899   4.362   1.813   8.272 -0.7461 -0.8779  0.2659
19871SOL     OW60900   7.543   2.366   7.546  0.0935  0.4576 -0.8677
19871SOL    HW160901   7.566   2.282   7.587  1.2232  0.9771 -0.3869
19871SOL    HW260902   7.595   2.368   7.466 -2.1837 -0.5972 -2.4752
19872SOL     OW60903   5.783   0.160   2.849 -0.0067  0.1941 -0.5093
19872SOL    HW160904   5.706   0.104   2.860  0.2481 -0.6077 -2.3446
19872SOL    HW260905   5.809   0.145   2.758  0.3108  3.0286 -0.9614
19873SOL     OW60906   1.119   4.111   4.374  0.1904 -0.3477  0.1253
19873SOL    HW160907   1.079   4.106   4.461  1.0632  0.1296  0.5679
19873SOL    HW260908   1.161   4.026   4.362  1.6044  0.1804  0.9645
19874SOL     OW60909   3.996   6.176   0.645 -0.5308  1.2760  0.0108
19874SOL    HW160910   4.017   6.089   0.611 -1.2142  0.9826  0.3273
19874SOL    HW260911   4.081   6.219   0.651 -0.1725  0.6131 -0.0990
19875SOL     OW60912   4.860   4.772   3.045 -0.0765  0.0802 -0.1896
19875SOL    HW160913   4.857   4.754   2.951 -0.9253  0.7245 -0.2916
19875SOL    HW260914   4.951   4.796   3.062  0.1381 -0.2720 -0.7975
19876SOL     OW60915   8.675   6.286   4.016 -0.6658  0.2776 -0.0258
19876SOL    HW160916   8.594   6.236   4.026 -0.8122  0.2019 -1.4819
19876SOL    HW260917   8.743   6.231   4.056 -1.4682  0.8793  2.3392
19877SOL     OW60918   5.644   7.916   3.770 -0.1264  0.4087 -0.4521
19877SOL    HW160919   5.726   7.894   3.725 -0.4364  0.9308 -1.2859
19877SOL    HW260920   5.670   7.924   3.862  0.1313 -2.7461 -0.1282
19878SOL     OW60921   2.536   7.796   5.979 -0.0319 -0.0934  0.1458
19878SOL    HW160922   2.459   7.826   5.932 -0.4010 -0.8645  0.2372
19878SOL    HW260923   2.502   7.756   6.059  0.4330 -0.6537  0.0762
19879SOL     OW60924   3.326   1.789   3.376 -0.2934  0.0477  0.2969
19879SOL    HW160925   3.413   1.780   3.413  0.2792 -0.1655 -1.0367
19879SOL    HW260926   3.271   1.817   3.449  0.2918 -2.5726  1.8368
19880SOL     OW60927   8.173   6.512   8.677  0.3611  0.1121  0.1239
19880SOL    HW160928   8.147   6.492   8.767  0.1397  2.7078  0.6980
19880SOL    HW260929   8.249   6.569   8.686  1.9403 -1.5913 -1.4313
19881SOL     OW60930   8.679   5.567   2.071  0.2042  0.4765 -0.6425
19881SOL    HW160931   8.588   5.563   2.102  0.0076  1.5594 -1.0334
19881SOL    HW260932   8.672   5.568   1.976  0.6866 -0.3861 -0.6955
19882SOL     OW60933   1.816   3.157   7.247  0.2840  0.7242 -0.0421
19882SOL    HW160934   1.759   3.205   7.187 -0.8501  1.0542  1.2312
19882SOL    HW260935   1.903   3.193   7.231 -0.0712  1.1428 -1.1257
19883SOL     OW60936   8.290   0.349   4.161  0.1076 -0.0900  0.1461
19883SOL    HW160937   8.357   0.304   4.108  0.1726  0.2171 -0.0320
19883SOL    HW260938   8.273   0.430   4.114  0.5066  0.4066  0.8402
19884SOL     OW60939   1.056   7.087   0.708  0.1298 -0.3228 -0.0911
19884SOL    HW160940   1.106   7.131   0.640  0.7427 -1.5551 -0.4782
19884SOL    HW260941   1.087   6.996   0.705  0.2062 -0.4046  1.8519
19885SOL     OW60942   0.218   1.526   4.693 -0.4992  0.2395 -0.7565
19885SOL    HW160943   0.257   1.465   4.756 -0.8116  2.4354  1.7582
19885SOL    HW260944   0.171   1.471   4.632  2.1918 -2.2243 -0.8314
19886SOL     OW60945   4.127   1.989   3.934 -0.2453 -0.5062  0.1369
19886SOL    HW160946   4.124   2.065   3.994  1.0311  2.8048 -3.5600
19886SOL    HW260947   4.212   1.949   3.952 -0.3947 -0.3597  1.3067
19887SOL     OW60948   3.895   1.757   6.702 -0.0462  0.0877  0.3261
19887SOL    HW160949   3.941   1.703   6.766 -0.3627 -1.2184 -0.5014
19887SOL    HW260950   3.919   1.847   6.725  1.5441 -0.4535  0.9641
19888SOL     OW60951   6.806   6.717   0.742 -0.2009  0.0649 -0.4376
19888SOL    HW160952   6.831   6.674   0.660 -2.1810 -2.0319 -0.0447
19888SOL    HW260953   6.712   6.731   0.733 -0.7621 -1.5342  1.9589
19889SOL     OW60954   8.129   0.438   8.567  0.2740 -0.7811  0.9725
19889SOL    HW160955   8.036   0.461   8.573  0.1346 -0.8146 -0.7410
19889SOL    HW260956   8.137   0.356   8.617 -0.9039 -1.5396 -0.0477
19890SOL     OW60957   2.324   8.342   2.053  0.7734 -0.1222  0.0642
19890SOL    HW160958   2.325   8.246   2.049  1.1049 -0.2546  2.3024
19890SOL    HW260959   2.231   8.364   2.057  0.7175 -0.4434  0.7086
19891SOL     OW60960   5.878   1.839   2.817  0.3153  0.3876 -0.2726
19891SOL    HW160961   5.963   1.806   2.847  0.5925  0.0357 -1.4138
19891SOL    HW260962   5.820   1.763   2.822 -0.1230  0.7746  1.1126
19892SOL     OW60963   2.656   7.188   5.660 -0.0669 -0.3123 -0.3658
19892SOL    HW160964   2.680   7.278   5.681 -1.2306  0.1256 -0.8769
19892SOL    HW260965   2.645   7.187   5.565  1.3860 -1.3676 -0.5600
19893SOL     OW60966   5.798   4.431   5.137  0.1875 -0.0939  0.3225
19893SOL    HW160967   5.890   4.444   5.157  0.4888  0.3163 -1.2126
19893SOL    HW260968   5.757   4.515   5.157  0.1253 -0.3060  1.0966
19894SOL     OW60969   3.843   7.289   2.898 -0.3394 -0.6562  0.1883
19894SOL    HW160970   3.770   7.341   2.932 -0.7471 -0.9573 -0.2269
19894SOL    HW260971   3.846   7.308   2.805  1.2385  0.7284  0.4703
19895SOL     OW60972   5.365   4.399   3.591  0.4482  0.4078  0.0207
19895SOL    HW160973   5.458   4.376   3.585  0.9340  1.7194  1.7063
19895SOL    HW260974   5.345   4.395   3.685 -0.5218  2.4946 -0.0370
19896SOL     OW60975   5.775   3.838   7.559 -0.3335  0.2763 -0.1991
19896SOL    HW160976   5.723   3.900   7.610 -1.5269 -1.7459  1.1723
19896SOL    HW260977   5.853   3.823   7.612 -1.0420 -0.9553  0.5449
19897SOL     OW60978   6.678   5.703   5.166 -0.6553  0.1138 -0.0379
19897SOL    HW160979   6.754   5.690   5.222 -1.2620  0.0564  0.7891
19897SOL    HW260980   6.627   5.771   5.209 -0.1970  1.4597 -1.5286
19898SOL     OW60981   2.376   7.344   7.051 -0.3796  0.0581  0.4663
19898SOL    HW160982   2.428   7.420   7.079  0.8702  0.3592 -2.3009
19898SOL    HW260983   2.409   7.272   7.104  1.8358  0.5558 -0.1353
19899SOL     OW60984   8.145   1.551   7.033  0.0251 -0.3771 -0.3551
19899SOL    HW160985   8.188   1.526   7.115  1.1510  0.5242 -0.6427
19899SOL    HW260986   8.208   1.608   6.990  0.1151 -2.0227 -2.5693
19900SOL     OW60987   1.612   4.074   6.460 -0.4073  0.5324  0.1024
19900SOL    HW160988   1.555   4.003   6.491  0.5547  0.3148  1.4656
19900SOL    HW260989   1.616   4.062   6.365 -0.8392 -0.8003  0.2244
19901SOL     OW60990   7.555   3.495   6.921 -0.8211  0.0707 -0.1409
19901SOL    HW160991   7.600   3.537   6.847 -0.9764  0.8343  0.1882
19901SOL    HW260992   7.497   3.431   6.880 -0.4052 -0.0014 -0.6413
19902SOL     OW60993   0.909   4.818   2.362 -0.2712  0.3196 -0.2435
19902SOL    HW160994   0.976   4.770   2.314 -0.9498 -0.9849  0.0857
19902SOL    HW260995   0.832   4.816   2.304 -0.9392 -0.8257  0.6385
19903SOL     OW60996   3.283   7.616   6.441  0.4404 -0.0314  0.4925
19903SOL    HW160997   3.194   7.647   6.423  1.2249  0.8912 -2.3065
19903SOL    HW260998   3.285   7.527   6.407  0.7045  0.1038  0.1520
19904SOL     OW60999   0.912   4.084   2.110 -0.4065  0.4223  0.4736
19904SOL    HW161000   0.998   4.116   2.139 -0.1295  1.3433 -1.2398
19904SOL    HW261001   0.882   4.029   2.182  1.5799  0.1460  1.1700
19905SOL     OW61002   4.293   7.835   2.296  0.9211  0.0575  0.7165
19905SOL    HW161003   4.303   7.768   2.229  1.2407  0.2791  0.5382
19905SOL    HW261004   4.264   7.788   2.374 -1.9953  0.0810 -0.2483
19906SOL     OW61005   1.305   7.452   1.331 -0.2368  0.4885 -0.3877
19906SOL    HW161006   1.302   7.393   1.255 -2.0007  2.4736 -1.9632
19906SOL    HW261007   1.222   7.498   1.329 -0.1517  0.9648  2.5486
19907SOL     OW61008   7.719   8.241   0.409  0.1054 -0.6810  0.0258
19907SOL    HW161009   7.769   8.162   0.427 -0.4678 -0.4893  2.8663
19907SOL    HW261010   7.628   8.210   0.400 -0.1371 -0.3853  1.2645
19908SOL     OW61011   0.450   3.911   6.381  0.4663 -0.0859 -0.6197
19908SOL    HW161012   0.397   3.871   6.450  0.0880  1.8009  0.2362
19908SOL    HW261013   0.523   3.850   6.369 -0.9473 -1.8664 -0.5925
19909SOL     OW61014   5.262   1.376   5.888 -0.1948 -0.2570  0.1261
19909SOL    HW161015   5.231   1.400   5.800  0.1893  0.2361  0.1201
19909SOL    HW261016   5.198   1.312   5.919 -1.4254  0.9911  0.2649
19910SOL     OW61017   0.919   0.715   7.957 -0.2368  0.1712  0.1958
19910SOL    HW161018   0.971   0.637   7.977 -0.2606 -0.3009 -1.4226
19910SOL    HW261019   0.977   0.769   7.905 -0.8274  0.3896 -0.2470
19911SOL     OW61020   6.247   1.740   0.834 -0.3080 -0.3511 -0.1708
19911SOL    HW161021   6.201   1.754   0.752 -0.0888 -1.1229 -0.4324
19911SOL    HW261022   6.334   1.776   0.820 -0.6036  0.5092  0.1033
19912SOL     OW61023   8.180   4.197   2.167  0.3940  0.3491 -0.3835
19912SOL    HW161024   8.274   4.215   2.176  0.0156  2.0241  0.6918
19912SOL    HW261025   8.166   4.120   2.223  1.6671 -2.2445 -3.3140
19913SOL     OW61026   7.718   7.877   2.042  0.3867 -0.4278 -0.1336
19913SOL    HW161027   7.782   7.850   1.977  1.2545 -0.5692  0.7606
19913SOL    HW261028   7.760   7.948   2.090 -0.9200  0.8779 -0.8379
19914SOL     OW61029   6.670   8.485   7.903  0.1972  0.1307  0.1890
19914SOL    HW161030   6.658   8.408   7.847  1.5189  0.3571 -0.4555
19914SOL    HW261031   6.594   8.485   7.960 -0.7789 -0.5827 -1.0534
19915SOL     OW61032   5.477   3.688   1.569 -0.7207  0.2073 -0.1133
19915SOL    HW161033   5.556   3.635   1.556 -0.6321  0.2783  0.1226
19915SOL    HW261034   5.497   3.772   1.527 -0.8359  0.0764 -0.4303
19916SOL     OW61035   3.840   7.113   6.797  0.1063 -0.1415 -0.4449
19916SOL    HW161036   3.847   7.096   6.891  0.7077  1.5817 -0.1401
19916SOL    HW261037   3.929   7.100   6.764 -0.2143 -1.2963 -0.9046
19917SOL     OW61038   4.551   1.849   1.684 -0.4591  0.1990 -0.3678
19917SOL    HW161039   4.643   1.875   1.694 -0.3230 -0.8636  1.7592
19917SOL    HW261040   4.509   1.880   1.764 -1.0848 -2.5621  0.4843
19918SOL     OW61041   1.532   7.240   2.315 -0.1195  0.0527  0.5482
19918SOL    HW161042   1.565   7.313   2.261 -1.5827 -0.1030 -0.6146
19918SOL    HW261043   1.438   7.256   2.322 -0.2438 -0.9982  1.4379
19919SOL     OW61044   2.709   4.149   7.266  0.4934 -0.1681 -0.1442
19919SOL    HW161045   2.618   4.158   7.295  0.4411 -0.1467 -0.3153
19919SOL    HW261046   2.761   4.177   7.342  0.3654 -0.6369  0.1180
19920SOL     OW61047   7.370   1.733   2.798  0.1663 -0.5329  0.5854
19920SOL    HW161048   7.301   1.668   2.809  0.4642 -0.8843  0.4196
19920SOL    HW261049   7.399   1.722   2.707 -0.2570  0.3094  0.3422
19921SOL     OW61050   5.815   0.568   6.875 -0.1873 -0.1489 -0.4223
19921SOL    HW161051   5.789   0.502   6.811 -0.9431  0.8836 -1.2217
19921SOL    HW261052   5.732   0.605   6.906  0.2043  0.0025  0.4713
19922SOL     OW61053   7.772   7.404   4.535 -0.6377 -0.4312 -0.0684
19922SOL    HW161054   7.746   7.495   4.548 -0.5420 -0.4989  0.6663
19922SOL    HW261055   7.868   7.405   4.545 -0.5940 -0.5424 -0.4816
19923SOL     OW61056   4.142   7.208   6.739  0.3690  0.5007  0.7206
19923SOL    HW161057   4.146   7.120   6.701  0.6731  1.2868 -1.1953
19923SOL    HW261058   4.124   7.265   6.664  2.8745  2.3611  1.4188
19924SOL     OW61059   1.869   3.826   8.363 -0.0155 -0.0759 -0.4253
19924SOL    HW161060   1.858   3.736   8.334 -2.9601  0.3450 -0.8510
19924SOL    HW261061   1.829   3.829   8.450 -1.1733  1.0657 -0.9613
19925SOL     OW61062   3.664   6.829   1.309 -1.3473 -0.4211  0.1416
19925SOL    HW161063   3.744   6.875   1.331  0.2524 -2.2369 -1.5064
19925SOL    HW261064   3.620   6.815   1.393 -0.5407  1.6112  0.9412
19926SOL     OW61065   2.786   0.380   5.256 -0.6952 -0.4804  0.0745
19926SOL    HW161066   2.767   0.292   5.289 -1.1889 -1.7716 -3.2763
19926SOL    HW261067   2.851   0.415   5.317  0.1592 -3.5065  1.0637
19927SOL     OW61068   1.211   4.025   2.952  0.5495 -0.0914 -0.4056
19927SOL    HW161069   1.247   4.000   3.037  0.1438 -2.3136 -0.8164
19927SOL    HW261070   1.116   4.018   2.964  0.3743 -5.3384 -2.1376
19928SOL     OW61071   4.906   1.767   8.640  0.5007 -0.1917 -1.0341
19928SOL    HW161072   4.909   1.743   8.547  2.1083 -0.5592 -0.9129
19928SOL    HW261073   4.993   1.747   8.673  0.2378  0.7935  0.3522
19929SOL     OW61074   7.254   4.036   2.711  0.1842 -0.0173  0.4345
19929SOL    HW161075   7.314   3.965   2.736  0.8190 -0.1591 -1.3232
19929SOL    HW261076   7.255   4.096   2.785  0.5825 -1.2460  1.4610
19930SOL     OW61077   7.495   7.707   7.810  0.1517  0.8588 -0.1675
19930SOL    HW161078   7.400   7.719   7.802 -0.2817 -2.0693 -0.7478
19930SOL    HW261079   7.513   7.712   7.904 -0.8097  0.1890  0.0628
19931SOL     OW61080   5.557   0.029   8.482  0.3385  0.0713  0.2954
19931SOL    HW161081   5.540   0.044   8.388 -0.3500  1.5335  0.6203
19931SOL    HW261082   5.546  -0.065   8.493 -0.1045 -0.0575 -1.0042
19932SOL     OW61083   0.223   8.534   4.200  0.1605  0.0944 -0.2824
19932SOL    HW161084   0.193   8.458   4.250 -0.8809  0.6140 -0.0819
19932SOL    HW261085   0.254   8.595   4.267  0.3141  0.1398 -0.3949
19933SOL     OW61086   4.267   1.665   1.400 -0.2530 -0.0082  0.1250
19933SOL    HW161087   4.177   1.649   1.371  0.0179  0.7979 -1.2480
19933SOL    HW261088   4.321   1.606   1.347  0.0579 -0.3905  0.8449
19934SOL     OW61089   7.037   6.852   6.902 -0.2288 -0.4227 -0.1723
19934SOL    HW161090   7.073   6.923   6.955  1.1548 -0.7269 -0.6458
19934SOL    HW261091   6.954   6.886   6.869  0.1829  0.7982 -0.0084
19935SOL     OW61092   2.630   4.258   8.134 -0.5204  0.0703  0.1954
19935SOL    HW161093   2.703   4.218   8.182 -1.4961 -0.5625  1.1857
19935SOL    HW261094   2.655   4.350   8.125  0.8401 -0.3253 -0.3560
19936SOL     OW61095   5.313   4.938   1.432  0.1795  0.0197  0.5052
19936SOL    HW161096   5.396   4.900   1.403 -0.3907 -0.1558 -0.9968
19936SOL    HW261097   5.333   5.030   1.447  0.7674 -0.1341  0.6924
19937SOL     OW61098   0.590   5.018   0.368 -0.4416 -0.0909 -0.2786
19937SOL    HW161099   0.531   4.952   0.332 -0.3161 -1.2464  1.4988
19937SOL    HW261100   0.532   5.086   0.402 -0.6689 -0.3917 -0.0642
19938SOL     OW61101   1.651   8.141   5.097 -0.1281 -0.3269  0.2176
19938SOL    HW161102   1.575   8.093   5.063 -0.6717  0.6502  0.0238
19938SOL    HW261103   1.618   8.190   5.171  0.6978 -1.1585  1.1657
19939SOL     OW61104   7.232   5.210   7.633 -0.3909  0.3273 -0.1084
19939SOL    HW161105   7.207   5.293   7.592  1.3440  0.6257 -0.6710
19939SOL    HW261106   7.326   5.203   7.615 -0.0377 -0.6498  1.9175
19940SOL     OW61107   6.618   8.122   5.493 -0.3230  0.1416 -0.3796
19940SOL    HW161108   6.645   8.102   5.404 -0.6979  0.2269 -0.5118
19940SOL    HW261109   6.697   8.105   5.546 -0.1878 -0.1935 -0.6840
19941SOL     OW61110   2.828   5.932   3.444  0.6450 -0.8210  0.2373
19941SOL    HW161111   2.886   5.856   3.439 -1.0209 -2.1743  0.8375
19941SOL    HW261112   2.761   5.917   3.378 -0.1943 -0.3158  0.9448
19942SOL     OW61113   7.418   8.481   3.647 -0.5382  0.0555 -0.3590
19942SOL    HW161114   7.364   8.473   3.568 -1.2197  1.2384 -0.0310
19942SOL    HW261115   7.361   8.524   3.710  0.6471  0.9293  0.1386
19943SOL     OW61116   7.861   1.828   5.111 -0.3615 -0.1342 -0.4110
19943SOL    HW161117   7.790   1.878   5.152  0.2881 -0.2983  1.0025
19943SOL    HW261118   7.936   1.888   5.112  0.1332 -0.7431  0.2884
19944SOL     OW61119   6.399   4.082   3.433  0.0013 -0.6992  0.2372
19944SOL    HW161120   6.467   4.064   3.368  0.8557  0.5801  0.7192
19944SOL    HW261121   6.436   4.153   3.487 -1.2711 -0.7334  1.2064
19945SOL     OW61122   1.852   8.462   7.629  0.5054  0.4055 -0.1803
19945SOL    HW161123   1.895   8.491   7.710  1.8771  0.5869 -0.9391
19945SOL    HW261124   1.877   8.527   7.564 -1.0017  0.5290 -0.6484
19946SOL     OW61125   0.837   3.435   2.057  0.1369 -0.0971  0.1881
19946SOL    HW161126   0.930   3.449   2.074 -0.4918  3.0088  1.8099
19946SOL    HW261127   0.828   3.443   1.962  1.4120  0.5773  0.1064
19947SOL     OW61128   3.605   6.557   1.912  0.1056  0.1922  0.2152
19947SOL    HW161129   3.649   6.603   1.841  0.2243 -0.3241 -0.0527
19947SOL    HW261130   3.514   6.550   1.884 -0.1099  1.0608  0.6679
19948SOL     OW61131   1.368   0.122   2.467  0.0291  0.7798  0.4912
19948SOL    HW161132   1.451   0.118   2.515  0.2131  1.6886  0.2628
19948SOL    HW261133   1.301   0.117   2.534  0.2334 -0.7371  0.6301
19949SOL     OW61134   7.562   8.271   7.759  0.0191  0.5258 -0.6389
19949SOL    HW161135   7.534   8.181   7.742 -0.3410  0.5991 -0.4443
19949SOL    HW261136   7.484   8.324   7.740 -0.4380  0.6161  1.2478
19950SOL     OW61137   6.116   2.187   6.562  0.3190 -1.1288 -0.1371
19950SOL    HW161138   6.183   2.248   6.594  1.5336 -1.8634 -1.1876
19950SOL    HW261139   6.036   2.240   6.555  0.7118 -0.2917  1.3625
19951SOL     OW61140   2.847   5.579   1.912  0.0493 -0.3023  0.0636
19951SOL    HW161141   2.780   5.631   1.867 -0.7712  0.7497  2.3557
19951SOL    HW261142   2.921   5.639   1.921  0.8743 -1.0561 -1.3173
19952SOL     OW61143   3.861   8.506   4.973 -0.0157  0.1393  0.4084
19952SOL    HW161144   3.940   8.529   4.925  1.0408  0.9104  2.4071
19952SOL    HW261145   3.830   8.589   5.009 -0.2946 -0.5090  1.7173
19953SOL     OW61146   3.083   7.818   1.078 -0.0276 -0.3922 -0.3893
19953SOL    HW161147   3.150   7.859   1.024  0.6645 -0.3122  0.5124
19953SOL    HW261148   3.113   7.728   1.090 -0.2662 -0.4584 -0.2812
19954SOL     OW61149   1.078   6.306   5.215 -0.8261 -0.5045 -0.4827
19954SOL    HW161150   1.110   6.371   5.152  1.3315 -0.7149  0.3186
19954SOL    HW261151   1.075   6.224   5.166 -1.0267 -0.3057 -0.8055
19955SOL     OW61152   3.750   1.445   0.389  0.0264 -0.0980  0.4018
19955SOL    HW161153   3.784   1.534   0.392 -0.4725  0.1070  0.1290
19955SOL    HW261154   3.657   1.454   0.410  0.1833 -0.6753  1.3824
19956SOL     OW61155   2.420   3.211   2.931  0.6860 -0.4248 -0.3879
19956SOL    HW161156   2.327   3.203   2.951  0.4443 -0.9079 -1.5811
19956SOL    HW261157   2.461   3.136   2.975  0.5500 -0.0792  0.3306
19957SOL     OW61158   2.507   4.662   1.507 -0.2936  0.0118  0.5628
19957SOL    HW161159   2.421   4.638   1.540 -0.0973 -0.4450  0.7539
19957SOL    HW261160   2.560   4.678   1.585 -0.6565  2.0270  0.4526
19958SOL     OW61161   0.933   0.263   6.733 -0.5730 -0.5055 -0.2933
19958SOL    HW161162   0.981   0.186   6.762  1.6105  0.5143 -1.0175
19958SOL    HW261163   0.951   0.329   6.800  1.0413  0.5844 -1.7236
19959SOL     OW61164   0.610   2.526   5.556 -0.1696 -0.7509  0.0790
19959SOL    HW161165   0.673   2.498   5.489 -2.0831 -1.2521 -1.6042
19959SOL    HW261166   0.586   2.445   5.602 -0.6678 -0.7947 -0.2574
19960SOL     OW61167   8.110   7.779   0.725 -0.5318 -0.3412  0.4495
19960SOL    HW161168   8.104   7.808   0.816 -0.9995 -0.7971  0.5719
19960SOL    HW261169   8.061   7.845   0.676  0.2179  0.2224  0.4485
19961SOL     OW61170   1.519   2.292   1.706 -0.5428  0.5623  0.4996
19961SOL    HW161171   1.441   2.348   1.713 -1.1866 -0.2669  0.1157
19961SOL    HW261172   1.583   2.347   1.661 -0.8395  1.3158  0.9675
19962SOL     OW61173   2.906   7.627   8.096  0.6732  0.0652  0.2832
19962SOL    HW161174   2.825   7.591   8.134 -0.5544  0.2495 -1.9907
19962SOL    HW261175   2.882   7.714   8.066  2.0064  0.4955  0.4035
19963SOL     OW61176   3.618   7.093   5.636 -0.6750 -0.3491 -0.1508
19963SOL    HW161177   3.632   7.010   5.591 -0.7375 -1.3893  1.6317
19963SOL    HW261178   3.523   7.101   5.643 -0.6659 -0.2166 -0.1757
19964SOL     OW61179   7.008   8.520   2.364 -0.6159 -0.0683  0.1203
19964SOL    HW161180   7.032   8.478   2.447  0.5150 -0.4625 -0.3877
19964SOL    HW261181   7.091   8.531   2.318 -0.9405  2.2771  0.0122
19965SOL     OW61182   2.206   7.958   4.811  0.3034 -0.3077  0.2741
19965SOL    HW161183   2.267   7.946   4.883  1.0139 -0.3543 -0.3276
19965SOL    HW261184   2.191   8.053   4.808  0.4767 -0.2794  0.3136
19966SOL     OW61185   4.940   7.500   4.986 -0.1707  0.4094  0.3327
19966SOL    HW161186   4.871   7.538   4.932  0.1301  0.1891 -0.2212
19966SOL    HW261187   4.942   7.407   4.961  0.3429  0.4177  0.3183
19967SOL     OW61188   4.450   7.749   7.177  0.6994  0.1770  0.4068
19967SOL    HW161189   4.368   7.796   7.158  1.5092  1.1486 -0.8461
19967SOL    HW261190   4.423   7.675   7.231 -1.0097  0.4971  0.0511
19968SOL     OW61191   5.982   1.318   6.792 -0.1292  0.8668  0.0604
19968SOL    HW161192   5.923   1.357   6.856  0.2393  0.9865  0.3311
19968SOL    HW261193   6.038   1.260   6.843 -0.7661 -0.1464 -0.3605
19969SOL     OW61194   2.394   3.194   2.189  0.1698  0.2889  0.0357
19969SOL    HW161195   2.317   3.243   2.219 -0.8635  0.4113 -2.5147
19969SOL    HW261196   2.442   3.257   2.135 -0.9689 -1.2230 -2.9886
19970SOL     OW61197   2.413   5.923   2.425 -0.2029  0.0492  0.2855
19970SOL    HW161198   2.504   5.931   2.453 -0.8802 -1.2850  3.3121
19970SOL    HW261199   2.399   5.999   2.369  2.8243  0.1044 -0.5832
19971SOL     OW61200   1.317   0.061   8.132  0.9230 -0.3862 -0.0127
19971SOL    HW161201   1.369   0.083   8.054 -0.3147  0.2585 -0.6957
19971SOL    HW261202   1.227   0.058   8.100  0.5234 -1.4780  1.1422
19972SOL     OW61203   7.952   4.726   0.118 -0.7765 -0.5237 -0.0649
19972SOL    HW161204   7.991   4.646   0.152 -0.5730 -0.0254  0.9052
19972SOL    HW261205   8.027   4.785   0.104 -0.9538 -0.3891 -0.4628
19973SOL     OW61206   3.566   7.557   5.833  0.4174  0.2267 -0.0560
19973SOL    HW161207   3.523   7.478   5.867 -0.4926  0.3088 -0.9742
19973SOL    HW261208   3.633   7.523   5.773 -0.1485  0.1407 -0.6530
19974SOL     OW61209   7.887   7.059   0.760 -0.6884 -0.1376 -0.0164
19974SOL    HW161210   7.907   6.967   0.744  0.4032  0.1384 -0.2945
19974SOL    HW261211   7.876   7.097   0.673 -0.6112  0.1111  0.0815
19975SOL     OW61212   8.123   1.860   0.163  0.6932 -0.1660 -0.0732
19975SOL    HW161213   8.181   1.883   0.236  0.8172 -0.9343  0.0748
19975SOL    HW261214   8.071   1.787   0.196 -0.0180  0.1856 -0.3803
19976SOL     OW61215   6.724   3.406   6.416 -0.6795 -0.1086 -0.3685
19976SOL    HW161216   6.778   3.485   6.415  0.2819 -0.6773  1.9668
19976SOL    HW261217   6.635   3.438   6.431 -0.1331  0.5359  1.8783
19977SOL     OW61218   6.989   7.069   8.047 -0.2125  0.1676  0.3438
19977SOL    HW161219   7.048   7.063   7.972  0.1599  0.8364  0.5778
19977SOL    HW261220   6.904   7.041   8.013  0.2848 -1.1015  0.0792
19978SOL     OW61221   2.986   1.252   7.565 -0.2955  0.4186 -0.4247
19978SOL    HW161222   2.909   1.264   7.621 -0.9658 -0.0492 -1.2306
19978SOL    HW261223   2.952   1.208   7.487  0.8959 -0.3708 -0.5237
19979SOL     OW61224   6.653   4.515   5.459  0.2830 -0.0133  0.5687
19979SOL    HW161225   6.599   4.441   5.432 -2.0608  1.8218 -0.0962
19979SOL    HW261226   6.646   4.515   5.555 -1.8171  0.7687  0.4635
19980SOL     OW61227   4.679   5.657   1.295 -0.0161  0.5660  0.1860
19980SOL    HW161228   4.609   5.702   1.342  0.6010  0.3702  1.3295
19980SOL    HW261229   4.756   5.713   1.305 -0.2477  1.3940 -2.0997
19981SOL     OW61230   5.696   3.033   4.456  0.0483 -0.1713 -0.2306
19981SOL    HW161231   5.634   3.092   4.414 -1.0987 -1.7597 -0.9053
19981SOL    HW261232   5.753   3.003   4.384  0.6500  0.1316  0.1114
19982SOL     OW61233   3.244   8.629   3.564 -0.4835  0.8710 -0.4157
19982SOL    HW161234   3.270   8.720   3.578  0.5030  0.5577 -0.1903
19982SOL    HW261235   3.313   8.577   3.604 -0.7255  0.0109 -1.0778
19983SOL     OW61236   6.760   8.086   0.308  0.3814 -0.2332 -0.5462
19983SOL    HW161237   6.701   8.090   0.383 -1.2085 -0.9948 -1.6852
19983SOL    HW261238   6.750   8.170   0.264  0.7859 -0.0494 -0.2902
19984SOL     OW61239   3.934   6.195   2.012  0.0143 -0.0306  0.5584
19984SOL    HW161240   3.875   6.147   2.070  0.0011 -1.4821 -0.5816
19984SOL    HW261241   3.880   6.266   1.977 -0.1717  0.4494  1.7710
19985SOL     OW61242   6.078   2.577   7.938 -0.2546  0.0557 -0.4407
19985SOL    HW161243   6.054   2.548   7.849  0.3816 -0.0128 -0.5925
19985SOL    HW261244   5.997   2.616   7.972 -0.5671 -0.1046 -0.9714
19986SOL     OW61245   5.618   7.112   0.604 -0.2053  0.4649  0.2290
19986SOL    HW161246   5.634   7.075   0.517  0.0480  0.3279  0.3321
19986SOL    HW261247   5.622   7.037   0.663  0.9160  0.7334  0.5146
19987SOL     OW61248   6.450   6.730   1.175  0.4325 -0.0296  0.8243
19987SOL    HW161249   6.529   6.752   1.224  0.4113  0.1686  0.7703
19987SOL    HW261250   6.474   6.742   1.084  0.8681 -1.6479  0.6945
19988SOL     OW61251   6.671   3.358   1.677  0.7188  0.3014 -0.0992
19988SOL    HW161252   6.621   3.321   1.750 -0.2824  1.6558 -0.0699
19988SOL    HW261253   6.607   3.408   1.627  1.3106 -0.9011 -2.1620
19989SOL     OW61254   0.300   5.212   6.933  0.1399 -0.2440 -0.1922
19989SOL    HW161255   0.243   5.207   7.010 -0.2086 -0.1279 -0.4396
19989SOL    HW261256   0.340   5.126   6.927  2.0121  0.4174  1.5118
19990SOL     OW61257   0.518   5.011   5.380 -0.1347  0.1391  0.4177
19990SOL    HW161258   0.486   5.063   5.306  1.0860 -0.4355 -0.5622
19990SOL    HW261259   0.463   5.037   5.454 -0.9225  1.2573 -0.5262
19991SOL     OW61260   2.926   6.558   3.997 -0.3222 -0.2228 -0.3796
19991SOL    HW161261   2.982   6.635   3.995 -2.1459  1.2526  1.3705
19991SOL    HW261262   2.863   6.571   3.926 -0.3354 -0.3390 -0.3901
19992SOL     OW61263   2.030   5.219   7.701  0.3289  0.3961 -0.0057
19992SOL    HW161264   2.085   5.180   7.633 -0.0715 -2.2861  1.0629
19992SOL    HW261265   2.091   5.241   7.771  0.4105  0.4269 -0.0864
19993SOL     OW61266   7.073   7.273   6.600  0.1343  0.1463 -0.0511
19993SOL    HW161267   7.078   7.356   6.554 -1.3566  2.6434  3.7678
19993SOL    HW261268   7.147   7.274   6.660 -0.3324 -0.9338  0.5782
19994SOL     OW61269   1.586   7.810   2.392 -0.5278  0.5125 -0.4392
19994SOL    HW161270   1.643   7.877   2.355  0.0371  0.6191  0.5776
19994SOL    HW261271   1.500   7.826   2.353 -1.1548  3.6793  1.8727
19995SOL     OW61272   5.016   2.171   8.505 -0.3588  0.3570  0.3020
19995SOL    HW161273   4.970   2.246   8.468 -1.1878 -0.6787 -0.8594
19995SOL    HW261274   5.050   2.124   8.429  0.1423 -0.4622  1.0103
19996SOL     OW61275   7.682   5.450   1.654  0.3421  0.4814 -0.0883
19996SOL    HW161276   7.600   5.415   1.620  0.0869  0.6185  0.3796
19996SOL    HW261277   7.656   5.508   1.726  0.9134 -0.7012  1.1269
19997SOL     OW61278   4.284   6.674   1.769 -0.2083 -0.1070  0.5596
19997SOL    HW161279   4.196   6.636   1.777 -0.9149  1.4361  0.4816
19997SOL    HW261280   4.268   6.763   1.740  1.5201 -0.6348 -2.3233
19998SOL     OW61281   1.298   8.662   2.884  0.2469 -0.2393  0.1225
19998SOL    HW161282   1.348   8.673   2.965  1.9774 -0.3610 -0.8951
19998SOL    HW261283   1.363   8.638   2.818 -0.9599  0.8270 -1.5427
19999SOL     OW61284   3.958   7.955   7.976 -0.4688 -0.5735  0.1268
19999SOL    HW161285   4.040   7.996   7.951 -1.1928  0.7848 -0.1416
19999SOL    HW261286   3.950   7.973   8.070 -0.5509 -0.5299  0.1119
20000SOL     OW61287   8.196   0.735   1.813 -0.0759 -0.2114  0.0885
20000SOL    HW161288   8.242   0.656   1.840 -0.0755 -0.4269 -0.5119
20000SOL    HW261289   8.161   0.714   1.726  3.4181  1.7145 -2.0718
20001SOL     OW61290   1.322   6.743   0.815 -0.1209 -0.3035  0.2285
20001SOL    HW161291   1.352   6.821   0.861  0.3554 -0.3761  0.0513
20001SOL    HW261292   1.260   6.702   0.875 -0.7946  0.4892  0.0988
20002SOL     OW61293   3.456   4.201   2.488 -0.1446  0.7244 -0.1253
20002SOL    HW161294   3.407   4.281   2.508 -0.6760  0.1673  0.8705
20002SOL    HW261295   3.509   4.224   2.412 -1.7859  1.4231 -1.1123
20003SOL     OW61296   8.687   0.519   2.393 -0.6969  0.4568 -0.1759
20003SOL    HW161297   8.675   0.439   2.342 -0.2434 -0.1266  0.6097
20003SOL    HW261298   8.779   0.541   2.383 -0.4567 -0.0003  0.8425
20004SOL     OW61299   3.293   6.653   0.259 -0.1208  0.2022 -0.4333
20004SOL    HW161300   3.350   6.646   0.336 -0.2202  0.2601 -0.3556
20004SOL    HW261301   3.331   6.725   0.209 -0.3217  0.4565 -0.2193
20005SOL     OW61302   7.233   8.443   6.843 -0.3421  0.4347 -0.3118
20005SOL    HW161303   7.194   8.383   6.906  1.4344  0.1763  0.6345
20005SOL    HW261304   7.260   8.519   6.896  0.4893  0.5544 -0.8739
20006SOL     OW61305   1.240   3.375   0.941 -0.1080 -0.7306 -0.5060
20006SOL    HW161306   1.290   3.425   0.877 -1.5629  0.2987 -0.8804
20006SOL    HW261307   1.171   3.333   0.891 -0.7946 -0.5452  0.2526
20007SOL     OW61308   1.923   1.832   4.141  0.2861 -0.1862 -0.0551
20007SOL    HW161309   1.946   1.920   4.172 -0.5015 -0.0748  0.2311
20007SOL    HW261310   1.833   1.841   4.109  0.1529 -0.9198  0.1126
20008SOL     OW61311   7.114   6.992   7.823 -0.7112 -0.1230 -0.4605
20008SOL    HW161312   7.201   6.952   7.818 -0.0539  0.9137  1.5398
20008SOL    HW261313   7.116   7.061   7.757  0.4327  0.6073  0.2823
20009SOL     OW61314   3.502   7.566   5.538  0.2051 -0.3521 -0.1240
20009SOL    HW161315   3.517   7.487   5.487  1.4349  0.3134 -0.8392
20009SOL    HW261316   3.590   7.602   5.553 -0.3545  1.1385 -0.2404
20010SOL     OW61317   0.635   0.949   3.045  0.3075  0.3148  0.0995
20010SOL    HW161318   0.594   0.971   2.961  1.9119 -0.8476 -1.0462
20010SOL    HW261319   0.720   0.992   3.043  0.4843  0.0321  1.0175
20011SOL     OW61320   8.518   4.230   2.133 -0.2316 -0.3571  0.4249
20011SOL    HW161321   8.565   4.244   2.051 -0.4100  2.9947  0.7821
20011SOL    HW261322   8.584   4.246   2.201 -1.0555  1.0739  0.9119
20012SOL     OW61323   2.865   2.180   1.754  0.1426  0.9977  0.6997
20012SOL    HW161324   2.845   2.227   1.673 -0.0597 -0.3779 -0.0766
20012SOL    HW261325   2.781   2.174   1.800 -0.1952 -0.0330 -0.0010
20013SOL     OW61326   3.671   5.162   0.999  0.3213 -0.2580  0.1954
20013SOL    HW161327   3.644   5.210   0.920 -0.3170 -1.3003 -0.2345
20013SOL    HW261328   3.764   5.185   1.009  0.2773  0.3048 -0.5576
20014SOL     OW61329   0.876   5.939   4.834  0.1781 -0.2208 -0.1254
20014SOL    HW161330   0.811   5.989   4.784 -0.5796 -1.2572 -0.2016
20014SOL    HW261331   0.958   5.956   4.789 -0.2720 -0.0122 -0.8895
20015SOL     OW61332   5.771   0.049   1.899 -0.1589  0.0579  0.0703
20015SOL    HW161333   5.805   0.004   1.976 -1.9116 -0.3350  0.6428
20015SOL    HW261334   5.683   0.015   1.887 -1.4414  2.9909  0.2875
20016SOL     OW61335   6.565   7.522   2.149 -0.0919 -0.4463 -0.2547
20016SOL    HW161336   6.499   7.537   2.217  0.6753 -1.0656  0.6567
20016SOL    HW261337   6.638   7.482   2.196  1.0142  0.4009 -1.1998
20017SOL     OW61338   0.732   3.312   4.323 -0.5771  0.3379 -0.2099
20017SOL    HW161339   0.688   3.237   4.285  0.4699 -0.9015  0.9017
20017SOL    HW261340   0.806   3.329   4.265  0.2242 -0.6650  0.4985
20018SOL     OW61341   2.498   8.449   4.285 -0.6400 -0.1593  0.2852
20018SOL    HW161342   2.570   8.390   4.306 -1.0263 -0.6561  0.2281
20018SOL    HW261343   2.419   8.394   4.289 -0.8768  0.0382 -1.1007
20019SOL     OW61344   4.271   1.253   1.661  0.5481  0.1268 -0.1765
20019SOL    HW161345   4.354   1.300   1.672  0.4170  0.1227  0.8909
20019SOL    HW261346   4.295   1.161   1.670  0.1682  0.2042  1.9970
20020SOL     OW61347   8.442   0.716   4.855 -0.2387  0.4532  0.0277
20020SOL    HW161348   8.453   0.769   4.776 -0.9470 -0.0845 -0.4431
20020SOL    HW261349   8.402   0.776   4.918  0.1418  0.8269 -0.0792
20021SOL     OW61350   5.552   3.808   5.836 -0.1917 -0.2239 -0.4250
20021SOL    HW161351   5.575   3.832   5.746 -0.7425  2.2884  0.0335
20021SOL    HW261352   5.457   3.797   5.834 -0.1896 -0.2863 -0.1808
20022SOL     OW61353   1.629   6.666   7.929 -0.0241 -0.8520 -0.3021
20022SOL    HW161354   1.591   6.604   7.991 -1.1625  0.9223  0.8729
20022SOL    HW261355   1.716   6.686   7.964  0.0909 -1.3017 -0.3348
20023SOL     OW61356   5.886   2.421   0.900 -0.0635 -0.1216 -0.0721
20023SOL    HW161357   5.817   2.424   0.966 -0.6344  0.5248 -0.6801
20023SOL    HW261358   5.895   2.512   0.872  0.9585 -0.2202 -0.0885
20024SOL     OW61359   6.317   5.542   6.332  0.2448 -0.4323 -0.2176
20024SOL    HW161360   6.229   5.559   6.365  0.3731 -0.1803 -0.0020
20024SOL    HW261361   6.358   5.628   6.326  0.3800 -0.5185 -0.5963
20025SOL     OW61362   3.061   6.953   1.597 -0.4398  0.0966  0.2542
20025SOL    HW161363   3.018   6.867   1.599  0.7600 -0.5723 -0.7022
20025SOL    HW261364   3.000   7.012   1.641 -1.2163 -1.2781  1.0913
20026SOL     OW61365   2.532   5.053   3.317 -0.4404  0.3466 -0.0609
20026SOL    HW161366   2.613   5.002   3.312  0.0816  1.2075 -0.6516
20026SOL    HW261367   2.494   5.047   3.230  0.3336  2.0534 -0.5611
20027SOL     OW61368   7.865   3.035   3.950 -0.1596 -0.5131  0.2425
20027SOL    HW161369   7.921   3.026   3.873 -0.5668 -1.2324  0.0141
20027SOL    HW261370   7.831   2.947   3.965 -0.1168 -0.3691  1.2263
20028SOL     OW61371   1.609   2.496   6.828  0.2104  0.7454 -0.7903
20028SOL    HW161372   1.585   2.471   6.918  2.3367  0.5372 -0.2290
20028SOL    HW261373   1.570   2.583   6.816 -0.5750  0.5409  0.1137
20029SOL     OW61374   2.473   5.474   0.711 -0.1010  0.7735 -0.0196
20029SOL    HW161375   2.558   5.439   0.736 -0.5176  1.6332  2.9297
20029SOL    HW261376   2.418   5.396   0.697  0.5818  0.2369  0.2671
20030SOL     OW61377   7.702   5.151   6.651  0.4217  0.7113  0.2234
20030SOL    HW161378   7.630   5.214   6.653  0.3958  0.6836  0.1779
20030SOL    HW261379   7.780   5.205   6.641  0.2301  0.6528 -2.2774
20031SOL     OW61380   5.050   6.106   5.744 -0.4043 -0.3561  0.8750
20031SOL    HW161381   5.140   6.131   5.722 -0.3855  2.1403  3.2759
20031SOL    HW261382   4.995   6.168   5.697 -0.8508 -1.2235  0.2316
20032SOL     OW61383   5.627   5.299   5.704  0.0876 -0.8747 -0.2010
20032SOL    HW161384   5.682   5.376   5.693 -1.2157  0.1108 -0.0133
20032SOL    HW261385   5.538   5.329   5.687 -0.4893 -2.2716  0.1383
20033SOL     OW61386   5.036   0.228   0.449 -0.3048 -0.2397  0.2629
20033SOL    HW161387   5.124   0.191   0.447 -0.2784 -0.1600 -0.1589
20033SOL    HW261388   5.047   0.315   0.487 -0.0712  0.1027 -0.5630
20034SOL     OW61389   3.503   8.280   2.227  0.1626  0.1514  0.1846
20034SOL    HW161390   3.426   8.251   2.277  0.3809  0.1778  0.5377
20034SOL    HW261391   3.512   8.373   2.249  0.6318  0.0129  0.5862
20035SOL     OW61392   4.847   6.853   5.418  0.3199 -0.2914 -0.4369
20035SOL    HW161393   4.777   6.852   5.353  0.5966 -0.5300 -0.7354
20035SOL    HW261394   4.869   6.946   5.427  0.8708 -0.3158 -1.3413
20036SOL     OW61395   0.717   2.452   3.966 -0.8097  0.5469  0.1615
20036SOL    HW161396   0.655   2.421   3.901 -1.8821  0.5728  1.1492
20036SOL    HW261397   0.775   2.377   3.982 -1.6103 -0.0102  0.4556
20037SOL     OW61398   1.056   2.020   5.446  0.4085  0.0638 -0.0819
20037SOL    HW161399   1.087   2.070   5.521 -2.4261  0.7442  0.7789
20037SOL    HW261400   1.106   2.053   5.372  1.2937  1.4218  1.0743
20038SOL     OW61401   2.439   4.659   3.556  0.3129 -0.3534 -0.4808
20038SOL    HW161402   2.473   4.616   3.478  0.9773 -1.7986  0.5625
20038SOL    HW261403   2.391   4.735   3.523 -1.4869 -2.2296 -2.4765
20039SOL     OW61404   7.740   3.285   8.508 -0.5818  0.2669  0.3226
20039SOL    HW161405   7.739   3.220   8.579 -0.1763 -1.0081 -0.8010
20039SOL    HW261406   7.653   3.325   8.512 -0.6526  0.0458  1.3862
20040SOL     OW61407   7.132   8.433   6.596 -0.0763  0.0989 -0.1659
20040SOL    HW161408   7.170   8.450   6.683  0.6121 -0.4016 -0.3686
20040SOL    HW261409   7.061   8.370   6.613 -1.7230  1.9909  0.3931
20041SOL     OW61410   1.393   2.510   2.060 -0.0829  0.5691  0.1333
20041SOL    HW161411   1.409   2.561   2.139  0.7938  0.9469 -0.2683
20041SOL    HW261412   1.465   2.535   2.001 -1.3443  1.1742 -1.2113
20042SOL     OW61413   0.414   5.344   1.082  1.2058 -0.3331 -0.2515
20042SOL    HW161414   0.440   5.254   1.063  1.1216 -0.7218  1.2908
20042SOL    HW261415   0.440   5.394   1.005  1.7203 -1.5887 -0.9218
20043SOL     OW61416   3.927   6.812   7.307  0.6053 -0.4559 -0.0733
20043SOL    HW161417   3.969   6.805   7.393  0.4819  0.4680  0.0704
20043SOL    HW261418   3.932   6.905   7.285  0.3348 -0.6333 -0.9186
20044SOL     OW61419   5.458   1.367   5.358 -0.6467 -0.3362  0.2225
20044SOL    HW161420   5.431   1.277   5.339  0.2330 -0.3518 -1.1420
20044SOL    HW261421   5.425   1.417   5.283 -0.5051  0.3561  0.6204
20045SOL     OW61422   5.508   0.363   7.604 -0.1624  0.1159  0.2622
20045SOL    HW161423   5.433   0.377   7.661 -1.8475  1.3545 -2.0712
20045SOL    HW261424   5.487   0.283   7.555 -0.6601  1.1603 -1.3173
20046SOL     OW61425   5.735   2.773   7.669 -0.0258 -0.3213 -0.5004
20046SOL    HW161426   5.690   2.778   7.584  1.9341  1.2538 -1.5415
20046SOL    HW261427   5.804   2.707   7.655 -1.0794 -1.7066  0.6290
20047SOL     OW61428   0.983   5.209   7.154 -0.1248 -0.0753 -0.3774
20047SOL    HW161429   0.944   5.256   7.080  0.2943 -0.1001 -0.6214
20047SOL    HW261430   0.926   5.229   7.228  0.6484  1.7501 -0.2093
20048SOL     OW61431   4.019   3.882   4.054  0.8628 -0.1365 -0.0030
20048SOL    HW161432   4.042   3.972   4.033  0.3142 -0.0138 -0.1016
20048SOL    HW261433   4.097   3.845   4.094  0.6788  0.7683  1.2432
20049SOL     OW61434   7.283   2.242   4.379 -0.1475 -0.1357  0.3738
20049SOL    HW161435   7.340   2.318   4.364 -0.2024  0.1659  1.6305
20049SOL    HW261436   7.201   2.279   4.411 -0.6175 -0.6572 -0.1994
20050SOL     OW61437   8.206   0.148   0.041 -0.1411 -0.0670 -0.4908
20050SOL    HW161438   8.113   0.163   0.056 -0.8421 -0.1299 -3.8433
20050SOL    HW261439   8.215   0.052   0.036  0.3814 -0.1188  0.9902
20051SOL     OW61440   7.712   6.981   1.117 -0.2767  0.1595  0.1325
20051SOL    HW161441   7.726   7.067   1.155 -1.3944  0.9912 -1.2208
20051SOL    HW261442   7.621   6.959   1.139  0.1550 -0.9365  0.9191
20052SOL     OW61443   3.014   2.925   0.980  0.5543  0.7227 -0.1568
20052SOL    HW161444   2.945   2.987   0.956  0.0080  0.3696  0.4737
20052SOL    HW261445   2.995   2.902   1.071 -0.3279 -1.7258 -0.8835
20053SOL     OW61446   4.718   6.109   1.465 -0.3703  0.3983 -0.2723
20053SOL    HW161447   4.665   6.052   1.522  0.9448  0.5509  1.1744
20053SOL    HW261448   4.674   6.194   1.468  0.3564  0.7579  1.6065
20054SOL     OW61449   3.450   6.065   1.844 -0.2153 -0.6544  0.0944
20054SOL    HW161450   3.464   6.152   1.808  2.7532 -0.0499  2.3044
20054SOL    HW261451   3.360   6.042   1.819 -1.0326  2.9152 -0.7164
20055SOL     OW61452   6.551   7.515   5.574 -0.2730 -0.6381  0.2512
20055SOL    HW161453   6.598   7.592   5.543  0.5033 -0.1417  2.4775
20055SOL    HW261454   6.550   7.524   5.669 -1.3286 -2.7188  0.4960
20056SOL     OW61455   1.470   5.988   3.500 -0.6622 -0.0838 -0.0381
20056SOL    HW161456   1.445   5.984   3.592  2.6655 -1.6915  0.9418
20056SOL    HW261457   1.500   6.077   3.486 -0.7442  0.0386  0.5664
20057SOL     OW61458   5.825   5.092   4.448  0.2415  0.5740 -0.0713
20057SOL    HW161459   5.818   5.099   4.543 -1.0003  1.2294 -0.1773
20057SOL    HW261460   5.838   5.183   4.419  1.9089  0.2446 -0.4711
20058SOL     OW61461   4.578   1.683   3.507 -0.0531 -0.4497 -0.4256
20058SOL    HW161462   4.521   1.729   3.568 -1.8261 -1.7856 -0.9955
20058SOL    HW261463   4.575   1.736   3.427  0.1135 -0.1205 -0.2145
20059SOL     OW61464   5.818   6.215   7.986 -0.6557 -0.0316 -0.2047
20059SOL    HW161465   5.902   6.241   7.950 -0.6771  0.2911 -0.0343
20059SOL    HW261466   5.839   6.173   8.069 -0.4184 -3.0075 -1.6539
20060SOL     OW61467   7.153   8.681   1.773  0.0245  0.0996  0.1577
20060SOL    HW161468   7.204   8.672   1.693  1.2327 -3.6490  1.1311
20060SOL    HW261469   7.070   8.638   1.753  0.6397 -1.5824  1.0814
20061SOL     OW61470   4.957   3.712   4.119 -0.4393 -0.0056 -0.0345
20061SOL    HW161471   4.883   3.763   4.087 -0.8906 -0.4620  0.2601
20061SOL    HW261472   4.978   3.751   4.204 -1.0401 -0.5407  0.3740
20062SOL     OW61473   5.090   3.362   0.405 -0.4135  0.2399  0.2100
20062SOL    HW161474   5.008   3.358   0.455  0.5458  0.2859  1.8812
20062SOL    HW261475   5.158   3.364   0.472  1.0877 -2.0198 -1.1242
20063SOL     OW61476   1.455   1.350   7.997 -0.0997 -0.1683  0.7070
20063SOL    HW161477   1.382   1.386   8.047  0.7347  1.9784  0.4784
20063SOL    HW261478   1.523   1.332   8.062 -0.2211 -0.5734  0.7240
20064SOL     OW61479   2.117   7.119   2.579 -0.5150 -1.0637 -0.2279
20064SOL    HW161480   2.179   7.046   2.571  1.2529  0.4550 -1.3506
20064SOL    HW261481   2.145   7.166   2.658 -1.8983 -1.7788  0.7223
20065SOL     OW61482   6.752   8.108   4.046  0.0834 -0.3647  0.4913
20065SOL    HW161483   6.757   8.014   4.065 -0.1618 -0.5971 -0.5550
20065SOL    HW261484   6.811   8.121   3.972  0.4184  0.3812  0.8811
20066SOL     OW61485   5.390   6.176   2.261  0.2173 -0.0855  0.1626
20066SOL    HW161486   5.399   6.220   2.346  0.7362  0.1171  0.0064
20066SOL    HW261487   5.475   6.186   2.220 -0.0926 -0.0067 -0.4730
20067SOL     OW61488   7.391   3.470   3.061  0.2032 -0.1007 -0.1901
20067SOL    HW161489   7.468   3.437   3.107 -0.4219 -0.4906  0.5965
20067SOL    HW261490   7.378   3.409   2.989  1.1691  0.4963 -0.8977
20068SOL     OW61491   1.611   7.509   0.207 -0.2218  0.4949  0.2210
20068SOL    HW161492   1.656   7.589   0.235  0.1381  0.3484  0.0515
20068SOL    HW261493   1.659   7.479   0.130  1.0136 -1.1139  1.5645
20069SOL     OW61494   5.786   5.137   1.294  0.1736  0.0156 -0.0278
20069SOL    HW161495   5.773   5.073   1.224 -1.8279 -1.0205  1.1610
20069SOL    HW261496   5.775   5.222   1.252 -1.1660 -0.5901 -0.9932
20070SOL     OW61497   4.162   1.468   0.508  0.0038  0.3937 -0.3010
20070SOL    HW161498   4.249   1.506   0.499 -0.0904  0.7720  0.3636
20070SOL    HW261499   4.146   1.426   0.423  0.3225  1.3892 -0.8815
20071SOL     OW61500   4.967   3.346   3.916 -0.0846  0.0592 -0.1831
20071SOL    HW161501   4.973   3.440   3.895  2.3204  0.1326  0.6249
20071SOL    HW261502   4.958   3.343   4.011 -0.1911 -0.5465 -0.2097
20072SOL     OW61503   7.858   1.013   5.101 -0.5489  0.0289  0.1140
20072SOL    HW161504   7.803   1.091   5.110  0.2901  0.5746  0.5814
20072SOL    HW261505   7.814   0.947   5.156 -0.6682  0.4962  0.5868
20073SOL     OW61506   3.431   2.415   3.616 -0.0831 -0.4109 -0.2788
20073SOL    HW161507   3.407   2.498   3.657 -0.3192  0.0827 -1.3746
20073SOL    HW261508   3.385   2.349   3.668  0.1761  0.1275  0.6557
20074SOL     OW61509   6.440   1.238   6.397 -0.1596 -0.4533  0.4152
20074SOL    HW161510   6.379   1.265   6.465  0.0098 -1.0230  0.8049
20074SOL    HW261511   6.518   1.292   6.412 -1.1514  1.5723 -1.1848
20075SOL     OW61512   1.025   3.678   3.776  0.6822  0.4253  0.3371
20075SOL    HW161513   1.066   3.735   3.711 -1.1424  0.2256 -1.0985
20075SOL    HW261514   0.963   3.625   3.725 -0.5592 -0.0072  2.1988
20076SOL     OW61515   6.996   0.434   8.192  0.8088  0.0537  0.2797
20076SOL    HW161516   7.074   0.399   8.150 -0.1707 -2.3434  0.3144
20076SOL    HW261517   6.963   0.362   8.246 -0.0085  1.8524  2.3212
20077SOL     OW61518   0.386   3.690   7.467 -0.1198  0.4324  0.1069
20077SOL    HW161519   0.418   3.768   7.513 -2.3887  1.5155 -0.0434
20077SOL    HW261520   0.293   3.706   7.455 -0.3502 -1.6611 -1.2875
20078SOL     OW61521   7.581   5.701   8.427 -0.2794 -0.3651  0.0135
20078SOL    HW161522   7.506   5.678   8.483 -0.6642 -0.0309 -0.3518
20078SOL    HW261523   7.571   5.645   8.350  0.5890 -1.2588  0.5349
20079SOL     OW61524   7.915   1.482   6.394  0.5530 -0.1280  0.0629
20079SOL    HW161525   7.828   1.469   6.355  0.1175  1.6644  0.3491
20079SOL    HW261526   7.957   1.396   6.387 -0.8450 -0.7741 -1.0346
20080SOL     OW61527   1.792   3.284   7.743  0.0323 -0.3286  0.7719
20080SOL    HW161528   1.705   3.264   7.777 -0.0863 -0.8420  0.1904
20080SOL    HW261529   1.779   3.294   7.648  0.1365  2.2702  0.9739
20081SOL     OW61530   5.761   7.482   7.473 -0.1188  0.3851 -0.1891
20081SOL    HW161531   5.847   7.444   7.488 -0.5753 -0.1551  1.2156
20081SOL    HW261532   5.747   7.542   7.547 -0.5449  1.2139 -0.9245
20082SOL     OW61533   6.889   7.515   3.185  0.2907 -0.0270  0.1861
20082SOL    HW161534   6.878   7.449   3.117 -1.4028  0.4896 -0.0964
20082SOL    HW261535   6.841   7.481   3.260 -0.0391  0.5664  0.2539
20083SOL     OW61536   1.697   1.275   2.862 -0.2867 -0.4479 -0.3802
20083SOL    HW161537   1.694   1.191   2.815 -0.9307  0.7529 -2.6720
20083SOL    HW261538   1.606   1.291   2.887 -0.1788 -0.4194 -0.0115
20084SOL     OW61539   0.057   7.904   8.560 -0.4474 -0.2187 -0.0307
20084SOL    HW161540   0.100   7.924   8.643 -1.4351 -0.4633  0.5520
20084SOL    HW261541   0.073   7.811   8.546  1.0634  0.1406 -0.9303
20085SOL     OW61542   4.641   4.354   7.276 -0.1551 -0.1508 -0.5783
20085SOL    HW161543   4.573   4.420   7.262 -0.4144 -0.2244  0.2983
20085SOL    HW261544   4.598   4.271   7.259 -0.4274 -0.2301  0.4563
20086SOL     OW61545   4.979   4.408   8.333 -0.3257  0.6981  0.9669
20086SOL    HW161546   5.058   4.438   8.379  0.1145  0.4215  0.4032
20086SOL    HW261547   4.948   4.486   8.286  0.5579  0.4171 -0.1296
20087SOL     OW61548   3.251   7.814   2.383  0.0117 -0.0705  0.7597
20087SOL    HW161549   3.197   7.868   2.325 -0.0420 -1.2460 -0.3214
20087SOL    HW261550   3.239   7.724   2.351  0.9607 -0.6025  1.8203
20088SOL     OW61551   7.538   3.715   4.485  0.3581 -0.2044  0.3562
20088SOL    HW161552   7.611   3.681   4.537  0.3780 -1.0831 -0.2197
20088SOL    HW261553   7.579   3.748   4.405  0.2279  0.2487  0.4748
20089SOL     OW61554   5.909   8.637   7.420  0.0562  0.4781  0.2527
20089SOL    HW161555   5.929   8.725   7.450 -0.1454  1.0001 -1.0847
20089SOL    HW261556   5.958   8.627   7.338  0.5024 -0.8549  0.6436
20090SOL     OW61557   7.652   7.149   0.314  0.5728 -0.4531 -0.4160
20090SOL    HW161558   7.737   7.177   0.280 -0.3197  2.0873 -0.7526
20090SOL    HW261559   7.595   7.224   0.301 -0.3398  0.1959  5.0235
20091SOL     OW61560   6.227   5.310   5.270  0.5044 -0.6664  0.3628
20091SOL    HW161561   6.214   5.317   5.176  1.0034 -1.6792  0.1996
20091SOL    HW261562   6.199   5.221   5.292 -2.6208  0.5103  1.7305
20092SOL     OW61563   3.737   3.708   7.110 -0.2795 -0.5276  0.1318
20092SOL    HW161564   3.722   3.765   7.035 -0.7324 -0.1254  0.5213
20092SOL    HW261565   3.742   3.620   7.074  0.6598 -0.2283 -0.5117
20093SOL     OW61566   0.651   0.224   6.739 -0.2743 -0.6243  0.1422
20093SOL    HW161567   0.732   0.241   6.691 -0.6703  0.6130 -0.1216
20093SOL    HW261568   0.679   0.195   6.825  0.4462 -1.0831 -0.2401
20094SOL     OW61569   4.543   6.892   4.152  0.0091  0.5683 -0.2030
20094SOL    HW161570   4.516   6.843   4.230  0.6213  0.6181  0.0445
20094SOL    HW261571   4.626   6.932   4.177 -0.7449  2.2047 -0.1947
20095SOL     OW61572   4.400   3.392   3.913  0.1922 -0.0451 -0.1902
20095SOL    HW161573   4.482   3.428   3.881  1.4340 -2.2085  0.3701
20095SOL    HW261574   4.396   3.303   3.878 -1.7625 -0.1076  0.0561
20096SOL     OW61575   7.934   1.368   0.497  0.3270  0.0170 -0.0251
20096SOL    HW161576   7.906   1.281   0.528  1.1565 -0.2390  0.0461
20096SOL    HW261577   7.855   1.422   0.503 -0.1414 -0.6653  0.1768
20097SOL     OW61578   3.882   1.567   4.871 -0.2139  0.3007  0.1434
20097SOL    HW161579   3.849   1.492   4.922  0.4164 -0.3678 -0.4099
20097SOL    HW261580   3.878   1.538   4.780  0.2965  0.8362 -0.0561
20098SOL     OW61581   5.459   0.227   2.163 -0.3080  0.3081  0.4287
20098SOL    HW161582   5.406   0.149   2.182 -0.2081  0.5526  1.8116
20098SOL    HW261583   5.517   0.235   2.238 -0.1667  1.5995  0.1972
20099SOL     OW61584   1.445   0.052   7.421 -0.1955 -0.4052  0.4446
20099SOL    HW161585   1.434  -0.029   7.471  0.0299 -0.5315  0.2899
20099SOL    HW261586   1.382   0.113   7.460  1.6740  0.3220  2.5942
20100SOL     OW61587   6.115   6.946   3.827 -0.2452 -0.0235 -0.1429
20100SOL    HW161588   6.172   6.896   3.885 -0.7927 -0.5370 -0.0339
20100SOL    HW261589   6.038   6.890   3.815  0.1446 -0.2304 -1.9226
20101SOL     OW61590   6.147   0.087   5.755 -0.2756 -0.3452 -0.1442
20101SOL    HW161591   6.240   0.106   5.749  0.0255 -1.5308  0.3422
20101SOL    HW261592   6.106   0.147   5.694  0.6973  0.9020  0.3903
20102SOL     OW61593   7.066   2.903   4.208  0.2563  0.1710 -0.3008
20102SOL    HW161594   7.074   2.860   4.293 -1.6196  0.6814  0.1877
20102SOL    HW261595   7.066   2.996   4.228  0.9371  0.3328 -0.9988
20103SOL     OW61596   7.185   3.287   7.139  0.5632 -0.3293  0.7541
20103SOL    HW161597   7.253   3.350   7.163 -1.6225  3.2448 -1.5556
20103SOL    HW261598   7.222   3.240   7.064  1.5760 -0.6899  1.4488
20104SOL     OW61599   5.745   2.676   1.793 -0.1224  0.0677 -0.1821
20104SOL    HW161600   5.734   2.735   1.867 -0.2809 -0.2145  0.0154
20104SOL    HW261601   5.657   2.647   1.771 -0.1965  0.9166 -1.1080
20105SOL     OW61602   5.748   7.716   5.916  0.2310 -0.4319 -0.8643
20105SOL    HW161603   5.726   7.797   5.961  1.0044 -0.0107 -1.2247
20105SOL    HW261604   5.827   7.685   5.960  0.3263 -0.6309 -1.1758
20106SOL     OW61605   2.098   6.702   2.335  0.0425  0.0685  0.3449
20106SOL    HW161606   2.114   6.785   2.291 -2.7461  0.3631 -0.3245
20106SOL    HW261607   2.091   6.638   2.265 -0.3972 -0.2292  0.6532
20107SOL     OW61608   3.910   2.150   0.235 -0.1050 -0.8708  0.3171
20107SOL    HW161609   3.904   2.061   0.200 -1.6835 -0.8959  0.5689
20107SOL    HW261610   3.829   2.162   0.285 -0.8664  1.3607 -1.2631
20108SOL     OW61611   1.048   1.042   5.350  0.0892  0.0076 -0.1720
20108SOL    HW161612   0.975   1.037   5.289  1.0483  2.0152 -1.5966
20108SOL    HW261613   1.106   0.971   5.325  0.0468  0.2652 -1.0086
20109SOL     OW61614   2.843   5.279   3.637 -0.4074  0.4074  0.5560
20109SOL    HW161615   2.878   5.196   3.669 -1.3378 -0.7796 -1.3433
20109SOL    HW261616   2.919   5.325   3.602 -0.1921 -0.6631 -0.4548
20110SOL     OW61617   4.094   3.122   1.929 -0.0371  0.3147  0.1086
20110SOL    HW161618   4.120   3.040   1.971  1.6726  1.4139  1.3577
20110SOL    HW261619   4.002   3.133   1.953 -0.3438 -1.2749 -0.2100
20111SOL     OW61620   3.023   7.365   7.557  0.0583  0.2452  0.0208
20111SOL    HW161621   2.937   7.331   7.531  0.0550 -1.7614  2.2502
20111SOL    HW261622   3.085   7.320   7.501 -0.2458  0.3730 -0.4218
20112SOL     OW61623   0.458   1.394   0.222  0.1029  0.2224  0.0188
20112SOL    HW161624   0.495   1.323   0.273 -1.5553  0.2644  1.3797
20112SOL    HW261625   0.365   1.371   0.214 -0.3571  1.9522  0.0270
20113SOL     OW61626   0.652   5.946   3.093  0.1399  0.0855  0.3446
20113SOL    HW161627   0.613   5.972   3.009 -0.5075  0.5735  0.7896
20113SOL    HW261628   0.589   5.975   3.159 -0.1769 -1.8391  0.9219
20114SOL     OW61629   1.388   6.103   7.511 -0.1492  0.2168 -0.2447
20114SOL    HW161630   1.372   6.084   7.603 -1.9322  0.3719 -0.5037
20114SOL    HW261631   1.302   6.108   7.471  0.5648  0.7168 -1.8272
20115SOL     OW61632   7.881   2.694   2.501  0.2806  0.1218 -0.3442
20115SOL    HW161633   7.853   2.785   2.516  0.5213  0.0800  0.4013
20115SOL    HW261634   7.975   2.694   2.519  0.1695 -0.3993  0.3183
20116SOL     OW61635   4.131   1.939   2.162  0.2577  0.2073  0.0578
20116SOL    HW161636   4.194   1.959   2.092 -0.4897 -1.3301 -1.1254
20116SOL    HW261637   4.140   2.011   2.224  2.2326  0.6999 -0.7328
20117SOL     OW61638   7.013   5.941   6.023  0.1115  0.1913 -0.9194
20117SOL    HW161639   6.979   5.964   5.936  1.9757 -0.8506 -1.9803
20117SOL    HW261640   7.098   5.900   6.006 -0.6796 -2.5869  1.2179
20118SOL     OW61641   3.612   4.774   4.744 -0.1773 -0.2122  0.5409
20118SOL    HW161642   3.615   4.845   4.809 -0.3602  1.8436 -1.5594
20118SOL    HW261643   3.692   4.784   4.693 -0.6912 -0.8728 -0.4363
20119SOL     OW61644   1.587   7.285   4.762  0.7262  0.5069 -0.5888
20119SOL    HW161645   1.660   7.286   4.823  0.1158 -0.2027  0.1880
20119SOL    HW261646   1.598   7.364   4.709  0.5854  1.8473  1.2729
20120SOL     OW61647   2.448   3.582   7.165  0.3404  0.0101 -0.8891
20120SOL    HW161648   2.437   3.512   7.102  1.8402  0.1745 -1.3635
20120SOL    HW261649   2.541   3.580   7.189  0.6243  2.2659 -1.4845
20121SOL     OW61650   8.295   4.300   6.911 -0.2888  0.2431 -0.0353
20121SOL    HW161651   8.333   4.266   6.992  0.3325  1.5221  0.2410
20121SOL    HW261652   8.264   4.222   6.864  0.4304 -0.6204  0.8761
20122SOL     OW61653   7.821   1.759   4.166 -0.1593  0.2297 -0.6560
20122SOL    HW161654   7.895   1.815   4.141  1.9121 -1.8438  0.4694
20122SOL    HW261655   7.800   1.786   4.255  0.8824 -0.7113 -0.0893
20123SOL     OW61656   6.587   8.704   3.769  0.3571  0.0473 -0.0547
20123SOL    HW161657   6.668   8.706   3.820 -0.2265  0.2257  0.8817
20123SOL    HW261658   6.535   8.776   3.803 -0.1288  0.0388 -0.7669
20124SOL     OW61659   5.291   6.018   1.926 -0.0297  0.0260 -0.0990
20124SOL    HW161660   5.343   5.938   1.931 -0.6582 -0.4264 -0.7319
20124SOL    HW261661   5.353   6.085   1.896  0.2556 -0.4438 -0.5718
20125SOL     OW61662   7.432   8.707   4.503  0.2017  0.2837  0.1565
20125SOL    HW161663   7.377   8.687   4.427  1.0668  0.3798 -0.5242
20125SOL    HW261664   7.371   8.719   4.575 -0.5630 -2.8768  0.2134
20126SOL     OW61665   2.558   0.719   4.703 -0.6022  0.2615  0.5733
20126SOL    HW161666   2.480   0.701   4.755 -1.5479  1.3206 -0.3919
20126SOL    HW261667   2.627   0.666   4.742 -1.9393 -1.1595  1.1027
20127SOL     OW61668   1.129   5.613   0.467  0.5047  0.2650 -0.1832
20127SOL    HW161669   1.045   5.600   0.423  0.9295  0.4554 -1.0747
20127SOL    HW261670   1.176   5.674   0.410  0.4826  1.7498  1.3194
20128SOL     OW61671   0.508   6.147   3.557  0.4127 -0.3114  0.0542
20128SOL    HW161672   0.540   6.215   3.498 -2.9151  1.7276  0.3943
20128SOL    HW261673   0.563   6.156   3.635 -0.2615  2.4683  0.3209
20129SOL     OW61674   4.663   8.486   7.179 -0.4183  0.7091 -0.1169
20129SOL    HW161675   4.641   8.574   7.149 -1.5110  0.2427 -0.7380
20129SOL    HW261676   4.584   8.455   7.222 -0.9436 -0.8571 -2.0423
20130SOL     OW61677   0.311   8.625   1.431  0.3413 -0.1187 -0.3199
20130SOL    HW161678   0.286   8.696   1.489  1.5218  0.2152 -0.1893
20130SOL    HW261679   0.337   8.668   1.350  0.4490 -0.4492 -0.4636
20131SOL     OW61680   7.326   4.833   2.264  0.1637 -0.2706 -0.1340
20131SOL    HW161681   7.351   4.875   2.182 -0.7957  1.3636  0.3586
20131SOL    HW261682   7.264   4.765   2.239  1.2961 -1.0506 -0.9085
20132SOL     OW61683   8.446   1.645   6.378  0.4622 -0.2695  0.0742
20132SOL    HW161684   8.371   1.597   6.412  1.7594 -2.0058  0.6121
20132SOL    HW261685   8.504   1.655   6.453  0.4007  1.9089 -0.1055
20133SOL     OW61686   5.255   2.673   1.983 -0.2051  0.7442 -0.4472
20133SOL    HW161687   5.260   2.768   1.995 -0.0983  0.4334  2.8625
20133SOL    HW261688   5.344   2.647   1.956  0.6302  1.3521  1.5134
20134SOL     OW61689   7.696   4.025   0.784 -0.1706 -0.0788 -0.8403
20134SOL    HW161690   7.768   4.059   0.731 -0.4107  0.2944 -0.9284
20134SOL    HW261691   7.717   4.052   0.873 -0.9670  1.3705 -1.0642
20135SOL     OW61692   2.386   2.313   3.776 -0.5603 -0.5701  0.6187
20135SOL    HW161693   2.389   2.289   3.868  0.2847  0.7262  0.9442
20135SOL    HW261694   2.362   2.406   3.776  0.0052 -0.4096 -0.4394
20136SOL     OW61695   0.085   7.305   7.087 -0.4025 -0.0676 -0.2152
20136SOL    HW161696   0.046   7.270   7.167 -1.6281  1.2591 -0.1831
20136SOL    HW261697   0.012   7.309   7.025 -0.0405  1.2834 -0.5795
20137SOL     OW61698   4.118   4.095   5.791 -0.5102 -0.3418 -0.4144
20137SOL    HW161699   4.146   4.183   5.816  0.8119 -0.4309 -1.4805
20137SOL    HW261700   4.194   4.057   5.746 -1.1368 -1.9405 -0.2079
20138SOL     OW61701   8.105   0.465   2.802  0.0237 -0.4252  0.1691
20138SOL    HW161702   8.062   0.548   2.781 -0.3485 -0.4405  0.8596
20138SOL    HW261703   8.198   0.486   2.804 -0.0558 -0.0685  0.1635
20139SOL     OW61704   2.732   1.719   0.923  0.2205 -0.2802 -0.0911
20139SOL    HW161705   2.705   1.784   0.859  0.1790 -1.5768 -1.4445
20139SOL    HW261706   2.828   1.720   0.919  0.2313  0.0339  0.2409
20140SOL     OW61707   1.257   1.266   1.282  0.0192 -0.5520  0.9581
20140SOL    HW161708   1.267   1.201   1.352  0.3147 -3.4470 -1.5342
20140SOL    HW261709   1.226   1.215   1.207 -0.8528  2.4700 -0.9147
20141SOL     OW61710   7.411   1.459   4.312  0.4922 -0.2249 -0.2916
20141SOL    HW161711   7.500   1.474   4.280  0.6108  0.2261  0.2245
20141SOL    HW261712   7.362   1.429   4.236  1.3856 -1.7124 -0.3059
20142SOL     OW61713   6.434   6.462   3.094  0.5565 -0.1987  0.6358
20142SOL    HW161714   6.469   6.526   3.156 -0.7698 -0.2206  1.4289
20142SOL    HW261715   6.413   6.386   3.147  1.7649 -1.1912 -0.2456
20143SOL     OW61716   5.024   5.180   0.672 -0.3939  0.0848 -0.1342
20143SOL    HW161717   4.992   5.215   0.755 -2.3923 -0.4552 -0.6241
20143SOL    HW261718   5.085   5.110   0.696  0.2813  0.9745  0.8364
20144SOL     OW61719   2.622   5.504   0.195 -1.0127  0.2490  0.3011
20144SOL    HW161720   2.551   5.454   0.154 -1.9482  2.0676 -0.4018
20144SOL    HW261721   2.625   5.586   0.146 -1.3921  2.0730  3.1046
20145SOL     OW61722   6.634   6.845   8.054  0.3483 -0.8115 -0.3851
20145SOL    HW161723   6.603   6.929   8.021  1.2488 -0.5323 -0.5443
20145SOL    HW261724   6.620   6.850   8.148 -1.6264 -1.3577 -0.6018
20146SOL     OW61725   1.344   1.049   1.478  0.3323  0.4932 -0.1094
20146SOL    HW161726   1.309   0.966   1.510 -0.9467  0.3601 -1.6968
20146SOL    HW261727   1.408   1.025   1.412 -1.1337  0.6969 -1.6839
20147SOL     OW61728   7.487   7.709   8.087  0.2786  0.4468 -0.0220
20147SOL    HW161729   7.400   7.696   8.126 -0.0682  2.6960  0.1027
20147SOL    HW261730   7.520   7.788   8.129  0.4551  2.2692 -3.2878
20148SOL     OW61731   8.594   2.330   6.720  0.1360 -0.0931 -0.8646
20148SOL    HW161732   8.624   2.256   6.669 -1.0180  0.3666 -2.2606
20148SOL    HW261733   8.499   2.331   6.709 -0.1075  0.3468  0.8654
20149SOL     OW61734   1.537   0.693   0.053 -0.1588 -0.3321 -0.5022
20149SOL    HW161735   1.473   0.749   0.097  0.5178  0.0266  0.0413
20149SOL    HW261736   1.571   0.637   0.123  0.6026 -0.0592 -0.6445
20150SOL     OW61737   8.126   2.365   5.514 -0.6937 -0.6085 -0.1139
20150SOL    HW161738   8.117   2.302   5.444 -0.3681 -2.6908  1.6080
20150SOL    HW261739   8.147   2.312   5.591 -0.8927  1.5684  1.5309
20151SOL     OW61740   8.001   5.907   1.982 -0.4734 -0.2393  0.0345
20151SOL    HW161741   7.990   6.000   1.964  0.9958  0.1750  1.0760
20151SOL    HW261742   8.077   5.881   1.930 -0.6410 -0.7633  0.0470
20152SOL     OW61743   2.979   0.305   0.391 -0.3643  0.5410  0.0545
20152SOL    HW161744   2.932   0.352   0.322  1.8792  0.9173 -1.3083
20152SOL    HW261745   3.062   0.352   0.400  0.4704 -1.0635  1.1718
20153SOL     OW61746   2.897   5.090   6.836 -0.1905  0.4624  0.5793
20153SOL    HW161747   2.877   5.173   6.880  1.4871  1.4372 -0.3669
20153SOL    HW261748   2.944   5.117   6.757 -0.5145 -1.3726 -0.2714
20154SOL     OW61749   6.574   6.138   3.559  0.3379  0.1986  0.3062
20154SOL    HW161750   6.648   6.092   3.518 -0.0229 -0.5575  0.4783
20154SOL    HW261751   6.519   6.068   3.594 -0.1934  0.7753  0.6457
20155SOL     OW61752   4.750   7.510   3.312  0.2963 -0.3319  0.5323
20155SOL    HW161753   4.820   7.565   3.348 -0.0254 -0.1420  0.8745
20155SOL    HW261754   4.671   7.563   3.322  0.2044 -0.2614 -0.4926
20156SOL     OW61755   1.434   1.637   1.872  0.1810  0.4310 -0.2883
20156SOL    HW161756   1.482   1.707   1.916 -2.2229  1.2371  1.2502
20156SOL    HW261757   1.485   1.619   1.793  2.9963  1.1208  1.2295
20157SOL     OW61758   2.698   0.826   0.709 -0.3785 -0.6887 -0.1758
20157SOL    HW161759   2.762   0.838   0.639 -1.1810 -0.3413 -0.8571
20157SOL    HW261760   2.738   0.760   0.767 -0.2379 -1.9104 -1.6141
20158SOL     OW61761   3.528   1.361   1.063  0.2928  0.1890  0.7685
20158SOL    HW161762   3.557   1.383   1.152 -0.0994  0.3480  0.8559
20158SOL    HW261763   3.575   1.280   1.043 -1.2958 -1.0904  1.9809
20159SOL     OW61764   3.064   5.224   0.700 -0.3654 -0.0942 -0.4923
20159SOL    HW161765   3.002   5.193   0.766 -0.1988 -1.5820 -1.0033
20159SOL    HW261766   3.135   5.160   0.701  1.0121  1.3639 -0.1903
20160SOL     OW61767   2.604   4.614   2.887  0.5646  0.0292  0.8793
20160SOL    HW161768   2.666   4.545   2.911  0.1861 -0.6889 -0.1579
20160SOL    HW261769   2.579   4.594   2.797 -0.1642  1.0742  0.8310
20161SOL     OW61770   6.699   2.456   5.474 -0.0305  0.2229 -0.4541
20161SOL    HW161771   6.780   2.419   5.511 -0.4516 -0.5132 -0.2549
20161SOL    HW261772   6.725   2.543   5.445  0.3435  0.8200  1.4937
20162SOL     OW61773   1.982   1.006   5.768 -0.2871 -0.2143 -0.1359
20162SOL    HW161774   2.021   1.000   5.681 -0.8432 -0.1160 -0.3955
20162SOL    HW261775   1.985   0.917   5.803 -0.8379 -0.4157 -0.5964
20163SOL     OW61776   1.579   4.319   4.846  0.1173  0.6805  0.0659
20163SOL    HW161777   1.498   4.267   4.844  1.4533 -1.5380 -0.3505
20163SOL    HW261778   1.595   4.334   4.939  0.3903 -0.9167  0.3128
20164SOL     OW61779   5.688   1.181   7.048  0.1579  0.3731 -0.8663
20164SOL    HW161780   5.760   1.241   7.031  1.8116 -1.4331 -0.5655
20164SOL    HW261781   5.645   1.172   6.963 -0.5871  2.4498 -0.7781
20165SOL     OW61782   0.425   4.437   2.924 -0.2708 -0.3897 -0.4661
20165SOL    HW161783   0.343   4.454   2.970  0.2893 -2.3394  1.3926
20165SOL    HW261784   0.458   4.524   2.901 -3.2211  0.4449 -2.0849
20166SOL     OW61785   0.135   5.495   3.358  0.6170  0.5840  0.0228
20166SOL    HW161786   0.104   5.555   3.427  1.0095  0.8589 -0.0394
20166SOL    HW261787   0.056   5.446   3.333  0.6683 -0.2859  1.4177
20167SOL     OW61788   4.231   4.447   0.920  0.1342  0.0101  0.1105
20167SOL    HW161789   4.146   4.480   0.948 -0.9314 -1.7963 -0.8443
20167SOL    HW261790   4.292   4.517   0.944 -1.4038  0.7935  2.0129
20168SOL     OW61791   7.605   2.291   1.651 -0.2151  0.0129  1.1256
20168SOL    HW161792   7.538   2.356   1.674 -0.8807 -0.6765  1.1741
20168SOL    HW261793   7.679   2.311   1.709 -0.3403  0.8473  1.0010
20169SOL     OW61794   0.900   3.443   1.304  0.2055 -0.5267  0.3308
20169SOL    HW161795   0.984   3.463   1.344 -0.0570  0.0751  0.5941
20169SOL    HW261796   0.899   3.348   1.295  1.5277 -0.4403 -1.0315
20170SOL     OW61797   4.026   8.524   0.834  0.1128  0.8719  0.0307
20170SOL    HW161798   4.026   8.534   0.930  0.3056  3.5216 -0.1747
20170SOL    HW261799   3.989   8.606   0.802 -1.9621 -0.7880 -2.1674
20171SOL     OW61800   2.713   6.287   5.994  0.3066 -0.1293  0.6606
20171SOL    HW161801   2.632   6.307   6.042 -0.2151  0.8402 -0.5635
20171SOL    HW261802   2.771   6.361   6.013  0.4451 -0.2065  0.5358
20172SOL     OW61803   8.592   2.852   8.615 -0.1248 -0.2375 -0.2749
20172SOL    HW161804   8.656   2.819   8.679  0.4431 -0.4252 -0.9246
20172SOL    HW261805   8.646   2.879   8.541 -0.8062 -0.3481 -0.8108
20173SOL     OW61806   6.063   3.389   6.276  0.2032 -0.7574  0.4540
20173SOL    HW161807   6.144   3.339   6.272 -0.2452 -1.4382 -0.8504
20173SOL    HW261808   6.011   3.357   6.202 -1.5144 -0.7864  1.6054
20174SOL     OW61809   1.545   7.170   3.332 -0.5077 -0.1532 -0.3685
20174SOL    HW161810   1.517   7.193   3.243 -0.0994  1.4571 -0.1217
20174SOL    HW261811   1.586   7.084   3.323  1.3933  0.8232 -2.1693
20175SOL     OW61812   8.645   8.025   7.787  0.0227 -0.3029  0.4514
20175SOL    HW161813   8.680   7.973   7.859  2.7122 -0.3789 -0.8167
20175SOL    HW261814   8.611   8.105   7.830  2.3844  0.0785  1.7719
20176SOL     OW61815   5.596   3.922   6.075  0.0475  0.5693  0.0039
20176SOL    HW161816   5.577   3.864   6.001 -1.5634 -1.7624  2.0584
20176SOL    HW261817   5.686   3.900   6.100  0.7592  1.6855 -1.4414
20177SOL     OW61818   4.881   0.817   2.250 -0.0190 -0.4108 -0.1462
20177SOL    HW161819   4.892   0.889   2.312 -0.0240 -0.9403  0.4940
20177SOL    HW261820   4.882   0.738   2.305  0.2582 -0.9146 -0.8572
20178SOL     OW61821   7.698   3.081   4.166 -0.3197 -0.4661 -0.5374
20178SOL    HW161822   7.627   3.142   4.146 -2.7612 -3.0336 -0.3235
20178SOL    HW261823   7.720   3.041   4.082 -0.9024 -1.4332 -0.2452
20179SOL     OW61824   5.896   1.735   5.889  0.2749 -0.3046  0.4507
20179SOL    HW161825   5.948   1.655   5.893  0.0774 -0.4648 -0.1544
20179SOL    HW261826   5.934   1.784   5.816  1.3072  0.8012  1.6623
20180SOL     OW61827   6.504   4.559   5.021 -0.0235 -0.6461  0.4064
20180SOL    HW161828   6.464   4.529   5.103 -0.1685  1.7841  1.3280
20180SOL    HW261829   6.558   4.634   5.047 -1.1309  1.0710 -1.8482
20181SOL     OW61830   7.228   7.064   5.763  0.1625  0.2117 -0.2651
20181SOL    HW161831   7.184   7.112   5.833 -0.0564  1.7244 -1.3908
20181SOL    HW261832   7.161   7.050   5.697  0.6407 -0.1506 -0.6846
20182SOL     OW61833   7.519   8.208   6.551 -0.4182  0.0574  0.3890
20182SOL    HW161834   7.598   8.191   6.602 -0.2688 -0.3813  0.0109
20182SOL    HW261835   7.447   8.194   6.613 -0.2148  0.1590  0.6492
20183SOL     OW61836   1.470   7.508   5.054  0.2459  0.3916  0.0228
20183SOL    HW161837   1.480   7.601   5.035  1.0915 -0.0003 -1.6378
20183SOL    HW261838   1.545   7.486   5.109  1.4612  0.2181 -1.6178
20184SOL     OW61839   1.856   5.932   4.939 -0.3617  0.1359 -0.2986
20184SOL    HW161840   1.837   6.014   4.983  0.6838 -0.0924  0.6540
20184SOL    HW261841   1.819   5.865   4.997 -1.1844 -0.0705 -1.0540
20185SOL     OW61842   1.108   3.389   4.804 -0.3274  0.1746 -0.2658
20185SOL    HW161843   1.038   3.420   4.862 -1.0862  0.4091 -1.2656
20185SOL    HW261844   1.067   3.387   4.717  1.0281  0.6754 -0.9390
20186SOL     OW61845   2.299   6.477   3.704 -0.2192 -0.0828  0.0629
20186SOL    HW161846   2.286   6.530   3.783  1.7743  0.3957  0.1105
20186SOL    HW261847   2.236   6.513   3.641 -0.5779  0.7367  0.8594
20187SOL     OW61848   1.232   4.430   0.864 -0.3405 -0.3419 -0.3853
20187SOL    HW161849   1.285   4.466   0.793 -0.5520 -0.5365 -0.6448
20187SOL    HW261850   1.167   4.498   0.882  0.6334  0.3691  0.6696
20188SOL     OW61851   0.592   7.201   5.141  0.7844 -0.2183 -0.2568
20188SOL    HW161852   0.504   7.238   5.133  0.5429 -0.6804  0.2029
20188SOL    HW261853   0.648   7.261   5.090  0.1478 -0.1415 -0.8828
20189SOL     OW61854   4.436   3.364   4.491  0.6165 -0.4218  0.1073
20189SOL    HW161855   4.491   3.330   4.420  0.5527 -1.2000  0.4198
20189SOL    HW261856   4.351   3.321   4.478  0.9579 -1.5542  1.3671
20190SOL     OW61857   3.185   5.147   1.857  0.2578 -0.7290  0.4602
20190SOL    HW161858   3.091   5.149   1.841  0.1350 -0.7017  1.1415
20190SOL    HW261859   3.193   5.145   1.953  0.9530 -0.4158  0.4144
20191SOL     OW61860   8.392   0.091   2.637 -0.5247  0.0187  0.0336
20191SOL    HW161861   8.296   0.089   2.642 -0.5561 -0.2632 -0.5713
20191SOL    HW261862   8.416   0.181   2.660 -0.8710 -0.1502  1.0953
20192SOL     OW61863   0.671   6.612   6.171 -0.5417 -0.2309  0.4405
20192SOL    HW161864   0.685   6.520   6.195 -1.3440 -0.3518  0.4816
20192SOL    HW261865   0.606   6.644   6.234 -0.0144  0.4643  0.6391
20193SOL     OW61866   4.381   1.387   6.304 -0.2068  0.4713  0.2338
20193SOL    HW161867   4.346   1.330   6.373 -1.9044 -0.4806 -1.3239
20193SOL    HW261868   4.432   1.328   6.248 -3.1174  0.0214 -2.1754
20194SOL     OW61869   5.571   6.206   4.336 -0.1135 -0.4775  0.1446
20194SOL    HW161870   5.645   6.260   4.365 -0.2699  0.5466 -1.2642
20194SOL    HW261871   5.495   6.244   4.380 -0.1176 -0.0164 -0.2531
20195SOL     OW61872   6.168   0.822   5.187  0.0388  0.0566 -0.2417
20195SOL    HW161873   6.239   0.842   5.248  0.3956  1.1521 -0.9698
20195SOL    HW261874   6.104   0.773   5.239 -0.3443  2.1565  1.4327
20196SOL     OW61875   5.714   4.514   8.636  0.3223  0.5619  0.5384
20196SOL    HW161876   5.799   4.470   8.635 -0.1958 -0.5187  1.8634
20196SOL    HW261877   5.660   4.466   8.574  0.5920  1.1219 -0.1484
20197SOL     OW61878   7.910   0.643   7.108  0.6271 -0.4613 -0.0598
20197SOL    HW161879   7.836   0.673   7.054  1.6861  0.9432 -0.7916
20197SOL    HW261880   7.942   0.722   7.151  0.5436 -1.3648  1.7726
20198SOL     OW61881   5.381   0.583   6.611  0.1867 -0.1942 -0.1495
20198SOL    HW161882   5.338   0.668   6.595  0.3092 -0.2338 -0.6826
20198SOL    HW261883   5.359   0.530   6.535  0.0121 -0.6887  0.2408
20199SOL     OW61884   3.658   7.402   3.980 -0.0900 -0.3002  0.0472
20199SOL    HW161885   3.584   7.429   3.926  0.1775  1.6944  0.6226
20199SOL    HW261886   3.655   7.306   3.978 -1.2042 -0.2732 -1.9363
20200SOL     OW61887   5.018   4.064   4.076  0.1851  0.0252  0.0855
20200SOL    HW161888   5.034   4.098   4.164  2.1127 -0.6622  0.0374
20200SOL    HW261889   4.940   4.009   4.085 -0.6260  1.2587  0.9866
20201SOL     OW61890   8.712   6.333   6.840 -0.0072  0.3282 -0.3497
20201SOL    HW161891   8.642   6.332   6.906  0.0417 -0.5866 -0.2994
20201SOL    HW261892   8.677   6.282   6.767  0.0982  0.9994 -0.8783
20202SOL     OW61893   6.207   1.135   5.474 -0.2134 -0.0114 -0.1593
20202SOL    HW161894   6.274   1.170   5.415 -0.2029 -0.4609 -0.4160
20202SOL    HW261895   6.244   1.147   5.561  0.0256  0.1127 -0.2748
20203SOL     OW61896   3.218   8.537   4.260  0.1151 -0.1693  0.3801
20203SOL    HW161897   3.166   8.533   4.340 -0.8177  0.1959 -0.1830
20203SOL    HW261898   3.164   8.493   4.194  0.5402  0.1850 -0.2157
20204SOL     OW61899   1.959   0.604   4.285 -0.0056  0.3579  0.2100
20204SOL    HW161900   1.885   0.581   4.229 -0.2838  0.7449  0.4130
20204SOL    HW261901   1.998   0.520   4.308  0.6332  0.2289 -1.2517
20205SOL     OW61902   8.136   1.091   0.734 -0.1351 -0.1392 -0.1360
20205SOL    HW161903   8.071   1.140   0.685 -0.6878 -1.3412 -0.6662
20205SOL    HW261904   8.086   1.020   0.776  0.3869  0.5904  1.8311
20206SOL     OW61905   3.396   2.170   7.936 -0.1514  0.0265  0.1902
20206SOL    HW161906   3.411   2.137   8.025  0.7224 -0.5422 -0.1504
20206SOL    HW261907   3.366   2.093   7.888 -0.6152  0.3333 -0.0099
20207SOL     OW61908   2.638   2.071   3.526 -0.4578  0.3717  0.0737
20207SOL    HW161909   2.572   2.002   3.528 -0.1251  0.0580  0.4925
20207SOL    HW261910   2.652   2.088   3.433 -1.0841  0.4040 -0.0153
20208SOL     OW61911   2.270   7.592   4.518  0.4485  0.1579  0.2489
20208SOL    HW161912   2.277   7.521   4.455  1.7672  1.2082 -0.8529
20208SOL    HW261913   2.308   7.557   4.599  0.0490 -0.7321  0.0636
20209SOL     OW61914   6.080   2.005   6.018  0.7723  0.0038  0.2035
20209SOL    HW161915   6.102   1.970   5.931  2.2618  0.4214  0.3887
20209SOL    HW261916   6.073   2.099   6.004 -1.3779 -0.1373  0.0813
20210SOL     OW61917   6.668   5.550   2.424  0.9876  0.7456  0.8004
20210SOL    HW161918   6.631   5.593   2.347  1.5344  1.4119  0.8957
20210SOL    HW261919   6.716   5.475   2.389  1.9380  1.5196  0.3905
20211SOL     OW61920   0.694   2.655   6.786  0.2698  0.2827  0.1548
20211SOL    HW161921   0.607   2.658   6.825 -0.0583  1.1603 -0.6043
20211SOL    HW261922   0.751   2.626   6.858 -0.6453 -0.4025  0.6277
20212SOL     OW61923   7.327   4.713   2.862  0.1285 -0.2716  0.2255
20212SOL    HW161924   7.272   4.727   2.939  0.8103 -2.5441  1.2257
20212SOL    HW261925   7.311   4.789   2.806 -1.5090  0.7224  1.9408
20213SOL     OW61926   1.316   8.008   4.549 -0.1041  0.2698  0.2385
20213SOL    HW161927   1.245   8.071   4.563  0.2431  0.4925  1.0597
20213SOL    HW261928   1.356   8.035   4.466 -0.0235  1.0793  0.5270
20214SOL     OW61929   1.490   7.674   5.632 -0.1947 -0.3577 -0.1965
20214SOL    HW161930   1.501   7.583   5.659  0.9604  0.4264  2.2683
20214SOL    HW261931   1.484   7.670   5.536 -2.2344 -3.1650 -0.0820
20215SOL     OW61932   7.262   6.504   1.005  0.8471  0.8357  0.7669
20215SOL    HW161933   7.174   6.500   0.967  1.5787  1.0420 -1.0779
20215SOL    HW261934   7.252   6.468   1.093 -0.7921 -0.5480  0.0740
20216SOL     OW61935   5.884   8.652   8.284 -1.1273 -0.0752 -0.1989
20216SOL    HW161936   5.899   8.744   8.306  2.5597 -0.8489  1.1998
20216SOL    HW261937   5.906   8.604   8.363  2.3988 -2.3916 -2.2939
20217SOL     OW61938   3.439   3.960   3.169  0.8575 -0.0336  0.0855
20217SOL    HW161939   3.479   3.983   3.253 -0.5142 -1.1255  1.0710
20217SOL    HW261940   3.409   4.044   3.133 -0.8982  0.2123  1.9647
20218SOL     OW61941   4.878   5.245   3.750 -0.2495  0.4755 -0.1052
20218SOL    HW161942   4.805   5.231   3.689 -0.9253 -1.2812  1.0240
20218SOL    HW261943   4.935   5.306   3.704 -1.8492  1.0096 -1.5221
20219SOL     OW61944   4.404   2.561   6.104  0.0920  0.0423 -0.0257
20219SOL    HW161945   4.372   2.591   6.019  0.5077  1.8499  0.3971
20219SOL    HW261946   4.356   2.616   6.167  1.4929  0.3874  0.7710
20220SOL     OW61947   0.923   5.888   5.649 -0.0355  0.2744  0.1983
20220SOL    HW161948   0.902   5.879   5.742  0.0709  0.4689  0.2423
20220SOL    HW261949   0.871   5.963   5.620 -2.2359 -1.4505 -0.5722
20221SOL     OW61950   6.914   2.579   2.352 -0.1781 -0.8286 -0.2113
20221SOL    HW161951   7.004   2.597   2.327  0.5154 -1.0593  1.9337
20221SOL    HW261952   6.877   2.665   2.372  0.1611 -0.8985  0.7366
20222SOL     OW61953   4.434   7.404   0.021  0.0377 -0.4348 -0.0411
20222SOL    HW161954   4.491   7.460   0.075  1.2585 -0.3693 -1.3397
20222SOL    HW261955   4.377   7.465  -0.026  0.9125 -0.2925 -0.9481
20223SOL     OW61956   8.462   3.508   7.535 -0.6302 -0.1471 -0.0422
20223SOL    HW161957   8.505   3.593   7.542 -0.5462 -0.2022  0.1277
20223SOL    HW261958   8.481   3.478   7.446  0.5610 -0.6408  0.3659
20224SOL     OW61959   6.820   4.938   0.414  0.0158  0.0964  0.5203
20224SOL    HW161960   6.778   5.022   0.397 -0.7693 -0.1837  0.9814
20224SOL    HW261961   6.904   4.960   0.454  0.9537  0.6988 -1.6571
20225SOL     OW61962   1.734   2.765   7.104  0.0338 -0.5545  0.1509
20225SOL    HW161963   1.803   2.782   7.040 -0.0448  0.8474  0.3984
20225SOL    HW261964   1.654   2.796   7.061 -0.2104 -0.7990  0.4298
20226SOL     OW61965   6.617   5.123   0.346  0.5418 -0.2375  0.0719
20226SOL    HW161966   6.538   5.075   0.321  0.4821 -0.9504  1.5364
20226SOL    HW261967   6.637   5.177   0.270 -1.4537  0.0809 -0.2766
20227SOL     OW61968   2.863   6.585   8.123  0.5206 -0.5837  0.1781
20227SOL    HW161969   2.900   6.584   8.211  3.8544  1.0526 -1.0481
20227SOL    HW261970   2.815   6.667   8.117  1.6321  0.0789  0.0444
20228SOL     OW61971   5.270   6.541   4.858  0.1490 -0.0444  0.0242
20228SOL    HW161972   5.259   6.618   4.914 -2.6063  1.2253 -1.9955
20228SOL    HW261973   5.260   6.466   4.917  0.1638  1.1668  1.6253
20229SOL     OW61974   0.871   3.158   1.281  0.5652  0.4282  0.4728
20229SOL    HW161975   0.874   3.170   1.186 -1.5992 -1.0580  0.1606
20229SOL    HW261976   0.894   3.066   1.295  0.1702  0.4478  1.3293
20230SOL     OW61977   8.347   5.241   4.420 -0.4981  0.4393  0.2290
20230SOL    HW161978   8.270   5.251   4.364  0.6424  1.0951 -1.3016
20230SOL    HW261979   8.404   5.315   4.396 -0.1728  1.0641  2.6603
20231SOL     OW61980   3.068   1.784   1.640  0.3920  0.1367 -0.0766
20231SOL    HW161981   3.065   1.690   1.622  3.2233  0.1846 -1.3769
20231SOL    HW261982   3.150   1.813   1.601 -0.3527  3.1719  0.3691
20232SOL     OW61983   2.944   8.251   6.429  0.5092 -0.2123  0.1126
20232SOL    HW161984   2.933   8.163   6.466 -0.3317 -0.8180 -1.4574
20232SOL    HW261985   3.025   8.246   6.378 -1.0314 -1.1051 -2.4809
20233SOL     OW61986   3.935   3.941   1.085 -0.1493 -0.7881 -0.5241
20233SOL    HW161987   3.914   3.955   0.993 -1.3642 -1.1174 -0.3209
20233SOL    HW261988   3.863   3.886   1.118  1.3244 -2.4135  0.1332
20234SOL     OW61989   2.462   6.850   1.429  0.4146 -0.1761  0.3796
20234SOL    HW161990   2.524   6.894   1.371 -1.2420  0.6469 -0.8760
20234SOL    HW261991   2.507   6.772   1.458  1.2957 -0.7544 -2.2334
20235SOL     OW61992   8.142   5.566   1.739  0.3042 -0.1345 -0.4896
20235SOL    HW161993   8.224   5.607   1.710  0.1750  0.5970  0.1551
20235SOL    HW261994   8.085   5.640   1.762  0.1896 -0.6631  1.0247
20236SOL     OW61995   1.109   8.530   3.678 -0.5415 -0.1954 -0.6841
20236SOL    HW161996   1.045   8.487   3.620  0.4022 -0.8688 -1.2580
20236SOL    HW261997   1.175   8.566   3.618 -0.4872  0.6850 -0.1105
20237SOL     OW61998   6.782   6.240   4.248 -0.3355 -0.6340 -0.2533
20237SOL    HW161999   6.730   6.298   4.303  1.2147  0.7710 -0.1631
20237SOL    HW262000   6.837   6.299   4.196 -0.5148 -1.9598 -2.0846
20238SOL     OW62001   6.028   7.578   7.037 -0.0410  0.5630  0.1117
20238SOL    HW162002   5.965   7.513   7.007 -0.2949  1.5070 -1.4953
20238SOL    HW262003   5.988   7.615   7.116 -0.5839 -0.1572  0.1852
20239SOL     OW62004   8.138   7.895   2.992  0.1800 -0.6607 -0.6336
20239SOL    HW162005   8.204   7.879   3.060 -2.0547  1.4786  2.2895
20239SOL    HW262006   8.150   7.987   2.969 -0.6108 -0.7508 -1.4527
20240SOL     OW62007   7.150   7.403   1.691 -0.4297 -0.1412 -0.0225
20240SOL    HW162008   7.220   7.413   1.626 -1.0558 -2.1581 -1.0680
20240SOL    HW262009   7.185   7.446   1.770  1.0161  0.9303 -1.1803
20241SOL     OW62010   1.017   8.239   3.887  0.4163 -0.3380  0.3168
20241SOL    HW162011   0.924   8.234   3.864  0.6300 -1.5621 -0.4059
20241SOL    HW262012   1.042   8.328   3.865 -0.5183 -0.0798  0.2360
20242SOL     OW62013   2.623   4.421   2.011  0.0231 -0.0785  0.3756
20242SOL    HW162014   2.715   4.425   2.038  0.1310 -0.4515  0.0794
20242SOL    HW262015   2.607   4.327   1.999 -1.2096 -0.3453  3.2029
20243SOL     OW62016   1.161   5.088   0.062 -0.1507 -0.1063 -0.4028
20243SOL    HW162017   1.122   5.032  -0.005 -0.6022 -0.6722  0.3193
20243SOL    HW262018   1.092   5.150   0.086  0.7681  1.7761 -2.2207
20244SOL     OW62019   0.023   0.478   0.328  0.1801 -0.1050  0.0384
20244SOL    HW162020   0.101   0.477   0.273  0.1896  0.5134  0.0405
20244SOL    HW262021   0.008   0.570   0.348 -1.3850 -0.0571 -1.1450
20245SOL     OW62022   5.999   7.116   6.944  0.6776  0.4317 -0.0357
20245SOL    HW162023   5.995   7.116   7.040 -0.3197  1.2735 -0.0608
20245SOL    HW262024   6.083   7.075   6.924  0.1009 -1.4490  1.1557
20246SOL     OW62025   5.175   7.894   8.448 -0.0738  0.4072  0.0216
20246SOL    HW162026   5.207   7.981   8.471  1.8166  0.2967 -1.8779
20246SOL    HW262027   5.152   7.902   8.355  0.6197 -1.2294 -0.3162
20247SOL     OW62028   1.729   8.106   2.732 -0.6764  0.9094  0.3570
20247SOL    HW162029   1.702   8.078   2.819  1.3584 -0.3663  0.6446
20247SOL    HW262030   1.650   8.099   2.679 -2.3467  3.0952  2.3386
20248SOL     OW62031   7.542   2.733   6.388  0.1283  0.2414 -0.1222
20248SOL    HW162032   7.620   2.788   6.380  1.7665 -1.3882  2.6915
20248SOL    HW262033   7.500   2.762   6.469 -1.3497  0.0872 -0.8044
20249SOL     OW62034   1.681   3.745   2.782  0.1139 -0.1014 -0.1974
20249SOL    HW162035   1.634   3.750   2.699 -2.7452  1.5182  1.3396
20249SOL    HW262036   1.650   3.664   2.823  0.0800  0.0226  0.0289
20250SOL     OW62037   0.031   4.065   0.936  0.3658 -0.4051 -0.3844
20250SOL    HW162038   0.066   4.022   0.858  0.6586 -1.6396  0.3955
20250SOL    HW262039  -0.055   4.024   0.948  1.9061 -3.2971  2.1937
20251SOL     OW62040   3.422   3.875   4.770 -0.1715  0.6499  0.3288
20251SOL    HW162041   3.491   3.938   4.792  1.3168 -0.8693  0.2176
20251SOL    HW262042   3.425   3.868   4.675  1.8793 -1.8360  0.4710
20252SOL     OW62043   7.334   8.453   4.316  0.3930 -0.1687 -0.1010
20252SOL    HW162044   7.391   8.457   4.239  0.2269  0.3123 -0.2053
20252SOL    HW262045   7.288   8.537   4.315 -0.4692 -0.6342 -0.1355
20253SOL     OW62046   6.217   3.103   8.552 -0.1702 -0.1029 -0.0297
20253SOL    HW162047   6.183   3.116   8.464  0.7566  0.7388 -0.2850
20253SOL    HW262048   6.284   3.035   8.543 -0.8456 -0.8096  0.2305
20254SOL     OW62049   0.481   5.779   1.281 -0.7594  0.3843  0.6035
20254SOL    HW162050   0.519   5.837   1.346  0.6947  0.2243 -0.0584
20254SOL    HW262051   0.422   5.835   1.230  0.6918  1.3367 -0.0904
20255SOL     OW62052   7.588   2.424   6.070 -0.2397  0.1013  0.0903
20255SOL    HW162053   7.600   2.468   6.154  3.1761 -0.9844  0.3158
20255SOL    HW262054   7.601   2.493   6.005  1.1785  0.2109  0.4616
20256SOL     OW62055   2.979   0.639   3.637  0.1249 -0.1368 -1.1420
20256SOL    HW162056   2.885   0.638   3.648  0.4038  0.7611  2.1439
20256SOL    HW262057   3.006   0.547   3.646 -0.1437  0.0198  2.2567
20257SOL     OW62058   3.793   6.192   8.607 -0.0375 -0.1176 -0.1298
20257SOL    HW162059   3.716   6.150   8.566  0.4049  0.7529 -1.9640
20257SOL    HW262060   3.756   6.250   8.673 -0.7986 -1.5720  0.7686
20258SOL     OW62061   4.774   7.914   1.844 -0.1864  0.0985  0.1952
20258SOL    HW162062   4.839   7.858   1.886 -0.3856 -0.7335 -0.5744
20258SOL    HW262063   4.823   7.991   1.816  0.1801  0.1186  0.8612
20259SOL     OW62064   4.053   2.445   8.571 -0.2221 -0.0825 -0.1557
20259SOL    HW162065   3.982   2.402   8.620 -0.3765 -1.0055 -1.1640
20259SOL    HW262066   4.095   2.374   8.522  1.3546  0.4668  0.3494
20260SOL     OW62067   6.095   1.358   3.914 -0.0347  0.8835 -0.5038
20260SOL    HW162068   6.068   1.284   3.859 -0.4539  0.8751 -0.2963
20260SOL    HW262069   6.177   1.388   3.876  0.5062 -0.1338 -0.1728
20261SOL     OW62070   0.849   6.253   4.957  0.1734  0.2095  0.1614
20261SOL    HW162071   0.773   6.301   4.925 -0.9517 -1.1794  0.6572
20261SOL    HW262072   0.924   6.301   4.922 -0.8951  2.0198  0.2244
20262SOL     OW62073   0.733   8.269   3.791  0.3792  0.1857  0.2825
20262SOL    HW162074   0.648   8.292   3.752 -0.0883 -0.5515  0.8397
20262SOL    HW262075   0.721   8.180   3.824  1.5497 -0.1361 -0.1184
20263SOL     OW62076   6.036   4.295   5.387  0.7299 -0.1048  0.1108
20263SOL    HW162077   6.063   4.352   5.314 -0.8396  0.6648  0.0841
20263SOL    HW262078   5.995   4.220   5.345 -0.2610  0.3831  0.1643
20264SOL     OW62079   8.427   4.293   3.471 -0.2209  0.1531 -0.0338
20264SOL    HW162080   8.395   4.230   3.407  0.6547 -0.6686  0.3076
20264SOL    HW262081   8.396   4.260   3.555  2.2784 -1.2803  0.4459
20265SOL     OW62082   0.117   3.517   2.495 -0.5280 -0.0999  0.0948
20265SOL    HW162083   0.066   3.440   2.468  0.1493 -0.9963  1.2375
20265SOL    HW262084   0.114   3.576   2.420 -3.3467 -0.0455  0.1611
20266SOL     OW62085   0.232   1.475   5.787  0.3722 -0.3929  0.0339
20266SOL    HW162086   0.283   1.394   5.788  2.9856  0.9417 -3.5520
20266SOL    HW262087   0.160   1.458   5.726  0.8768 -0.0937 -0.6594
20267SOL     OW62088   2.868   3.560   3.859 -0.6892 -0.0758  0.0576
20267SOL    HW162089   2.821   3.507   3.794 -1.3669  1.3315 -0.6659
20267SOL    HW262090   2.920   3.621   3.806  0.2428 -0.1516  0.8627
20268SOL     OW62091   6.093   6.021   0.309  0.3579  0.0317 -0.4202
20268SOL    HW162092   6.099   6.062   0.222  2.6178 -0.7763 -0.7279
20268SOL    HW262093   6.039   5.943   0.295  0.8870 -0.2148 -1.1798
20269SOL     OW62094   8.208   3.774   5.494  0.2954  0.2359  0.2611
20269SOL    HW162095   8.128   3.807   5.534 -0.0581  0.0685 -0.2986
20269SOL    HW262096   8.256   3.852   5.467  0.4895  0.3466  0.9106
20270SOL     OW62097   0.784   3.575   3.536  0.1507  0.1673 -0.1776
20270SOL    HW162098   0.789   3.479   3.533  0.5731  0.1918 -0.2321
20270SOL    HW262099   0.786   3.602   3.444 -1.9638  0.1352 -0.2833
20271SOL     OW62100   1.656   7.101   1.803  0.0718  0.4005 -0.5303
20271SOL    HW162101   1.694   7.016   1.781  0.0426 -0.1978  1.5464
20271SOL    HW262102   1.639   7.096   1.897 -2.9384  1.5122 -0.9108
20272SOL     OW62103   8.368   0.535   2.222 -0.4590  0.3839  0.4763
20272SOL    HW162104   8.324   0.601   2.168 -0.5347 -0.1108 -0.0716
20272SOL    HW262105   8.386   0.580   2.305 -2.2479  0.5271  0.8415
20273SOL     OW62106   7.512   3.164   2.129 -0.6152 -0.1081 -0.1095
20273SOL    HW162107   7.526   3.172   2.035  0.6636  0.0259  0.0675
20273SOL    HW262108   7.561   3.237   2.167 -0.6419 -0.4898  0.6855
20274SOL     OW62109   8.318   4.887   2.128  0.0447 -0.1128  0.0434
20274SOL    HW162110   8.381   4.823   2.161 -2.4260 -2.9113 -0.3708
20274SOL    HW262111   8.319   4.875   2.033  0.8228  1.8546 -0.2705
20275SOL     OW62112   4.693   4.672   7.280 -0.3712 -0.2898 -0.4335
20275SOL    HW162113   4.604   4.639   7.294 -0.4961  0.6435  1.2176
20275SOL    HW262114   4.743   4.638   7.353  0.4434 -0.1283 -0.9044
20276SOL     OW62115   3.554   1.748   3.500 -0.4463 -0.2940  0.0120
20276SOL    HW162116   3.535   1.729   3.592 -0.8696 -0.2393 -0.0626
20276SOL    HW262117   3.630   1.806   3.503 -0.5645 -0.1536  0.3359
20277SOL     OW62118   6.520   8.555   7.043 -0.5357  0.4292  0.2098
20277SOL    HW162119   6.490   8.512   7.123  1.4867 -0.3072  0.6404
20277SOL    HW262120   6.566   8.487   6.995  0.3852  1.4399 -0.3972
20278SOL     OW62121   6.985   5.503   6.814  0.2968 -0.0695 -0.0629
20278SOL    HW162122   6.922   5.472   6.749  0.3374 -1.4989  0.5491
20278SOL    HW262123   6.933   5.554   6.875 -0.3148 -1.2747  0.4602
20279SOL     OW62124   8.002   6.610   2.213 -0.5238  0.1770 -0.9010
20279SOL    HW162125   8.090   6.574   2.206 -0.8957 -1.0245  0.2525
20279SOL    HW262126   8.004   6.663   2.293 -1.0219 -0.3909 -0.5097
20280SOL     OW62127   2.887   6.603   4.514  0.1094 -0.0455  0.2039
20280SOL    HW162128   2.852   6.624   4.428 -1.5745  0.3026  0.9196
20280SOL    HW262129   2.873   6.683   4.565  2.1840  0.1762  0.5164
20281SOL     OW62130   1.058   5.544   6.846 -0.2094 -0.8497  0.3093
20281SOL    HW162131   1.018   5.603   6.783  0.9798 -1.1664 -0.7788
20281SOL    HW262132   1.102   5.601   6.909  0.2790 -0.5464 -0.2951
20282SOL     OW62133   7.953   8.433   7.572  0.1380 -0.0422 -0.0514
20282SOL    HW162134   7.997   8.350   7.592  1.8019  0.9865  0.7831
20282SOL    HW262135   8.007   8.473   7.504  0.1685  0.9882  0.5618
20283SOL     OW62136   4.160   6.132   4.014 -0.7894  0.1401 -0.0837
20283SOL    HW162137   4.231   6.067   4.015  0.7989  1.7737 -0.5123
20283SOL    HW262138   4.101   6.104   4.083 -0.2565 -1.8418 -0.3603
20284SOL     OW62139   6.501   1.577   2.773  0.1656  0.2210  0.4423
20284SOL    HW162140   6.517   1.507   2.709 -1.3263  0.8654 -0.7129
20284SOL    HW262141   6.550   1.550   2.851  0.9009 -1.3077 -0.4937
20285SOL     OW62142   1.628   2.824   5.103 -0.5571  0.2237  0.4973
20285SOL    HW162143   1.614   2.914   5.133 -0.0459  0.7288 -0.7400
20285SOL    HW262144   1.558   2.774   5.144  0.0418  0.8882  2.4440
20286SOL     OW62145   0.793   1.912   5.507  0.2925 -0.0243 -0.3931
20286SOL    HW162146   0.868   1.956   5.466  0.8177  0.5420  1.1231
20286SOL    HW262147   0.828   1.829   5.537 -0.2032 -0.6319 -1.4508
20287SOL     OW62148   7.836   5.193   0.167  0.4487 -0.0899  0.3967
20287SOL    HW162149   7.904   5.164   0.105  1.5085  0.4996  1.2548
20287SOL    HW262150   7.865   5.159   0.251 -0.1919  0.4020  0.8205
20288SOL     OW62151   7.860   5.135   8.248 -0.3978  0.5910 -0.2709
20288SOL    HW162152   7.936   5.131   8.191 -0.4037  2.2541 -0.4636
20288SOL    HW262153   7.792   5.176   8.194 -0.5042  1.8869  0.7899
20289SOL     OW62154   2.739   7.987   6.636 -0.0313  0.0752  0.4221
20289SOL    HW162155   2.709   7.901   6.664  1.1833 -0.0652  1.3428
20289SOL    HW262156   2.812   7.969   6.577  0.5599  0.4671  1.0180
20290SOL     OW62157   0.944   3.498   4.979 -0.1378 -0.7575 -0.1728
20290SOL    HW162158   1.025   3.533   5.015 -0.6644  0.0554  0.2667
20290SOL    HW262159   0.889   3.575   4.966 -1.3094 -1.3983  0.7448
20291SOL     OW62160   0.021   0.194   8.711 -0.2055 -0.8686 -0.0973
20291SOL    HW162161   0.014   0.116   8.656  1.5831 -1.2808  0.1934
20291SOL    HW262162  -0.069   0.224   8.722 -0.6562 -0.7459 -3.2380
20292SOL     OW62163   3.463   3.515   1.765 -0.0311 -0.0731  0.0774
20292SOL    HW162164   3.438   3.607   1.772  0.6617  0.2616 -1.3498
20292SOL    HW262165   3.429   3.474   1.844  0.4190  1.5888  1.1834
20293SOL     OW62166   4.451   7.776   5.290 -0.1125 -0.1344  0.2269
20293SOL    HW162167   4.524   7.714   5.296  1.3374  1.3128 -1.1805
20293SOL    HW262168   4.413   7.777   5.378  0.9020 -1.6868  0.7387
20294SOL     OW62169   5.135   4.655   8.259 -0.3601  0.3648  0.1755
20294SOL    HW162170   5.212   4.673   8.204 -1.4859  1.5517 -1.0683
20294SOL    HW262171   5.117   4.562   8.245  2.6027 -0.8414  2.8829
20295SOL     OW62172   1.474   5.395   8.648 -0.1030  0.0373 -0.2385
20295SOL    HW162173   1.398   5.389   8.590  1.0214  0.1645 -1.8045
20295SOL    HW262174   1.549   5.402   8.588  1.0188  1.4644  1.2564
20296SOL     OW62175   6.808   5.204   4.663 -0.5559 -0.3715  0.4051
20296SOL    HW162176   6.738   5.229   4.603  0.4038 -0.9231 -1.0374
20296SOL    HW262177   6.833   5.285   4.707 -1.3300  0.0504  0.0883
20297SOL     OW62178   0.420   3.048   8.647 -0.2255  0.0128  0.1893
20297SOL    HW162179   0.385   3.137   8.647  0.2709  0.2161 -0.5143
20297SOL    HW262180   0.515   3.059   8.657 -0.2247 -0.4754  0.8021
20298SOL     OW62181   6.468   4.201   6.752  0.1095  0.1866  0.9416
20298SOL    HW162182   6.427   4.195   6.666  2.2761  1.3544 -0.2470
20298SOL    HW262183   6.394   4.197   6.814 -1.3217 -4.0647 -0.6875
20299SOL     OW62184   4.650   8.608   1.136  0.2693  0.4869 -0.6556
20299SOL    HW162185   4.666   8.541   1.070  0.2460  0.6482 -0.8245
20299SOL    HW262186   4.682   8.689   1.097  0.6710  0.5108 -0.2951
20300SOL     OW62187   8.699   5.092   5.342  0.0843  0.2055 -0.1311
20300SOL    HW162188   8.635   5.025   5.318 -1.4269  1.7346 -0.5801
20300SOL    HW262189   8.662   5.134   5.420  1.2692  0.1898  0.4683
20301SOL     OW62190   6.396   7.779   7.624  0.1885 -0.3284  0.1933
20301SOL    HW162191   6.433   7.694   7.600 -0.8891 -1.6425  2.7932
20301SOL    HW262192   6.457   7.815   7.687 -0.7747 -0.5323  1.2691
20302SOL     OW62193   3.418   8.396   6.998 -0.0154 -0.6015 -0.5561
20302SOL    HW162194   3.506   8.359   6.986 -0.0789 -0.8145 -0.3824
20302SOL    HW262195   3.360   8.335   6.954  0.1058  0.6410 -2.5307
20303SOL     OW62196   4.644   2.190   3.375  0.0031  0.0197  0.1312
20303SOL    HW162197   4.569   2.180   3.433 -0.2227 -1.8537 -0.4238
20303SOL    HW262198   4.612   2.245   3.304 -0.1212  1.1798  1.0524
20304SOL     OW62199   8.651   0.220   4.810  0.3517 -0.1572  0.1574
20304SOL    HW162200   8.711   0.185   4.876  0.6771  0.9581  0.4807
20304SOL    HW262201   8.566   0.180   4.830  0.9152 -1.5660 -0.1587
20305SOL     OW62202   3.057   4.961   1.441  0.0687  0.5594 -0.2766
20305SOL    HW162203   3.031   4.887   1.386  0.8861  1.1033 -1.4076
20305SOL    HW262204   3.092   5.026   1.381  0.0410  1.5913  0.7788
20306SOL     OW62205   2.963   3.664   7.432  0.5548  0.3158 -0.2894
20306SOL    HW162206   3.049   3.691   7.401  1.2896 -0.9439  0.5541
20306SOL    HW262207   2.978   3.630   7.521 -0.6987 -0.4790 -0.3423
20307SOL     OW62208   2.321   1.427   3.724  0.1682 -0.1401 -0.1471
20307SOL    HW162209   2.273   1.391   3.798 -0.4497 -1.5701 -1.1955
20307SOL    HW262210   2.257   1.483   3.679  0.4618  0.5079  0.2186
20308SOL     OW62211   7.206   6.973   4.870 -0.1856  0.1793  0.3566
20308SOL    HW162212   7.230   6.988   4.962  0.9870  0.4603  0.0194
20308SOL    HW262213   7.230   7.054   4.826  0.6958 -0.4990 -0.4594
20309SOL     OW62214   7.299   0.553   7.931  0.3443  0.0395  0.4091
20309SOL    HW162215   7.300   0.478   7.991  2.9963 -0.5696 -0.2915
20309SOL    HW262216   7.359   0.530   7.861 -2.3942  0.8425 -2.4773
20310SOL     OW62217   7.759   8.171   1.191 -0.1494  0.4039  0.4160
20310SOL    HW162218   7.809   8.246   1.224 -0.2911  0.3555  0.7516
20310SOL    HW262219   7.667   8.194   1.208 -0.2660  0.6431 -0.5074
20311SOL     OW62220   0.639   2.765   2.649  0.3089 -0.0295  0.0290
20311SOL    HW162221   0.682   2.708   2.713 -0.8413 -1.7805 -0.6820
20311SOL    HW262222   0.662   2.854   2.677  0.4161 -0.7429  2.4441
20312SOL     OW62223   3.038   3.431   0.621  1.2051 -0.0919  0.0563
20312SOL    HW162224   3.094   3.365   0.579 -1.3199 -1.7881 -0.8481
20312SOL    HW262225   3.005   3.388   0.700 -0.6831 -0.0824 -0.6866
20313SOL     OW62226   6.298   2.437   4.429  0.0448  0.1853  0.5102
20313SOL    HW162227   6.336   2.385   4.358  1.1245  0.2610  1.0065
20313SOL    HW262228   6.364   2.504   4.446 -0.5304  0.6082  1.0953
20314SOL     OW62229   5.130   7.469   3.942 -0.0170 -0.0611 -0.4464
20314SOL    HW162230   5.216   7.431   3.929  0.4788  0.9087 -0.0937
20314SOL    HW262231   5.078   7.437   3.868  0.6702 -0.5601 -0.7219
20315SOL     OW62232   3.275   2.961   6.974  0.3098  0.2611  0.2410
20315SOL    HW162233   3.227   3.043   6.962  2.0666  1.2496 -0.4728
20315SOL    HW262234   3.330   2.977   7.051  1.9192  0.4465 -0.8897
20316SOL     OW62235   5.850   5.200   3.613  0.0440 -0.0349 -0.4352
20316SOL    HW162236   5.763   5.180   3.649 -0.4090  0.3465 -1.3128
20316SOL    HW262237   5.906   5.204   3.690 -0.5624 -1.0323  0.0893
20317SOL     OW62238   2.582   4.236   4.321 -0.0383 -0.0916  0.0124
20317SOL    HW162239   2.486   4.232   4.317 -0.1091  0.5239  0.6645
20317SOL    HW262240   2.607   4.166   4.381 -0.0060 -0.8482 -0.8830
20318SOL     OW62241   2.582   0.477   0.980 -0.3982  0.0791  0.1782
20318SOL    HW162242   2.545   0.552   1.027 -2.6476 -0.0996 -1.1467
20318SOL    HW262243   2.517   0.407   0.993 -0.1353 -0.5355 -1.5795
20319SOL     OW62244   1.275   2.091   2.178 -0.0195 -0.1343  0.0397
20319SOL    HW162245   1.269   2.069   2.085  0.6678 -0.1994  0.0001
20319SOL    HW262246   1.369   2.099   2.194 -0.1274 -0.2324  0.7540
20320SOL     OW62247   6.093   0.229   0.028 -0.0093 -0.3764  0.4823
20320SOL    HW162248   6.001   0.201   0.022 -0.1266  0.2992 -1.4544
20320SOL    HW262249   6.134   0.162   0.084 -1.5326 -1.0341  0.8768
20321SOL     OW62250   5.806   8.471   2.458  0.0632  0.1745 -0.1992
20321SOL    HW162251   5.740   8.478   2.528 -0.7052  2.3790 -1.0765
20321SOL    HW262252   5.757   8.440   2.382  0.6759 -1.0647 -0.1262
20322SOL     OW62253   0.738   2.645   4.414  0.1194 -0.0944  0.8076
20322SOL    HW162254   0.727   2.550   4.415 -0.4350 -0.0572  2.9564
20322SOL    HW262255   0.650   2.679   4.401  0.0815  0.1247  1.6128
20323SOL     OW62256   8.507   7.326   7.387  0.2915 -0.2166  0.1015
20323SOL    HW162257   8.497   7.354   7.478 -1.1588  0.3685 -0.2138
20323SOL    HW262258   8.595   7.287   7.384  0.4311 -0.1100  1.7022
20324SOL     OW62259   5.890   2.784   1.595 -0.1327 -0.2759  0.5875
20324SOL    HW162260   5.841   2.753   1.671 -0.9996  0.6080  0.4218
20324SOL    HW262261   5.966   2.829   1.632  0.0855 -0.8726  0.8804
20325SOL     OW62262   1.102   7.674   7.877 -0.4688  0.0013 -1.1182
20325SOL    HW162263   1.075   7.602   7.820 -0.8758 -0.5174 -0.2929
20325SOL    HW262264   1.107   7.634   7.964 -1.0855  1.0748 -0.5847
20326SOL     OW62265   4.921   1.074   4.501 -0.4077  0.0334  0.0006
20326SOL    HW162266   4.833   1.079   4.537  0.1163  1.1701  1.1852
20326SOL    HW262267   4.979   1.088   4.576  0.7426  1.5047 -1.0895
20327SOL     OW62268   3.231   3.573   1.134 -0.3397 -0.4679  0.4147
20327SOL    HW162269   3.316   3.529   1.146  0.2844  0.7102  0.5267
20327SOL    HW262270   3.215   3.617   1.218 -0.1219  0.8485 -0.2009
20328SOL     OW62271   2.127   7.095   2.065  0.2172  0.3877 -0.4115
20328SOL    HW162272   2.147   7.023   2.125 -0.8162  0.3477 -0.1009
20328SOL    HW262273   2.182   7.168   2.096  1.9392 -0.4956 -1.2677
20329SOL     OW62274   8.619   2.849   3.059 -0.5188 -0.5626  0.0904
20329SOL    HW162275   8.674   2.913   3.104 -1.5954 -0.5310  1.4405
20329SOL    HW262276   8.678   2.806   2.997  0.4585  1.0442 -0.1527
20330SOL     OW62277   4.107   6.507   6.096 -0.6942  0.3361  0.1774
20330SOL    HW162278   4.175   6.574   6.102  0.9906 -1.4130  1.9610
20330SOL    HW262279   4.113   6.459   6.178 -1.9431 -1.8800 -0.9267
20331SOL     OW62280   4.860   1.962   5.344  0.1445 -0.0521  0.0816
20331SOL    HW162281   4.789   1.962   5.409 -0.6234  0.0120 -0.7477
20331SOL    HW262282   4.939   1.978   5.396 -0.4976  0.3860  0.9590
20332SOL     OW62283   0.365   7.604   8.019  0.3366 -0.3378  0.1533
20332SOL    HW162284   0.387   7.670   8.085  0.6933  0.2954 -0.5820
20332SOL    HW262285   0.449   7.565   7.995  0.5851  1.2221 -1.7640
20333SOL     OW62286   5.313   2.256   1.952  0.2683 -0.0616  0.0865
20333SOL    HW162287   5.387   2.264   1.891 -0.6513 -0.8439 -1.1974
20333SOL    HW262288   5.252   2.324   1.924  0.5163  0.6295  1.1867
20334SOL     OW62289   8.238   5.878   1.823 -0.1520 -0.4362 -0.7598
20334SOL    HW162290   8.243   5.877   1.727 -0.3395  0.1935 -0.7816
20334SOL    HW262291   8.261   5.968   1.847 -0.3049 -0.5386 -0.2257
20335SOL     OW62292   1.962   0.958   6.298 -0.2290  0.4390 -0.1935
20335SOL    HW162293   1.909   0.879   6.311  2.5817 -1.5952 -0.2942
20335SOL    HW262294   1.974   0.964   6.203  0.4720  0.3415 -0.1160
20336SOL     OW62295   6.183   2.224   7.192 -0.2336 -0.4874 -0.5751
20336SOL    HW162296   6.251   2.290   7.178  0.3228 -1.0035 -0.3850
20336SOL    HW262297   6.106   2.258   7.146  0.5741 -0.5753 -2.0520
20337SOL     OW62298   6.594   1.478   2.270 -0.2295  0.4780 -0.3847
20337SOL    HW162299   6.543   1.450   2.195 -0.3661  3.1458 -1.4275
20337SOL    HW262300   6.684   1.450   2.251 -0.3534  0.7106 -1.3534
20338SOL     OW62301   7.252   6.026   1.890  0.0347  0.0510  0.2365
20338SOL    HW162302   7.317   6.008   1.959  0.2199  2.8143  0.9138
20338SOL    HW262303   7.168   6.029   1.936  0.0696  1.2043  0.2492
20339SOL     OW62304   7.016   2.393   5.944  0.6940  0.3456  0.3836
20339SOL    HW162305   7.083   2.458   5.924  1.6110 -0.5450  0.4958
20339SOL    HW262306   7.031   2.323   5.881  1.0608 -0.6935  1.5803
20340SOL     OW62307   7.069   0.819   5.737  0.4430  0.1007 -0.0244
20340SOL    HW162308   7.083   0.795   5.645  2.7146  0.1202  0.2745
20340SOL    HW262309   7.154   0.850   5.767 -0.1114 -0.4244  2.2450
20341SOL     OW62310   5.057   7.230   6.249 -0.1890  0.0603  0.6525
20341SOL    HW162311   5.001   7.225   6.171 -0.7138  2.3898  0.8081
20341SOL    HW262312   5.132   7.282   6.220 -0.3331  0.8517  1.6684
20342SOL     OW62313   1.602   1.939   7.603  0.1277 -0.2841  0.4833
20342SOL    HW162314   1.659   1.867   7.578 -1.6725 -1.7017  0.2064
20342SOL    HW262315   1.594   1.930   7.698  0.2226 -0.2091  0.4982
20343SOL     OW62316   2.174   1.638   0.221  0.1843 -0.6431 -0.6595
20343SOL    HW162317   2.166   1.543   0.216 -0.8658 -0.6747  0.9930
20343SOL    HW262318   2.122   1.671   0.147  1.8176 -1.3322 -2.1989
20344SOL     OW62319   0.229   2.448   4.126 -0.3435 -0.4087 -0.2424
20344SOL    HW162320   0.315   2.489   4.111 -0.7395  0.0315 -1.4103
20344SOL    HW262321   0.245   2.384   4.195  0.4393  1.2621  1.2125
20345SOL     OW62322   7.881   0.044   0.513 -0.1235 -0.4597  0.4298
20345SOL    HW162323   7.868  -0.051   0.505  1.9566 -0.6921 -0.8776
20345SOL    HW262324   7.868   0.062   0.606 -0.3672 -2.0634  0.7371
20346SOL     OW62325   8.349   4.150   6.685 -0.1098 -0.1139  0.2121
20346SOL    HW162326   8.403   4.094   6.741  0.0359  0.6018  0.8057
20346SOL    HW262327   8.358   4.113   6.598  0.5696 -0.5820  0.4761
20347SOL     OW62328   0.216   8.242   0.736  0.4418  0.0693  0.1809
20347SOL    HW162329   0.296   8.198   0.705  0.8926  1.1463 -0.2485
20347SOL    HW262330   0.145   8.197   0.690  0.9405  0.2269 -0.7846
20348SOL     OW62331   7.470   7.710   7.020  0.2231  0.7342  0.2440
20348SOL    HW162332   7.434   7.786   7.065  0.6466  1.2574 -0.2771
20348SOL    HW262333   7.563   7.711   7.041  0.2074  0.2619  0.3614
20349SOL     OW62334   4.670   2.912   7.748 -0.2265 -0.4093  0.2105
20349SOL    HW162335   4.714   2.874   7.824  1.0683  1.8160  0.6422
20349SOL    HW262336   4.633   2.994   7.781 -0.2164  0.2665 -1.4002
20350SOL     OW62337   8.294   2.894   5.766 -0.5373 -0.2212  0.5719
20350SOL    HW162338   8.382   2.927   5.747 -1.4056  0.4724 -2.9224
20350SOL    HW262339   8.249   2.969   5.806 -0.6382  0.8090 -1.3730
20351SOL     OW62340   6.183   3.404   8.566  0.5883  1.0563  0.1469
20351SOL    HW162341   6.164   3.449   8.649 -1.8194  1.5420 -0.6032
20351SOL    HW262342   6.184   3.311   8.588 -0.8668  1.1272  0.6261
20352SOL     OW62343   8.201   2.996   8.116  0.1583  0.2398 -0.1245
20352SOL    HW162344   8.164   3.069   8.067  0.3523  0.0705 -0.5322
20352SOL    HW262345   8.202   2.923   8.053  2.1891  0.5213 -0.4787
20353SOL     OW62346   6.354   1.631   2.088 -0.0549  0.8607 -0.1841
20353SOL    HW162347   6.327   1.604   2.000  0.7993 -0.3470 -0.1001
20353SOL    HW262348   6.443   1.598   2.097 -0.5715 -0.2012  1.5983
20354SOL     OW62349   7.765   2.667   6.981 -0.4483  0.2519  0.1160
20354SOL    HW162350   7.679   2.626   6.978 -0.4849  0.2949  0.5049
20354SOL    HW262351   7.763   2.732   6.911 -1.0933  0.9494  0.7650
20355SOL     OW62352   0.660   1.698   4.877  0.2838  0.0320  0.3607
20355SOL    HW162353   0.566   1.682   4.867  0.3081 -1.1719  1.7577
20355SOL    HW262354   0.692   1.707   4.787 -1.1898  0.7089 -0.1298
20356SOL     OW62355   7.362   0.864   5.195  0.1327  0.5388  0.0041
20356SOL    HW162356   7.419   0.864   5.272  1.1944 -1.3008 -0.7305
20356SOL    HW262357   7.308   0.943   5.206  1.3008  1.1587  1.8300
20357SOL     OW62358   5.591   8.313   3.062 -0.0294 -0.0051  0.2015
20357SOL    HW162359   5.529   8.303   3.135  0.1477 -2.5578  0.1142
20357SOL    HW262360   5.536   8.313   2.984 -0.0980  0.6818  0.2501
20358SOL     OW62361   8.125   8.340   6.092  0.1922 -0.2778  0.2868
20358SOL    HW162362   8.167   8.269   6.141 -1.0815  0.3038  2.2948
20358SOL    HW262363   8.166   8.335   6.005 -0.8472 -4.4118 -0.2031
20359SOL     OW62364   8.516   4.161   4.986  0.4199 -0.5929  0.1390
20359SOL    HW162365   8.434   4.130   5.024 -0.4030 -0.8022 -1.6870
20359SOL    HW262366   8.525   4.251   5.016 -0.1118 -0.8009  0.9176
20360SOL     OW62367   1.890   1.396   5.813 -0.1397  0.0935  0.0227
20360SOL    HW162368   1.799   1.423   5.806 -0.4495 -0.6118  1.0924
20360SOL    HW262369   1.890   1.325   5.878  0.9316 -1.0654 -1.1787
20361SOL     OW62370   6.961   4.082   5.735  0.2119  0.4508  0.2326
20361SOL    HW162371   6.920   4.142   5.672 -0.9361  1.3312  1.7681
20361SOL    HW262372   6.905   4.085   5.812  0.8082 -1.7006  0.8154
20362SOL     OW62373   3.665   0.784   0.967 -0.6389 -0.0154  0.5107
20362SOL    HW162374   3.661   0.827   1.052  0.4305  0.9591  0.1106
20362SOL    HW262375   3.574   0.769   0.942 -1.0933  2.3851  0.5247
20363SOL     OW62376   5.456   8.355   0.964 -0.0032  0.6447  0.6346
20363SOL    HW162377   5.468   8.358   1.059  1.1223  0.5590  0.5106
20363SOL    HW262378   5.407   8.434   0.943 -0.7188  0.3992  1.3435
20364SOL     OW62379   4.020   2.895   6.264 -0.4260  0.1867 -0.3869
20364SOL    HW162380   4.080   2.933   6.200 -1.3764  1.2251 -0.6915
20364SOL    HW262381   3.945   2.955   6.265 -0.6967 -0.1393  1.2559
20365SOL     OW62382   7.703   1.715   7.659 -0.2837 -0.5657  0.1009
20365SOL    HW162383   7.655   1.763   7.727  0.2579  0.8703 -0.5039
20365SOL    HW262384   7.794   1.742   7.670 -0.4251  1.0941 -2.3044
20366SOL     OW62385   3.957   3.441   5.377 -0.0922 -0.3829  0.3460
20366SOL    HW162386   3.923   3.362   5.418  1.4701 -1.2951 -0.0002
20366SOL    HW262387   3.999   3.409   5.297  1.5296  0.6233  0.7450
20367SOL     OW62388   3.967   2.741   8.412 -0.1397 -0.4300 -0.0450
20367SOL    HW162389   3.973   2.646   8.406  1.6361 -0.3033 -0.9444
20367SOL    HW262390   3.873   2.760   8.407 -0.4483 -2.0597 -1.3085
20368SOL     OW62391   4.640   0.256   5.410 -0.1831 -0.1612  0.2885
20368SOL    HW162392   4.611   0.170   5.379 -1.9995  0.3518  0.4634
20368SOL    HW262393   4.644   0.248   5.505 -1.6225  0.2934  0.4031
20369SOL     OW62394   0.802   7.188   7.036  0.4452  0.5262  0.1111
20369SOL    HW162395   0.757   7.260   6.991  0.5749  1.7577  1.8303
20369SOL    HW262396   0.738   7.117   7.037 -0.4785  1.3243  0.1369
20370SOL     OW62397   6.243   3.991   3.626  0.0730 -0.0705 -0.3143
20370SOL    HW162398   6.294   4.016   3.549 -0.7550 -0.0741 -0.8838
20370SOL    HW262399   6.154   4.020   3.606 -0.5694 -1.8200 -0.2294
20371SOL     OW62400   4.955   1.120   0.837  0.1501  0.6843 -0.1518
20371SOL    HW162401   4.909   1.204   0.829  0.6135  0.9376 -0.1808
20371SOL    HW262402   4.950   1.099   0.930 -0.7369  0.3016 -0.2782
20372SOL     OW62403   7.722   5.586   8.045 -0.1486  0.1858 -0.1157
20372SOL    HW162404   7.676   5.568   7.964  0.5900  0.6883 -0.6608
20372SOL    HW262405   7.702   5.678   8.064 -0.1675  0.1235  0.1722
20373SOL     OW62406   0.793   5.653   6.183  0.3236 -0.2439  0.0827
20373SOL    HW162407   0.805   5.602   6.103  1.8466 -0.8527  0.6709
20373SOL    HW262408   0.854   5.615   6.246 -1.4204 -0.3571  1.8397
20374SOL     OW62409   5.281   5.023   0.214  0.4944 -0.3342 -0.4725
20374SOL    HW162410   5.372   5.044   0.236  0.9569 -2.5443 -0.0703
20374SOL    HW262411   5.287   4.944   0.160 -1.1797 -0.4323 -0.5485
20375SOL     OW62412   1.121   6.261   3.689  0.2773 -0.4001 -0.4071
20375SOL    HW162413   1.104   6.326   3.757 -0.6233 -0.5744 -0.4531
20375SOL    HW262414   1.177   6.196   3.731 -1.1647 -1.0819  0.5264
20376SOL     OW62415   6.235   2.175   4.889 -0.0422 -0.0431 -0.4960
20376SOL    HW162416   6.166   2.123   4.930  0.0333 -0.6606 -1.1230
20376SOL    HW262417   6.313   2.119   4.896 -0.2907 -0.7216 -2.5686
20377SOL     OW62418   4.964   2.810   4.287 -0.2143 -0.8387 -0.0066
20377SOL    HW162419   4.965   2.842   4.197  0.2893 -1.5784 -0.2759
20377SOL    HW262420   5.046   2.841   4.325 -0.8481  0.2673  0.4992
20378SOL     OW62421   5.606   3.360   1.807 -0.4713 -0.4102 -0.3670
20378SOL    HW162422   5.679   3.422   1.807 -1.5849  0.9591 -0.1100
20378SOL    HW262423   5.529   3.415   1.822 -1.7026 -1.6258 -1.9544
20379SOL     OW62424   5.101   6.506   8.402 -0.4370  0.4231 -0.2809
20379SOL    HW162425   5.021   6.461   8.375 -0.2927  1.5969 -2.9313
20379SOL    HW262426   5.077   6.599   8.403  0.5145  0.6760  0.4042
20380SOL     OW62427   1.198   8.045   0.982  0.1430  0.5383  0.0577
20380SOL    HW162428   1.208   7.968   0.927  0.2432  0.8327 -0.3384
20380SOL    HW262429   1.288   8.072   1.001  0.1171  0.1977  0.7133
20381SOL     OW62430   2.483   5.859   7.763  0.4353 -0.0150 -0.7957
20381SOL    HW162431   2.409   5.915   7.740  1.7214  2.8281  1.3729
20381SOL    HW262432   2.558   5.902   7.723  1.1691 -1.9933 -1.6521
20382SOL     OW62433   8.154   8.164   2.876  0.0869  0.0300 -0.2285
20382SOL    HW162434   8.179   8.175   2.784  3.5064 -3.2894  0.0718
20382SOL    HW262435   8.196   8.237   2.921 -1.7737  1.8053 -1.1644
20383SOL     OW62436   0.328   5.318   6.673  0.0887 -0.1257  0.7284
20383SOL    HW162437   0.301   5.268   6.750  2.7895 -0.3761  1.6105
20383SOL    HW262438   0.340   5.253   6.604 -0.5682 -0.1156  0.5934
20384SOL     OW62439   6.594   4.117   1.322 -0.0397  0.6612  0.0090
20384SOL    HW162440   6.611   4.200   1.278 -0.8365  0.6413 -0.3567
20384SOL    HW262441   6.571   4.141   1.411 -2.5110  1.0367 -0.6648
20385SOL     OW62442   4.529   5.050   3.044  0.5749 -0.2526  0.1516
20385SOL    HW162443   4.439   5.031   3.018  0.0400  0.9881  0.9794
20385SOL    HW262444   4.579   5.046   2.962 -0.0884 -1.6164 -0.2178
20386SOL     OW62445   6.498   1.426   0.712  0.2936 -0.0558  0.0748
20386SOL    HW162446   6.432   1.418   0.781 -0.3082  2.2266 -0.1517
20386SOL    HW262447   6.574   1.464   0.755  0.6730 -0.5691 -0.1251
20387SOL     OW62448   2.743   1.206   7.681  0.0654 -0.0322  0.4369
20387SOL    HW162449   2.772   1.285   7.727  1.5544 -0.0164 -0.4342
20387SOL    HW262450   2.658   1.229   7.645 -1.0638  0.0183  2.9262
20388SOL     OW62451   4.461   0.527   6.574 -0.3679  0.4298  0.4111
20388SOL    HW162452   4.452   0.554   6.666  2.1259  1.3278  0.4561
20388SOL    HW262453   4.471   0.609   6.526  0.3078 -0.1108 -0.3914
20389SOL     OW62454   7.744   4.609   0.324  0.4695 -1.3362 -0.1394
20389SOL    HW162455   7.740   4.522   0.365  1.3000 -1.7291 -0.8555
20389SOL    HW262456   7.791   4.594   0.242 -0.4875 -0.4266 -0.8735
20390SOL     OW62457   7.122   5.691   2.916  0.3555 -0.3401  0.3956
20390SOL    HW162458   7.176   5.675   2.839 -0.2744 -0.5504 -0.0082
20390SOL    HW262459   7.070   5.769   2.894  1.3526  0.6080  1.2530
20391SOL     OW62460   0.162   7.881   5.859  0.9738 -0.1725 -0.1724
20391SOL    HW162461   0.206   7.797   5.850  0.5093 -0.3969 -0.4047
20391SOL    HW262462   0.113   7.874   5.941 -0.2467 -0.6996 -0.9091
20392SOL     OW62463   3.235   3.323   6.661 -0.3189  0.0714  0.2607
20392SOL    HW162464   3.294   3.398   6.657 -0.4363  0.3007  2.0719
20392SOL    HW262465   3.249   3.278   6.578  2.6813 -0.0766  0.7221
20393SOL     OW62466   1.218   2.101   0.794  0.1660 -0.1263  0.1990
20393SOL    HW162467   1.134   2.129   0.760  1.6340  1.2461 -2.6277
20393SOL    HW262468   1.257   2.180   0.831  0.7144 -0.4932  0.4207
20394SOL     OW62469   5.147   1.760   2.392  0.0759  0.4949  0.4937
20394SOL    HW162470   5.076   1.708   2.429  0.5598  0.5282  1.4889
20394SOL    HW262471   5.126   1.850   2.416  0.3467  0.5270  0.6177
20395SOL     OW62472   1.764   4.558   6.040 -0.4643 -0.0916 -0.4425
20395SOL    HW162473   1.766   4.485   6.101  0.0543  0.4090  0.1516
20395SOL    HW262474   1.855   4.586   6.032 -0.7946  1.3559  0.4095
20396SOL     OW62475   4.632   5.184   6.044 -0.3455  0.4334 -0.2531
20396SOL    HW162476   4.566   5.215   5.982 -0.7726  1.9175  0.8842
20396SOL    HW262477   4.680   5.263   6.069  1.4337 -0.5142 -0.5410
20397SOL     OW62478   5.751   2.052   1.550 -0.1795  0.0950  0.0182
20397SOL    HW162479   5.745   2.059   1.455  0.8197  1.2934  0.0067
20397SOL    HW262480   5.713   1.967   1.571 -0.9976  0.0842 -1.3887
20398SOL     OW62481   4.716   0.391   6.372 -0.0515 -0.0898  0.5302
20398SOL    HW162482   4.748   0.475   6.406 -0.3303  0.4385 -0.4747
20398SOL    HW262483   4.666   0.414   6.294  1.8509 -1.3759 -1.1721
20399SOL     OW62484   1.825   5.780   4.328 -0.0679 -0.1042  0.1562
20399SOL    HW162485   1.921   5.776   4.335  0.1152  1.2692 -1.1005
20399SOL    HW262486   1.809   5.847   4.262 -1.9008 -0.7650 -0.1185
20400SOL     OW62487   1.252   0.884   2.609  0.9119  0.1216  0.3414
20400SOL    HW162488   1.206   0.908   2.528  1.6970  1.7874  0.3471
20400SOL    HW262489   1.278   0.793   2.595  0.8054  0.2921 -1.1681
20401SOL     OW62490   3.833   3.457   2.904  0.0607 -0.4499  0.2917
20401SOL    HW162491   3.763   3.522   2.911  1.7203  1.3576  0.9116
20401SOL    HW262492   3.826   3.425   2.814 -0.9807  0.3596  0.0556
20402SOL     OW62493   1.609   8.058   1.954  0.5074 -0.0264  0.0426
20402SOL    HW162494   1.601   8.032   2.046  1.6138  0.8643  0.4187
20402SOL    HW262495   1.563   8.142   1.949 -0.5537 -0.6302 -0.4927
20403SOL     OW62496   1.866   8.337   2.561 -0.0128 -0.2567 -0.2986
20403SOL    HW162497   1.837   8.257   2.604  0.1474 -0.3025 -0.2744
20403SOL    HW262498   1.938   8.309   2.504  0.6060 -0.0017  0.3379
20404SOL     OW62499   6.787   0.123   3.610 -0.6490  0.4813  0.0624
20404SOL    HW162500   6.775   0.217   3.601 -0.6487  0.4052 -0.8512
20404SOL    HW262501   6.843   0.113   3.687 -1.5513  1.1576  0.8451
20405SOL     OW62502   7.480   5.676   2.192 -0.6860 -0.3471  0.2279
20405SOL    HW162503   7.562   5.629   2.176  0.1851  0.9373  0.7282
20405SOL    HW262504   7.508   5.766   2.207 -2.0735 -0.1426  1.7856
20406SOL     OW62505   8.579   0.044   6.077  0.8708 -0.2698 -0.1560
20406SOL    HW162506   8.612  -0.042   6.103  0.4455  0.2762  2.4968
20406SOL    HW262507   8.515   0.024   6.008  1.8606 -1.9176 -0.6619
20407SOL     OW62508   2.465   0.869   8.564  0.4152  0.1151  0.4127
20407SOL    HW162509   2.476   0.959   8.532 -1.3878  0.7784  1.4739
20407SOL    HW262510   2.443   0.819   8.486  1.7911  0.4900 -0.2512
20408SOL     OW62511   4.031   0.537   3.775 -0.3329  0.3399 -0.2053
20408SOL    HW162512   3.946   0.554   3.816  1.1570  3.0089  2.0912
20408SOL    HW262513   4.023   0.572   3.686 -1.2644  1.7543  0.4073
20409SOL     OW62514   1.435   0.889   0.229  0.0186  0.2608 -0.0495
20409SOL    HW162515   1.419   0.912   0.321  1.9611  2.0991 -0.1064
20409SOL    HW262516   1.357   0.919   0.183  0.0601  1.5980  0.7000
20410SOL     OW62517   7.122   6.310   5.104  0.1123  0.5318  0.2325
20410SOL    HW162518   7.115   6.230   5.052 -1.1779  0.5635  0.3383
20410SOL    HW262519   7.209   6.344   5.084  1.0358 -1.3352  0.8177
20411SOL     OW62520   5.086   4.284   4.645  0.0140 -0.2980  0.4629
20411SOL    HW162521   5.149   4.212   4.641  0.3870 -0.1392  2.4283
20411SOL    HW262522   5.022   4.257   4.711 -0.3436  0.7881  0.5842
20412SOL     OW62523   6.954   3.378   7.703 -0.1568 -0.1912 -0.5499
20412SOL    HW162524   7.036   3.349   7.664 -0.5914 -1.3123 -0.6625
20412SOL    HW262525   6.959   3.349   7.794 -0.3151 -0.0247 -0.4862
20413SOL     OW62526   4.474   2.608   3.398 -0.4026 -0.4784 -0.1898
20413SOL    HW162527   4.416   2.606   3.322  0.7656  0.8527 -1.1537
20413SOL    HW262528   4.553   2.562   3.369 -0.5869 -1.4846  0.8142
20414SOL     OW62529   7.731   8.428   2.941 -0.1848 -0.0334 -0.3373
20414SOL    HW162530   7.761   8.445   3.030  0.3155  0.1956 -0.5439
20414SOL    HW262531   7.811   8.403   2.894 -0.4395 -0.1091 -0.7289
20415SOL     OW62532   3.272   8.007   2.154 -0.6498 -0.4035 -0.2733
20415SOL    HW162533   3.300   7.921   2.185  1.7669  0.8015  1.1747
20415SOL    HW262534   3.256   7.995   2.060  1.6178 -1.9919 -0.5187
20416SOL     OW62535   8.274   3.192   7.031  0.0694 -0.1951 -0.3732
20416SOL    HW162536   8.239   3.277   7.057  0.2765  0.2988 -1.6601
20416SOL    HW262537   8.259   3.187   6.937 -1.4230 -2.2703 -0.1289
20417SOL     OW62538   4.302   1.246   6.527 -0.1469  0.0004 -0.0506
20417SOL    HW162539   4.273   1.318   6.584  0.0742  0.0797 -0.0361
20417SOL    HW262540   4.386   1.218   6.565  0.0725  0.1491 -0.4199
20418SOL     OW62541   2.225   8.043   7.497  0.2057  0.3321  0.1917
20418SOL    HW162542   2.253   8.130   7.470 -1.6899  1.5729  1.9494
20418SOL    HW262543   2.257   8.033   7.586 -3.2739  1.2140  1.7270
20419SOL     OW62544   6.549   1.485   6.581 -0.6549 -0.7444  0.5306
20419SOL    HW162545   6.611   1.550   6.613 -1.2113 -0.2833  0.6982
20419SOL    HW262546   6.538   1.423   6.653 -1.3180 -0.1412  0.9520
20420SOL     OW62547   3.852   2.074   6.108  0.4087  0.0608 -0.4733
20420SOL    HW162548   3.831   2.163   6.078  1.3896 -0.8037 -4.1726
20420SOL    HW262549   3.921   2.087   6.173  0.4719  1.9995 -0.8673
20421SOL     OW62550   7.956   4.626   4.746  0.1801 -0.1364  0.2824
20421SOL    HW162551   7.869   4.601   4.716  0.6647 -0.2832 -1.0947
20421SOL    HW262552   7.967   4.717   4.718  0.8922 -0.4819 -0.6387
20422SOL     OW62553   8.521   7.907   8.172  0.7550  0.8223  0.2466
20422SOL    HW162554   8.449   7.917   8.111  1.6291  1.5622 -0.6979
20422SOL    HW262555   8.484   7.856   8.244 -0.6121  0.9178 -0.3508
20423SOL     OW62556   3.920   5.828   5.476 -0.3699  0.4458 -0.3952
20423SOL    HW162557   3.875   5.744   5.484 -0.3641  0.5100  0.3547
20423SOL    HW262558   3.851   5.893   5.485 -0.1021  0.5509  1.1064
20424SOL     OW62559   1.685   7.768   6.879 -0.5910  0.1385  0.2305
20424SOL    HW162560   1.774   7.759   6.912  0.0619 -0.2593 -1.5407
20424SOL    HW262561   1.630   7.769   6.958  0.8441 -1.0884  1.3096
20425SOL     OW62562   3.885   0.307   2.323  0.0169  0.4360 -0.0991
20425SOL    HW162563   3.875   0.347   2.409 -1.8350  0.5718 -0.3316
20425SOL    HW262564   3.915   0.218   2.341 -0.3211  0.4737  0.6883
20426SOL     OW62565   2.926   7.103   4.701  0.0150  0.3483 -0.6889
20426SOL    HW162566   2.856   7.157   4.737 -0.7037 -0.1392 -1.3378
20426SOL    HW262567   2.943   7.140   4.615  1.0313  0.8794 -0.2776
20427SOL     OW62568   4.745   5.447   3.646  0.5511  0.5353 -0.3765
20427SOL    HW162569   4.727   5.520   3.705 -1.3449 -0.6578  0.6411
20427SOL    HW262570   4.662   5.432   3.599  1.0052 -0.6893 -0.8499
20428SOL     OW62571   3.878   2.402   2.006 -0.0029 -0.6489 -0.3394
20428SOL    HW162572   3.783   2.410   2.007  0.0936  1.0445  0.7707
20428SOL    HW262573   3.900   2.366   2.093  0.5046  2.4535  0.9432
20429SOL     OW62574   5.775   6.525   2.583  0.9870  0.0625  0.1193
20429SOL    HW162575   5.866   6.526   2.612  0.7020 -0.6636  1.0734
20429SOL    HW262576   5.730   6.470   2.646  0.4518 -2.1087 -1.9930
20430SOL     OW62577   1.867   2.158   2.418 -0.1525 -0.0630  0.1508
20430SOL    HW162578   1.809   2.187   2.348  0.4720 -0.2399 -0.4448
20430SOL    HW262579   1.840   2.068   2.436 -2.5956  1.0021  2.5153
20431SOL     OW62580   4.902   8.052   2.378 -1.1097  0.2592 -0.2747
20431SOL    HW162581   4.809   8.065   2.398 -0.8739  0.7603  0.5641
20431SOL    HW262582   4.945   8.126   2.420 -0.2019 -0.6578  0.4595
20432SOL     OW62583   0.187   0.427   7.869  0.0879  0.0812  0.3044
20432SOL    HW162584   0.147   0.380   7.796  0.5392 -0.6312  0.5062
20432SOL    HW262585   0.278   0.442   7.841  0.9031 -2.1207  1.5604
20433SOL     OW62586   5.784   8.291   4.507 -0.0960 -0.3154 -0.3939
20433SOL    HW162587   5.780   8.213   4.452  2.2328 -0.6446 -0.1974
20433SOL    HW262588   5.868   8.285   4.551 -1.2760  0.6652  2.1777
20434SOL     OW62589   4.124   7.801   4.161 -0.1006  0.0455  0.5649
20434SOL    HW162590   4.198   7.744   4.185  2.1290  2.6593  0.3715
20434SOL    HW262591   4.047   7.753   4.191  1.6715 -2.5556  1.3849
20435SOL     OW62592   1.292   1.980   8.688  0.6421 -0.0655  0.3317
20435SOL    HW162593   1.242   1.984   8.606 -0.5404  0.1415  1.0329
20435SOL    HW262594   1.373   2.027   8.669  1.9836 -2.9556 -1.7418
20436SOL     OW62595   7.975   2.709   6.013 -0.2011 -0.3428  0.3585
20436SOL    HW162596   8.033   2.686   5.941  1.1535 -0.9200  1.5697
20436SOL    HW262597   7.933   2.790   5.985  2.2362  0.8967 -0.0592
20437SOL     OW62598   6.775   0.248   0.666  0.0587 -0.5756  0.2167
20437SOL    HW162599   6.841   0.296   0.715 -1.7134  0.3886  1.7970
20437SOL    HW262600   6.752   0.305   0.593 -0.6987  0.1885  1.0299
20438SOL     OW62601   5.595   2.811   5.403 -0.2789 -0.1212  0.7046
20438SOL    HW162602   5.666   2.874   5.393 -0.7694  0.0958 -2.4038
20438SOL    HW262603   5.593   2.792   5.496  2.4246  1.4933  1.2008
20439SOL     OW62604   3.118   1.124   7.248  0.1459  0.1650  0.0733
20439SOL    HW162605   3.027   1.095   7.257  0.8224 -2.2594 -0.2255
20439SOL    HW262606   3.115   1.191   7.179 -1.3307 -0.2375 -0.2878
20440SOL     OW62607   4.851   0.949   3.617 -0.2231 -0.6813 -0.2785
20440SOL    HW162608   4.813   0.901   3.543 -1.4523  0.5733 -0.4812
20440SOL    HW262609   4.780   1.004   3.650  1.1179  0.9995 -0.0534
20441SOL     OW62610   8.427   4.200   0.791 -0.0001  0.0369  0.6036
20441SOL    HW162611   8.470   4.247   0.719  1.1242  1.4590  2.1388
20441SOL    HW262612   8.335   4.193   0.763  0.4688  0.2013 -1.1239
20442SOL     OW62613   6.849   2.787   0.933 -0.3915  0.3266 -0.1052
20442SOL    HW162614   6.920   2.740   0.890  0.5577 -0.7179  2.4055
20442SOL    HW262615   6.778   2.723   0.938 -0.2592  0.2176  0.4413
20443SOL     OW62616   6.116   8.074   5.613 -0.1792 -0.0461 -0.2034
20443SOL    HW162617   6.056   8.141   5.580  1.6783  1.1128 -1.4512
20443SOL    HW262618   6.202   8.102   5.581  0.8259 -2.4590  0.2109
20444SOL     OW62619   7.050   1.168   0.880  0.2625 -1.0957 -0.1305
20444SOL    HW162620   6.998   1.183   0.801 -0.2479  1.0645  0.5475
20444SOL    HW262621   7.006   1.096   0.925 -1.0656 -0.5312 -0.4893
20445SOL     OW62622   3.047   2.255   3.525  0.3596  0.3553  0.2697
20445SOL    HW162623   3.141   2.259   3.546  0.0072  2.8499  1.8102
20445SOL    HW262624   3.004   2.270   3.610 -1.5237 -2.4200 -0.0847
20446SOL     OW62625   5.462   8.166   8.344 -0.4214 -0.4006  0.5091
20446SOL    HW162626   5.484   8.207   8.261 -0.9595  0.2356  0.6687
20446SOL    HW262627   5.460   8.072   8.325 -2.1351 -0.1844 -0.6014
20447SOL     OW62628   3.183   6.803   0.590 -0.3927  0.4872  0.7446
20447SOL    HW162629   3.248   6.841   0.532 -0.4015  1.5254  1.3938
20447SOL    HW262630   3.168   6.715   0.555 -0.6227  1.1847 -1.0068
20448SOL     OW62631   4.658   5.743   0.033  0.1523 -0.5243 -0.0340
20448SOL    HW162632   4.696   5.658   0.013 -0.1040 -0.8005  0.6185
20448SOL    HW262633   4.564   5.733   0.015  0.3740  0.1945 -1.7742
20449SOL     OW62634   1.890   8.277   0.462  0.5042 -0.5681 -0.1788
20449SOL    HW162635   1.819   8.227   0.503 -0.1077  0.1406 -0.3423
20449SOL    HW262636   1.888   8.251   0.370  0.4616 -0.5567 -0.1813
20450SOL     OW62637   0.242   1.293   7.351  0.3388  0.0472 -0.6638
20450SOL    HW162638   0.305   1.344   7.401  0.3659  1.0588 -1.6739
20450SOL    HW262639   0.220   1.219   7.407 -0.4820  1.7109  1.3262
20451SOL     OW62640   1.306   0.439   5.986 -0.0502  0.4349 -0.2362
20451SOL    HW162641   1.289   0.432   6.080  0.1020  0.8061 -0.1803
20451SOL    HW262642   1.220   0.441   5.945 -0.1483  1.7882  0.0074
20452SOL     OW62643   1.112   8.439   1.749 -0.2647 -0.4187  0.6850
20452SOL    HW162644   1.098   8.531   1.728  0.0646 -0.9998 -2.6323
20452SOL    HW262645   1.207   8.428   1.750 -0.2635 -0.4697  2.5865
20453SOL     OW62646   2.941   6.489   5.959  0.1702  0.6357 -0.1724
20453SOL    HW162647   2.958   6.573   6.003  3.1934  0.2745 -0.4187
20453SOL    HW262648   3.005   6.429   5.997 -1.6554 -1.5163 -0.2816
20454SOL     OW62649   7.808   5.811   7.088 -0.2640 -0.1923  0.1320
20454SOL    HW162650   7.796   5.902   7.059  0.7736  0.6466  2.0902
20454SOL    HW262651   7.728   5.791   7.137 -0.0132  0.1078  0.6788
20455SOL     OW62652   0.019   2.216   3.621  0.0457  0.4558 -0.2587
20455SOL    HW162653  -0.056   2.264   3.588 -0.6961 -0.9425 -0.6656
20455SOL    HW262654   0.004   2.211   3.716  0.2296  1.1499 -0.1819
20456SOL     OW62655   2.116   6.603   5.582 -0.7258 -0.1666 -0.3566
20456SOL    HW162656   2.128   6.520   5.628 -1.9420 -0.8102 -1.1522
20456SOL    HW262657   2.022   6.609   5.567 -0.6760  1.4046 -0.2543
20457SOL     OW62658   3.522   2.837   8.281  0.3107 -0.0613  0.1544
20457SOL    HW162659   3.449   2.843   8.220  0.2188  0.3152  0.2951
20457SOL    HW262660   3.547   2.745   8.281 -0.5227 -0.2931  0.5131
20458SOL     OW62661   3.848   5.591   0.045 -0.0001  0.0682 -0.1599
20458SOL    HW162662   3.792   5.650  -0.006 -1.0712 -0.2862  0.5616
20458SOL    HW262663   3.859   5.637   0.129 -2.8135 -1.6790  1.3349
20459SOL     OW62664   6.729   4.587   3.190 -0.6095  0.1162 -0.3362
20459SOL    HW162665   6.690   4.526   3.127 -0.0124  1.1175 -1.7209
20459SOL    HW262666   6.815   4.608   3.153  0.7672 -0.9738  1.9435
20460SOL     OW62667   4.062   4.719   3.621 -0.2985  0.4316 -0.0710
20460SOL    HW162668   4.074   4.677   3.707  0.1000  1.6871  0.5203
20460SOL    HW262669   4.144   4.702   3.574  0.1150  1.0356  0.4028
20461SOL     OW62670   3.032   4.594   5.290  0.1316  0.1032 -0.0664
20461SOL    HW162671   2.996   4.648   5.360  1.1082 -1.1550  1.4780
20461SOL    HW262672   3.103   4.648   5.253  0.3275  0.3543  0.6601
20462SOL     OW62673   0.953   5.840   3.774 -0.5362  0.1805 -0.4145
20462SOL    HW162674   1.000   5.856   3.856  1.0559 -1.9960 -0.8112
20462SOL    HW262675   0.871   5.798   3.801  0.7032 -2.0834  0.0919
20463SOL     OW62676   6.644   8.210   0.805 -0.0448 -0.0103  0.2983
20463SOL    HW162677   6.560   8.255   0.795  0.1226  0.1027 -0.6604
20463SOL    HW262678   6.627   8.143   0.871 -0.9485 -0.1267 -0.0352
20464SOL     OW62679   8.136   1.600   8.636  0.0517  0.2113  0.2805
20464SOL    HW162680   8.228   1.621   8.618  0.0523  0.7000  0.7992
20464SOL    HW262681   8.093   1.686   8.644 -0.3577 -0.0061  0.4696
20465SOL     OW62682   0.787   7.563   3.419 -0.0143 -0.1040  0.4439
20465SOL    HW162683   0.868   7.614   3.409  0.7833 -1.4949 -0.6494
20465SOL    HW262684   0.755   7.552   3.330 -1.2072  0.0857  0.8398
20466SOL     OW62685   6.291   1.643   5.674 -0.4108  0.3779  0.5717
20466SOL    HW162686   6.315   1.637   5.581 -0.0415  0.5476  0.6524
20466SOL    HW262687   6.259   1.556   5.696 -0.9026  0.4540  0.1770
20467SOL     OW62688   1.377   7.441   1.642 -0.2178  0.4357 -0.1915
20467SOL    HW162689   1.316   7.422   1.570 -0.7724 -1.3616  0.6987
20467SOL    HW262690   1.455   7.389   1.622  0.3232  1.2900 -0.3626
20468SOL     OW62691   8.334   4.213   5.914 -0.6526  0.5133 -0.0313
20468SOL    HW162692   8.326   4.169   5.829 -0.6511  0.6801 -0.1181
20468SOL    HW262693   8.342   4.305   5.892 -2.4164  0.7669  0.2035
20469SOL     OW62694   1.656   7.056   7.277 -0.1885 -0.1369 -0.3102
20469SOL    HW162695   1.728   6.998   7.254 -0.5011 -0.8031  0.3339
20469SOL    HW262696   1.687   7.104   7.355  0.2620  0.9519 -1.1292
20470SOL     OW62697   1.916   2.929   0.378 -0.3710 -0.6352 -0.9461
20470SOL    HW162698   1.880   2.840   0.375  1.3868 -1.3589 -2.3724
20470SOL    HW262699   2.010   2.917   0.368 -0.0392  1.3767 -0.5704
20471SOL     OW62700   0.353   8.571   2.776 -0.3862 -0.1355 -0.0472
20471SOL    HW162701   0.318   8.630   2.843 -3.2410 -0.0703 -1.4411
20471SOL    HW262702   0.442   8.602   2.762 -0.4644  1.2742  2.0991
20472SOL     OW62703   1.555   4.305   7.063 -0.1455 -0.4072 -0.1315
20472SOL    HW162704   1.485   4.335   7.121 -0.6032 -1.0387 -0.3466
20472SOL    HW262705   1.634   4.314   7.115 -0.5331 -0.8220  0.5433
20473SOL     OW62706   5.391   8.035   3.696  0.1938  0.0956  0.4557
20473SOL    HW162707   5.472   7.985   3.686  0.2926  0.3309  0.0314
20473SOL    HW262708   5.355   8.008   3.780  0.4541 -0.3865  0.4121
20474SOL     OW62709   8.140   3.402   2.829 -0.0326 -0.1421 -0.1996
20474SOL    HW162710   8.224   3.386   2.787 -0.2793  0.4073 -0.9254
20474SOL    HW262711   8.092   3.319   2.818 -0.1871  0.0756 -1.2443
20475SOL     OW62712   5.592   0.992   0.345 -0.6826  0.1310  0.2812
20475SOL    HW162713   5.509   0.966   0.385 -0.4878  0.3820  0.8733
20475SOL    HW262714   5.568   1.031   0.261 -1.0301 -1.2922 -0.3021
20476SOL     OW62715   1.410   2.615   5.171 -0.4310  0.4269 -0.9262
20476SOL    HW162716   1.345   2.661   5.224  0.3218  1.8472 -1.2049
20476SOL    HW262717   1.364   2.537   5.140 -1.9536  1.3159 -0.9973
20477SOL     OW62718   0.708   3.145   6.381 -0.0695 -0.3272  0.0080
20477SOL    HW162719   0.714   3.201   6.304  0.0828 -0.0679  0.2062
20477SOL    HW262720   0.780   3.083   6.372 -1.3962 -1.7858 -1.2182
20478SOL     OW62721   7.242   0.385   7.249  0.8238 -0.0998 -0.2097
20478SOL    HW162722   7.334   0.385   7.223  0.6105  0.9836 -1.0515
20478SOL    HW262723   7.210   0.472   7.223 -0.6881 -0.8262 -0.8878
20479SOL     OW62724   0.907   4.103   6.482  0.6648 -0.6261  0.2862
20479SOL    HW162725   0.873   4.097   6.572  0.1569 -1.9174  0.0374
20479SOL    HW262726   0.998   4.129   6.493  0.1609  0.9515  1.0779
20480SOL     OW62727   4.993   0.097   4.596  0.0915 -0.1211  0.3913
20480SOL    HW162728   5.065   0.151   4.628  0.6776 -0.9486  0.5229
20480SOL    HW262729   4.926   0.103   4.664  0.4318 -0.0957  0.7290
20481SOL     OW62730   7.391   3.508   1.884 -0.4231  0.0894 -0.0490
20481SOL    HW162731   7.482   3.481   1.873  0.3250  1.5350  1.9770
20481SOL    HW262732   7.342   3.426   1.887  0.9300 -0.7538 -0.1788
20482SOL     OW62733   5.752   0.706   7.295  0.0846  0.5735 -0.4908
20482SOL    HW162734   5.826   0.691   7.354  0.0825 -1.9785 -1.0475
20482SOL    HW262735   5.695   0.630   7.307 -2.1495  2.1035 -0.6140
20483SOL     OW62736   3.918   2.145   1.883  0.3207 -0.1066  0.6331
20483SOL    HW162737   3.870   2.083   1.937  1.5835 -0.1814  1.7421
20483SOL    HW262738   3.891   2.232   1.914 -1.7308 -0.0256 -1.1735
20484SOL     OW62739   5.075   0.786   1.008 -0.1618  0.5879 -0.2674
20484SOL    HW162740   5.017   0.774   0.933 -0.0024 -0.7370 -0.2024
20484SOL    HW262741   5.023   0.759   1.083  1.1754 -3.0038 -0.4328
20485SOL     OW62742   7.574   1.571   7.456  0.1148  0.3847  0.1861
20485SOL    HW162743   7.619   1.627   7.518 -1.2606 -0.1544  1.7432
20485SOL    HW262744   7.602   1.482   7.478 -0.8782  0.1335  0.4851
20486SOL     OW62745   0.972   7.649   1.468 -0.3649 -0.5941 -0.3810
20486SOL    HW162746   1.014   7.695   1.540  0.7147 -1.1225 -0.6437
20486SOL    HW262747   1.030   7.665   1.393 -0.8785 -0.9700 -0.8656
20487SOL     OW62748   1.456   6.713   0.025  0.1004 -0.3863 -0.2858
20487SOL    HW162749   1.514   6.654  -0.023 -1.2805 -0.0009 -2.5927
20487SOL    HW262750   1.500   6.798   0.022  1.2607 -0.8738  1.5170
20488SOL     OW62751   4.519   6.305   1.146 -0.4804  0.3751  0.0765
20488SOL    HW162752   4.612   6.314   1.163 -0.3608  0.1527 -0.4217
20488SOL    HW262753   4.487   6.247   1.215  0.0412 -0.7428 -0.5841
20489SOL     OW62754   5.002   6.906   6.913  0.1874 -0.1018 -0.5876
20489SOL    HW162755   4.922   6.862   6.885  1.1708 -0.8722 -2.3894
20489SOL    HW262756   5.072   6.860   6.866  1.8829 -0.4534  2.0133
20490SOL     OW62757   2.309   1.327   4.806  0.0367  0.6614 -0.1303
20490SOL    HW162758   2.400   1.345   4.827 -0.0653  2.1206 -0.7781
20490SOL    HW262759   2.298   1.234   4.823  0.8955  0.9817  2.6294
20491SOL     OW62760   2.222   8.185   0.511 -0.3471  0.4504  0.0227
20491SOL    HW162761   2.289   8.247   0.480  0.1559  0.5101  1.1709
20491SOL    HW262762   2.243   8.103   0.466  2.2369 -0.3151  2.3245
20492SOL     OW62763   7.800   6.728   1.149 -0.3050  0.7562 -0.1040
20492SOL    HW162764   7.875   6.719   1.090  0.4577  2.0114  0.6205
20492SOL    HW262765   7.763   6.814   1.128 -1.5261  0.1826 -0.4022
20493SOL     OW62766   5.770   1.134   8.179  0.2182 -0.3688  1.0243
20493SOL    HW162767   5.698   1.173   8.229 -1.0900  0.8862 -1.6682
20493SOL    HW262768   5.780   1.191   8.103  1.5201 -2.6398 -0.6085
20494SOL     OW62769   0.584   6.668   4.448 -0.3848 -0.1311  0.4333
20494SOL    HW162770   0.652   6.728   4.478  1.3243 -1.1013 -1.2950
20494SOL    HW262771   0.518   6.725   4.408  2.3531  0.6761 -3.4485
20495SOL     OW62772   5.868   5.299   1.067  0.5683 -0.0218 -0.5089
20495SOL    HW162773   5.951   5.315   1.112 -0.5810  0.9669  1.3512
20495SOL    HW262774   5.860   5.372   1.006 -0.7964  2.2886  2.2204
20496SOL     OW62775   7.065   4.447   6.793  0.4023 -0.0404  1.1914
20496SOL    HW162776   7.067   4.406   6.706  0.7389  2.8875 -0.3082
20496SOL    HW262777   7.157   4.455   6.818  0.4410  1.1041  0.7489
20497SOL     OW62778   8.409   2.836   1.917 -0.1212 -0.6195  0.1184
20497SOL    HW162779   8.421   2.849   2.011 -1.4552 -3.3375  0.7486
20497SOL    HW262780   8.436   2.920   1.878  0.1875  0.6933  2.8998
20498SOL     OW62781   2.438   1.638   4.273 -0.2278 -0.1092 -0.0309
20498SOL    HW162782   2.448   1.711   4.334  2.8636 -1.6028  1.4822
20498SOL    HW262783   2.371   1.583   4.313 -1.7723  1.2614 -0.6139
20499SOL     OW62784   5.136   5.218   3.382  0.0828  0.0111  0.2150
20499SOL    HW162785   5.090   5.144   3.344 -0.5274  0.9178 -0.8685
20499SOL    HW262786   5.068   5.284   3.396  0.4626  0.0735  1.9702
20500SOL     OW62787   8.415   2.919   4.398  0.0681 -0.3665  0.1710
20500SOL    HW162788   8.504   2.882   4.401 -0.5856 -2.6676 -3.2455
20500SOL    HW262789   8.429   3.012   4.382  1.7873 -0.2311  1.9856
20501SOL     OW62790   0.585   5.303   8.349  0.1739 -0.2423  0.4873
20501SOL    HW162791   0.571   5.287   8.442 -0.5635 -0.1058  0.4048
20501SOL    HW262792   0.630   5.225   8.317 -1.2129 -1.1107  0.5818
20502SOL     OW62793   3.630   4.291   8.058  0.2021 -0.2482  0.0428
20502SOL    HW162794   3.586   4.368   8.022 -1.1054 -0.0628  1.8538
20502SOL    HW262795   3.718   4.293   8.021 -0.2060  1.4040 -0.9346
20503SOL     OW62796   2.873   6.816   8.466  0.3611  0.3767 -0.2410
20503SOL    HW162797   2.968   6.828   8.466  0.2760  1.0699 -0.5398
20503SOL    HW262798   2.839   6.893   8.511 -0.0075 -0.3421  0.7263
20504SOL     OW62799   1.083   0.351   7.394  0.3402 -0.1531  0.8106
20504SOL    HW162800   0.994   0.387   7.395  0.4301  0.6261 -2.9602
20504SOL    HW262801   1.140   0.428   7.387  1.0228 -0.7195 -0.1557
20505SOL     OW62802   3.074   3.692   0.656  0.1081 -0.6445 -0.0056
20505SOL    HW162803   3.124   3.679   0.737  1.0356 -0.3288 -0.5144
20505SOL    HW262804   3.058   3.603   0.624 -1.7724 -0.8601  1.3957
20506SOL     OW62805   2.402   0.852   5.751 -0.2060 -0.2161  0.6020
20506SOL    HW162806   2.484   0.815   5.785  0.3603  1.3253  0.9910
20506SOL    HW262807   2.428   0.901   5.674 -1.2289 -2.1162 -1.0419
20507SOL     OW62808   4.007   2.743   0.419 -0.3476  0.3147  0.2326
20507SOL    HW162809   3.973   2.785   0.340  1.5165  0.6930 -0.4193
20507SOL    HW262810   4.019   2.815   0.481 -1.7864  0.0208  0.8869
20508SOL     OW62811   7.663   4.093   8.227 -0.0400  0.1030 -0.4800
20508SOL    HW162812   7.582   4.119   8.184 -0.3329 -1.1292 -0.7174
20508SOL    HW262813   7.674   4.156   8.298 -2.1037 -0.6582  0.5960
20509SOL     OW62814   6.741   7.365   1.273 -0.2107  0.2145 -0.2378
20509SOL    HW162815   6.704   7.283   1.305  0.5713  0.9216  2.7736
20509SOL    HW262816   6.693   7.433   1.320 -1.4660  1.6556 -3.2992
20510SOL     OW62817   0.691   5.049   5.688  0.1712 -0.1104  1.0686
20510SOL    HW162818   0.764   5.007   5.733  0.5854  1.7134  2.2230
20510SOL    HW262819   0.613   5.004   5.722  0.6817 -1.4245  0.5492
20511SOL     OW62820   8.076   1.154   2.283  0.1075 -0.3402 -0.6834
20511SOL    HW162821   8.154   1.102   2.305  0.2105 -0.0585 -0.3792
20511SOL    HW262822   8.003   1.103   2.319  0.2860  0.1858  0.4492
20512SOL     OW62823   6.031   7.660   0.023  0.5389  0.4133 -0.5556
20512SOL    HW162824   6.002   7.578  -0.017  1.0844  0.3073 -0.7353
20512SOL    HW262825   6.118   7.641   0.057 -0.4795  0.0573  2.0314
20513SOL     OW62826   7.580   3.354   0.675  0.0439  0.1473 -0.4462
20513SOL    HW162827   7.567   3.385   0.586  1.6891 -0.4413 -0.9210
20513SOL    HW262828   7.493   3.328   0.705 -0.5500  0.5178 -1.8157
20514SOL     OW62829   6.722   0.585   1.214 -0.0351 -0.2902 -0.3062
20514SOL    HW162830   6.749   0.556   1.126 -0.1825 -0.0788 -0.4227
20514SOL    HW262831   6.787   0.546   1.273  1.2338  1.1407 -0.6834
20515SOL     OW62832   3.821   7.499   1.219  0.5063 -0.7553  0.2200
20515SOL    HW162833   3.892   7.530   1.276 -0.2308  2.7528 -0.5726
20515SOL    HW262834   3.866   7.448   1.151  2.4271  1.8350 -0.5808
20516SOL     OW62835   5.286   4.162   1.072 -0.4109 -0.3552  0.2169
20516SOL    HW162836   5.234   4.166   0.992  0.0876 -0.3971 -0.1159
20516SOL    HW262837   5.245   4.225   1.131 -0.1348  0.4622 -0.4565
20517SOL     OW62838   1.378   4.146   6.227  0.2388 -0.3550 -0.2892
20517SOL    HW162839   1.465   4.118   6.197 -0.1324 -0.0337 -1.7251
20517SOL    HW262840   1.396   4.216   6.290  1.0160  1.2618 -2.2020
20518SOL     OW62841   3.252   0.445   5.445  0.0277 -0.3377  0.2269
20518SOL    HW162842   3.289   0.484   5.365 -0.2773 -0.8567 -0.1722
20518SOL    HW262843   3.326   0.439   5.505 -0.1467  1.9925  0.7565
20519SOL     OW62844   5.249   6.952   3.811  0.0163  0.4823  0.3372
20519SOL    HW162845   5.249   6.860   3.784  0.7031  0.2783  1.0108
20519SOL    HW262846   5.319   6.992   3.759 -0.6541  0.7601 -0.3709
20520SOL     OW62847   4.857   8.247   5.516 -0.3378 -0.8388 -0.5865
20520SOL    HW162848   4.774   8.206   5.491  0.5810 -2.5243 -1.0503
20520SOL    HW262849   4.846   8.269   5.608 -1.3522 -0.9184 -0.6826
20521SOL     OW62850   4.183   8.663   3.326 -0.0363  0.1722  0.6706
20521SOL    HW162851   4.113   8.717   3.289  0.1431 -0.4264 -0.6043
20521SOL    HW262852   4.258   8.680   3.270  0.0682 -1.2644  0.3490
20522SOL     OW62853   3.521   5.182   7.295  0.5281  0.3033 -0.0147
20522SOL    HW162854   3.530   5.103   7.349  0.5683  0.6645  0.5127
20522SOL    HW262855   3.603   5.185   7.245  1.6052  1.2852  1.7009
20523SOL     OW62856   3.059   7.833   0.050  0.4481 -0.1825 -0.3387
20523SOL    HW162857   3.030   7.815  -0.040 -0.9996  0.1803  0.0282
20523SOL    HW262858   3.007   7.909   0.076 -1.0461 -1.7672  1.6513
20524SOL     OW62859   1.088   7.853   5.987  0.4284  0.4059 -0.0211
20524SOL    HW162860   1.173   7.869   5.946  0.9324  0.7518  1.1182
20524SOL    HW262861   1.035   7.929   5.963 -0.4189 -0.9294 -2.7845
20525SOL     OW62862   3.961   5.194   5.383  0.8460 -0.5501 -0.0169
20525SOL    HW162863   4.036   5.244   5.417  0.3596  0.3126 -0.1807
20525SOL    HW262864   3.925   5.250   5.314 -0.3528 -0.6473  0.5141
20526SOL     OW62865   2.939   4.822   1.237 -0.3682 -0.1834  0.3124
20526SOL    HW162866   2.882   4.786   1.169  0.1085 -1.5519  0.6066
20526SOL    HW262867   3.024   4.781   1.221  0.3894  1.3553  0.2595
20527SOL     OW62868   7.794   6.271   1.288  0.4785  0.2909  0.1886
20527SOL    HW162869   7.701   6.255   1.298  0.3773  0.1216 -0.8746
20527SOL    HW262870   7.836   6.208   1.347 -0.0557 -0.3673 -0.1134
20528SOL     OW62871   6.011   6.424   2.312  0.0211  0.7148 -0.1990
20528SOL    HW162872   6.082   6.460   2.259  1.4318 -1.3581  0.1267
20528SOL    HW262873   6.020   6.466   2.397  0.9846  0.3590 -0.1141
20529SOL     OW62874   2.609   8.655   3.761 -0.2390 -0.2290  0.2619
20529SOL    HW162875   2.544   8.724   3.746  1.2006  1.1305 -0.0558
20529SOL    HW262876   2.584   8.615   3.844 -2.1660 -0.5951 -0.4546
20530SOL     OW62877   2.949   3.859   8.201  1.2119  0.3175  0.0395
20530SOL    HW162878   2.863   3.896   8.185  0.3426 -0.2750  2.7409
20530SOL    HW262879   2.953   3.780   8.147 -0.0091  0.2688  0.0023
20531SOL     OW62880   2.739   6.568   5.321 -0.3073 -0.5448  0.1684
20531SOL    HW162881   2.660   6.618   5.340  0.3014  0.5940 -0.2300
20531SOL    HW262882   2.708   6.490   5.276 -1.3437 -0.9488  1.5107
20532SOL     OW62883   3.109   6.637   1.301  0.2978  0.3455 -0.2866
20532SOL    HW162884   3.014   6.638   1.291  0.0830 -1.4421  1.0690
20532SOL    HW262885   3.142   6.601   1.219 -0.4642 -1.9793  0.3470
20533SOL     OW62886   1.400   6.439   7.151 -0.4750 -0.1671  0.4154
20533SOL    HW162887   1.398   6.430   7.056  2.0458 -1.4144  0.3989
20533SOL    HW262888   1.450   6.518   7.167  0.6240 -0.8981  0.6815
20534SOL     OW62889   6.748   7.859   3.645 -0.3599 -0.5162 -0.2448
20534SOL    HW162890   6.822   7.870   3.704  0.3681 -0.1620 -1.2000
20534SOL    HW262891   6.787   7.851   3.558 -1.4031 -1.1040 -0.6841
20535SOL     OW62892   3.082   6.851   6.670 -0.4578  0.2639 -0.0296
20535SOL    HW162893   3.007   6.804   6.707 -0.7335 -0.1995 -1.1254
20535SOL    HW262894   3.044   6.931   6.633 -0.7555 -0.7974 -2.1769
20536SOL     OW62895   5.708   3.900   7.067  0.2685 -0.0562  0.2171
20536SOL    HW162896   5.732   3.948   6.988 -0.2816  1.1941  0.7844
20536SOL    HW262897   5.751   3.947   7.139  0.7551 -1.1654  0.6863
20537SOL     OW62898   6.459   5.089   5.254  0.0125  0.0354  0.1976
20537SOL    HW162899   6.414   5.032   5.316 -0.3236 -0.9282 -0.9040
20537SOL    HW262900   6.549   5.057   5.250 -0.1037 -0.2468 -0.2093
20538SOL     OW62901   2.103   7.115   3.618  0.1502 -0.1995  0.0278
20538SOL    HW162902   2.067   7.111   3.529  0.1595 -0.1124  0.0204
20538SOL    HW262903   2.194   7.142   3.607 -0.5028  2.3122  0.2160
20539SOL     OW62904   6.171   8.616   6.214 -1.0088  0.0439  0.0018
20539SOL    HW162905   6.113   8.692   6.214 -0.1445  0.7407  0.8326
20539SOL    HW262906   6.254   8.649   6.250 -0.0286 -0.8602 -1.3043
20540SOL     OW62907   0.696   2.798   3.693  0.1379 -0.3365 -0.0111
20540SOL    HW162908   0.735   2.792   3.780  0.2615  0.3476 -0.0139
20540SOL    HW262909   0.630   2.867   3.701  0.8443  0.4549 -0.7035
20541SOL     OW62910   4.797   1.024   1.742 -0.0461 -0.3191 -0.1184
20541SOL    HW162911   4.794   1.048   1.649 -0.1041 -1.1031 -0.3242
20541SOL    HW262912   4.803   0.929   1.742 -0.5043 -0.3558  0.6881
20542SOL     OW62913   3.007   4.535   8.028 -0.7171 -0.0621  0.5009
20542SOL    HW162914   3.054   4.471   7.975 -1.0375 -0.9101  1.2331
20542SOL    HW262915   3.059   4.542   8.108 -0.0479  1.4695 -0.0220
20543SOL     OW62916   8.698   2.594   5.920 -0.2280 -0.2619  0.1999
20543SOL    HW162917   8.623   2.630   5.968  0.1930  0.2483  0.4840
20543SOL    HW262918   8.700   2.644   5.838  0.7453  0.8435  0.8685
20544SOL     OW62919   7.760   0.298   1.767 -0.2430  0.1804 -0.0644
20544SOL    HW162920   7.809   0.219   1.790 -0.6581  0.3369  1.4504
20544SOL    HW262921   7.729   0.282   1.678  1.2966 -0.5415 -0.5072
20545SOL     OW62922   7.985   0.405   5.355 -0.9326  0.3991 -0.5508
20545SOL    HW162923   7.897   0.393   5.318 -1.0718 -1.6267  0.2924
20545SOL    HW262924   7.976   0.475   5.419 -1.9387  0.2140 -0.4830
20546SOL     OW62925   1.096   5.132   4.739  0.4079  0.2944 -0.2774
20546SOL    HW162926   1.117   5.094   4.654 -0.0879  0.4036 -0.4558
20546SOL    HW262927   1.035   5.069   4.778  0.2936  0.4587 -0.1905
20547SOL     OW62928   3.227   0.511   6.573  0.1335 -0.2068  0.5844
20547SOL    HW162929   3.283   0.435   6.585 -0.6477 -0.8347  0.3194
20547SOL    HW262930   3.218   0.520   6.478 -0.1615 -0.0782  0.6221
20548SOL     OW62931   6.530   5.748   8.090  0.5753  0.0222  0.1408
20548SOL    HW162932   6.515   5.780   8.179 -1.2356 -1.8107  0.5622
20548SOL    HW262933   6.470   5.799   8.036 -0.2327 -0.6577  0.3824
20549SOL     OW62934   0.631   3.993   8.608 -0.1490  0.7139  0.0845
20549SOL    HW162935   0.667   4.053   8.673 -0.3952 -1.6792  2.6080
20549SOL    HW262936   0.551   3.959   8.648 -0.2011 -1.0467 -1.3611
20550SOL     OW62937   4.490   6.418   0.522  0.8484 -0.1379  0.5927
20550SOL    HW162938   4.486   6.331   0.482  1.6512 -0.9356  2.1540
20550SOL    HW262939   4.502   6.478   0.448  2.8831 -1.5884 -0.3566
20551SOL     OW62940   7.209   7.049   3.905 -0.4735  0.5604 -0.2759
20551SOL    HW162941   7.201   7.016   3.816 -2.3331  0.3631 -0.0758
20551SOL    HW262942   7.283   7.109   3.902 -0.8711  1.0107 -2.0939
20552SOL     OW62943   6.617   0.960   4.543 -0.5490 -0.5692 -0.4118
20552SOL    HW162944   6.638   0.879   4.497 -2.3929 -1.2851 -0.0645
20552SOL    HW262945   6.700   0.987   4.583  0.3869 -1.5545 -1.6156
20553SOL     OW62946   3.973   8.431   7.968 -0.4986 -0.0040 -0.1231
20553SOL    HW162947   3.897   8.396   7.922 -1.0852  0.4974  0.4499
20553SOL    HW262948   4.042   8.367   7.953 -0.9507 -0.3209 -0.8947
20554SOL     OW62949   0.421   0.997   6.827 -0.5022  0.2227 -0.2953
20554SOL    HW162950   0.415   1.069   6.764 -0.4886  0.1798 -0.3458
20554SOL    HW262951   0.434   0.919   6.773 -0.6175  0.1695 -0.2456
20555SOL     OW62952   1.897   3.726   4.176  0.2083 -0.0465 -0.3527
20555SOL    HW162953   1.818   3.726   4.123 -0.1870  0.0677  0.2224
20555SOL    HW262954   1.904   3.636   4.208  1.1902 -0.4667 -1.6614
20556SOL     OW62955   4.917   7.016   7.148  0.0082 -0.3529 -0.0904
20556SOL    HW162956   4.900   7.108   7.127  0.0529  0.3922  2.7084
20556SOL    HW262957   4.919   6.972   7.063 -2.5222  1.7743 -1.4102
20557SOL     OW62958   6.009   7.425   3.636 -0.1702 -0.5572  0.4691
20557SOL    HW162959   6.093   7.459   3.606  0.4482 -1.9832  0.4954
20557SOL    HW262960   5.969   7.497   3.684  0.2300  0.7277 -1.0528
20558SOL     OW62961   7.845   8.116   2.888  0.3463  0.0713  0.0651
20558SOL    HW162962   7.813   8.172   2.818  2.5077 -0.2245 -1.2295
20558SOL    HW262963   7.934   8.146   2.904  0.2371 -0.5110  2.0376
20559SOL     OW62964   5.047   1.758   7.022  0.2477 -0.1342  0.2635
20559SOL    HW162965   5.089   1.824   7.077  0.2754 -0.2143  0.3381
20559SOL    HW262966   5.058   1.790   6.932 -0.6475  0.4948  0.3614
20560SOL     OW62967   6.595   3.683   1.769  0.1663 -0.1661 -0.0429
20560SOL    HW162968   6.555   3.770   1.778 -0.8018 -0.4718 -1.0881
20560SOL    HW262969   6.642   3.687   1.686  0.7450 -0.4223  0.2640
20561SOL     OW62970   0.256   8.644   3.268  0.2521 -0.3846  0.2318
20561SOL    HW162971   0.255   8.736   3.294  1.1779 -0.2377 -0.2035
20561SOL    HW262972   0.164   8.618   3.267  0.0316  0.3404  1.0288
20562SOL     OW62973   8.055   5.316   6.545 -0.4422 -0.4619  0.6297
20562SOL    HW162974   8.010   5.248   6.595  0.2489  0.7967  3.0924
20562SOL    HW262975   8.129   5.342   6.600  0.6840  0.6832 -1.2944
20563SOL     OW62976   6.684   8.393   2.962  0.0192 -0.2917  0.1331
20563SOL    HW162977   6.680   8.488   2.951 -1.3061 -0.4292 -0.7957
20563SOL    HW262978   6.717   8.362   2.877  1.1080 -0.6333  0.6646
20564SOL     OW62979   6.086   2.930   0.705 -0.4453 -0.2000  0.1498
20564SOL    HW162980   6.066   2.935   0.612  0.2463 -0.5750 -0.0196
20564SOL    HW262981   6.142   2.853   0.715 -0.1274  0.1005  0.8022
20565SOL     OW62982   4.364   0.549   0.200  0.7358  0.0565 -0.0799
20565SOL    HW162983   4.334   0.459   0.209  0.1248  0.4374  2.2413
20565SOL    HW262984   4.286   0.597   0.169  0.3418  0.1626  1.0153
20566SOL     OW62985   6.862   0.617   7.046 -0.0496  0.4363  0.0329
20566SOL    HW162986   6.934   0.562   7.015 -0.6142 -0.2211 -0.1391
20566SOL    HW262987   6.791   0.600   6.984 -0.2713  1.2731  0.0506
20567SOL     OW62988   5.700   4.909   6.226 -0.2116  0.6302  0.1661
20567SOL    HW162989   5.764   4.929   6.295  0.6081 -0.9840 -0.0771
20567SOL    HW262990   5.752   4.868   6.157 -1.1785  1.3486 -1.0299
20568SOL     OW62991   5.554   5.515   3.983  0.2220  0.2247  0.4834
20568SOL    HW162992   5.527   5.423   3.983 -0.2090  0.3303  1.5430
20568SOL    HW262993   5.526   5.548   3.898 -0.0650 -0.5061  0.2850
20569SOL     OW62994   6.674   2.534   3.871  0.0380  0.0868 -0.2534
20569SOL    HW162995   6.763   2.566   3.860  0.5641 -0.5517  1.7571
20569SOL    HW262996   6.682   2.439   3.864  0.0013 -0.1798  2.4204
20570SOL     OW62997   7.278   0.299   7.574 -0.6933  0.3680  0.6817
20570SOL    HW162998   7.283   0.325   7.482  0.5614 -2.0359 -0.0170
20570SOL    HW262999   7.184   0.288   7.591 -0.8522 -1.0072 -0.9067
20571SOL     OW63000   7.890   3.206   1.330  0.7000 -0.6161  0.0120
20571SOL    HW163001   7.969   3.204   1.276  0.7514 -0.2914  0.0724
20571SOL    HW263002   7.888   3.295   1.365 -0.0143 -0.4328 -0.4712
20572SOL     OW63003   4.724   4.387   0.670 -0.0228 -0.0874 -0.3431
20572SOL    HW163004   4.655   4.337   0.627 -0.5442  0.2136  0.1314
20572SOL    HW263005   4.685   4.473   0.685  0.7363  0.3528 -0.8236
20573SOL     OW63006   0.563   3.272   1.257  0.1768 -0.5061 -0.0334
20573SOL    HW163007   0.537   3.307   1.172  0.9527 -2.0746 -0.9543
20573SOL    HW263008   0.637   3.327   1.283 -0.9178  0.8720  0.3332
20574SOL     OW63009   6.989   8.337   5.542  0.0503 -0.8695 -0.2213
20574SOL    HW163010   6.970   8.256   5.588  1.8542 -1.1352  0.1050
20574SOL    HW263011   6.904   8.365   5.507 -1.2330 -1.0882  2.5057
20575SOL     OW63012   2.670   0.956   8.268  0.2842 -0.4919 -0.5122
20575SOL    HW163013   2.688   0.987   8.179 -0.0778 -0.1323 -0.4631
20575SOL    HW263014   2.655   0.862   8.257  0.0631 -0.4201 -0.8579
20576SOL     OW63015   5.404   3.868   0.525 -0.0636 -0.7699 -0.4482
20576SOL    HW163016   5.459   3.828   0.457  0.0286  0.1530 -0.9454
20576SOL    HW263017   5.315   3.846   0.500 -0.0742  0.1296 -1.2772
20577SOL     OW63018   5.858   1.529   5.428  0.2072 -0.1851  0.3796
20577SOL    HW163019   5.927   1.463   5.418  0.1541 -0.6425  2.5454
20577SOL    HW263020   5.891   1.606   5.380  0.3372 -1.6493 -2.0682
20578SOL     OW63021   7.954   7.899   2.295 -0.0509  0.4622 -0.0713
20578SOL    HW163022   7.931   7.967   2.232  1.1534  0.9610 -0.0070
20578SOL    HW263023   8.009   7.838   2.245 -0.7348 -0.2145 -0.0099
20579SOL     OW63024   4.765   4.334   0.054  0.2253  0.0798  0.3422
20579SOL    HW163025   4.745   4.277  -0.020 -0.2786  1.1385 -0.3609
20579SOL    HW263026   4.706   4.305   0.123  1.9742 -2.1648  1.0313
20580SOL     OW63027   4.302   7.088   5.280 -0.1293 -0.3718  0.6371
20580SOL    HW163028   4.264   7.047   5.358 -0.5162 -0.6870  0.2933
20580SOL    HW263029   4.370   7.027   5.251  0.3904  0.0109  1.0378
20581SOL     OW63030   6.323   2.142   7.635  0.1406  0.2282 -0.5023
20581SOL    HW163031   6.310   2.091   7.716 -0.2826  0.7816 -0.2189
20581SOL    HW263032   6.416   2.165   7.637  0.0491  0.5589  0.0165
20582SOL     OW63033   7.978   4.404   5.265 -0.4034 -0.1576 -0.3036
20582SOL    HW163034   7.942   4.448   5.188  0.7243  2.9328  0.7786
20582SOL    HW263035   7.923   4.435   5.338  0.5096 -0.4287  0.5154
20583SOL     OW63036   2.137   4.621   4.194 -0.0028 -0.3533 -0.0464
20583SOL    HW163037   2.092   4.657   4.271 -1.8881 -0.4437 -1.0458
20583SOL    HW263038   2.192   4.551   4.229 -1.5532 -1.0455  1.1423
20584SOL     OW63039   0.541   4.218   3.752 -0.1786 -0.0303  0.0794
20584SOL    HW163040   0.508   4.141   3.705 -0.2777  1.0640 -1.7566
20584SOL    HW263041   0.631   4.229   3.720  0.1252  0.1289  0.9681
20585SOL     OW63042   1.136   2.519   4.910  0.4839 -0.0897 -0.0003
20585SOL    HW163043   1.199   2.482   4.972  0.4442  2.0572  1.4307
20585SOL    HW263044   1.188   2.538   4.832  0.8861 -1.3075 -0.0566
20586SOL     OW63045   5.680   8.470   1.105  0.1673 -0.0644 -0.2833
20586SOL    HW163046   5.624   8.499   1.034  1.3732  0.3305 -1.0979
20586SOL    HW263047   5.737   8.404   1.065 -0.7362 -1.6253  0.8947
20587SOL     OW63048   4.126   2.966   1.396  0.8019 -0.1633  0.8290
20587SOL    HW163049   4.033   2.971   1.373  1.0601  1.3402 -0.0081
20587SOL    HW263050   4.128   2.914   1.476 -0.5361 -2.1760 -0.3338
20588SOL     OW63051   6.066   1.322   0.060  0.4060  0.3086 -0.5911
20588SOL    HW163052   6.017   1.258   0.008  0.4291 -0.5484  0.4254
20588SOL    HW263053   6.000   1.376   0.102  0.3197 -0.8020  0.7236
20589SOL     OW63054   3.991   6.033   6.694 -0.0643 -0.2788 -0.3870
20589SOL    HW163055   3.932   6.029   6.619 -0.2858  0.4518 -0.2601
20589SOL    HW263056   3.965   5.960   6.750  0.5070 -1.2026 -1.3141
20590SOL     OW63057   1.776   5.462   0.611 -0.2507  0.3177  0.2739
20590SOL    HW163058   1.796   5.378   0.652 -3.2792  0.2020  1.8320
20590SOL    HW263059   1.725   5.439   0.533 -0.6484  0.6778  0.4204
20591SOL     OW63060   4.957   8.614   4.919 -0.0296 -0.3918 -0.1661
20591SOL    HW163061   4.899   8.666   4.974  1.1316  0.6710  0.1133
20591SOL    HW263062   4.919   8.620   4.832  0.7135  2.0370 -0.4026
20592SOL     OW63063   1.996   7.064   1.130 -0.6650  0.5655  0.2461
20592SOL    HW163064   2.036   7.132   1.185 -0.4250 -0.2630  1.1343
20592SOL    HW263065   1.903   7.069   1.150 -0.7588  1.1749 -0.3171
20593SOL     OW63066   6.787   7.635   2.696 -0.0317  0.0294  0.0921
20593SOL    HW163067   6.828   7.713   2.659 -2.7590  1.1112 -0.9212
20593SOL    HW263068   6.720   7.669   2.755 -0.3470 -1.6047  0.7336
20594SOL     OW63069   1.615   8.536   2.273 -0.3395  0.7446 -0.0739
20594SOL    HW163070   1.556   8.559   2.201 -0.4801  1.2595  0.1972
20594SOL    HW263071   1.614   8.613   2.330 -2.0653 -0.4696  1.6944
20595SOL     OW63072   8.517   1.591   6.129 -0.2201 -0.2141 -0.3751
20595SOL    HW163073   8.458   1.641   6.187 -0.7119 -0.1719 -0.9082
20595SOL    HW263074   8.604   1.618   6.156 -0.4315 -0.4174  0.5564
20596SOL     OW63075   7.486   3.906   5.991 -0.4932  0.0338  0.5392
20596SOL    HW163076   7.532   3.899   6.075 -0.0623 -2.5707  0.1442
20596SOL    HW263077   7.518   3.988   5.953  0.6849  0.3320  2.0939
20597SOL     OW63078   1.365   7.262   1.077  0.1083 -0.5861 -0.4597
20597SOL    HW163079   1.332   7.248   0.988 -2.4339  0.7089  0.2039
20597SOL    HW263080   1.407   7.349   1.073  0.7506 -0.8942 -0.5665
20598SOL     OW63081   3.436   2.149   3.487  0.3173  0.0087 -0.0040
20598SOL    HW163082   3.527   2.169   3.469 -0.0399  3.0991  0.9737
20598SOL    HW263083   3.432   2.136   3.581 -0.1535 -0.9886 -0.1446
20599SOL     OW63084   5.232   6.750   0.839  0.4637 -0.2409 -0.3448
20599SOL    HW163085   5.207   6.750   0.746 -0.3482  0.0493 -0.1359
20599SOL    HW263086   5.201   6.666   0.872 -1.0928  0.4770  0.1205
20600SOL     OW63087   8.636   7.974   7.001  0.0727  0.0483  0.2062
20600SOL    HW163088   8.671   7.889   7.030  0.8334  0.9113  1.9253
20600SOL    HW263089   8.624   7.963   6.907  1.2640 -1.5976  0.1921
20601SOL     OW63090   2.711   6.707   2.459  0.6698 -0.0563  0.3433
20601SOL    HW163091   2.729   6.636   2.520  0.6794  0.2709  0.7245
20601SOL    HW263092   2.773   6.776   2.483  0.2288  0.3280  0.3953
20602SOL     OW63093   0.556   1.447   0.673 -0.1834  0.2963 -0.5042
20602SOL    HW163094   0.492   1.517   0.664  0.0659  0.5283 -0.4823
20602SOL    HW263095   0.638   1.486   0.642  0.0939  0.2170  0.1195
20603SOL     OW63096   6.405   0.675   8.371  0.0525 -0.5341  0.3668
20603SOL    HW163097   6.466   0.732   8.325 -1.3587  0.6441 -0.1183
20603SOL    HW263098   6.435   0.586   8.350 -0.6899 -0.1068 -3.1692
20604SOL     OW63099   6.246   2.270   0.017 -0.4275  0.2662  0.0498
20604SOL    HW163100   6.259   2.178  -0.006  0.3640  0.5486 -0.7032
20604SOL    HW263101   6.295   2.318  -0.050  1.0193  1.1814  1.7106
20605SOL     OW63102   0.026   4.739   5.078 -0.0997  0.5956 -0.0546
20605SOL    HW163103  -0.056   4.735   5.029  0.7916 -0.7845 -1.5173
20605SOL    HW263104   0.066   4.822   5.050 -0.4448  0.7090 -0.2266
20606SOL     OW63105   7.191   3.986   3.893  0.5897 -0.3440 -0.0121
20606SOL    HW163106   7.214   4.013   3.804 -1.8780 -1.0834 -0.9600
20606SOL    HW263107   7.123   4.048   3.919  0.2027 -1.0735  0.7445
20607SOL     OW63108   3.327   1.231   1.729 -0.5776  0.1527 -0.6857
20607SOL    HW163109   3.239   1.228   1.691 -1.4924  0.0715  1.3115
20607SOL    HW263110   3.384   1.258   1.657 -1.7086 -2.8376 -2.8904
20608SOL     OW63111   0.839   2.745   3.912 -0.3043 -0.0617  0.0295
20608SOL    HW163112   0.839   2.650   3.899  2.3117  0.1878 -3.2979
20608SOL    HW263113   0.867   2.757   4.002  0.8061 -2.5085  0.0909
20609SOL     OW63114   7.478   6.413   4.754 -0.6366  0.4999  0.4624
20609SOL    HW163115   7.445   6.432   4.842 -2.1162  0.7069 -0.0979
20609SOL    HW263116   7.468   6.496   4.707 -2.5723 -0.2916 -0.6575
20610SOL     OW63117   4.059   6.361   4.415  0.1448  0.4348 -0.0839
20610SOL    HW163118   4.093   6.446   4.386 -1.5822  1.6485  1.2624
20610SOL    HW263119   4.001   6.333   4.344 -1.7347  1.9568  0.7599
20611SOL     OW63120   0.101   7.939   4.994  0.0295 -0.4964 -0.6107
20611SOL    HW163121   0.105   7.923   5.088 -1.2226  2.0873 -0.0186
20611SOL    HW263122   0.173   7.999   4.976  0.5387 -1.3210 -1.4258
20612SOL     OW63123   1.785   8.476   5.533 -0.5808  0.0217 -0.4411
20612SOL    HW163124   1.868   8.447   5.495  0.4015  2.2717 -0.1452
20612SOL    HW263125   1.808   8.500   5.623 -1.2708  1.7750 -0.7038
20613SOL     OW63126   3.962   2.247   6.931  0.0030 -0.7046 -0.3354
20613SOL    HW163127   3.877   2.291   6.942 -0.0374 -0.5788 -1.1294
20613SOL    HW263128   4.025   2.307   6.972  0.0650  0.5357 -2.1462
20614SOL     OW63129   8.024   4.105   5.989  0.2072 -0.0085  0.6614
20614SOL    HW163130   8.109   4.106   6.035 -0.4468  1.2694  1.9204
20614SOL    HW263131   8.038   4.047   5.914  1.4468 -1.8947  2.2618
20615SOL     OW63132   6.489   6.718   4.410 -0.2636  0.5122  0.7267
20615SOL    HW163133   6.457   6.789   4.464 -2.0197 -0.2513  0.7509
20615SOL    HW263134   6.511   6.759   4.326 -0.4809  1.2113  1.0100
20616SOL     OW63135   0.373   4.029   7.766  0.4555  0.0086 -0.5447
20616SOL    HW163136   0.392   4.083   7.842 -1.1988  2.3068 -1.6412
20616SOL    HW263137   0.302   3.971   7.794  0.1250  0.5690 -0.2156
20617SOL     OW63138   0.262   0.854   6.213 -0.1290 -0.0477 -0.3366
20617SOL    HW163139   0.209   0.815   6.143  1.9944  0.7138 -2.4766
20617SOL    HW263140   0.324   0.911   6.169  0.6548  1.3052  2.2803
20618SOL     OW63141   5.846   5.356   4.434 -0.4031 -0.4317 -0.0691
20618SOL    HW163142   5.900   5.422   4.477 -1.1908  0.7915 -0.8809
20618SOL    HW263143   5.762   5.361   4.480 -0.9396  0.1984 -1.0921
20619SOL     OW63144   1.821   3.850   1.394 -0.2472 -0.3637 -0.1811
20619SOL    HW163145   1.808   3.794   1.318  1.5625  1.7655 -2.2375
20619SOL    HW263146   1.788   3.936   1.367  1.2711  0.6731  1.0448
20620SOL     OW63147   7.899   0.909   5.518  0.0236  0.1171 -0.9593
20620SOL    HW163148   7.846   0.861   5.454 -0.9779 -1.2833  0.8397
20620SOL    HW263149   7.946   0.842   5.566 -0.3784  1.0009  0.7509
20621SOL     OW63150   0.368   2.431   2.454 -0.1742  0.4477 -0.5160
20621SOL    HW163151   0.371   2.336   2.443  0.7955  0.2490  1.1739
20621SOL    HW263152   0.406   2.447   2.540 -2.2726  2.1994  0.1970
20622SOL     OW63153   1.365   8.637   4.904 -0.4825 -0.4961  0.6409
20622SOL    HW163154   1.427   8.705   4.877 -0.2638 -0.8387  0.2665
20622SOL    HW263155   1.414   8.581   4.964 -0.1353 -1.2883 -0.3480
20623SOL     OW63156   7.039   1.849   8.661  0.3768  0.0691 -0.3477
20623SOL    HW163157   6.982   1.795   8.716 -3.1011  2.0782 -1.6581
20623SOL    HW263158   7.081   1.909   8.722 -0.8621  0.1327  0.4869
20624SOL     OW63159   3.265   1.887   4.320 -0.4688  0.0388 -0.1650
20624SOL    HW163160   3.258   1.857   4.411 -0.2677  1.6041  0.3893
20624SOL    HW263161   3.193   1.949   4.310 -0.3011  0.1007 -0.9821
20625SOL     OW63162   4.490   2.804   3.991 -0.1208 -0.6777  0.4495
20625SOL    HW163163   4.476   2.897   3.975  0.4159 -0.7113 -0.2864
20625SOL    HW263164   4.438   2.760   3.924 -1.4311 -0.9599  1.6082
20626SOL     OW63165   1.601   7.163   0.941  0.3270  0.0906 -0.1619
20626SOL    HW163166   1.552   7.205   1.011 -0.6321 -0.1997 -0.6505
20626SOL    HW263167   1.648   7.235   0.898 -0.9788  0.6234 -0.7398
20627SOL     OW63168   1.847   1.858   7.389 -0.2842  0.1909  0.3549
20627SOL    HW163169   1.909   1.915   7.345 -1.6194 -0.3250 -2.4058
20627SOL    HW263170   1.775   1.847   7.327 -1.8003 -1.5672  2.2380
20628SOL     OW63171   7.845   3.551   5.478 -0.3062  0.1524  0.2289
20628SOL    HW163172   7.822   3.623   5.419 -1.1987 -0.0183  0.3589
20628SOL    HW263173   7.817   3.473   5.431 -0.8030 -0.0021  0.7745
20629SOL     OW63174   4.039   5.414   6.892  0.0042 -0.0162 -0.4175
20629SOL    HW163175   4.049   5.487   6.831 -0.8525 -0.2688 -0.8795
20629SOL    HW263176   3.947   5.388   6.883 -0.1716  0.0250  1.0845
20630SOL     OW63177   2.300   6.159   2.343 -0.4910  0.1730  0.7758
20630SOL    HW163178   2.317   6.217   2.417  1.5491  0.4137  0.1844
20630SOL    HW263179   2.209   6.132   2.354 -0.6795  1.3564  2.5442
20631SOL     OW63180   4.698   8.450   0.930  0.4745  0.0946  0.6059
20631SOL    HW163181   4.744   8.494   0.859 -0.3504 -1.2494 -0.8097
20631SOL    HW263182   4.745   8.367   0.942 -0.8926 -0.8239 -0.1407
20632SOL     OW63183   5.846   7.602   8.279 -0.3804  0.3975  0.1367
20632SOL    HW163184   5.804   7.607   8.365  3.2654 -2.1821  2.3453
20632SOL    HW263185   5.898   7.682   8.274 -0.8725  0.7236  0.1401
20633SOL     OW63186   4.828   1.072   0.076 -0.1530  0.1403  0.4137
20633SOL    HW163187   4.811   1.119   0.158 -0.2852 -0.1342  0.5472
20633SOL    HW263188   4.840   0.981   0.104  1.1360  0.2540  0.2735
20634SOL     OW63189   7.411   4.767   4.991  0.2921 -0.0235  0.6308
20634SOL    HW163190   7.316   4.774   4.999  0.2441 -0.3833  0.3905
20634SOL    HW263191   7.429   4.783   4.899  0.2874 -1.7609  0.2968
20635SOL     OW63192   6.914   1.019   4.287  0.0339 -0.5447  0.3646
20635SOL    HW163193   6.983   1.078   4.256  0.8419 -1.0095  1.2070
20635SOL    HW263194   6.922   1.022   4.383 -2.3902  0.8756  0.5946
20636SOL     OW63195   8.135   6.651   1.004 -0.1658 -0.0833  0.3689
20636SOL    HW163196   8.120   6.594   1.080  1.4335  0.1640  0.9143
20636SOL    HW263197   8.202   6.713   1.034 -0.3020  0.7062 -0.9079
20637SOL     OW63198   3.042   7.601   0.203  0.2429 -0.1250 -0.2149
20637SOL    HW163199   2.954   7.613   0.239  0.2237 -1.4954  0.2203
20637SOL    HW263200   3.044   7.660   0.127  0.1962  2.6633  1.7744
20638SOL     OW63201   7.331   3.135   3.245  0.1452  0.5508 -0.1383
20638SOL    HW163202   7.383   3.215   3.234 -0.6036  1.2201  0.9206
20638SOL    HW263203   7.385   3.079   3.300 -0.8387  1.9378  2.4521
20639SOL     OW63204   1.037   5.255   8.397  0.1006 -0.0669  0.1494
20639SOL    HW163205   0.968   5.225   8.456 -0.3912 -0.4032 -0.5910
20639SOL    HW263206   1.065   5.176   8.350 -0.8759  0.5139 -1.4757
20640SOL     OW63207   4.412   1.593   1.613  0.9412  0.2284  0.4086
20640SOL    HW163208   4.347   1.601   1.544  2.1043 -0.3124 -0.7738
20640SOL    HW263209   4.460   1.676   1.610  0.8251  0.3164  0.7828
20641SOL     OW63210   2.033   3.567   6.101 -0.3071 -0.6539  0.4343
20641SOL    HW163211   2.126   3.576   6.121 -0.1201 -0.3582 -0.5027
20641SOL    HW263212   1.998   3.515   6.173  0.8451 -1.9235  0.1186
20642SOL     OW63213   8.044   2.562   6.231  0.1937 -0.0085 -0.1343
20642SOL    HW163214   8.007   2.476   6.214 -2.6106  0.6614  1.8934
20642SOL    HW263215   8.018   2.615   6.156  1.9855 -0.8241 -1.4212
20643SOL     OW63216   0.884   6.955   7.595  0.3362 -0.1604 -0.2524
20643SOL    HW163217   0.960   6.904   7.624 -0.8653 -2.6140 -1.1412
20643SOL    HW263218   0.871   6.931   7.504 -1.4064  0.3338 -0.1837
20644SOL     OW63219   6.889   4.282   8.675  0.4153  0.5894  0.2953
20644SOL    HW163220   6.828   4.209   8.680  1.7457 -0.5893  0.0713
20644SOL    HW263221   6.964   4.254   8.728  0.9055  1.8365  0.2875
20645SOL     OW63222   3.302   3.781   6.196 -0.3855 -0.2400 -0.2026
20645SOL    HW163223   3.393   3.810   6.200 -1.0417  1.9374  2.6938
20645SOL    HW263224   3.270   3.816   6.113  1.2175 -0.4425 -0.9479
20646SOL     OW63225   2.671   8.041   1.318  0.1203  0.6305  0.2248
20646SOL    HW163226   2.646   7.977   1.385 -1.4557 -0.4393 -1.2776
20646SOL    HW263227   2.730   8.101   1.363 -1.5602  0.5207  2.8314
20647SOL     OW63228   2.457   7.901   2.876 -0.4470  0.2975  0.6581
20647SOL    HW163229   2.408   7.853   2.943  1.0031 -1.3878  0.5579
20647SOL    HW263230   2.537   7.851   2.864  1.0522  2.6333  0.3556
20648SOL     OW63231   6.289   3.756   0.677  0.6560  0.3349 -0.0445
20648SOL    HW163232   6.262   3.845   0.658  2.2959  1.1099  0.9891
20648SOL    HW263233   6.305   3.755   0.771 -0.3763 -1.3750  0.1488
20649SOL     OW63234   5.372   0.421   4.879 -0.1844 -0.0736 -0.2288
20649SOL    HW163235   5.337   0.383   4.959 -2.5564  0.1324 -1.0905
20649SOL    HW263236   5.426   0.494   4.908 -0.2290 -0.5866  1.2005
20650SOL     OW63237   5.882   7.178   5.433 -0.1581  0.0949  0.1118
20650SOL    HW163238   5.826   7.118   5.384  0.5610  0.0933 -0.7186
20650SOL    HW263239   5.834   7.261   5.431 -0.0906  0.1151 -0.6667
20651SOL     OW63240   8.402   2.224   2.783  0.0740 -0.2536 -0.1176
20651SOL    HW163241   8.390   2.160   2.713 -0.0608 -0.3040 -0.0491
20651SOL    HW263242   8.492   2.210   2.813  0.4748  0.4233 -0.9326
20652SOL     OW63243   7.996   4.131   5.194  0.0542  0.0873  0.6548
20652SOL    HW163244   7.920   4.140   5.136  2.2166  3.0420 -2.0632
20652SOL    HW263245   7.997   4.212   5.244  1.9785  0.6684 -0.2295
20653SOL     OW63246   1.475   3.181   3.790  0.1453 -0.2342  0.6914
20653SOL    HW163247   1.525   3.241   3.735 -0.5071 -1.1711 -0.9840
20653SOL    HW263248   1.475   3.222   3.877  0.3599  1.7736 -0.2162
20654SOL     OW63249   1.503   6.520   8.127  0.3850  0.4266 -0.0515
20654SOL    HW163250   1.473   6.597   8.175  2.5882  1.5032 -0.3111
20654SOL    HW263251   1.431   6.501   8.066 -0.4953  1.8338  0.4998
20655SOL     OW63252   8.623   8.348   1.160  0.1956 -0.2191  0.6029
20655SOL    HW163253   8.660   8.436   1.155  1.0730 -0.6243 -0.3728
20655SOL    HW263254   8.674   8.296   1.098 -1.1380 -1.1189  0.1997
20656SOL     OW63255   8.333   8.393   7.792 -0.1405  0.1580 -0.0831
20656SOL    HW163256   8.338   8.357   7.703 -1.4647 -2.8115  0.9303
20656SOL    HW263257   8.291   8.479   7.780  0.7354  0.3526 -2.3831
20657SOL     OW63258   8.612   5.935   1.979 -0.0663  0.6024 -0.2722
20657SOL    HW163259   8.699   5.918   1.944  0.6206 -1.4512  2.0914
20657SOL    HW263260   8.567   5.851   1.974 -0.7429  0.8163  1.3760
20658SOL     OW63261   5.263   4.632   6.125  0.1230  0.2361  0.3454
20658SOL    HW163262   5.242   4.722   6.151  0.0531  0.7628 -1.3834
20658SOL    HW263263   5.178   4.588   6.120 -0.1526  0.8740 -1.4423
20659SOL     OW63264   0.290   2.452   3.691 -0.2625  0.2863  0.6897
20659SOL    HW163265   0.202   2.446   3.728 -0.1404  0.3153  0.9878
20659SOL    HW263266   0.287   2.528   3.633 -1.0839 -1.0318 -1.0827
20660SOL     OW63267   1.903   0.385   7.077 -0.1264 -0.1049 -0.0991
20660SOL    HW163268   1.832   0.323   7.057  1.7319 -2.0182 -1.2554
20660SOL    HW263269   1.927   0.366   7.168 -0.7747  0.2032  0.1356
20661SOL     OW63270   3.964   0.674   0.601  0.4130 -0.3156  0.0213
20661SOL    HW163271   4.014   0.755   0.594  0.2386 -0.2783 -0.9134
20661SOL    HW263272   3.887   0.698   0.652  0.4709  0.0562 -0.0650
20662SOL     OW63273   4.090   7.973   8.589  0.1008 -0.0100  0.2352
20662SOL    HW163274   4.018   7.962   8.652  0.3340 -0.7377  0.3863
20662SOL    HW263275   4.074   8.059   8.549 -0.4503  0.1469  0.7754
20663SOL     OW63276   1.785   8.431   2.892 -0.2690  0.6569  0.2906
20663SOL    HW163277   1.880   8.424   2.893 -0.1589  1.8984  1.9176
20663SOL    HW263278   1.764   8.459   2.803  0.7462 -0.8235 -0.4606
20664SOL     OW63279   3.491   8.408   1.452  0.4023  0.2033 -0.0037
20664SOL    HW163280   3.562   8.392   1.390  0.0792  1.0275 -0.5976
20664SOL    HW263281   3.526   8.379   1.536  0.4878 -1.8970 -0.6950
20665SOL     OW63282   2.438   6.918   0.536  0.0323  0.1249  0.1559
20665SOL    HW163283   2.390   7.001   0.540 -0.0081  0.1105 -0.0443
20665SOL    HW263284   2.387   6.863   0.477 -1.3821 -0.9743  2.2507
20666SOL     OW63285   8.008   4.460   0.509  0.3157 -0.1263  0.0259
20666SOL    HW163286   8.083   4.484   0.565  1.9285 -0.5604 -1.8376
20666SOL    HW263287   7.933   4.501   0.552  1.9239  2.2818  0.7727
20667SOL     OW63288   2.869   5.938   7.613 -0.1500  0.0705 -0.0168
20667SOL    HW163289   2.807   5.982   7.670  2.2056  0.3706  2.5100
20667SOL    HW263290   2.885   6.001   7.542 -0.4147  1.2831  0.9752
20668SOL     OW63291   5.492   6.127   2.883  0.1344  1.0188  0.6706
20668SOL    HW163292   5.535   6.072   2.948  0.0596  1.1813  0.8574
20668SOL    HW263293   5.563   6.160   2.828  0.0450 -0.7121 -0.5814
20669SOL     OW63294   4.882   4.991   1.631 -0.5067 -0.4412 -0.6213
20669SOL    HW163295   4.788   5.007   1.635 -0.3628  0.1208  1.0947
20669SOL    HW263296   4.901   4.938   1.709  0.6303 -0.3945 -0.8485
20670SOL     OW63297   3.337   6.683   4.721  0.0426  0.3292 -0.6060
20670SOL    HW163298   3.342   6.691   4.816  0.4306  0.9373 -0.6738
20670SOL    HW263299   3.247   6.706   4.699 -0.0369  0.2251 -0.3893
20671SOL     OW63300   0.881   2.893   4.410 -0.2028 -0.1487 -0.2536
20671SOL    HW163301   0.974   2.876   4.425 -0.5759 -1.2335  0.9988
20671SOL    HW263302   0.842   2.807   4.400 -1.1331  0.2795 -0.4171
20672SOL     OW63303   7.492   0.325   8.307  0.0166 -0.2236  0.1829
20672SOL    HW163304   7.401   0.351   8.320  0.3347  0.5360  1.0486
20672SOL    HW263305   7.487   0.238   8.268 -1.0793  0.0872 -0.4038
20673SOL     OW63306   3.802   6.215   4.536  0.4324  0.2753  0.4311
20673SOL    HW163307   3.817   6.210   4.631 -1.5231 -1.6572  0.7185
20673SOL    HW263308   3.872   6.163   4.498  1.0645  0.8270  0.8160
20674SOL     OW63309   3.332   7.077   5.557  0.6768 -0.2154 -0.0990
20674SOL    HW163310   3.277   7.122   5.621 -0.2569 -0.3501 -0.7804
20674SOL    HW263311   3.321   7.127   5.476  2.4483  0.4134  0.0007
20675SOL     OW63312   2.589   7.703   5.647 -0.3248  0.6541 -0.0985
20675SOL    HW163313   2.527   7.720   5.576  2.2149  0.8309 -2.4638
20675SOL    HW263314   2.582   7.609   5.663 -1.4876  0.7414  0.0167
20676SOL     OW63315   7.353   4.650   4.633 -0.1259  0.2037 -0.4920
20676SOL    HW163316   7.448   4.641   4.633 -0.2108 -1.3664  1.2570
20676SOL    HW263317   7.338   4.741   4.609  1.9212  0.9740  0.8063
20677SOL     OW63318   4.988   0.068   3.165  0.6094  0.4879  0.0914
20677SOL    HW163319   4.965   0.066   3.072  1.7031 -0.0598 -0.1904
20677SOL    HW263320   4.911   0.103   3.209  0.0949  0.7870 -1.0305
20678SOL     OW63321   3.192   8.353   0.893 -0.0345  0.2272 -0.5644
20678SOL    HW163322   3.134   8.282   0.921  1.0653  0.4833  2.7747
20678SOL    HW263323   3.133   8.427   0.878 -0.7977  0.1008  1.4344
20679SOL     OW63324   4.486   1.786   7.932 -0.1242 -0.2811 -0.3578
20679SOL    HW163325   4.496   1.760   8.024 -1.4247 -1.5346 -0.5488
20679SOL    HW263326   4.393   1.808   7.923  0.3876  1.9489 -0.8819
20680SOL     OW63327   8.060   1.834   6.784  0.0215  0.0803 -0.5386
20680SOL    HW163328   8.007   1.756   6.768  3.0514 -2.1813 -0.6089
20680SOL    HW263329   8.057   1.846   6.879 -1.5191  0.7444 -0.6535
20681SOL     OW63330   2.164   1.894   3.680 -0.0540  0.4441 -0.5462
20681SOL    HW163331   2.200   1.889   3.768  1.1084  0.9214 -0.9761
20681SOL    HW263332   2.240   1.905   3.623 -0.8889  1.7046 -1.4699
20682SOL     OW63333   7.312   5.567   8.424  0.4153 -0.6045  0.0969
20682SOL    HW163334   7.298   5.478   8.393  2.3450 -1.4895  1.5275
20682SOL    HW263335   7.292   5.563   8.518  0.0415  0.6045  0.0883
20683SOL     OW63336   7.938   8.186   6.371  0.8084  0.4330  0.0580
20683SOL    HW163337   7.874   8.132   6.324  0.5089  1.7163 -1.0803
20683SOL    HW263338   8.019   8.135   6.369  0.6658  0.2086 -1.4192
20684SOL     OW63339   4.859   5.644   2.813  0.4583  0.6778  0.7071
20684SOL    HW163340   4.777   5.693   2.822 -0.7132 -0.9992 -0.1788
20684SOL    HW263341   4.857   5.582   2.886 -0.3299 -1.0053 -0.6596
20685SOL     OW63342   2.642   1.332   3.549  0.2566  0.0040  0.2916
20685SOL    HW163343   2.601   1.265   3.604 -0.3137  2.0087  2.4291
20685SOL    HW263344   2.728   1.347   3.588  1.8532 -1.8014 -2.2138
20686SOL     OW63345   2.044   6.856   1.312 -0.3420  0.0535  0.0944
20686SOL    HW163346   2.048   6.921   1.241 -0.7802  0.2491  0.2476
20686SOL    HW263347   2.050   6.772   1.267 -0.7092  0.1742 -0.1887
20687SOL     OW63348   2.329   4.342   2.691  0.5133 -0.2655 -0.3545
20687SOL    HW163349   2.283   4.318   2.771  2.2082  1.2981  1.2004
20687SOL    HW263350   2.422   4.325   2.711  1.0078  0.5901 -1.8061
20688SOL     OW63351   5.037   4.140   2.848  0.4814 -0.8035 -0.6393
20688SOL    HW163352   4.991   4.202   2.904 -0.0457 -0.7849 -1.0826
20688SOL    HW263353   5.127   4.172   2.845  0.1905  0.0172 -0.9682
20689SOL     OW63354   6.604   6.899   5.963  0.3155 -0.5194  0.4761
20689SOL    HW163355   6.677   6.960   5.953 -0.5025  0.5336  0.7711
20689SOL    HW263356   6.635   6.835   6.028  1.2742 -0.5737 -0.0215
20690SOL     OW63357   3.699   2.532   3.886 -0.1357  0.1671  0.2653
20690SOL    HW163358   3.775   2.571   3.929  0.3653  0.6220 -0.9875
20690SOL    HW263359   3.628   2.594   3.904  0.5343  1.4400 -1.2419
20691SOL     OW63360   5.820   8.660   1.210  0.4946  0.1317 -0.1026
20691SOL    HW163361   5.870   8.687   1.133 -1.1338 -0.0581 -1.2789
20691SOL    HW263362   5.758   8.595   1.177  1.4300 -1.9183  1.8666
20692SOL     OW63363   7.889   3.646   5.891  0.6537  0.0885  0.4394
20692SOL    HW163364   7.961   3.690   5.937  1.7320 -0.3590 -0.7541
20692SOL    HW263365   7.862   3.576   5.951  1.0357  0.4326  1.0208
20693SOL     OW63366   5.874   8.275   7.920  0.1165  0.0457  0.5282
20693SOL    HW163367   5.852   8.244   7.833  0.1553 -1.1231  0.9232
20693SOL    HW263368   5.941   8.342   7.905  1.1761 -1.1479 -0.2718
20694SOL     OW63369   0.094   3.763   3.467 -0.5446 -0.2868  0.1301
20694SOL    HW163370   0.001   3.746   3.450 -0.3736 -2.1474  0.8705
20694SOL    HW263371   0.108   3.729   3.555  0.2263  2.5602  1.2167
20695SOL     OW63372   7.483   6.332   0.377 -0.0891  0.1045 -0.5683
20695SOL    HW163373   7.574   6.364   0.375 -0.3704  1.0548  0.5622
20695SOL    HW263374   7.490   6.242   0.410  0.6278 -0.7877 -2.8904
20696SOL     OW63375   4.154   3.035   4.611 -0.1591 -0.1668 -0.1235
20696SOL    HW163376   4.162   2.994   4.525 -0.1068 -4.4001  1.6299
20696SOL    HW263377   4.245   3.043   4.641 -0.1607  1.5752 -0.5040
20697SOL     OW63378   0.999   7.688   7.536  0.1195  0.1586 -0.0378
20697SOL    HW163379   0.918   7.732   7.510  1.3183  3.0604  0.7673
20697SOL    HW263380   1.029   7.645   7.457 -1.7889 -0.3299 -0.5487
20698SOL     OW63381   2.549   5.070   4.937 -0.0640 -0.7828  0.0534
20698SOL    HW163382   2.493   4.994   4.957 -1.0747 -0.6401 -1.9128
20698SOL    HW263383   2.577   5.055   4.846  0.1558  0.9267 -0.1890
20699SOL     OW63384   4.729   3.578   8.458  0.1694 -0.0136 -0.1644
20699SOL    HW163385   4.658   3.530   8.417 -0.5857  0.1350  0.9447
20699SOL    HW263386   4.689   3.660   8.489  0.9050  0.2579  0.0974
20700SOL     OW63387   1.259   2.816   1.520 -0.5480 -0.0354 -0.3877
20700SOL    HW163388   1.190   2.750   1.511  0.8394 -1.5091 -0.6185
20700SOL    HW263389   1.277   2.844   1.430  2.0162 -2.7916 -0.8807
20701SOL     OW63390   3.488   5.833   7.347  0.5429  0.2318 -0.2660
20701SOL    HW163391   3.435   5.822   7.426 -0.3022 -0.4350 -0.9025
20701SOL    HW263392   3.428   5.873   7.284  1.5755  1.9694 -0.1884
20702SOL     OW63393   6.282   2.346   6.680  0.4738  0.4856 -0.3388
20702SOL    HW163394   6.210   2.397   6.716  0.6426  0.8755 -0.5531
20702SOL    HW263395   6.343   2.335   6.753 -0.6647 -1.4947  0.4148
20703SOL     OW63396   3.990   8.704   5.479 -0.5084 -0.1386  0.0823
20703SOL    HW163397   4.036   8.632   5.435 -0.8510  0.0905 -0.6592
20703SOL    HW263398   4.045   8.781   5.463 -0.3587 -0.1458  0.5246
20704SOL     OW63399   8.059   8.608   0.973 -0.2654  0.3584 -0.4110
20704SOL    HW163400   7.972   8.647   0.965 -0.7895 -0.6612  0.0595
20704SOL    HW263401   8.042   8.514   0.981  0.9396  0.0364 -1.3611
20705SOL     OW63402   0.200   5.883   8.313 -0.2586  0.0382 -0.2011
20705SOL    HW163403   0.202   5.858   8.405  0.0191 -0.6556 -0.3933
20705SOL    HW263404   0.134   5.826   8.274  1.8018 -1.9162 -1.0584
20706SOL     OW63405   5.514   4.998   2.992  0.5926  0.2491 -0.2867
20706SOL    HW163406   5.607   4.989   2.970 -0.0384 -2.0646 -2.5591
20706SOL    HW263407   5.481   5.062   2.929  0.8722  2.4766  1.6790
20707SOL     OW63408   1.487   3.954   8.291  0.3008  0.4394 -0.1708
20707SOL    HW163409   1.395   3.929   8.302  0.9110 -1.5062  1.0010
20707SOL    HW263410   1.525   3.883   8.239  1.1229  1.3252 -0.8193
20708SOL     OW63411   2.728   0.596   3.731 -0.0754 -0.5048 -0.3014
20708SOL    HW163412   2.771   0.540   3.796 -0.0078  1.2250  1.2392
20708SOL    HW263413   2.638   0.605   3.762  0.2413  1.2316  0.2449
20709SOL     OW63414   1.892   8.597   7.387  0.5050 -0.2928  0.6075
20709SOL    HW163415   1.872   8.542   7.310  0.3015  1.4394 -0.6330
20709SOL    HW263416   1.985   8.617   7.377  0.3587  0.3502  0.5367
20710SOL     OW63417   4.279   1.841   7.715  0.3662  0.7400 -0.6662
20710SOL    HW163418   4.245   1.882   7.636 -1.0841 -0.2616 -0.5885
20710SOL    HW263419   4.337   1.772   7.683  0.0334  0.5451 -0.8530
20711SOL     OW63420   7.244   7.270   4.830 -0.3277  0.1605 -0.0499
20711SOL    HW163421   7.158   7.228   4.828 -0.1892 -0.1769  0.6304
20711SOL    HW263422   7.225   7.363   4.820 -0.6798 -0.0008 -1.0398
20712SOL     OW63423   7.577   6.554   8.522 -0.5749  0.5022 -0.2423
20712SOL    HW163424   7.615   6.554   8.610 -0.7967  0.5389 -0.1447
20712SOL    HW263425   7.528   6.636   8.517 -3.6355 -1.0956  0.9725
20713SOL     OW63426   5.500   3.714   4.258  0.1057 -0.6492 -0.0189
20713SOL    HW163427   5.581   3.750   4.221  0.1255 -2.2599 -1.7204
20713SOL    HW263428   5.442   3.704   4.183 -0.2311 -3.1254  0.4759
20714SOL     OW63429   7.536   0.746   2.237  0.1745  0.0690 -0.1827
20714SOL    HW163430   7.470   0.708   2.295  0.6352 -0.5854 -0.0748
20714SOL    HW263431   7.570   0.821   2.285 -1.4596  1.2646 -0.8210
20715SOL     OW63432   3.444   0.293   0.938  0.0813  0.1283  0.1580
20715SOL    HW163433   3.455   0.252   0.852  1.6657  0.2702  0.2634
20715SOL    HW263434   3.485   0.379   0.929 -0.7685  0.6145  0.7425
20716SOL     OW63435   2.322   6.144   8.097  0.2668  0.2262 -0.2536
20716SOL    HW163436   2.344   6.140   8.190 -0.5446 -1.0428 -0.0921
20716SOL    HW263437   2.257   6.214   8.090 -0.5811 -0.4875  0.3422
20717SOL     OW63438   5.359   7.055   5.823 -0.0723  0.2257  0.0423
20717SOL    HW163439   5.423   7.126   5.833 -0.0052  0.1708  0.0084
20717SOL    HW263440   5.318   7.047   5.909  1.6128 -1.3212  0.7758
20718SOL     OW63441   2.188   5.201   4.157  0.2590  0.2851  0.0048
20718SOL    HW163442   2.181   5.106   4.172  2.0918  0.3788  1.7301
20718SOL    HW263443   2.145   5.214   4.072  0.6132 -2.1869 -0.6385
20719SOL     OW63444   1.762   0.222   2.847  0.6017 -0.0042 -0.2370
20719SOL    HW163445   1.849   0.237   2.882  1.0281  2.7010 -2.1793
20719SOL    HW263446   1.703   0.235   2.921  1.7066  0.3243  0.6035
20720SOL     OW63447   4.901   5.354   3.389  0.4113  0.3368 -0.2529
20720SOL    HW163448   4.853   5.394   3.317  0.8112 -1.1609 -1.4009
20720SOL    HW263449   4.845   5.369   3.466  0.0855  2.1457 -0.7955
20721SOL     OW63450   2.933   7.202   4.406 -0.3728  0.0006 -0.5077
20721SOL    HW163451   2.892   7.213   4.320  0.2846 -1.0501 -0.9740
20721SOL    HW263452   2.943   7.107   4.415 -0.4622  0.0998  0.7519
20722SOL     OW63453   1.663   6.699   6.504  0.2929  0.2097  0.3314
20722SOL    HW163454   1.594   6.750   6.546  0.2126  0.5219 -0.1697
20722SOL    HW263455   1.617   6.630   6.457  0.5143 -2.1000  3.2525
20723SOL     OW63456   4.703   8.037   4.123 -0.6293 -0.0041 -0.3265
20723SOL    HW163457   4.762   8.018   4.050 -0.2224 -0.1949  0.0553
20723SOL    HW263458   4.668   7.952   4.148 -0.3871  0.0024  0.0311
20724SOL     OW63459   0.283   7.602   4.162 -0.2602 -0.5729  0.2271
20724SOL    HW163460   0.198   7.633   4.194  0.3679  0.8955  0.5815
20724SOL    HW263461   0.334   7.587   4.242 -0.2860 -1.8252  0.0291
20725SOL     OW63462   7.901   0.236   0.014  0.5115  0.1726 -0.3169
20725SOL    HW163463   7.808   0.214   0.027  0.6745 -0.7089 -0.5749
20725SOL    HW263464   7.922   0.203  -0.073  1.3033 -0.4900  0.1065
20726SOL     OW63465   3.300   4.668   3.504 -0.3032  1.0196  0.0151
20726SOL    HW163466   3.227   4.690   3.562  0.0200 -0.5164  1.0591
20726SOL    HW263467   3.366   4.734   3.524 -0.5969  1.1329  0.6676
20727SOL     OW63468   8.180   0.907   8.388 -0.3313 -0.0628  0.1520
20727SOL    HW163469   8.257   0.951   8.353 -0.7534  0.7902  0.2457
20727SOL    HW263470   8.106   0.958   8.354 -0.8487 -0.8427  0.0902
20728SOL     OW63471   8.166   1.920   3.878  0.0593 -0.4522 -0.4086
20728SOL    HW163472   8.252   1.959   3.865 -0.0713 -0.2982 -0.8533
20728SOL    HW263473   8.140   1.890   3.791 -0.8763  0.6592 -0.5363
20729SOL     OW63474   1.968   7.236   6.301 -0.3162  0.2542  0.3952
20729SOL    HW163475   1.905   7.177   6.260 -1.1723  1.2366  0.2416
20729SOL    HW263476   2.032   7.178   6.343 -1.5148 -0.7901  0.8516
20730SOL     OW63477   6.063   5.999   2.576  0.6669  0.1127  0.1492
20730SOL    HW163478   6.003   6.051   2.522  0.9952  0.9455  0.5805
20730SOL    HW263479   6.150   6.029   2.551  0.9275 -1.0812 -0.4541
20731SOL     OW63480   7.626   6.046   6.706 -0.0454  0.6862 -1.0407
20731SOL    HW163481   7.554   5.985   6.716  0.4035  0.4802  1.8229
20731SOL    HW263482   7.585   6.129   6.683 -1.3528  0.7436  1.2261
20732SOL     OW63483   6.769   4.868   3.515  0.3501 -0.4483  0.2281
20732SOL    HW163484   6.775   4.963   3.524 -1.6588 -0.4980  3.4449
20732SOL    HW263485   6.706   4.854   3.445 -0.4230  0.6275  0.6942
20733SOL     OW63486   3.263   6.251   5.364 -0.0887 -0.4546 -0.1080
20733SOL    HW163487   3.215   6.332   5.380 -1.2790 -1.2970  0.8100
20733SOL    HW263488   3.211   6.205   5.297  0.1173 -0.8244 -0.0151
20734SOL     OW63489   4.844   0.589   3.588 -0.6345 -0.6887 -0.1722
20734SOL    HW163490   4.792   0.635   3.522 -0.1341 -0.1159 -0.1739
20734SOL    HW263491   4.926   0.570   3.543  0.6031  1.6930  0.9363
20735SOL     OW63492   5.636   0.184   5.916 -0.1481  0.5405  0.0850
20735SOL    HW163493   5.663   0.194   5.825  0.1703 -0.7134  0.0126
20735SOL    HW263494   5.709   0.219   5.967 -0.0912  0.7524 -0.1446
20736SOL     OW63495   4.705   6.259   5.282  0.1643  0.2000  0.0900
20736SOL    HW163496   4.767   6.310   5.230 -1.4298  0.1417 -1.9689
20736SOL    HW263497   4.678   6.319   5.352  1.4366  0.7043  0.1745
20737SOL     OW63498   2.119   4.038   2.583 -0.0878 -0.4259  0.1126
20737SOL    HW163499   2.129   4.124   2.540  1.2202  0.4230  2.0009
20737SOL    HW263500   2.204   4.022   2.623 -0.6608 -2.1337  0.6910
20738SOL     OW63501   3.151   8.013   3.136  0.2343  0.2106 -0.2624
20738SOL    HW163502   3.092   8.003   3.062 -0.2557  0.6257  0.0686
20738SOL    HW263503   3.104   7.977   3.210  0.0057  1.3768  0.1860
20739SOL     OW63504   4.076   0.684   5.247 -0.2065 -0.2681 -0.2749
20739SOL    HW163505   4.063   0.681   5.342  1.7214  0.4172  0.0605
20739SOL    HW263506   4.013   0.750   5.216  0.5290  1.0036  0.8363
20740SOL     OW63507   8.299   5.544   8.458 -0.1239  0.1970 -0.3932
20740SOL    HW163508   8.207   5.544   8.482 -0.7789 -2.0179 -2.4717
20740SOL    HW263509   8.308   5.471   8.396  3.2741 -0.4019  0.5994
20741SOL     OW63510   5.238   2.233   5.268  0.1076 -0.2134  0.6453
20741SOL    HW163511   5.297   2.158   5.280  2.2043  1.2983  0.4421
20741SOL    HW263512   5.191   2.215   5.187  0.1921 -1.5294  0.8724
20742SOL     OW63513   3.474   0.507   5.267 -0.6169 -0.5270 -0.2664
20742SOL    HW163514   3.566   0.502   5.243 -0.0563  0.4265  1.5099
20742SOL    HW263515   3.442   0.417   5.260  0.6827 -1.0193  0.0110
20743SOL     OW63516   1.149   6.925   1.569  0.2453  0.3216 -0.4217
20743SOL    HW163517   1.058   6.948   1.589  0.2735  1.0042 -1.0229
20743SOL    HW263518   1.146   6.833   1.545 -0.2521  0.2822 -0.2208
20744SOL     OW63519   7.793   6.580   7.037  0.7945 -0.5617 -0.0585
20744SOL    HW163520   7.803   6.648   6.971 -2.4083 -0.1503 -0.2716
20744SOL    HW263521   7.751   6.623   7.111 -1.2114 -2.2186 -0.1480
20745SOL     OW63522   0.739   4.619   6.287  0.2544  0.1838  0.0120
20745SOL    HW163523   0.813   4.628   6.348  2.4442 -0.2944 -2.4033
20745SOL    HW263524   0.727   4.525   6.279 -2.1183  0.2209  1.9254
20746SOL     OW63525   7.001   0.955   7.494 -0.0379  0.6243 -0.9429
20746SOL    HW163526   7.031   0.921   7.578 -1.6189  0.2488 -0.4932
20746SOL    HW263527   7.000   0.880   7.435  0.4194  0.7488 -1.1126
20747SOL     OW63528   2.994   1.010   4.031  0.7739 -0.2685  0.2812
20747SOL    HW163529   2.960   0.965   4.108 -0.1815  0.1209  0.1154
20747SOL    HW263530   2.977   1.103   4.049 -0.3863 -0.2444 -0.8041
20748SOL     OW63531   4.653   7.636   2.382  0.7085  0.7710  0.0556
20748SOL    HW163532   4.597   7.691   2.437  1.0750  1.0090  0.1922
20748SOL    HW263533   4.740   7.676   2.388  1.3341 -0.6702  1.3734
20749SOL     OW63534   1.164   5.503   2.048 -0.0700 -0.0545  0.2670
20749SOL    HW163535   1.188   5.566   2.115  1.1703 -0.0711 -0.1242
20749SOL    HW263536   1.103   5.443   2.091 -1.2202  1.3503  0.6607
20750SOL     OW63537   1.485   4.662   0.375 -0.1069  0.3448 -0.0508
20750SOL    HW163538   1.483   4.576   0.417  0.5646  0.0691 -0.5754
20750SOL    HW263539   1.557   4.708   0.419 -1.0137  0.9532  0.8246
20751SOL     OW63540   3.612   3.573   7.391 -0.1584 -0.1685 -0.3402
20751SOL    HW163541   3.675   3.642   7.411 -0.7928  0.1119  0.7905
20751SOL    HW263542   3.637   3.500   7.449  0.0755 -0.6317 -1.0149
20752SOL     OW63543   0.539   3.492   8.258  0.0615  0.2166  0.2611
20752SOL    HW163544   0.585   3.464   8.180  1.2439 -1.4242  1.4851
20752SOL    HW263545   0.448   3.466   8.243  0.3030 -0.2117 -0.5078
20753SOL     OW63546   2.487   2.402   4.504  0.0222 -0.2649  0.2879
20753SOL    HW163547   2.497   2.493   4.530 -0.4877 -0.0461 -0.2434
20753SOL    HW263548   2.503   2.402   4.409 -1.9085 -0.3635 -0.0938
20754SOL     OW63549   8.035   5.604   3.741  1.0745 -0.1205 -0.3688
20754SOL    HW163550   8.128   5.596   3.719  0.8687 -1.6184 -0.7898
20754SOL    HW263551   7.999   5.661   3.673  2.0142  2.1457  0.9062
20755SOL     OW63552   7.837   2.040   6.589 -0.0669 -0.2822 -0.1488
20755SOL    HW163553   7.918   2.017   6.544  0.2908  0.4665  0.0943
20755SOL    HW263554   7.816   1.963   6.642  0.4735 -0.4902 -0.2323
20756SOL     OW63555   1.969   8.464   1.756  0.5774 -0.0565  0.2471
20756SOL    HW163556   1.901   8.415   1.711  0.8372 -1.3083  1.1734
20756SOL    HW263557   1.922   8.516   1.822  0.2694  1.2634 -0.9488
20757SOL     OW63558   2.915   0.347   3.250 -0.0721 -0.4017  0.5948
20757SOL    HW163559   2.929   0.268   3.301 -0.6593 -0.7673  0.2105
20757SOL    HW263560   2.904   0.416   3.315 -0.3808 -0.7827  0.9561
20758SOL     OW63561   0.525   4.796   1.021  0.5371 -0.4188 -0.1009
20758SOL    HW163562   0.430   4.785   1.017  0.5595 -1.6645  1.6027
20758SOL    HW263563   0.539   4.890   1.016 -0.7921 -0.2245 -0.4169
20759SOL     OW63564   6.213   4.970   4.573  0.3786 -0.6265  0.0787
20759SOL    HW163565   6.135   4.985   4.628 -0.8409 -2.0020 -1.2036
20759SOL    HW263566   6.213   5.044   4.512 -0.0413 -0.7126 -0.0334
20760SOL     OW63567   2.694   4.173   4.679  0.3562 -0.2060 -0.4482
20760SOL    HW163568   2.636   4.160   4.755 -0.1310  0.7530 -0.6449
20760SOL    HW263569   2.733   4.259   4.693  0.9350 -0.4000 -0.8544
20761SOL     OW63570   1.747   6.715   7.683  0.1409 -0.2273  0.0412
20761SOL    HW163571   1.708   6.693   7.767  0.5413 -1.3023 -0.0355
20761SOL    HW263572   1.776   6.631   7.647  2.1968  0.4499 -0.0461
20762SOL     OW63573   1.129   5.981   1.739  0.8043 -0.3225  0.1151
20762SOL    HW163574   1.120   5.888   1.760  1.0343 -0.2158  0.7098
20762SOL    HW263575   1.100   6.026   1.818  1.4247  0.0968  0.1130
20763SOL     OW63576   2.098   1.631   2.325 -0.1682  0.1638 -0.1353
20763SOL    HW163577   2.114   1.680   2.245  1.2913  2.7255  1.5817
20763SOL    HW263578   2.175   1.574   2.333  0.2024  0.6602 -0.0743
20764SOL     OW63579   2.680   2.157   7.706 -0.5533 -0.4108 -0.0534
20764SOL    HW163580   2.674   2.233   7.648 -2.3039  0.3724  1.0647
20764SOL    HW263581   2.645   2.084   7.654 -0.7744 -0.0129 -0.4703
20765SOL     OW63582   4.982   4.254   7.892  0.1844 -0.2838 -0.4112
20765SOL    HW163583   4.946   4.165   7.893 -0.0126 -0.2114  0.4143
20765SOL    HW263584   4.948   4.292   7.811  0.2351 -0.9423 -0.7558
20766SOL     OW63585   7.287   2.788   5.410 -0.0890  0.1037  0.3237
20766SOL    HW163586   7.362   2.759   5.462  0.8716  1.0036 -0.5274
20766SOL    HW263587   7.242   2.851   5.466 -0.8316 -1.2186  1.2492
20767SOL     OW63588   7.893   3.040   0.340  0.5284 -0.7368 -0.1831
20767SOL    HW163589   7.905   2.974   0.408 -1.5061 -0.6786  0.3011
20767SOL    HW263590   7.956   3.109   0.362 -0.8807 -0.1563  2.4177
20768SOL     OW63591   6.256   1.323   6.617  0.2777  0.2503  0.0131
20768SOL    HW163592   6.205   1.400   6.592  0.9070  0.4388 -0.7299
20768SOL    HW263593   6.229   1.306   6.707 -3.3501 -1.4666 -1.1888
20769SOL     OW63594   8.602   5.812   7.108 -0.2587  0.1425 -0.2991
20769SOL    HW163595   8.654   5.834   7.185  0.0169  0.2616 -0.5151
20769SOL    HW263596   8.521   5.776   7.143 -0.2243  0.3982  0.0484
20770SOL     OW63597   7.814   4.445   4.046  0.2498  0.4201 -0.7511
20770SOL    HW163598   7.836   4.448   4.139  2.0184 -1.5921 -1.0249
20770SOL    HW263599   7.846   4.528   4.010 -1.1550  1.5714  0.4951
20771SOL     OW63600   1.656   0.761   4.690  0.8753  0.4019  0.2089
20771SOL    HW163601   1.721   0.702   4.727  1.7271  1.3321  0.2670
20771SOL    HW263602   1.709   0.831   4.651 -0.1063  1.3189  0.4980
20772SOL     OW63603   2.674   0.845   0.181  0.0907  0.2416 -0.1928
20772SOL    HW163604   2.752   0.866   0.232 -0.5092  1.0614  0.4154
20772SOL    HW263605   2.641   0.930   0.151 -0.7764 -0.0621 -0.1217
20773SOL     OW63606   4.117   1.922   1.323  0.9165 -0.0801  0.0175
20773SOL    HW163607   4.118   1.921   1.418  0.3927  1.2066  0.0564
20773SOL    HW263608   4.137   2.012   1.299 -1.6273  0.3186 -0.9924
20774SOL     OW63609   0.034   7.952   8.028 -0.3227  0.2710  0.3238
20774SOL    HW163610   0.104   7.893   8.057  1.0444  1.4364 -0.5177
20774SOL    HW263611  -0.038   7.934   8.089 -0.6416 -3.4491 -0.8536
20775SOL     OW63612   0.316   6.410   1.916 -0.8618 -0.7241  0.3946
20775SOL    HW163613   0.254   6.346   1.952  1.0278 -2.5909  0.5392
20775SOL    HW263614   0.402   6.377   1.942  0.3396  0.4346 -1.8209
20776SOL     OW63615   6.196   5.419   5.535  0.1659  0.2109  0.3514
20776SOL    HW163616   6.185   5.504   5.577  1.0312 -0.0026  1.0363
20776SOL    HW263617   6.188   5.438   5.441  0.5623  1.0818  0.4840
20777SOL     OW63618   5.508   3.715   7.394 -0.6045  0.1196  0.1477
20777SOL    HW163619   5.574   3.660   7.437 -1.7839 -1.6732 -0.2505
20777SOL    HW263620   5.439   3.655   7.369 -2.2371  1.8915  0.1749
20778SOL     OW63621   8.152   2.073   6.004  0.0025 -0.3408  0.9922
20778SOL    HW163622   8.173   2.157   6.044  0.9860  0.9376 -1.9007
20778SOL    HW263623   8.078   2.040   6.054 -0.4195  2.2522  2.2429
20779SOL     OW63624   4.759   4.581   8.145 -0.3572  0.3215 -0.3793
20779SOL    HW163625   4.771   4.554   8.054  0.2945  0.7851 -0.4356
20779SOL    HW263626   4.684   4.529   8.176  0.0627 -0.6048 -0.8683
20780SOL     OW63627   8.652   6.956   6.170 -0.3951  0.1536 -0.9140
20780SOL    HW163628   8.576   6.917   6.214 -0.0529  0.8068  0.2773
20780SOL    HW263629   8.700   6.881   6.135  0.9664 -0.7192  2.4644
20781SOL     OW63630   4.758   1.293   3.025  0.5854  0.6805  0.6629
20781SOL    HW163631   4.816   1.220   3.005  1.0324  0.0526  3.7088
20781SOL    HW263632   4.719   1.317   2.941  1.1619 -2.3929 -0.6151
20782SOL     OW63633   3.810   8.406   0.351 -0.1684  0.0401 -0.4731
20782SOL    HW163634   3.870   8.354   0.297 -0.0007  0.7002 -0.9392
20782SOL    HW263635   3.862   8.429   0.428  0.0659  0.3122 -0.7107
20783SOL     OW63636   0.817   6.762   7.338  0.1554 -0.7158  0.2339
20783SOL    HW163637   0.780   6.850   7.331  1.4738 -0.1941 -0.9324
20783SOL    HW263638   0.747   6.704   7.310 -0.7155 -0.0310  0.9513
20784SOL     OW63639   3.425   5.069   3.273 -0.6353 -0.0236  0.0422
20784SOL    HW163640   3.332   5.054   3.291 -0.4445 -1.6529 -0.1453
20784SOL    HW263641   3.439   5.029   3.187  0.3750 -0.4466  0.3876
20785SOL     OW63642   4.244   8.343   0.877 -0.6360 -0.1482  0.1329
20785SOL    HW163643   4.219   8.253   0.857  0.9401 -0.4948 -0.4059
20785SOL    HW263644   4.161   8.388   0.892 -1.4759 -1.5663 -0.0723
20786SOL     OW63645   0.851   4.803   7.766  0.5753  0.3400  0.0710
20786SOL    HW163646   0.839   4.734   7.831 -0.5191  1.2276  0.8634
20786SOL    HW263647   0.862   4.756   7.683  0.2386 -0.7872  0.6432
20787SOL     OW63648   6.140   1.886   5.728  0.5334  0.4266 -0.2859
20787SOL    HW163649   6.064   1.848   5.685  0.7597  0.9548 -1.1853
20787SOL    HW263650   6.209   1.820   5.718  0.3055  0.1124  0.1885
20788SOL     OW63651   0.424   4.157   2.411  0.5257  0.0014 -0.4677
20788SOL    HW163652   0.346   4.166   2.357  1.0192  1.7583 -0.9583
20788SOL    HW263653   0.400   4.196   2.495 -0.0225 -2.1062  0.3920
20789SOL     OW63654   2.322   2.088   6.290 -0.0100  0.2267 -0.5852
20789SOL    HW163655   2.260   2.129   6.230  1.1927  1.7991 -0.8040
20789SOL    HW263656   2.382   2.158   6.315  0.7297 -0.8667  0.8842
20790SOL     OW63657   6.024   0.851   7.328  0.5944 -0.5091  0.2507
20790SOL    HW163658   6.075   0.781   7.288  2.1484  0.8916 -0.3180
20790SOL    HW263659   5.956   0.871   7.264  0.0429 -1.5613  0.4810
20791SOL     OW63660   7.542   2.902   8.538 -0.6969  0.2235 -0.2891
20791SOL    HW163661   7.547   2.990   8.575  0.7264  0.4293 -0.9039
20791SOL    HW263662   7.630   2.865   8.550 -1.4576 -1.4124  0.6137
20792SOL     OW63663   5.816   6.151   6.094 -0.3808  0.1599  0.2597
20792SOL    HW163664   5.794   6.103   6.014  0.1380 -0.5116  0.5045
20792SOL    HW263665   5.772   6.102   6.164  1.0165 -0.6150  0.6358
20793SOL     OW63666   1.493   4.852   7.067  0.1121  0.1578 -0.2461
20793SOL    HW163667   1.487   4.908   7.144 -0.1549 -0.6029  0.2961
20793SOL    HW263668   1.404   4.851   7.030  0.5261  1.6073 -1.3648
20794SOL     OW63669   2.735   1.142   2.071 -0.0766 -0.2483 -0.1248
20794SOL    HW163670   2.648   1.132   2.032 -0.5941 -1.3976  1.2019
20794SOL    HW263671   2.789   1.076   2.028 -0.0667 -0.0437 -0.4239
20795SOL     OW63672   6.377   8.064   0.961  0.0694 -0.4630 -0.0091
20795SOL    HW163673   6.433   8.108   1.025 -0.0725  1.6104 -1.2318
20795SOL    HW263674   6.330   7.998   1.012 -0.5542  1.5516  2.1901
20796SOL     OW63675   3.671   8.449   6.757  0.6121  0.6213  0.2806
20796SOL    HW163676   3.645   8.445   6.665  1.7661 -1.4159 -0.0164
20796SOL    HW263677   3.714   8.365   6.773  0.2413  0.8355  2.7538
20797SOL     OW63678   6.157   4.345   3.265  0.5003 -0.4243  0.3806
20797SOL    HW163679   6.077   4.295   3.285  1.1339 -1.4931  0.3322
20797SOL    HW263680   6.132   4.436   3.278 -0.6699 -0.7537  0.5826
20798SOL     OW63681   1.635   1.166   2.214 -0.0996  0.7620  0.0215
20798SOL    HW163682   1.608   1.246   2.260 -0.5007  0.7947 -0.2738
20798SOL    HW263683   1.640   1.192   2.122 -0.7687  0.2987 -0.1446
20799SOL     OW63684   3.634   2.850   1.580  0.1383 -0.1654  0.4617
20799SOL    HW163685   3.640   2.755   1.585  0.7388 -0.0933  1.2582
20799SOL    HW263686   3.558   2.866   1.524 -1.1332 -1.1121  1.8614
20800SOL     OW63687   7.965   4.508   4.989  0.3241  0.6957  0.0342
20800SOL    HW163688   8.021   4.430   4.993 -0.2447  0.3218  0.7394
20800SOL    HW263689   7.981   4.543   4.901  3.1904  1.7287  0.8330
20801SOL     OW63690   1.403   5.898   2.110 -0.0874 -0.3577 -0.1180
20801SOL    HW163691   1.494   5.880   2.133 -0.4552 -0.3352  1.4160
20801SOL    HW263692   1.357   5.815   2.125 -0.6879  0.1837  1.1584
20802SOL     OW63693   2.525   3.712   8.241  0.6699  0.1254  0.0060
20802SOL    HW163694   2.574   3.753   8.170  1.0100  0.7341  0.5834
20802SOL    HW263695   2.592   3.690   8.306  0.1123  1.6953  1.1577
20803SOL     OW63696   7.303   4.094   6.686 -0.4357 -0.0276 -0.6634
20803SOL    HW163697   7.353   4.112   6.606  0.0392 -1.8388 -0.8324
20803SOL    HW263698   7.355   4.028   6.732 -1.7548 -0.5775  0.0953
20804SOL     OW63699   3.241   0.251   8.571 -0.0053  0.8862 -0.0477
20804SOL    HW163700   3.195   0.220   8.493  1.3980  1.0139 -0.9558
20804SOL    HW263701   3.232   0.346   8.568  0.6922  0.9463 -0.4888
20805SOL     OW63702   0.265   8.261   6.032  0.1998  0.3701  0.1434
20805SOL    HW163703   0.331   8.306   5.979 -0.5594  0.9735 -0.3107
20805SOL    HW263704   0.196   8.238   5.970 -0.2637  0.2231  0.7031
20806SOL     OW63705   2.860   3.257   1.293  0.1478  0.7990 -0.1625
20806SOL    HW163706   2.898   3.335   1.252  1.3722  0.6676  0.6603
20806SOL    HW263707   2.766   3.273   1.292  0.2490  1.5123 -1.5353
20807SOL     OW63708   4.191   4.094   4.024 -0.1546 -0.3955 -0.4541
20807SOL    HW163709   4.213   4.077   3.933  1.4746 -0.4205 -0.0771
20807SOL    HW263710   4.275   4.106   4.068 -0.9480  0.8929  0.8039
20808SOL     OW63711   0.249   1.792   8.423 -0.3143 -0.5961  0.4456
20808SOL    HW163712   0.252   1.829   8.335  0.5784 -0.7346  0.4038
20808SOL    HW263713   0.183   1.845   8.469 -1.6860 -1.3082 -0.6353
20809SOL     OW63714   5.109   1.377   3.068 -0.7016 -0.1127  0.2557
20809SOL    HW163715   5.187   1.427   3.091 -1.9291  0.7442  2.8932
20809SOL    HW263716   5.132   1.286   3.087  1.4638 -0.8128 -4.3483
20810SOL     OW63717   5.319   6.791   1.144  0.9883 -0.0483 -0.3729
20810SOL    HW163718   5.396   6.735   1.131  1.1857  0.3496 -0.9583
20810SOL    HW263719   5.274   6.789   1.059  0.1389 -0.5920  0.0810
20811SOL     OW63720   1.470   4.692   7.520  0.0685 -0.0514 -0.5197
20811SOL    HW163721   1.540   4.738   7.566 -1.7005  1.4433  0.8283
20811SOL    HW263722   1.437   4.629   7.583 -1.4571  1.0476 -0.1700
20812SOL     OW63723   0.991   1.619   4.796  0.6826 -0.3633  0.2021
20812SOL    HW163724   0.936   1.579   4.863  1.9938  1.1962  2.3562
20812SOL    HW263725   1.077   1.579   4.809  0.4836 -1.7471 -2.1818
20813SOL     OW63726   6.262   0.466   1.225  0.1757 -0.2705  0.4573
20813SOL    HW163727   6.261   0.450   1.319 -0.2520  0.6641  0.6218
20813SOL    HW263728   6.292   0.556   1.216  0.0702 -0.3038 -0.2939
20814SOL     OW63729   4.180   0.518   8.305 -0.3662  0.2264  0.4656
20814SOL    HW163730   4.200   0.549   8.394 -0.1819 -1.5120  1.0732
20814SOL    HW263731   4.126   0.441   8.319  1.2999 -1.2535 -0.8403
20815SOL     OW63732   5.691   3.485   4.641  0.3501  0.1215  0.2023
20815SOL    HW163733   5.767   3.467   4.585 -0.0658 -0.6827 -0.1178
20815SOL    HW263734   5.621   3.508   4.580 -0.1880 -1.0433  0.3362
20816SOL     OW63735   0.189   6.609   7.373  0.4071  0.7703 -0.3817
20816SOL    HW163736   0.204   6.676   7.440  0.4621 -0.6017  1.0624
20816SOL    HW263737   0.227   6.530   7.411  0.3753 -0.0716 -2.0449
20817SOL     OW63738   6.946   1.850   3.814 -0.5315  0.1793 -0.2111
20817SOL    HW163739   6.889   1.816   3.884 -0.4322 -0.8030 -0.6011
20817SOL    HW263740   6.917   1.805   3.735 -1.4659  2.1792 -1.0850
20818SOL     OW63741   4.898   5.591   7.196 -0.3817  0.0471 -0.3547
20818SOL    HW163742   4.984   5.598   7.237  0.1533 -0.4435 -1.3536
20818SOL    HW263743   4.880   5.497   7.195 -1.0164  0.1608  0.0127
20819SOL     OW63744   2.286   4.707   1.014 -0.2940  0.1274  0.1440
20819SOL    HW163745   2.195   4.712   0.987 -0.1939  1.1290 -0.0700
20819SOL    HW263746   2.284   4.720   1.108 -0.4366 -0.7242  0.2623
20820SOL     OW63747   4.987   8.359   2.924  0.1819  0.1149 -0.6804
20820SOL    HW163748   4.932   8.430   2.890  1.7452  1.5067 -0.4193
20820SOL    HW263749   4.967   8.356   3.017 -0.8840 -0.7424 -0.9173
20821SOL     OW63750   3.084   0.852   1.643 -0.2165  0.2059 -0.3623
20821SOL    HW163751   3.106   0.760   1.656  0.4587  0.3724 -0.2874
20821SOL    HW263752   3.078   0.887   1.732  1.3932  0.6510 -0.3941
20822SOL     OW63753   0.924   4.546   3.581  0.1804  0.0317  0.5892
20822SOL    HW163754   0.946   4.614   3.518 -0.2020  1.2503  1.7183
20822SOL    HW263755   0.909   4.468   3.529  0.4158  0.8647 -0.7629
20823SOL     OW63756   6.698   8.183   2.293 -0.1285  0.3033  0.2603
20823SOL    HW163757   6.791   8.189   2.316  0.3040 -0.9754 -0.9763
20823SOL    HW263758   6.693   8.221   2.206 -0.8444  0.6837  0.4632
20824SOL     OW63759   1.165   8.617   1.485  0.0690  0.3236  0.2386
20824SOL    HW163760   1.207   8.601   1.569 -0.5784  0.0087  0.5071
20824SOL    HW263761   1.223   8.577   1.420 -1.2934 -2.8652  0.8364
20825SOL     OW63762   2.247   5.433   5.689  0.0313 -0.0194  0.3079
20825SOL    HW163763   2.179   5.454   5.754 -1.5355 -2.4004 -0.4282
20825SOL    HW263764   2.312   5.383   5.738  0.1581  0.3878  0.5618
20826SOL     OW63765   3.397   6.635   4.078  0.4085  0.1229  0.0371
20826SOL    HW163766   3.436   6.708   4.127 -1.7094  0.1431  1.9000
20826SOL    HW263767   3.441   6.636   3.994  1.6624  2.4840  0.6205
20827SOL     OW63768   0.930   3.418   4.115 -0.3017 -0.3302 -0.1262
20827SOL    HW163769   0.978   3.399   4.196  1.6440 -0.0281 -1.1490
20827SOL    HW263770   0.949   3.510   4.097 -0.6940 -0.3995 -0.9397
20828SOL     OW63771   5.225   3.754   1.637 -0.0397  0.2117  0.1712
20828SOL    HW163772   5.318   3.733   1.645 -0.1155 -1.3585 -2.0264
20828SOL    HW263773   5.190   3.743   1.725  1.3543 -1.9846  0.5297
20829SOL     OW63774   1.877   4.981   1.448  0.5202  0.4915 -0.7075
20829SOL    HW163775   1.795   4.970   1.401  0.5404 -0.1868 -0.5852
20829SOL    HW263776   1.852   5.015   1.534  0.2523 -0.9382 -0.1996
20830SOL     OW63777   7.415   5.910   2.376 -0.0985 -0.0572 -0.2553
20830SOL    HW163778   7.333   5.909   2.426 -0.2904 -0.2775 -0.5691
20830SOL    HW263779   7.468   5.841   2.416  0.0438  0.2701  0.1259
20831SOL     OW63780   0.884   7.018   0.399  0.3371 -0.3530 -0.0043
20831SOL    HW163781   0.814   6.991   0.458 -0.3478  1.4293  0.0686
20831SOL    HW263782   0.860   6.980   0.315  0.4100 -1.4880  0.4788
20832SOL     OW63783   4.182   0.308   3.396 -0.2693 -0.2974  0.3055
20832SOL    HW163784   4.268   0.335   3.365 -0.7806 -0.3952 -1.2794
20832SOL    HW263785   4.121   0.372   3.359 -0.9446 -0.5561  0.9344
20833SOL     OW63786   1.186   0.658   7.712 -0.1590  0.3960  0.6428
20833SOL    HW163787   1.147   0.646   7.625 -1.4200 -2.7634  1.4974
20833SOL    HW263788   1.277   0.630   7.700 -0.1944  0.4338  0.2478
20834SOL     OW63789   6.488   1.366   7.915  0.4533  0.1820 -0.1923
20834SOL    HW163790   6.436   1.397   7.989  0.1001 -1.5336  0.3230
20834SOL    HW263791   6.543   1.298   7.952  1.7787  0.7043 -1.1143
20835SOL     OW63792   8.561   3.265   0.646  0.2605  0.0463  0.0397
20835SOL    HW163793   8.575   3.173   0.624 -0.0063  0.0562 -0.1760
20835SOL    HW263794   8.519   3.302   0.568 -0.5394  0.1247  0.4965
20836SOL     OW63795   2.179   3.282   8.407 -0.3315 -0.5489 -0.4930
20836SOL    HW163796   2.137   3.248   8.328  0.0105 -0.3472 -0.7610
20836SOL    HW263797   2.107   3.317   8.459 -0.5629 -0.7352 -0.6859
20837SOL     OW63798   3.535   8.114   4.121 -0.4716 -0.2510 -0.0560
20837SOL    HW163799   3.579   8.044   4.170 -1.0219  0.1284  1.0097
20837SOL    HW263800   3.534   8.083   4.031  2.1023 -0.2189 -0.1708
20838SOL     OW63801   0.776   3.957   7.069 -0.4278 -0.1666  0.5141
20838SOL    HW163802   0.732   3.890   7.016 -0.3993  0.5633 -0.4520
20838SOL    HW263803   0.738   3.946   7.157 -2.2025  0.1308 -0.1653
20839SOL     OW63804   6.333   4.764   7.420 -0.3266 -0.1644  0.3431
20839SOL    HW163805   6.279   4.718   7.484 -0.9753 -1.0250 -0.7818
20839SOL    HW263806   6.362   4.844   7.465 -1.9178 -0.0518  1.2232
20840SOL     OW63807   7.192   4.495   8.081  0.1363 -0.1223 -0.3146
20840SOL    HW163808   7.183   4.514   7.988 -0.8534  0.0510 -0.1964
20840SOL    HW263809   7.102   4.488   8.113  0.4620 -0.1809  0.6277
20841SOL     OW63810   1.465   8.062   1.014  0.4277 -0.2974  0.2630
20841SOL    HW163811   1.540   8.066   0.955 -0.2050  0.0477 -0.5340
20841SOL    HW263812   1.455   7.969   1.033 -0.0354 -0.5387 -1.0654
20842SOL     OW63813   3.213   6.948   8.459  0.2544  0.1926  0.0792
20842SOL    HW163814   3.147   7.017   8.459 -0.7474 -0.6879 -1.4313
20842SOL    HW263815   3.178   6.880   8.517  0.1118 -0.0190 -0.2506
20843SOL     OW63816   4.205   8.054   7.585  0.4862 -0.1344  0.1217
20843SOL    HW163817   4.195   8.144   7.615  1.2320 -0.0890  0.2510
20843SOL    HW263818   4.285   8.023   7.628 -0.5493 -1.3378  1.2733
20844SOL     OW63819   1.932   2.123   4.113 -0.2590  0.0781  0.2335
20844SOL    HW163820   2.011   2.164   4.076  0.2135 -0.1542  0.9665
20844SOL    HW263821   1.882   2.095   4.036  0.7036 -0.3917 -0.2469
20845SOL     OW63822   5.619   2.159   6.637 -0.2439  0.3617 -0.3243
20845SOL    HW163823   5.529   2.184   6.616 -1.0946  0.1836  2.6504
20845SOL    HW263824   5.629   2.072   6.598 -1.4175  0.3079 -0.5406
20846SOL     OW63825   7.161   7.370   0.887  0.4837 -0.2578 -0.2778
20846SOL    HW163826   7.216   7.390   0.811  0.3055  0.0669 -0.3195
20846SOL    HW263827   7.100   7.303   0.856 -0.9498  1.3382 -1.0152
20847SOL     OW63828   6.216   3.381   1.980  0.3740 -0.0257  0.5089
20847SOL    HW163829   6.256   3.453   1.931  0.4973  0.2766  1.0354
20847SOL    HW263830   6.252   3.390   2.069 -1.1685  0.5131  1.1181
20848SOL     OW63831   3.890   5.371   8.196 -0.5928  0.2768  0.7450
20848SOL    HW163832   3.805   5.368   8.151 -1.4832 -1.3350  2.3649
20848SOL    HW263833   3.873   5.420   8.277  0.3713  1.0808  0.4769
20849SOL     OW63834   2.078   7.018   3.880 -0.1633 -0.3054 -0.2748
20849SOL    HW163835   2.074   7.018   3.785 -0.5521 -0.5531 -0.2633
20849SOL    HW263836   2.079   7.110   3.905 -0.6690 -0.2392 -0.4997
20850SOL     OW63837   7.868   7.936   3.293  0.4185 -0.0403  0.2563
20850SOL    HW163838   7.903   7.847   3.297  0.0711 -0.1709  0.4322
20850SOL    HW263839   7.773   7.924   3.294  0.3652  0.2876 -0.7228
20851SOL     OW63840   4.370   4.998   4.377  0.2216 -0.0082  0.2885
20851SOL    HW163841   4.318   4.918   4.386 -0.9250  0.4775 -1.5550
20851SOL    HW263842   4.307   5.069   4.387  1.0726  0.6769  0.9971
20852SOL     OW63843   4.741   0.482   7.216  0.6613  0.5925  0.4991
20852SOL    HW163844   4.729   0.489   7.121 -1.5047 -1.7041  0.4912
20852SOL    HW263845   4.712   0.567   7.250  1.6382  1.5110 -0.8679
20853SOL     OW63846   2.928   6.670   3.542  0.4782 -0.0744  0.4832
20853SOL    HW163847   2.980   6.697   3.618  1.8114 -0.6335 -0.1968
20853SOL    HW263848   2.920   6.575   3.551  1.1170 -0.2203 -0.3267
20854SOL     OW63849   6.613   0.249   7.488  0.6957 -0.8256  0.0153
20854SOL    HW163850   6.547   0.279   7.426  0.4479 -1.0973  0.1434
20854SOL    HW263851   6.567   0.247   7.572 -0.0582 -3.8753 -0.3369
20855SOL     OW63852   3.706   4.602   3.635 -0.3443  0.1392 -0.0994
20855SOL    HW163853   3.777   4.540   3.620 -0.9221 -0.2734 -1.2125
20855SOL    HW263854   3.746   4.673   3.685 -0.0655 -1.9486  2.9008
20856SOL     OW63855   1.893   5.893   1.788  0.5674 -0.1845 -0.2031
20856SOL    HW163856   1.909   5.975   1.834  0.4218 -0.7572  0.8997
20856SOL    HW263857   1.977   5.871   1.748  0.4453  0.8106 -1.0340
20857SOL     OW63858   3.013   3.736   6.510 -0.0099 -0.4651 -0.1107
20857SOL    HW163859   3.013   3.818   6.560  1.1628 -0.4431 -0.1390
20857SOL    HW263860   3.067   3.755   6.433  1.3784 -1.6515  0.5406
20858SOL     OW63861   6.897   8.695   8.197 -0.4026 -0.2433  0.1315
20858SOL    HW163862   6.919   8.700   8.290 -0.5809  0.4276  0.1456
20858SOL    HW263863   6.932   8.777   8.161 -0.8197 -0.2506 -0.2844
20859SOL     OW63864   3.419   4.584   4.896  0.1530  0.1639  0.3962
20859SOL    HW163865   3.442   4.640   4.822  0.4231 -0.2416  0.1689
20859SOL    HW263866   3.366   4.514   4.857 -0.8193  0.6532  0.7863
20860SOL     OW63867   5.685   5.723   0.478  0.2129 -0.3241 -1.0675
20860SOL    HW163868   5.709   5.639   0.440 -0.0855 -0.4996 -0.8748
20860SOL    HW263869   5.606   5.749   0.431  1.1814  0.6237 -2.2400
20861SOL     OW63870   2.494   5.285   2.318 -0.4075  0.0974  0.2063
20861SOL    HW163871   2.482   5.190   2.309  0.4343 -0.0372  0.4139
20861SOL    HW263872   2.586   5.295   2.344 -0.2116  1.0290 -0.7575
20862SOL     OW63873   2.036   7.783   2.670  0.1020 -0.0488 -0.6926
20862SOL    HW163874   2.006   7.771   2.580  1.1810 -2.1367 -0.8322
20862SOL    HW263875   1.964   7.750   2.724 -0.7533  1.6599 -0.7151
20863SOL     OW63876   5.053   4.926   4.328 -0.2038  0.0770 -0.0212
20863SOL    HW163877   4.969   4.951   4.290 -0.6915 -0.6887  0.5187
20863SOL    HW263878   5.032   4.896   4.416  0.7141  0.3998  0.3259
20864SOL     OW63879   3.461   2.787   5.650 -0.6462  0.9551  0.2526
20864SOL    HW163880   3.407   2.711   5.670 -2.5374  2.6221  1.9070
20864SOL    HW263881   3.482   2.778   5.557 -1.0700 -1.3767  0.3337
20865SOL     OW63882   7.605   4.729   5.503  0.5163 -0.4844 -0.3191
20865SOL    HW163883   7.553   4.765   5.431  0.4344 -1.1585 -0.6087
20865SOL    HW263884   7.549   4.662   5.542  1.4839 -1.8592 -1.2030
20866SOL     OW63885   7.611   3.259   2.953  0.4578  0.2361 -0.2724
20866SOL    HW163886   7.636   3.228   3.040  1.7747 -0.7396 -0.9546
20866SOL    HW263887   7.681   3.319   2.927  1.3832 -1.3295 -1.5933
20867SOL     OW63888   6.383   5.987   7.795 -0.3175 -0.4622 -0.0447
20867SOL    HW163889   6.460   6.015   7.844 -1.0973  1.4137  0.2034
20867SOL    HW263890   6.337   5.927   7.853  0.5604 -1.0092  0.0941
20868SOL     OW63891   8.520   0.776   2.960  0.0700  0.1734 -0.4596
20868SOL    HW163892   8.536   0.712   3.029  0.5966  0.2883 -0.4729
20868SOL    HW263893   8.604   0.785   2.915 -0.3890 -0.2680 -1.4342
20869SOL     OW63894   7.360   0.207   6.376 -0.3292 -0.4105 -0.5187
20869SOL    HW163895   7.440   0.235   6.422 -0.2233  0.9242 -1.4477
20869SOL    HW263896   7.392   0.157   6.301 -0.2843  0.8906 -1.4021
20870SOL     OW63897   6.287   3.804   8.677  0.3494 -0.2724  0.4290
20870SOL    HW163898   6.366   3.822   8.626 -1.3640  0.3974 -2.2154
20870SOL    HW263899   6.252   3.890   8.699 -0.2481 -0.5426  0.5586
20871SOL     OW63900   3.534   7.346   1.755 -0.4707  0.4704 -0.3076
20871SOL    HW163901   3.623   7.377   1.772  0.0991 -1.1814 -0.0010
20871SOL    HW263902   3.515   7.373   1.665  1.0221 -0.5395 -0.9731
20872SOL     OW63903   2.540   1.626   2.252 -0.4745 -0.2931  0.5931
20872SOL    HW163904   2.566   1.544   2.209 -0.0646 -1.3669  2.7736
20872SOL    HW263905   2.611   1.687   2.233  0.8076 -1.4265  1.5948
20873SOL     OW63906   0.591   5.994   2.115 -0.5257  0.3023 -0.1425
20873SOL    HW163907   0.584   6.013   2.021  0.0110 -0.1781 -0.2836
20873SOL    HW263908   0.604   5.899   2.119  1.9588  0.5974  0.2625
20874SOL     OW63909   5.768   4.029   0.596 -0.0929  0.0122 -0.1323
20874SOL    HW163910   5.751   3.944   0.637 -0.2259 -0.5831 -1.3593
20874SOL    HW263911   5.682   4.066   0.581 -0.0242  1.5358  2.6196
20875SOL     OW63912   1.793   1.741   0.884  0.0513  0.0256  0.0621
20875SOL    HW163913   1.851   1.669   0.861 -0.9174 -1.0207  0.8123
20875SOL    HW263914   1.759   1.772   0.800  0.1029 -0.7001 -0.2350
20876SOL     OW63915   6.952   7.825   2.592 -0.2846 -0.1023  0.4421
20876SOL    HW163916   7.036   7.823   2.639 -1.0571 -0.6288  1.8307
20876SOL    HW263917   6.977   7.822   2.499  1.3028  1.6610  0.7392
20877SOL     OW63918   7.473   2.945   5.737  0.9956  0.9216 -0.1818
20877SOL    HW163919   7.437   3.009   5.799 -0.5226 -0.5169  0.4870
20877SOL    HW263920   7.564   2.973   5.724  0.7815  2.3852  1.1663
20878SOL     OW63921   7.505   8.035   1.925  0.0763  0.3765 -0.0514
20878SOL    HW163922   7.550   8.119   1.925  1.8957 -0.5327 -0.7711
20878SOL    HW263923   7.573   7.971   1.947 -1.3741 -0.8768  1.0670
20879SOL     OW63924   3.545   8.166   6.073 -1.0696 -0.3664  0.1914
20879SOL    HW163925   3.562   8.075   6.097 -0.1523 -0.0137  0.9254
20879SOL    HW263926   3.502   8.161   5.987  1.7666 -1.3676 -1.2793
20880SOL     OW63927   4.473   3.664   5.720 -0.2596  0.0747  0.1358
20880SOL    HW163928   4.484   3.571   5.743 -0.1245 -0.0249 -0.3210
20880SOL    HW263929   4.460   3.664   5.625  0.7212  0.5933 -0.0171
20881SOL     OW63930   8.495   6.054   1.028  0.5761 -0.1219  0.0096
20881SOL    HW163931   8.447   6.015   1.101 -1.4967  0.6394 -0.8717
20881SOL    HW263932   8.528   6.137   1.063 -0.4237  0.2530  0.0813
20882SOL     OW63933   2.724   2.658   7.756  0.0712 -0.1265 -0.4968
20882SOL    HW163934   2.712   2.626   7.846  0.6149  1.5931  0.2292
20882SOL    HW263935   2.805   2.617   7.727  2.1092  2.2845  1.3125
20883SOL     OW63936   4.720   3.990   4.334  0.3726 -0.2165 -0.5924
20883SOL    HW163937   4.777   3.982   4.410 -0.3007  1.0670  0.0941
20883SOL    HW263938   4.650   4.048   4.363  0.0682  0.2676 -2.1842
20884SOL     OW63939   6.094   8.522   4.591  0.4294  0.2410  0.6785
20884SOL    HW163940   6.178   8.504   4.632  0.0073  0.7796  1.8210
20884SOL    HW263941   6.068   8.608   4.625  0.4929  1.1597 -1.4581
20885SOL     OW63942   7.896   6.452   5.285 -0.0711 -0.6007  0.5181
20885SOL    HW163943   7.840   6.480   5.357  0.7709 -0.8870  1.3060
20885SOL    HW263944   7.981   6.437   5.326  0.3812 -0.9166 -0.5158
20886SOL     OW63945   5.835   2.779   3.767  0.2756  0.7237  0.0360
20886SOL    HW163946   5.804   2.842   3.702  0.9529 -0.0029 -0.9993
20886SOL    HW263947   5.929   2.776   3.755  0.3016 -0.1600  0.3969
20887SOL     OW63948   4.353   0.744   7.647  0.4226 -0.0279 -0.1799
20887SOL    HW163949   4.441   0.780   7.656  1.0088 -1.0557 -1.4533
20887SOL    HW263950   4.358   0.658   7.689 -0.6387  0.8224  1.7925
20888SOL     OW63951   5.365   8.412   4.390 -0.1993 -0.0511  0.8730
20888SOL    HW163952   5.424   8.437   4.461 -0.2205  0.2542  0.7850
20888SOL    HW263953   5.278   8.415   4.429 -0.4796  2.5870  0.2161
20889SOL     OW63954   3.731   2.006   1.493 -0.3509  0.1192  0.3075
20889SOL    HW163955   3.718   2.058   1.413 -1.6248  0.1916  0.5408
20889SOL    HW263956   3.802   2.051   1.539  0.5892 -0.0823 -0.9014
20890SOL     OW63957   0.012   0.158   1.670  0.2893  0.0604 -0.0199
20890SOL    HW163958   0.106   0.154   1.683  0.2549  2.8389  1.9136
20890SOL    HW263959  -0.021   0.077   1.708  1.8134 -0.6007 -0.0352
20891SOL     OW63960   0.629   2.306   7.820 -0.0524 -0.4717  0.5522
20891SOL    HW163961   0.678   2.275   7.744  1.7077 -0.1552  1.4901
20891SOL    HW263962   0.570   2.372   7.785  1.2383  0.1961 -0.4512
20892SOL     OW63963   3.831   1.195   2.112 -0.1968 -0.1704 -0.2624
20892SOL    HW163964   3.910   1.172   2.064 -0.3833  1.3468 -1.3734
20892SOL    HW263965   3.765   1.133   2.080  0.0935 -0.2389 -0.7464
20893SOL     OW63966   3.748   7.204   5.828  0.2346  0.2264 -0.1749
20893SOL    HW163967   3.695   7.160   5.894  0.9931  0.6399  0.7431
20893SOL    HW263968   3.703   7.187   5.745 -1.3621  0.6455  0.5752
20894SOL     OW63969   2.078   2.393   8.122  0.2521  0.4477  0.1493
20894SOL    HW163970   2.116   2.320   8.172  2.1046 -0.2514 -2.0819
20894SOL    HW263971   2.144   2.462   8.127 -0.7881  1.3932  0.9372
20895SOL     OW63972   5.548   3.422   2.775  0.2692  0.0125  0.2923
20895SOL    HW163973   5.625   3.456   2.730  1.5729 -1.6837  1.0872
20895SOL    HW263974   5.498   3.377   2.707  1.3179 -1.0361  0.1764
20896SOL     OW63975   5.863   1.698   7.535 -0.0849  0.4823  0.2062
20896SOL    HW163976   5.940   1.730   7.487 -0.4672  1.8385  0.4446
20896SOL    HW263977   5.809   1.655   7.468  0.2893  0.6562 -0.2093
20897SOL     OW63978   4.249   4.097   6.159  0.0037  0.1758  0.1166
20897SOL    HW163979   4.338   4.126   6.181  0.0540  0.3803 -0.3419
20897SOL    HW263980   4.260   4.006   6.132  0.5556  1.0216 -2.8242
20898SOL     OW63981   1.714   6.581   0.450 -0.0684  0.0353 -0.6402
20898SOL    HW163982   1.764   6.579   0.368  0.4704  1.3076 -0.3595
20898SOL    HW263983   1.758   6.648   0.503  0.9456 -2.2229  1.5733
20899SOL     OW63984   5.534   5.032   0.361  0.0373 -0.1433 -0.1352
20899SOL    HW163985   5.524   4.990   0.446 -0.5804  0.4786  0.1063
20899SOL    HW263986   5.624   5.066   0.362  0.2185 -0.6260  0.0430
20900SOL     OW63987   2.593   6.754   1.951 -0.7081 -0.3956 -0.0664
20900SOL    HW163988   2.531   6.764   1.879  0.3996  3.6794 -0.7345
20900SOL    HW263989   2.679   6.767   1.910  0.0446  0.5832  1.7170
20901SOL     OW63990   3.121   1.502   5.214 -0.1089  0.0366 -0.1721
20901SOL    HW163991   3.172   1.553   5.277  0.6033 -0.0978 -0.6273
20901SOL    HW263992   3.152   1.532   5.128 -0.5477 -0.3059 -0.4566
20902SOL     OW63993   6.040   2.516   4.427  0.1863 -0.4085 -0.6972
20902SOL    HW163994   6.133   2.504   4.445 -0.0635 -0.9637  0.2977
20902SOL    HW263995   6.032   2.610   4.407  0.8499 -0.2129 -0.1023
20903SOL     OW63996   1.125   7.684   1.272  0.4506  0.7889 -0.6116
20903SOL    HW163997   1.200   7.739   1.291  0.3544  1.3954 -1.8586
20903SOL    HW263998   1.058   7.745   1.240 -0.9359  0.3988  1.3637
20904SOL     OW63999   3.493   2.316   5.557 -0.1940  0.0400  0.1982
20904SOL    HW164000   3.572   2.333   5.505  0.1814  1.4493  1.1643
20904SOL    HW264001   3.499   2.223   5.580  0.9647  0.0217 -0.1043
20905SOL     OW64002   0.890   4.952   6.096 -0.2957 -0.5100  0.4676
20905SOL    HW164003   0.897   5.043   6.124  0.7503 -1.1247  2.4001
20905SOL    HW264004   0.940   4.948   6.015  1.6368  0.1928  1.5723
20906SOL     OW64005   7.258   6.476   0.428 -0.3413  0.0458 -0.5242
20906SOL    HW164006   7.308   6.396   0.414  0.2379  0.1928  0.5687
20906SOL    HW264007   7.296   6.514   0.508 -1.0019  1.0956 -0.6919
20907SOL     OW64008   3.125   2.380   4.406 -0.4450 -0.0303  0.2159
20907SOL    HW164009   3.165   2.353   4.324  0.3409 -1.3108  0.9740
20907SOL    HW264010   3.044   2.425   4.381 -0.0021 -0.0099 -1.2494
20908SOL     OW64011   4.478   1.243   8.375 -0.3931  0.0656  0.0412
20908SOL    HW164012   4.418   1.200   8.436 -1.1603  1.1394  0.0629
20908SOL    HW264013   4.528   1.304   8.429  0.2279 -0.3033 -0.1034
20909SOL     OW64014   6.070   2.670   5.821 -0.0423 -0.0144 -0.3723
20909SOL    HW164015   6.153   2.717   5.833 -0.0826 -0.1423  0.4497
20909SOL    HW264016   6.036   2.658   5.910 -0.0900 -1.5182 -0.5671
20910SOL     OW64017   7.729   1.549   1.916  0.4409  0.0251  0.2383
20910SOL    HW164018   7.702   1.461   1.943  0.1659 -0.2071 -0.7703
20910SOL    HW264019   7.726   1.600   1.997  0.6323 -0.8968  0.8448
20911SOL     OW64020   4.807   0.506   0.248  0.0324  0.3115  0.4520
20911SOL    HW164021   4.759   0.576   0.291 -1.1779  0.0698 -0.4332
20911SOL    HW264022   4.746   0.473   0.181  1.0828 -0.6607 -0.0635
20912SOL     OW64023   4.378   3.670   7.090  0.0766 -0.2191 -0.5140
20912SOL    HW164024   4.422   3.590   7.061 -1.5988 -1.1676 -0.5303
20912SOL    HW264025   4.439   3.708   7.154  0.2568 -2.3118  0.6588
20913SOL     OW64026   2.789   1.178   1.028  0.2042  0.3084 -1.0001
20913SOL    HW164027   2.742   1.136   1.100  0.7070 -0.2413 -0.9883
20913SOL    HW264028   2.845   1.109   0.991  0.7570  0.8632 -1.2271
20914SOL     OW64029   6.774   3.527   0.623  0.6599  0.3987 -0.2246
20914SOL    HW164030   6.802   3.439   0.647 -1.2231 -0.2128 -0.1195
20914SOL    HW264031   6.681   3.530   0.646  0.4386  2.0771 -1.1547
20915SOL     OW64032   3.417   4.846   3.109 -0.4517 -0.3582 -0.0935
20915SOL    HW164033   3.511   4.829   3.122  0.7188  2.2812 -3.4289
20915SOL    HW264034   3.398   4.810   3.022 -2.6643 -1.0696  0.6339
20916SOL     OW64035   6.693   3.953   2.026 -0.1189  0.5061 -0.0525
20916SOL    HW164036   6.608   3.941   1.983  0.3055  1.0811 -1.1008
20916SOL    HW264037   6.671   3.976   2.116 -1.1529  2.3608 -0.7072
20917SOL     OW64038   0.930   1.068   8.566  0.0985  0.2953  0.3480
20917SOL    HW164039   0.959   1.109   8.647 -1.2050  1.1912  0.3912
20917SOL    HW264040   0.882   1.137   8.519 -1.8972 -1.0290  0.2805
20918SOL     OW64041   8.218   7.730   5.824  0.2380 -0.3534  0.1068
20918SOL    HW164042   8.154   7.800   5.840  2.4380  2.1440 -1.1496
20918SOL    HW264043   8.216   7.719   5.728 -0.1548 -2.1909  0.2962
20919SOL     OW64044   2.341   2.789   5.677 -0.2841  0.9055  0.2940
20919SOL    HW164045   2.424   2.784   5.725 -0.4047  0.6030  0.4712
20919SOL    HW264046   2.307   2.876   5.697 -1.1700  0.1719  2.1318
20920SOL     OW64047   2.136   2.011   1.117 -0.1134  0.0285 -0.2605
20920SOL    HW164048   2.179   1.926   1.116 -1.2896 -0.6098  0.5878
20920SOL    HW264049   2.207   2.074   1.109  0.7597 -1.0241 -1.1850
20921SOL     OW64050   2.144   5.229   7.930  0.2016  0.3538  0.2738
20921SOL    HW164051   2.058   5.208   7.967  0.7550  0.3400  1.6218
20921SOL    HW264052   2.194   5.148   7.942  0.4805  0.4490 -0.2540
20922SOL     OW64053   2.700   1.524   5.977  0.1769  0.3320  0.1798
20922SOL    HW164054   2.795   1.523   5.970  0.1659 -1.3147 -0.2717
20922SOL    HW264055   2.680   1.472   6.055 -0.3799 -1.9509 -1.3810
20923SOL     OW64056   2.828   2.064   1.113 -0.4166  0.0737 -0.3819
20923SOL    HW164057   2.746   2.112   1.128  0.0316  0.1303  2.3005
20923SOL    HW264058   2.892   2.132   1.093 -0.4140  0.3345  0.4794
20924SOL     OW64059   6.904   5.149   3.977 -0.3602  0.2290  0.2758
20924SOL    HW164060   6.924   5.072   3.924  0.8729  0.3599  0.5104
20924SOL    HW264061   6.858   5.114   4.053  0.6575 -0.3720  0.6427
20925SOL     OW64062   0.190   6.759   5.462 -0.0153  0.3701  0.0748
20925SOL    HW164063   0.252   6.831   5.465  0.8535 -0.2635 -1.6513
20925SOL    HW264064   0.187   6.733   5.370 -3.0505  0.5305  0.0146
20926SOL     OW64065   4.193   3.311   8.105  0.0838  0.1038  0.3146
20926SOL    HW164066   4.169   3.399   8.074  0.3188 -0.0355 -0.2718
20926SOL    HW264067   4.114   3.279   8.148 -0.4279  0.0957 -0.6036
20927SOL     OW64068   3.696   6.222   6.836  0.6381  0.0757  0.3135
20927SOL    HW164069   3.651   6.173   6.905  2.0518  1.4709  2.3394
20927SOL    HW264070   3.789   6.219   6.861  1.0248  1.7977 -0.7796
20928SOL     OW64071   7.291   2.215   0.753  0.7550 -0.1287  0.0887
20928SOL    HW164072   7.200   2.246   0.754  0.9001  0.3252 -0.3375
20928SOL    HW264073   7.309   2.192   0.844  0.3113  0.0790  0.2330
20929SOL     OW64074   6.315   3.797   8.279  0.2206 -0.3319 -0.6447
20929SOL    HW164075   6.377   3.870   8.278  0.5977 -0.6497 -2.4031
20929SOL    HW264076   6.320   3.760   8.192 -1.6809 -1.0429 -0.4923
20930SOL     OW64077   0.727   6.322   7.617 -0.1811  0.1885 -0.2633
20930SOL    HW164078   0.704   6.303   7.526 -2.0733  2.0163 -0.2421
20930SOL    HW264079   0.821   6.340   7.615 -0.3381  0.9520 -2.0082
20931SOL     OW64080   8.098   6.106   5.975 -0.4235  0.4365  0.1512
20931SOL    HW164081   8.160   6.037   5.951 -0.0592  0.4440  1.0522
20931SOL    HW264082   8.030   6.101   5.908  1.8040  2.1383 -2.4424
20932SOL     OW64083   8.331   6.794   5.975  0.9749 -0.1384  0.4205
20932SOL    HW164084   8.322   6.882   6.013 -0.9447 -1.0233  2.2072
20932SOL    HW264085   8.425   6.776   5.979  1.5073  2.0712 -0.6379
20933SOL     OW64086   7.973   6.201   3.251  0.2856  0.6835 -0.0173
20933SOL    HW164087   8.064   6.174   3.239  0.3775  0.7060  0.5835
20933SOL    HW264088   7.947   6.239   3.167  0.6469  0.1496 -0.3761
20934SOL     OW64089   0.878   6.708   6.034  0.3336 -0.3357  0.1046
20934SOL    HW164090   0.836   6.745   5.956 -1.2040 -1.9239  0.1078
20934SOL    HW264091   0.806   6.695   6.096  1.1090 -1.4381  0.8207
20935SOL     OW64092   4.459   6.686   2.019  0.6796  0.5713  0.1090
20935SOL    HW164093   4.403   6.695   1.942  1.8238 -0.2595 -0.8449
20935SOL    HW264094   4.400   6.700   2.093 -0.5080  1.0555 -0.8940
20936SOL     OW64095   3.444   2.215   2.214  0.7862  0.4627 -0.6146
20936SOL    HW164096   3.393   2.269   2.274 -0.7838 -1.7404  0.1506
20936SOL    HW264097   3.398   2.221   2.130  0.7597  0.4832 -0.5986
20937SOL     OW64098   4.090   5.531   2.701  0.6874  0.5905 -0.0251
20937SOL    HW164099   4.018   5.502   2.644  0.9111 -0.6496  0.3041
20937SOL    HW264100   4.096   5.626   2.685  0.6282  0.3089 -1.9247
20938SOL     OW64101   0.718   2.504   0.779  0.1623 -0.1628 -0.1268
20938SOL    HW164102   0.639   2.555   0.797  0.7904  0.1839  1.9924
20938SOL    HW264103   0.687   2.414   0.769 -0.6752  0.2266 -1.3248
20939SOL     OW64104   5.167   0.070   2.551  0.2418  0.3717 -0.0901
20939SOL    HW164105   5.253   0.091   2.588  0.7160  0.0177 -0.9419
20939SOL    HW264106   5.136  -0.004   2.602  0.5604  0.3367  0.0552
20940SOL     OW64107   7.861   7.963   4.366  0.3085 -0.4351 -0.1415
20940SOL    HW164108   7.911   8.041   4.389  1.1060 -1.1893  0.7606
20940SOL    HW264109   7.820   7.985   4.283  1.7129  0.4012 -0.6437
20941SOL     OW64110   5.531   4.859   0.136 -0.1784 -0.5923  0.1533
20941SOL    HW164111   5.574   4.911   0.204  1.2712 -1.7536  0.1760
20941SOL    HW264112   5.475   4.798   0.183  1.2121 -1.7417  0.3883
20942SOL     OW64113   4.075   5.815   5.746 -0.0192  0.3965  0.1970
20942SOL    HW164114   4.044   5.875   5.679  1.7561  2.1687  0.8649
20942SOL    HW264115   4.003   5.809   5.809 -0.7333  0.7181 -0.5824
20943SOL     OW64116   4.595   5.293   0.672  0.0462 -0.5930 -0.1212
20943SOL    HW164117   4.529   5.349   0.632  0.1155 -0.9428 -0.7370
20943SOL    HW264118   4.672   5.348   0.681 -0.0962 -0.3994 -0.0929
20944SOL     OW64119   7.947   1.786   7.047 -0.3525 -0.0494  0.3909
20944SOL    HW164120   7.876   1.806   7.107 -0.2993  0.7688  0.1963
20944SOL    HW264121   7.964   1.693   7.059 -0.6197  0.0195  1.3375
20945SOL     OW64122   6.936   7.785   5.392  0.8218 -0.3217 -0.2688
20945SOL    HW164123   6.915   7.706   5.442 -0.3771 -0.9586 -1.7146
20945SOL    HW264124   6.975   7.753   5.311 -0.9088  0.4576 -1.4646
20946SOL     OW64125   8.656   8.660   0.431 -0.2766  0.1310  0.1780
20946SOL    HW164126   8.670   8.638   0.524 -1.3943 -3.4308 -0.3299
20946SOL    HW264127   8.567   8.694   0.428 -0.2298  0.2790  0.4064
20947SOL     OW64128   0.440   4.077   7.319  0.3889  0.4598 -0.5605
20947SOL    HW164129   0.426   4.070   7.414 -0.1737  0.6192 -0.6323
20947SOL    HW264130   0.492   4.157   7.308  0.4906  0.4182 -0.3837
20948SOL     OW64131   5.467   7.372   2.826  0.5290  0.3976 -0.1989
20948SOL    HW164132   5.416   7.453   2.825  1.9255  1.3243  0.8537
20948SOL    HW264133   5.558   7.400   2.832  1.0029 -1.2508  1.3840
20949SOL     OW64134   0.587   1.355   1.708 -0.0211 -0.0771  0.6741
20949SOL    HW164135   0.625   1.431   1.752  0.2170  0.1461  0.0972
20949SOL    HW264136   0.571   1.292   1.778 -0.9543  0.7992  1.2871
20950SOL     OW64137   0.374   5.719   5.290  0.5091 -0.8878 -0.1289
20950SOL    HW164138   0.313   5.753   5.355 -0.6105  0.3620 -1.7444
20950SOL    HW264139   0.450   5.777   5.296  0.5737 -1.0135  0.3079
20951SOL     OW64140   2.453   7.744   8.537 -0.1499 -0.0058  0.0494
20951SOL    HW164141   2.436   7.786   8.622 -0.2485  0.6573 -0.2898
20951SOL    HW264142   2.496   7.812   8.485  0.7673 -0.6953 -0.1321
20952SOL     OW64143   0.836   2.873   7.453  0.0623 -0.2439  0.6437
20952SOL    HW164144   0.916   2.842   7.410 -0.7762 -0.2032 -1.0453
20952SOL    HW264145   0.778   2.797   7.453  0.0158 -0.2246  1.6946
20953SOL     OW64146   3.690   7.081   4.239  0.4559  0.0262 -0.3997
20953SOL    HW164147   3.621   7.129   4.283 -0.1624 -0.7316 -0.5153
20953SOL    HW264148   3.717   7.014   4.303 -1.3269 -1.9125 -1.5417
20954SOL     OW64149   2.036   3.309   7.235 -0.3828  0.4719 -0.0979
20954SOL    HW164150   2.071   3.291   7.148 -0.3464  1.3895 -0.2846
20954SOL    HW264151   2.095   3.374   7.272  0.4490 -0.9462  1.2093
20955SOL     OW64152   6.962   8.665   6.149  0.0783 -0.2276 -0.1019
20955SOL    HW164153   7.053   8.637   6.141  0.7361  1.4772  0.8083
20955SOL    HW264154   6.921   8.597   6.203  2.0274  1.2015  3.5230
20956SOL     OW64155   3.689   1.308   7.299  0.0661 -0.3096 -0.0782
20956SOL    HW164156   3.764   1.337   7.246  1.3845  0.1076  1.9254
20956SOL    HW264157   3.720   1.230   7.344 -0.7177 -0.1761  0.7199
20957SOL     OW64158   2.005   3.812   5.999 -0.2631 -0.1189  0.0170
20957SOL    HW164159   2.012   3.725   6.039  2.8631 -0.5493 -1.1575
20957SOL    HW264160   1.923   3.810   5.950 -0.5031 -2.2395  0.4012
20958SOL     OW64161   1.358   5.777   0.341  0.6632  0.2413 -0.0067
20958SOL    HW164162   1.384   5.747   0.253  1.0952  0.3984  0.0642
20958SOL    HW264163   1.422   5.844   0.363  0.0514  0.8022  0.0821
20959SOL     OW64164   0.230   2.567   1.109 -0.1205  0.5118  0.4582
20959SOL    HW164165   0.183   2.627   1.051  0.6792  3.4696  2.6189
20959SOL    HW264166   0.169   2.552   1.181 -0.0093 -0.7348  0.3177
20960SOL     OW64167   1.906   7.409   3.082  0.0541 -0.0193  0.8111
20960SOL    HW164168   1.934   7.378   3.169  0.4566 -0.6129  0.4775
20960SOL    HW264169   1.810   7.407   3.086  0.0694  0.1246  1.3015
20961SOL     OW64170   8.667   5.060   4.569  0.3672 -0.9102  0.0159
20961SOL    HW164171   8.643   5.052   4.476 -0.5880 -1.5537  0.3054
20961SOL    HW264172   8.598   5.014   4.616  0.1278  0.5395  1.1489
20962SOL     OW64173   1.129   0.625   4.095 -0.0393 -0.2464 -0.5162
20962SOL    HW164174   1.070   0.559   4.132  0.0617  0.0257  0.1559
20962SOL    HW264175   1.192   0.642   4.166  0.2822  0.1491 -0.8917
20963SOL     OW64176   5.643   4.589   8.250  0.4495  1.0140 -0.3405
20963SOL    HW164177   5.573   4.654   8.248 -0.7162 -0.1833 -0.6975
20963SOL    HW264178   5.618   4.528   8.320 -0.1734 -0.7381 -1.9776
20964SOL     OW64179   8.638   7.407   3.354 -0.0853  0.0057  0.1362
20964SOL    HW164180   8.682   7.386   3.437 -0.5861 -0.9145  0.1702
20964SOL    HW264181   8.664   7.498   3.337 -0.1257  0.2803  1.3995
20965SOL     OW64182   5.198   5.330   8.302 -0.4953  0.1493  0.6477
20965SOL    HW164183   5.204   5.297   8.213  0.8844 -1.5277  1.2983
20965SOL    HW264184   5.211   5.253   8.357 -0.1777  1.3203  2.2892
20966SOL     OW64185   3.572   2.909   7.083  0.6085 -0.0733 -0.0633
20966SOL    HW164186   3.547   2.883   6.994 -2.5476  0.0614  0.6815
20966SOL    HW264187   3.582   3.004   7.078 -1.0275  0.1298 -0.0278
20967SOL     OW64188   4.052   7.931   7.388  0.3502  0.3222 -0.2854
20967SOL    HW164189   3.965   7.971   7.384  0.1007 -0.1704 -0.0164
20967SOL    HW264190   4.105   7.992   7.438  0.7074  1.5802 -2.1237
20968SOL     OW64191   5.812   1.067   1.537  0.1069  0.0814  0.6049
20968SOL    HW164192   5.729   1.033   1.569 -0.2782  0.5796  0.1543
20968SOL    HW264193   5.862   0.990   1.512 -0.2967 -0.2140  0.6992
20969SOL     OW64194   8.502   0.028   6.327 -0.1281 -0.5529  0.0707
20969SOL    HW164195   8.521   0.026   6.234 -0.4248 -1.1873  0.0195
20969SOL    HW264196   8.523   0.117   6.354 -1.5338  0.1181 -0.9289
20970SOL     OW64197   7.824   2.073   4.008 -0.2280  0.2400 -0.3533
20970SOL    HW164198   7.906   2.038   4.042 -0.1214  1.4453  0.7084
20970SOL    HW264199   7.780   1.998   3.968  1.6203 -0.3130 -1.4415
20971SOL     OW64200   6.775   5.453   3.183 -0.0073  0.0266 -0.7517
20971SOL    HW164201   6.818   5.420   3.262  0.5525  1.1922 -0.5533
20971SOL    HW264202   6.810   5.399   3.113 -1.1123 -1.5742 -0.1431
20972SOL     OW64203   1.893   4.882   3.989 -0.4193  0.1469  0.1951
20972SOL    HW164204   1.852   4.926   3.914 -0.1566  0.1157  0.0318
20972SOL    HW264205   1.974   4.931   4.004 -0.3456 -0.0062  0.2973
20973SOL     OW64206   0.014   7.197   7.365  0.3569  0.2628 -0.1646
20973SOL    HW164207   0.094   7.155   7.395  0.2034  1.5911  2.3591
20973SOL    HW264208  -0.038   7.126   7.327  1.0364 -1.3966  1.8445
20974SOL     OW64209   7.874   0.027   2.960  0.3727 -0.1014  0.0454
20974SOL    HW164210   7.936   0.099   2.947  0.9013 -0.6830 -0.6910
20974SOL    HW264211   7.929  -0.048   2.985 -0.2984  0.1564  2.6895
20975SOL     OW64212   8.515   5.770   3.291 -0.1935  0.4226 -0.8536
20975SOL    HW164213   8.501   5.838   3.225  1.8855  2.1408  0.3887
20975SOL    HW264214   8.610   5.760   3.296 -0.3917 -1.4424  0.1731
20976SOL     OW64215   2.555   4.929   5.222  0.4227 -0.5623 -0.2973
20976SOL    HW164216   2.460   4.925   5.208  0.2717 -0.6973  0.6919
20976SOL    HW264217   2.571   5.021   5.245  0.5341 -0.5362 -0.4807
20977SOL     OW64218   0.999   1.750   2.164  0.2008  0.2347  0.0964
20977SOL    HW164219   1.054   1.736   2.241  0.5288  1.1756  0.0421
20977SOL    HW264220   0.991   1.663   2.124  0.8810 -0.0752  0.6229
20978SOL     OW64221   4.937   4.335   6.769  0.3517 -0.2838  0.0433
20978SOL    HW164222   4.863   4.300   6.819  1.8246 -1.6458  1.4108
20978SOL    HW264223   5.007   4.271   6.784  1.5727  0.5268 -1.8737
20979SOL     OW64224   1.949   0.754   7.662 -0.6782  0.0396  0.1818
20979SOL    HW164225   1.935   0.717   7.576  1.1428 -0.3886  0.0186
20979SOL    HW264226   1.999   0.687   7.709  2.0712  1.8681  0.1136
20980SOL     OW64227   0.408   3.338   0.132 -0.0994  0.3593 -0.4591
20980SOL    HW164228   0.500   3.351   0.107  0.2005 -1.5512 -0.4517
20980SOL    HW264229   0.411   3.312   0.224 -0.8124  1.8886  0.0430
20981SOL     OW64230   3.957   5.629   2.192 -0.0435  0.5240  0.3024
20981SOL    HW164231   3.969   5.707   2.138  1.0060 -0.1337 -0.4671
20981SOL    HW264232   3.923   5.661   2.275  0.9676  1.8651  0.2252
20982SOL     OW64233   4.244   6.174   1.566  0.3511 -0.5301 -0.8167
20982SOL    HW164234   4.203   6.097   1.604  0.4953 -1.3784 -2.3104
20982SOL    HW264235   4.326   6.184   1.615 -0.9185  0.4101  1.2938
20983SOL     OW64236   5.202   3.137   5.570 -0.1600  0.3617  0.2701
20983SOL    HW164237   5.218   3.048   5.601 -0.4815  0.7193  1.5364
20983SOL    HW264238   5.109   3.152   5.585 -0.1839  0.7859 -0.2711
20984SOL     OW64239   3.023   4.500   1.043  0.0214  0.2858  0.1851
20984SOL    HW164240   2.938   4.545   1.045  0.1390  0.5523  2.9510
20984SOL    HW264241   3.084   4.561   1.083  1.1184 -0.6659  0.0185
20985SOL     OW64242   7.842   0.126   0.764 -0.0352 -0.1304  0.2685
20985SOL    HW164243   7.797   0.065   0.822  0.0753  1.6852  2.3976
20985SOL    HW264244   7.830   0.212   0.805  0.0907  1.2853 -2.4098
20986SOL     OW64245   7.078   5.762   2.156  0.5065 -0.2128 -0.2902
20986SOL    HW164246   7.103   5.671   2.140  0.5038  0.0301 -1.8556
20986SOL    HW264247   7.032   5.761   2.240  1.5976 -1.4418  0.3178
20987SOL     OW64248   0.220   6.513   6.381 -0.1690  0.1379  0.3536
20987SOL    HW164249   0.277   6.462   6.439  0.1440  1.0030  0.8217
20987SOL    HW264250   0.134   6.473   6.391  0.0251 -0.1561  0.8908
20988SOL     OW64251   3.662   2.829   2.404  0.1442 -0.5060 -0.1512
20988SOL    HW164252   3.705   2.913   2.386  0.4790 -0.6492 -0.0281
20988SOL    HW264253   3.679   2.777   2.325 -0.3660 -0.3409 -0.3770
20989SOL     OW64254   7.711   6.974   2.171 -0.0904 -0.1031  0.2477
20989SOL    HW164255   7.669   7.039   2.115 -0.3202 -2.0743 -2.0690
20989SOL    HW264256   7.803   6.998   2.172 -0.2895  0.6784  0.0380
20990SOL     OW64257   6.264   5.908   6.160 -0.0342  0.0524 -0.1446
20990SOL    HW164258   6.181   5.861   6.165 -0.3274  0.4593 -0.9076
20990SOL    HW264259   6.331   5.840   6.165 -0.3857 -0.2195  1.1914
20991SOL     OW64260   4.677   5.151   0.311 -0.1290  0.7015 -0.2013
20991SOL    HW164261   4.616   5.203   0.258 -1.3751 -2.0353 -1.6414
20991SOL    HW264262   4.625   5.124   0.386 -0.6568 -1.2204 -1.1847
20992SOL     OW64263   1.100   3.351   2.676 -0.4550 -0.2810  0.2012
20992SOL    HW164264   1.042   3.412   2.631 -1.0757 -0.6545  0.4739
20992SOL    HW264265   1.126   3.288   2.609  0.1976  0.2888 -0.0836
20993SOL     OW64266   7.343   3.734   3.153  0.0287 -0.2421  0.5959
20993SOL    HW164267   7.438   3.740   3.166  0.2189 -0.6823 -0.5232
20993SOL    HW264268   7.328   3.643   3.126 -0.3776  0.4271 -1.6530
20994SOL     OW64269   7.447   6.775   6.318 -0.3646 -0.3130 -0.1290
20994SOL    HW164270   7.409   6.795   6.232 -0.5177  1.8225  0.3748
20994SOL    HW264271   7.390   6.707   6.355 -1.6236  0.3359 -0.8179
20995SOL     OW64272   3.530   5.852   3.931  0.2333  0.6216 -0.4932
20995SOL    HW164273   3.534   5.903   3.850 -0.5371 -0.6313 -1.3539
20995SOL    HW264274   3.540   5.917   4.000 -2.2592  2.2137 -1.4863
20996SOL     OW64275   4.373   2.596   5.011 -0.1191  0.0794 -0.1408
20996SOL    HW164276   4.291   2.546   5.021 -0.0953  0.1887  0.6316
20996SOL    HW264277   4.346   2.679   4.973 -0.3161 -0.0177 -0.2168
20997SOL     OW64278   3.214   3.162   3.521  0.6568 -0.3292  0.5601
20997SOL    HW164279   3.250   3.235   3.471 -4.1080  2.7782  1.0574
20997SOL    HW264280   3.158   3.117   3.458 -1.7208  0.7358  1.8214
20998SOL     OW64281   1.125   1.476   2.079 -0.3071  0.1514 -0.1515
20998SOL    HW164282   1.147   1.384   2.066  0.8381  0.7933 -3.7999
20998SOL    HW264283   1.206   1.516   2.110  0.5906  0.6039 -2.8718
20999SOL     OW64284   4.050   7.526   5.067 -0.2392 -0.3055  0.3559
20999SOL    HW164285   4.048   7.437   5.104  0.6003 -0.6481 -0.3745
20999SOL    HW264286   4.095   7.578   5.134  1.0116 -0.8589 -0.0039
21000SOL     OW64287   6.893   3.885   0.743 -0.4452 -0.2455  0.6888
21000SOL    HW164288   6.870   3.977   0.734  0.7474  0.1310  1.3000
21000SOL    HW264289   6.811   3.842   0.769 -1.3834  0.3619 -1.0880
21001SOL     OW64290   7.977   5.392   4.622  0.1788 -0.3528  0.2836
21001SOL    HW164291   7.892   5.348   4.624 -1.3199  2.1244 -1.6307
21001SOL    HW264292   8.008   5.389   4.712 -0.0071 -4.6401  0.4064
21002SOL     OW64293   2.590   7.448   2.193  0.1007 -0.2814  0.3681
21002SOL    HW164294   2.579   7.384   2.123  1.3999  0.4143 -0.4995
21002SOL    HW264295   2.502   7.458   2.230 -0.4192 -1.3829 -0.5144
21003SOL     OW64296   4.539   6.925   2.561  0.1856  0.3843  0.1304
21003SOL    HW164297   4.516   6.995   2.623  0.9336  1.6216 -0.9495
21003SOL    HW264298   4.596   6.967   2.497 -0.3003 -0.9431 -1.2380
21004SOL     OW64299   1.156   0.259   4.347  0.1704  0.1513  0.4128
21004SOL    HW164300   1.213   0.333   4.362  0.4557 -0.1074  0.6182
21004SOL    HW264301   1.162   0.242   4.253  1.0230 -0.3470  0.5474
21005SOL     OW64302   5.321   1.547   3.140  0.0386 -0.1771 -0.1075
21005SOL    HW164303   5.296   1.635   3.110 -0.7962 -0.6935 -0.9904
21005SOL    HW264304   5.413   1.556   3.166 -0.1475  1.0485  0.2121
21006SOL     OW64305   0.644   0.097   2.268 -0.5177 -0.8249  0.3614
21006SOL    HW164306   0.598   0.146   2.335 -0.2777 -1.0477  0.6897
21006SOL    HW264307   0.664   0.162   2.200 -2.1129 -0.9003 -0.2213
21007SOL     OW64308   1.554   6.742   7.108 -0.5535 -0.0103 -0.1278
21007SOL    HW164309   1.468   6.782   7.092 -0.1680  0.5596 -0.8139
21007SOL    HW264310   1.603   6.807   7.157 -0.0687  0.2020 -0.8766
21008SOL     OW64311   7.976   6.815   5.183  0.0570  0.2727  0.1192
21008SOL    HW164312   7.998   6.761   5.258 -0.0793 -0.5466 -0.4135
21008SOL    HW264313   8.048   6.799   5.121 -0.5135 -0.1115 -0.4525
21009SOL     OW64314   2.492   2.507   0.725  0.4187 -0.3129  0.2496
21009SOL    HW164315   2.409   2.506   0.678  0.9001 -1.0018 -0.6130
21009SOL    HW264316   2.558   2.484   0.659  1.3004  0.2197  0.9134
21010SOL     OW64317   2.513   3.951   8.541 -0.4878  0.3203  0.1831
21010SOL    HW164318   2.486   4.035   8.580  1.0592  0.6592  0.6097
21010SOL    HW264319   2.465   3.947   8.458 -0.1380  1.9604 -0.1527
21011SOL     OW64320   7.696   2.280   6.833  0.2624 -0.1890  0.6037
21011SOL    HW164321   7.768   2.238   6.880  0.7999 -0.6026 -0.5381
21011SOL    HW264322   7.700   2.243   6.745 -0.7608  0.4917  0.2502
21012SOL     OW64323   0.984   4.326   2.914  0.3165  0.2127 -0.6496
21012SOL    HW164324   0.928   4.397   2.884  0.1279  0.1953 -0.3483
21012SOL    HW264325   0.925   4.265   2.957  0.5744  0.2529 -0.2219
21013SOL     OW64326   3.030   3.273   5.434  0.6574 -0.2371 -0.1872
21013SOL    HW164327   3.021   3.233   5.347 -1.5350 -1.0705  0.3436
21013SOL    HW264328   2.941   3.272   5.470  1.1987  1.7145  1.3861
21014SOL     OW64329   8.173   5.350   6.818  0.5799 -0.1029 -0.0684
21014SOL    HW164330   8.118   5.272   6.824 -2.6824  1.9597 -0.7151
21014SOL    HW264331   8.233   5.343   6.892 -1.5226 -1.8287  1.5920
21015SOL     OW64332   6.337   6.748   3.880 -0.5158  0.0387 -0.5344
21015SOL    HW164333   6.280   6.771   3.954  1.0692 -1.3739  1.2277
21015SOL    HW264334   6.404   6.816   3.880  0.1410 -0.5828  0.1270
21016SOL     OW64335   6.441   0.804   6.173  0.4320 -0.1095  0.1551
21016SOL    HW164336   6.390   0.871   6.219 -0.4171 -0.4785 -0.2236
21016SOL    HW264337   6.530   0.815   6.205 -0.3495 -1.3223  3.0780
21017SOL     OW64338   8.354   7.152   6.718  0.2250  0.3288  0.2824
21017SOL    HW164339   8.447   7.157   6.695 -0.3138  0.5306 -2.0854
21017SOL    HW264340   8.341   7.224   6.780  1.7414 -0.1041  1.1786
21018SOL     OW64341   5.191   5.962   0.162  0.5477  0.2254 -0.1499
21018SOL    HW164342   5.121   6.026   0.164  0.9394  0.6517  0.3509
21018SOL    HW264343   5.176   5.907   0.239  0.6955  0.2383 -0.1119
21019SOL     OW64344   6.401   7.818   0.717 -0.4651 -0.2536  0.3249
21019SOL    HW164345   6.405   7.840   0.624  0.0853  0.5219  0.5234
21019SOL    HW264346   6.462   7.878   0.759 -0.0223 -1.2053  1.0884
21020SOL     OW64347   3.108   2.563   0.084  0.2300 -0.1099 -0.2197
21020SOL    HW164348   3.153   2.478   0.081  0.3153 -0.0461 -0.7981
21020SOL    HW264349   3.096   2.587  -0.007 -0.0965  0.3473 -0.0585
21021SOL     OW64350   3.352   6.455   2.359  0.1991  0.1462 -0.5256
21021SOL    HW164351   3.417   6.396   2.397 -2.2402 -2.1233  0.3264
21021SOL    HW264352   3.359   6.535   2.412 -0.4473 -1.5266  2.2579
21022SOL     OW64353   5.004   5.463   8.558 -0.2625 -0.1300 -0.2545
21022SOL    HW164354   5.062   5.412   8.501 -0.1711 -2.8362  2.0503
21022SOL    HW264355   5.062   5.521   8.606 -0.0860  0.5323 -1.2280
21023SOL     OW64356   8.144   6.737   3.258  0.1731  0.4332 -0.2155
21023SOL    HW164357   8.154   6.782   3.342 -0.3092  0.1731 -0.0202
21023SOL    HW264358   8.171   6.647   3.276  0.2970  0.4338 -0.3984
21024SOL     OW64359   8.515   4.068   1.476 -0.0078  0.2891  0.5390
21024SOL    HW164360   8.503   4.101   1.387 -1.2841 -0.0240  0.5731
21024SOL    HW264361   8.565   3.988   1.466  0.2015  0.4722  0.1363
21025SOL     OW64362   1.158   2.762   5.848  0.2895 -0.8640  0.2267
21025SOL    HW164363   1.079   2.787   5.801  0.4323 -0.8220  0.0085
21025SOL    HW264364   1.179   2.674   5.816  1.6821  0.0424 -1.5243
21026SOL     OW64365   2.617   6.745   8.634  0.5418  0.0751  0.4700
21026SOL    HW164366   2.700   6.782   8.604 -0.6635  1.1286 -1.8460
21026SOL    HW264367   2.581   6.812   8.692 -0.1373  1.1183 -1.1118
21027SOL     OW64368   2.731   5.500   1.289 -0.6166  0.3158  0.0791
21027SOL    HW164369   2.759   5.590   1.305  1.5357  0.0319 -1.6840
21027SOL    HW264370   2.751   5.454   1.371  3.2867  0.3969 -0.6551
21028SOL     OW64371   3.914   4.298   0.949 -0.0322  0.5281  0.5097
21028SOL    HW164372   3.868   4.375   0.914 -1.2032 -1.1718 -2.0440
21028SOL    HW264373   3.883   4.290   1.039 -1.0565  2.1616  0.3492
21029SOL     OW64374   2.638   8.293   2.354  0.2920  0.7016 -0.2507
21029SOL    HW164375   2.545   8.314   2.369 -0.0596 -0.4732 -0.6183
21029SOL    HW264376   2.675   8.287   2.442 -0.6586 -1.5358  0.0737
21030SOL     OW64377   2.214   0.842   8.679 -0.5763  0.0505  0.4456
21030SOL    HW164378   2.302   0.860   8.644 -0.3530 -0.5942  0.6707
21030SOL    HW264379   2.156   0.852   8.604 -0.1414 -0.9357 -0.0411
21031SOL     OW64380   8.590   4.406   1.088 -0.3940  0.5212 -0.1775
21031SOL    HW164381   8.651   4.465   1.132 -0.7487 -0.3232  1.5279
21031SOL    HW264382   8.632   4.387   1.004  0.7246  1.5078  0.1255
21032SOL     OW64383   0.039   5.853   7.324 -0.0887 -0.4871  0.1825
21032SOL    HW164384   0.043   5.776   7.381 -1.4064 -1.6734 -1.2356
21032SOL    HW264385   0.005   5.922   7.380 -1.9472 -1.7657  0.7615
21033SOL     OW64386   3.963   0.438   3.287 -0.4478 -0.3124 -0.1797
21033SOL    HW164387   3.870   0.446   3.266 -0.1183  1.8688 -1.1056
21033SOL    HW264388   4.001   0.396   3.210 -0.3009  1.2006 -0.9554
21034SOL     OW64389   6.565   6.351   0.442  0.1602  0.7440  0.2895
21034SOL    HW164390   6.491   6.319   0.493  0.8055  0.9750  1.4112
21034SOL    HW264391   6.529   6.369   0.356 -1.1537  1.1258  0.8929
21035SOL     OW64392   6.886   1.618   4.908  0.8441 -0.1388 -0.0915
21035SOL    HW164393   6.855   1.606   4.819 -1.2753  0.8582  0.4610
21035SOL    HW264394   6.951   1.688   4.902  1.0194 -0.3645 -0.8947
21036SOL     OW64395   6.604   3.870   1.105  0.2587  0.2359 -0.2374
21036SOL    HW164396   6.682   3.821   1.077 -0.2177  0.0493 -1.2763
21036SOL    HW264397   6.638   3.953   1.139  0.9879 -0.3058  0.4095
21037SOL     OW64398   0.083   5.960   6.895  0.1630  1.0580 -0.1774
21037SOL    HW164399   0.110   5.892   6.957  0.0841  1.1634 -0.0247
21037SOL    HW264400   0.099   5.922   6.809 -3.0723 -0.5409 -0.2242
21038SOL     OW64401   8.589   1.925   0.434 -0.2119 -0.3531 -0.0355
21038SOL    HW164402   8.550   2.009   0.461  2.8144  1.0692  0.3577
21038SOL    HW264403   8.599   1.932   0.339 -0.1403 -0.3509 -0.0278
21039SOL     OW64404   7.493   4.725   3.713  0.1576 -0.8547  0.2377
21039SOL    HW164405   7.495   4.807   3.763 -1.0861 -0.0848 -0.8946
21039SOL    HW264406   7.572   4.727   3.659 -0.3152  0.0594 -0.4458
21040SOL     OW64407   6.988   8.264   0.430 -0.6870  0.1149  0.0023
21040SOL    HW164408   6.982   8.221   0.516  2.6510 -1.5365 -0.3995
21040SOL    HW264409   6.898   8.291   0.410 -2.5448 -3.8091  1.8376
21041SOL     OW64410   1.507   1.994   2.834 -0.6023  0.7384 -0.5098
21041SOL    HW164411   1.438   2.005   2.768 -0.2866  2.2529 -0.6229
21041SOL    HW264412   1.578   2.050   2.803  0.1091  0.3449  0.3830
21042SOL     OW64413   6.042   1.024   0.794 -0.0335 -0.0184 -0.3488
21042SOL    HW164414   6.049   0.953   0.730  1.3261  0.1858 -0.4553
21042SOL    HW264415   6.132   1.043   0.819 -0.5595 -0.6675  2.3114
21043SOL     OW64416   7.385   3.587   8.109 -0.3623 -0.0179 -0.1308
21043SOL    HW164417   7.394   3.678   8.135  1.4136 -0.0575 -0.4865
21043SOL    HW264418   7.344   3.590   8.023  0.6463  0.5141 -0.6007
21044SOL     OW64419   1.764   1.045   0.641  0.1665 -0.0971 -0.4908
21044SOL    HW164420   1.851   1.070   0.611  1.7153 -0.4660  3.1644
21044SOL    HW264421   1.724   1.127   0.671 -0.0409 -0.1564 -0.6033
21045SOL     OW64422   4.459   5.279   8.075 -0.3938 -0.0461  0.2852
21045SOL    HW164423   4.509   5.333   8.013 -1.3724 -0.0754 -0.5670
21045SOL    HW264424   4.370   5.315   8.072 -0.4035  0.1548  1.9400
21046SOL     OW64425   0.002   7.218   8.083 -0.2225 -0.0725  0.0192
21046SOL    HW164426  -0.043   7.300   8.062 -0.8270 -0.6075 -0.8164
21046SOL    HW264427  -0.067   7.158   8.108 -0.0194 -0.9460 -1.4053
21047SOL     OW64428   4.435   8.554   0.899 -0.1793  0.8709 -0.1020
21047SOL    HW164429   4.382   8.477   0.915 -0.7752  0.5886 -2.9177
21047SOL    HW264430   4.524   8.528   0.924 -0.5350 -0.3865 -0.1039
21048SOL     OW64431   6.614   0.052   0.694 -0.1567 -0.0015 -0.5208
21048SOL    HW164432   6.668   0.129   0.680 -2.1149  1.0876 -2.8360
21048SOL    HW264433   6.560   0.073   0.770  0.9674 -0.1227  0.3311
21049SOL     OW64434   0.023   2.908   8.399 -0.2185 -0.0210 -0.1125
21049SOL    HW164435   0.113   2.933   8.420  0.2610 -1.4646 -0.3356
21049SOL    HW264436   0.032   2.830   8.345 -1.6209 -0.2708 -0.0190
21050SOL     OW64437   7.553   7.891   3.204  0.4554  0.0462 -0.4588
21050SOL    HW164438   7.458   7.905   3.210  0.4424 -0.0636 -0.4043
21050SOL    HW264439   7.581   7.946   3.131  0.6153  1.4507  0.6014
21051SOL     OW64440   2.476   7.468   8.540 -0.0922  0.5198 -0.7670
21051SOL    HW164441   2.441   7.460   8.451 -1.7080  0.7537 -0.1932
21051SOL    HW264442   2.465   7.561   8.561  0.9506  0.6024 -0.5797
21052SOL     OW64443   0.663   0.633   8.027  0.0504  0.1168  0.4688
21052SOL    HW164444   0.741   0.665   7.981  1.4197 -3.2806  0.1732
21052SOL    HW264445   0.687   0.636   8.120 -0.3189  0.9951  0.5541
21053SOL     OW64446   5.274   7.030   7.477  1.1350  0.0660  0.4054
21053SOL    HW164447   5.195   6.977   7.463  0.1884  0.8481  2.4047
21053SOL    HW264448   5.301   7.055   7.389 -1.9925  1.3761 -0.3216
21054SOL     OW64449   0.863   6.702   6.662  0.1972  0.4999  0.1145
21054SOL    HW164450   0.931   6.690   6.595  2.5183  0.6450  2.3107
21054SOL    HW264451   0.912   6.714   6.743 -2.4981 -2.7848  2.4664
21055SOL     OW64452   2.382   1.917   3.066  0.1227 -0.2594 -0.5249
21055SOL    HW164453   2.441   1.872   3.005 -0.0997 -1.8511  0.3865
21055SOL    HW264454   2.303   1.934   3.015  1.0584  1.3087 -1.5682
21056SOL     OW64455   6.173   5.527   5.812  0.1140  0.3592 -0.4326
21056SOL    HW164456   6.249   5.501   5.864  1.1156 -1.4016 -2.6421
21056SOL    HW264457   6.165   5.622   5.828  2.6896  0.5766 -0.0510
21057SOL     OW64458   3.843   0.069   5.053 -0.2963 -0.2509 -0.3189
21057SOL    HW164459   3.925   0.035   5.089 -1.3332 -1.4257  1.0477
21057SOL    HW264460   3.869   0.149   5.006  1.4574  0.0977  1.1236
21058SOL     OW64461   8.296   4.220   2.858  0.2533  0.1076 -0.5094
21058SOL    HW164462   8.379   4.191   2.897 -0.0977 -0.0347  0.1487
21058SOL    HW264463   8.280   4.159   2.787  1.9719  1.6117 -2.3030
21059SOL     OW64464   3.121   8.632   7.796 -0.2022  0.1959  0.3827
21059SOL    HW164465   3.030   8.609   7.812  0.3417 -1.3906  1.4955
21059SOL    HW264466   3.145   8.584   7.718 -0.2383  0.4119  0.2366
21060SOL     OW64467   7.890   7.594   5.785  0.2729  0.0204  0.1831
21060SOL    HW164468   7.958   7.611   5.719 -1.2858  1.2749 -1.1974
21060SOL    HW264469   7.922   7.635   5.865  0.3322  2.3373 -0.9547
21061SOL     OW64470   2.114   5.467   0.414  0.2739 -0.3524  0.4924
21061SOL    HW164471   2.020   5.451   0.407  0.3442 -0.2678 -0.9044
21061SOL    HW264472   2.154   5.391   0.371  0.8735 -0.6787  1.5874
21062SOL     OW64473   3.766   3.412   3.685  0.0487  0.5127  0.0918
21062SOL    HW164474   3.720   3.489   3.651  0.3321  0.4724 -0.4044
21062SOL    HW264475   3.701   3.367   3.739 -1.9199 -1.6604 -3.6410
21063SOL     OW64476   8.003   1.258   2.040  0.1340 -1.0625 -0.0076
21063SOL    HW164477   8.035   1.243   2.129 -1.3089 -0.9574  0.5480
21063SOL    HW264478   7.928   1.199   2.031 -2.0990  1.5411  0.2127
21064SOL     OW64479   8.482   1.254   8.048  0.0554  0.1421 -0.2265
21064SOL    HW164480   8.437   1.338   8.054 -0.1560 -0.0320  1.0266
21064SOL    HW264481   8.446   1.202   8.120 -0.4561 -1.3481 -1.4964
21065SOL     OW64482   0.546   6.250   3.010  0.5297 -0.0537 -0.1933
21065SOL    HW164483   0.630   6.277   3.047 -0.8577  0.6543  2.7685
21065SOL    HW264484   0.518   6.324   2.957  0.8497  0.6010  0.5228
21066SOL     OW64485   5.253   7.622   0.103 -0.0310  0.1511 -0.0313
21066SOL    HW164486   5.320   7.689   0.106  0.8008 -0.6242 -0.6390
21066SOL    HW264487   5.200   7.644   0.026 -1.6097  1.7647  1.4244
21067SOL     OW64488   1.735   1.896   5.579 -0.2708  0.0871 -0.0685
21067SOL    HW164489   1.666   1.927   5.638  0.3784 -1.2936  1.4908
21067SOL    HW264490   1.809   1.876   5.636  1.4092  1.3844 -1.6893
21068SOL     OW64491   1.286   8.253   5.792  0.7963 -0.7263 -0.1223
21068SOL    HW164492   1.337   8.185   5.748  1.2381  0.4982 -1.5631
21068SOL    HW264493   1.338   8.332   5.784  0.8977 -0.4186  2.6813
21069SOL     OW64494   1.217   5.127   5.131  0.1218  0.2051 -0.0544
21069SOL    HW164495   1.244   5.164   5.048 -0.7149  2.4760  0.5985
21069SOL    HW264496   1.121   5.133   5.130  0.0795 -0.0397  0.9238
21070SOL     OW64497   2.503   6.394   3.301 -0.3619  0.3097 -0.3581
21070SOL    HW164498   2.547   6.319   3.260  1.7237  2.0618 -1.5929
21070SOL    HW264499   2.527   6.468   3.246 -0.1214  2.3157  2.2261
21071SOL     OW64500   0.918   4.919   6.947 -0.2329 -0.0930  0.2784
21071SOL    HW164501   0.862   4.943   6.873  1.5461 -1.9967 -1.8631
21071SOL    HW264502   0.989   4.983   6.945 -1.1450  1.0149  1.6301
21072SOL     OW64503   6.154   8.506   3.819 -0.0409 -0.5226 -0.1725
21072SOL    HW164504   6.134   8.439   3.754 -0.0685 -1.9433  1.2351
21072SOL    HW264505   6.250   8.506   3.825  0.0663  0.7974 -1.3663
21073SOL     OW64506   2.497   4.248   1.163  0.0539 -1.1186 -0.0142
21073SOL    HW164507   2.543   4.164   1.155 -2.0578 -2.2759 -0.8777
21073SOL    HW264508   2.433   4.234   1.232 -0.4291 -0.2807 -0.2799
21074SOL     OW64509   3.589   4.941   4.946  0.6829 -0.0724  0.2135
21074SOL    HW164510   3.576   5.028   4.982 -0.6727  0.1126 -0.6514
21074SOL    HW264511   3.658   4.902   5.001 -0.4371  0.6106  2.2317
21075SOL     OW64512   0.985   2.605   6.918  0.2460 -0.0458  0.3397
21075SOL    HW164513   1.061   2.627   6.864  0.4545 -0.9058  0.2574
21075SOL    HW264514   0.971   2.511   6.902  0.1295 -0.2592  1.5398
21076SOL     OW64515   1.058   5.728   1.245  0.4754 -0.0728  0.4277
21076SOL    HW164516   1.095   5.742   1.332  0.6721 -0.6820  0.4428
21076SOL    HW264517   1.134   5.718   1.188  0.4027  2.0303 -0.1287
21077SOL     OW64518   0.103   5.299   0.760 -0.3312 -0.4240  0.3271
21077SOL    HW164519   0.153   5.365   0.710 -0.6387  1.3402  2.2033
21077SOL    HW264520   0.013   5.331   0.759 -0.1228  0.5446  3.1685
21078SOL     OW64521   6.493   6.493   6.468 -0.2320  0.1268  0.1613
21078SOL    HW164522   6.534   6.476   6.383 -0.2039 -0.0466  0.2102
21078SOL    HW264523   6.410   6.536   6.446  0.6711  1.9509  0.1129
21079SOL     OW64524   3.967   5.363   3.696 -0.1219 -0.3383 -0.2410
21079SOL    HW164525   4.012   5.309   3.631  0.0341 -2.2489  1.3738
21079SOL    HW264526   4.037   5.402   3.748 -0.2706 -0.0048 -0.2867
21080SOL     OW64527   4.901   4.275   6.139 -0.1237 -0.1231 -0.1655
21080SOL    HW164528   4.942   4.348   6.185  2.8787 -0.9939 -1.1879
21080SOL    HW264529   4.918   4.292   6.046 -0.6672 -1.3802 -0.5193
21081SOL     OW64530   2.346   5.733   4.488 -0.4308 -0.7057 -0.0890
21081SOL    HW164531   2.263   5.724   4.534 -0.1582 -1.0483  0.3478
21081SOL    HW264532   2.405   5.774   4.551 -0.1402 -0.8899 -0.2361
21082SOL     OW64533   8.335   1.302   6.534  0.1238  0.3608 -0.1569
21082SOL    HW164534   8.311   1.358   6.460  1.1387  1.1260  0.0651
21082SOL    HW264535   8.287   1.339   6.608 -1.9765 -1.2225 -0.6141
21083SOL     OW64536   8.523   0.226   8.103 -0.1170 -0.2167 -0.9560
21083SOL    HW164537   8.614   0.225   8.076 -0.3280 -0.1751 -1.7071
21083SOL    HW264538   8.509   0.314   8.139 -0.4314  0.6553 -2.9967
21084SOL     OW64539   8.288   6.278   0.376  0.4127 -0.1700  0.3204
21084SOL    HW164540   8.338   6.358   0.360 -0.6407  0.4699  0.1979
21084SOL    HW264541   8.334   6.235   0.448  1.3163  0.2469  0.0069
21085SOL     OW64542   2.649   6.146   5.735  0.1608 -0.3339 -0.1397
21085SOL    HW164543   2.617   6.204   5.666 -3.3185 -0.8526  0.8235
21085SOL    HW264544   2.703   6.202   5.791 -1.4900  1.5251 -0.3086
21086SOL     OW64545   5.298   5.914   2.836 -0.3502 -0.1800 -0.2768
21086SOL    HW164546   5.378   5.960   2.813 -0.7938  0.1373 -1.2568
21086SOL    HW264547   5.326   5.846   2.898  0.5006  0.5762  0.1911
21087SOL     OW64548   5.904   2.358   1.299 -0.0311 -1.2042 -0.0295
21087SOL    HW164549   5.852   2.437   1.312  0.6238 -1.0069  1.5784
21087SOL    HW264550   5.919   2.324   1.387 -0.0662 -2.9781 -0.6816
21088SOL     OW64551   5.074   7.179   1.061  0.0951 -0.5081  0.1010
21088SOL    HW164552   5.072   7.130   0.978 -0.6320  0.1572 -0.2788
21088SOL    HW264553   5.158   7.154   1.100 -0.1106 -1.8096 -0.2312
21089SOL     OW64554   6.959   7.479   6.357  0.2219 -0.1251  0.5017
21089SOL    HW164555   6.896   7.529   6.305  1.5037  0.4257 -0.5833
21089SOL    HW264556   6.986   7.540   6.426  1.5709  0.6219 -0.6507
21090SOL     OW64557   2.289   5.995   7.154  0.0591  0.3190  0.3185
21090SOL    HW164558   2.302   5.986   7.059 -1.3923  0.7842  0.0575
21090SOL    HW264559   2.312   6.086   7.172 -2.6787  1.1921 -0.1716
21091SOL     OW64560   6.213   2.307   1.525  0.1202 -0.6117  0.1841
21091SOL    HW164561   6.207   2.331   1.433 -1.1252  1.9965  0.8389
21091SOL    HW264562   6.123   2.285   1.550  0.0374  0.7201  1.2020
21092SOL     OW64563   4.061   0.300   7.461 -0.3973  0.7753 -0.2979
21092SOL    HW164564   4.034   0.306   7.553 -0.0139  0.7635 -0.1829
21092SOL    HW264565   4.156   0.308   7.463 -0.4765  2.2242 -0.8121
21093SOL     OW64566   3.389   3.776   1.333 -0.2944  0.1551  0.2552
21093SOL    HW164567   3.424   3.805   1.418 -1.5901 -2.4651  1.7901
21093SOL    HW264568   3.296   3.798   1.337 -0.3448  0.0915 -0.5394
21094SOL     OW64569   8.385   1.954   4.940 -0.2333 -0.0211 -0.2561
21094SOL    HW164570   8.434   2.024   4.985 -0.3628 -0.2336  0.2246
21094SOL    HW264571   8.354   1.994   4.859 -0.7303  0.6334  0.2456
21095SOL     OW64572   7.864   1.168   0.970 -0.0018  0.2321  0.6474
21095SOL    HW164573   7.902   1.229   0.907 -0.3743  0.0069  0.2048
21095SOL    HW264574   7.895   1.082   0.942 -2.6560 -0.2549 -1.1336
21096SOL     OW64575   8.441   5.952   3.083  0.0785  0.3849 -0.3247
21096SOL    HW164576   8.525   5.954   3.036  0.5279 -0.0327  0.4409
21096SOL    HW264577   8.394   5.878   3.044  0.8951 -0.6602  0.5959
21097SOL     OW64578   0.138   8.713   6.319 -0.1850  0.5050  0.3721
21097SOL    HW164579   0.109   8.670   6.238  1.7691 -3.1924  1.3928
21097SOL    HW264580   0.116   8.805   6.306 -4.5112 -0.5985 -2.2276
21098SOL     OW64581   5.843   4.991   5.381 -0.5697 -0.5802 -0.7842
21098SOL    HW164582   5.791   5.029   5.310  1.7268  1.6897 -1.3960
21098SOL    HW264583   5.800   5.021   5.461 -0.8479  0.3041 -1.2574
21099SOL     OW64584   8.032   5.291   1.230 -0.2802 -0.2961  0.2837
21099SOL    HW164585   8.061   5.376   1.199  2.1606 -0.7675  1.0647
21099SOL    HW264586   8.064   5.229   1.165 -0.5956 -0.7724  0.5706
21100SOL     OW64587   6.522   1.085   8.345  0.2462 -0.2136 -0.3126
21100SOL    HW164588   6.608   1.056   8.376  0.0624 -0.2836  0.1351
21100SOL    HW264589   6.483   1.007   8.305 -0.5111 -0.7941  1.4563
21101SOL     OW64590   3.406   8.433   7.377  0.0085  0.4388 -0.0841
21101SOL    HW164591   3.342   8.478   7.322 -0.6557 -0.5133 -0.1176
21101SOL    HW264592   3.446   8.368   7.320  0.9863  0.9871 -0.0463
21102SOL     OW64593   8.133   1.300   3.136  0.3485 -0.7479  0.0366
21102SOL    HW164594   8.220   1.280   3.100 -0.0695 -0.8392 -0.9756
21102SOL    HW264595   8.143   1.289   3.230  0.9598 -2.6653 -0.1930
21103SOL     OW64596   6.878   6.096   7.148  0.2871  0.1757 -0.3019
21103SOL    HW164597   6.831   6.054   7.076  1.7051 -0.8742 -0.6492
21103SOL    HW264598   6.830   6.068   7.226  0.0963 -0.5903 -0.6745
21104SOL     OW64599   1.998   0.400   3.856  0.1285 -0.1592  0.0885
21104SOL    HW164600   2.060   0.367   3.921 -0.6197 -1.0698  0.3599
21104SOL    HW264601   2.028   0.363   3.773 -0.4630 -1.2420  0.3294
21105SOL     OW64602   6.617   6.100   5.934 -0.2331 -0.8093 -0.4360
21105SOL    HW164603   6.603   6.189   5.904 -1.4068 -1.0976 -0.7945
21105SOL    HW264604   6.694   6.070   5.886 -1.4739 -0.9199 -2.4441
21106SOL     OW64605   4.775   5.132   4.880 -0.1508  1.0714  0.3379
21106SOL    HW164606   4.717   5.144   4.955 -1.3348 -1.0321 -0.1798
21106SOL    HW264607   4.838   5.066   4.909 -0.7716  0.0513 -0.5529
21107SOL     OW64608   3.168   1.993   5.636  0.1124  0.5482  0.0456
21107SOL    HW164609   3.107   1.938   5.685  1.4627 -1.1112 -0.0667
21107SOL    HW264610   3.221   2.035   5.704 -1.3086  2.2952  0.1639
21108SOL     OW64611   3.312   1.560   4.120  0.6270 -0.2717 -0.3950
21108SOL    HW164612   3.387   1.555   4.180  0.0477  0.9142  0.4624
21108SOL    HW264613   3.253   1.491   4.151  0.5828 -0.0366  0.0614
21109SOL     OW64614   0.530   6.655   3.658  0.5160  0.2136 -0.3413
21109SOL    HW164615   0.472   6.588   3.622  3.1146 -1.3347 -1.9504
21109SOL    HW264616   0.504   6.735   3.613 -1.8975  0.1534  0.7771
21110SOL     OW64617   7.132   3.950   8.550  0.3760  0.3434  0.3487
21110SOL    HW164618   7.111   3.999   8.630  0.5659  1.6504 -0.3766
21110SOL    HW264619   7.047   3.931   8.511  0.3351  1.2041  0.0003
21111SOL     OW64620   4.462   6.944   8.019  0.0756  0.0560  0.2478
21111SOL    HW164621   4.552   6.951   7.988 -0.2578 -0.8326 -1.0065
21111SOL    HW264622   4.464   6.976   8.109  1.6861 -0.2235  0.3243
21112SOL     OW64623   8.372   0.501   2.849  0.4325 -0.3567 -0.0627
21112SOL    HW164624   8.426   0.422   2.847 -0.2910 -0.8433 -0.4398
21112SOL    HW264625   8.423   0.566   2.800  0.8593 -0.6941 -0.0659
21113SOL     OW64626   6.884   2.508   3.114 -0.1022  0.0467  0.0735
21113SOL    HW164627   6.854   2.592   3.148 -1.8808 -0.2400 -0.6728
21113SOL    HW264628   6.847   2.443   3.175  0.8515 -0.2233  0.3743
21114SOL     OW64629   2.848   4.413   4.897 -0.4245  0.1042  0.0683
21114SOL    HW164630   2.766   4.454   4.924  0.3555  0.4317  2.1236
21114SOL    HW264631   2.915   4.478   4.917  0.4009 -0.2933 -1.2663
21115SOL     OW64632   6.501   3.171   6.486 -0.4489 -0.0108  0.4215
21115SOL    HW164633   6.548   3.103   6.439  0.2268 -0.7029  2.0341
21115SOL    HW264634   6.566   3.239   6.502 -0.7621  0.3764  0.1030
21116SOL     OW64635   2.038   3.827   0.868  0.1795  0.0662 -0.0621
21116SOL    HW164636   1.954   3.873   0.855  0.2016 -0.1454 -1.0813
21116SOL    HW264637   2.072   3.861   0.951 -0.6149  0.6296  0.0411
21117SOL     OW64638   3.125   5.346   4.598 -0.4492  0.2427 -0.4499
21117SOL    HW164639   3.168   5.410   4.541 -2.2303  0.9692 -1.0576
21117SOL    HW264640   3.114   5.391   4.682  2.1785 -0.8287  0.5802
21118SOL     OW64641   2.676   2.673   1.501  0.4209 -0.0579  0.2951
21118SOL    HW164642   2.648   2.762   1.523 -0.7322 -0.8137  2.1395
21118SOL    HW264643   2.595   2.626   1.482  0.8071 -1.2163  1.3870
21119SOL     OW64644   2.777   6.958   0.764 -0.1215 -0.6508 -0.2150
21119SOL    HW164645   2.870   6.978   0.752 -0.2389 -0.2479 -0.4873
21119SOL    HW264646   2.751   6.915   0.683  0.3762 -2.9443  0.7584
21120SOL     OW64647   2.354   0.164   3.378 -0.4226  0.0929  0.4534
21120SOL    HW164648   2.262   0.138   3.384 -0.7776  0.9633 -0.8526
21120SOL    HW264649   2.359   0.243   3.432 -0.4746  0.1135  0.4287
21121SOL     OW64650   0.564   0.923   7.559  0.3337  0.2641 -0.4084
21121SOL    HW164651   0.567   0.828   7.546  1.8472  0.4716 -1.7805
21121SOL    HW264652   0.652   0.945   7.590  0.6635  1.4657 -2.0919
21122SOL     OW64653   5.261   2.159   4.246 -0.0699 -0.3176 -0.1165
21122SOL    HW164654   5.213   2.229   4.200  0.9084 -0.2854 -1.1348
21122SOL    HW264655   5.343   2.152   4.198  0.3770 -1.2996  0.7753
21123SOL     OW64656   1.687   1.117   1.233 -0.4225 -0.4951 -0.6754
21123SOL    HW164657   1.643   1.200   1.217  0.3779  0.2383  0.7896
21123SOL    HW264658   1.762   1.139   1.287 -1.0128 -2.3255  1.0261
21124SOL     OW64659   1.705   2.312   5.295  0.2285 -0.5619  0.0560
21124SOL    HW164660   1.741   2.225   5.312  1.3289 -0.1566 -0.1154
21124SOL    HW264661   1.655   2.333   5.373  0.4442 -1.1068  0.3451
21125SOL     OW64662   1.701   7.532   3.668  0.3847  0.1852 -0.4199
21125SOL    HW164663   1.728   7.580   3.590 -0.1776  0.1793 -0.6161
21125SOL    HW264664   1.660   7.453   3.635 -2.4246  1.4575 -0.2260
21126SOL     OW64665   5.518   7.649   6.584 -0.1100 -0.2252 -0.0904
21126SOL    HW164666   5.557   7.625   6.500 -0.7185 -0.2687 -0.3712
21126SOL    HW264667   5.562   7.730   6.609 -0.1924 -0.0013 -0.6458
21127SOL     OW64668   5.813   8.254   5.694  0.0574  0.0958  0.3845
21127SOL    HW164669   5.823   8.295   5.608 -0.8852  0.5004  0.4547
21127SOL    HW264670   5.891   8.279   5.743  0.9188 -0.6683 -0.5551
21128SOL     OW64671   6.255   7.828   2.661  0.3617  0.2997 -0.2762
21128SOL    HW164672   6.189   7.855   2.724  1.2176 -0.0926  0.8103
21128SOL    HW264673   6.215   7.845   2.576 -0.1256  2.6021  0.3322
21129SOL     OW64674   6.063   2.927   6.795 -0.5912 -0.3748  0.3730
21129SOL    HW164675   6.112   2.924   6.877  0.3554  0.0375 -0.1574
21129SOL    HW264676   6.009   2.848   6.796  0.4573 -1.1032  0.7540
21130SOL     OW64677   0.165   7.933   4.700  0.2170 -0.4478 -0.1497
21130SOL    HW164678   0.074   7.913   4.678 -0.6184  0.8635  1.8353
21130SOL    HW264679   0.165   7.944   4.795  2.4239 -0.2199 -0.1269
21131SOL     OW64680   0.412   3.529   4.784  0.2688  0.4904  0.1065
21131SOL    HW164681   0.373   3.545   4.698 -0.6933  0.1871  0.4745
21131SOL    HW264682   0.342   3.486   4.834  1.3681 -0.8858  0.5031
21132SOL     OW64683   2.375   2.552   7.771 -0.3881  0.4516  0.2716
21132SOL    HW164684   2.417   2.560   7.856  0.3274  0.1435 -0.0389
21132SOL    HW264685   2.282   2.544   7.790 -0.1439 -0.7927  1.1072
21133SOL     OW64686   8.222   5.666   5.826  0.5157 -0.5260 -0.0514
21133SOL    HW164687   8.169   5.587   5.839  0.6043 -0.7350 -0.8788
21133SOL    HW264688   8.306   5.633   5.793  0.5432 -0.0847 -0.4363
21134SOL     OW64689   5.158   0.544   8.628  0.0174  0.3636  0.3477
21134SOL    HW164690   5.250   0.518   8.636  0.1246  0.6623  0.0736
21134SOL    HW264691   5.121   0.526   8.715  0.2977  0.1070  0.4179
21135SOL     OW64692   3.734   5.202   2.156  0.1969 -0.0615  0.0227
21135SOL    HW164693   3.750   5.141   2.228  0.0399 -0.3631 -0.1980
21135SOL    HW264694   3.645   5.183   2.127 -0.9498  2.1424  1.7641
21136SOL     OW64695   0.886   8.204   3.416  1.0223  0.1003 -0.0669
21136SOL    HW164696   0.957   8.171   3.361  0.1090  2.0902 -2.6626
21136SOL    HW264697   0.807   8.193   3.363  0.2330  3.0558  0.3215
21137SOL     OW64698   1.447   4.453   6.781 -0.2441 -0.4581 -0.3168
21137SOL    HW164699   1.401   4.428   6.861 -1.1876 -2.5276 -1.4127
21137SOL    HW264700   1.506   4.380   6.763 -0.7981 -0.5477 -2.0187
21138SOL     OW64701   3.548   0.316   7.229  0.4894  0.2954 -0.1287
21138SOL    HW164702   3.461   0.349   7.249 -0.1170 -1.0162 -0.4658
21138SOL    HW264703   3.548   0.306   7.134  0.9722  0.2148 -0.1205
21139SOL     OW64704   6.199   8.476   2.678 -0.1036  0.1223  0.4474
21139SOL    HW164705   6.163   8.555   2.638 -1.4997 -0.6432  0.1112
21139SOL    HW264706   6.173   8.482   2.770  1.4706  0.9669  0.8650
21140SOL     OW64707   2.966   8.318   3.301  0.2153  0.3102 -0.2612
21140SOL    HW164708   3.060   8.331   3.294  0.2268  0.1141 -0.5024
21140SOL    HW264709   2.929   8.406   3.301  0.4822  0.4500  1.3261
21141SOL     OW64710   1.917   0.916   6.868  0.3454  0.1259 -0.1370
21141SOL    HW164711   1.884   1.006   6.866 -0.7822 -0.2739  0.2419
21141SOL    HW264712   1.846   0.863   6.832 -0.1115 -0.9604  2.2085
21142SOL     OW64713   0.451   5.816   7.697  0.3614  0.2030 -0.3307
21142SOL    HW164714   0.505   5.877   7.747  2.7303  0.1098 -2.5820
21142SOL    HW264715   0.511   5.747   7.669 -1.2057 -0.6384 -1.8521
21143SOL     OW64716   3.092   3.338   5.966  0.5392 -0.1168 -0.5201
21143SOL    HW164717   3.010   3.336   5.916  0.2450  2.1634 -0.2230
21143SOL    HW264718   3.105   3.430   5.987  1.3804 -0.7945  2.4213
21144SOL     OW64719   2.471   7.288   2.982  0.1420 -0.0051  0.0836
21144SOL    HW164720   2.557   7.326   3.002 -0.1788  0.4691  0.5834
21144SOL    HW264721   2.408   7.351   3.017 -0.4239  0.0519 -1.0015
21145SOL     OW64722   7.403   6.128   5.644  0.0993 -0.6147  0.0502
21145SOL    HW164723   7.334   6.180   5.604  0.4762  0.2120  0.4482
21145SOL    HW264724   7.456   6.097   5.570 -0.7538 -1.3589 -0.2644
21146SOL     OW64725   0.024   4.341   0.844 -1.2803  0.3365  0.2477
21146SOL    HW164726  -0.015   4.331   0.757  2.9809 -1.7803 -1.7120
21146SOL    HW264727   0.029   4.252   0.878  0.7101  0.6215  0.8180
21147SOL     OW64728   4.591   1.974   4.137 -0.3381  0.8446  0.1357
21147SOL    HW164729   4.666   1.950   4.191 -0.2260 -0.7393 -0.6710
21147SOL    HW264730   4.532   2.020   4.197  0.0860 -0.2789  1.4617
21148SOL     OW64731   6.871   3.530   1.032 -0.2247 -0.3474  0.1087
21148SOL    HW164732   6.911   3.445   1.050 -0.5395 -0.8945 -1.6515
21148SOL    HW264733   6.941   3.593   1.050  0.1520 -0.9799  0.9825
21149SOL     OW64734   1.158   1.762   5.330 -0.3463  0.5548 -0.5905
21149SOL    HW164735   1.150   1.775   5.425  0.5044  0.0937 -0.4432
21149SOL    HW264736   1.088   1.815   5.293 -1.1434  0.1783  0.3324
21150SOL     OW64737   7.248   4.916   4.686 -0.0601  0.3158 -0.7993
21150SOL    HW164738   7.202   4.926   4.770 -1.4945  1.9438 -1.7161
21150SOL    HW264739   7.182   4.880   4.627  0.5202  0.4738 -1.5585
21151SOL     OW64740   7.797   8.219   3.188  0.4548 -0.8495  0.1757
21151SOL    HW164741   7.877   8.192   3.232 -1.1552 -4.2270  1.3575
21151SOL    HW264742   7.793   8.166   3.109  0.4533  0.9999 -1.1418
21152SOL     OW64743   4.863   8.486   3.686 -0.1563  0.5536  0.2411
21152SOL    HW164744   4.955   8.461   3.695 -0.0103  0.0502 -1.9932
21152SOL    HW264745   4.864   8.581   3.675 -0.0930  0.7673  1.8043
21153SOL     OW64746   2.852   8.270   1.115 -0.4038  0.3702 -0.2758
21153SOL    HW164747   2.837   8.313   1.030  0.5224 -0.7035 -1.0133
21153SOL    HW264748   2.935   8.224   1.104 -0.4986 -0.1689  1.0794
21154SOL     OW64749   5.186   1.444   4.584  0.3017 -0.4939 -0.6143
21154SOL    HW164750   5.154   1.381   4.519 -0.0477 -0.5837 -0.3628
21154SOL    HW264751   5.241   1.392   4.643 -0.2630 -0.6421 -0.2071
21155SOL     OW64752   0.901   5.329   6.914  0.1897 -0.4557  0.1870
21155SOL    HW164753   0.852   5.331   6.832  0.2723  0.3650  0.1438
21155SOL    HW264754   0.956   5.408   6.910 -1.3167  0.7589  1.9325
21156SOL     OW64755   1.221   5.515   3.178 -0.1513  0.0549 -0.2301
21156SOL    HW164756   1.272   5.582   3.132  0.8024  0.6658  1.5879
21156SOL    HW264757   1.200   5.556   3.262 -1.0429 -1.3344  0.2539
21157SOL     OW64758   4.047   0.993   8.100  0.6784 -0.0225 -0.0025
21157SOL    HW164759   4.089   0.967   8.018 -0.1939  1.0491 -0.8266
21157SOL    HW264760   4.112   0.974   8.167  1.0458 -1.8348 -0.8176
21158SOL     OW64761   7.956   3.611   1.736 -0.1133  0.6009 -0.1490
21158SOL    HW164762   8.027   3.654   1.784  1.5499 -2.4262  0.2895
21158SOL    HW264763   7.892   3.588   1.804  0.5986 -0.5973  0.1252
21159SOL     OW64764   3.615   5.027   5.562  0.7292 -0.0745  0.0636
21159SOL    HW164765   3.650   4.940   5.545  1.4298  0.4862 -1.5585
21159SOL    HW264766   3.562   5.017   5.640 -0.3238 -2.2579 -0.8674
21160SOL     OW64767   3.482   7.424   4.660  0.0920  0.2762 -0.1166
21160SOL    HW164768   3.441   7.338   4.663  1.7307 -0.6441 -1.6625
21160SOL    HW264769   3.479   7.455   4.751 -1.0427 -1.1394  0.3784
21161SOL     OW64770   3.844   2.739   8.083  0.3724  0.7685 -0.5066
21161SOL    HW164771   3.845   2.808   8.150  1.2728  2.0671 -1.8023
21161SOL    HW264772   3.784   2.771   8.016  0.8849  0.3574 -1.1805
21162SOL     OW64773   8.396   4.529   6.141 -0.1633 -0.4450 -0.3683
21162SOL    HW164774   8.460   4.600   6.139 -0.0781 -0.3480  2.3012
21162SOL    HW264775   8.448   4.450   6.123  0.4374 -0.1942  0.2063
21163SOL     OW64776   7.198   0.348   4.486  0.2457  0.7110  0.0058
21163SOL    HW164777   7.145   0.415   4.443  0.6887 -0.8785 -3.3298
21163SOL    HW264778   7.288   0.375   4.471  0.4156 -0.0647 -0.4073
21164SOL     OW64779   8.521   3.286   6.741 -0.9296 -0.2215  0.5298
21164SOL    HW164780   8.432   3.251   6.746 -0.6132 -1.4683 -1.4522
21164SOL    HW264781   8.571   3.232   6.803 -1.6246  0.9022  2.1305
21165SOL     OW64782   7.004   0.268   5.328  0.4524 -0.5115 -0.0296
21165SOL    HW164783   6.960   0.305   5.405  0.3110  0.6524 -0.6377
21165SOL    HW264784   7.053   0.342   5.292  2.1727 -1.5315  0.0909
21166SOL     OW64785   3.406   1.884   0.745  0.0124 -0.1336 -0.0984
21166SOL    HW164786   3.471   1.819   0.773  0.4769 -0.6127 -2.1121
21166SOL    HW264787   3.322   1.846   0.772  0.4756  0.3665  2.2962
21167SOL     OW64788   5.296   2.585   6.511  0.1890 -0.4433 -0.1833
21167SOL    HW164789   5.222   2.576   6.571 -0.3933 -0.3961 -0.8846
21167SOL    HW264790   5.334   2.670   6.533 -0.0298 -0.4189  0.1058
21168SOL     OW64791   1.021   2.562   0.557 -0.3886  0.3931 -0.5254
21168SOL    HW164792   1.046   2.653   0.541  3.2118 -0.4111 -0.1990
21168SOL    HW264793   1.034   2.549   0.651 -1.1847 -0.4049 -0.5097
21169SOL     OW64794   6.778   2.627   1.527  0.4929  0.1725 -0.2601
21169SOL    HW164795   6.800   2.537   1.500 -2.8235 -0.8962  0.1876
21169SOL    HW264796   6.796   2.629   1.621  2.4385  0.6742 -0.6028
21170SOL     OW64797   2.900   8.633   6.672 -0.0393  0.2319  0.1078
21170SOL    HW164798   2.847   8.596   6.601  0.3134 -0.6420  0.2862
21170SOL    HW264799   2.986   8.647   6.632  0.3749 -0.9632  0.5415
21171SOL     OW64800   0.461   3.575   5.824  0.1687 -0.1291  0.4983
21171SOL    HW164801   0.506   3.660   5.824  1.2683 -0.6817 -0.1571
21171SOL    HW264802   0.437   3.561   5.915  0.0934  0.8208  0.6413
21172SOL     OW64803   3.260   2.712   3.169 -0.0640  0.8485 -0.3001
21172SOL    HW164804   3.349   2.741   3.149  0.9576 -3.0069 -2.5728
21172SOL    HW264805   3.268   2.670   3.255  1.0525 -1.4825 -1.4357
21173SOL     OW64806   6.598   8.660   2.936  0.1468  0.3288  0.1013
21173SOL    HW164807   6.621   8.752   2.924  2.3193  0.2042  2.4476
21173SOL    HW264808   6.502   8.658   2.932  0.0961  2.4879 -1.0094
21174SOL     OW64809   1.319   6.930   3.095 -0.9167 -0.0693  0.0046
21174SOL    HW164810   1.384   6.999   3.113  0.6402 -1.5786  0.4036
21174SOL    HW264811   1.278   6.913   3.180  0.0646 -0.9494  0.3155
21175SOL     OW64812   1.421   5.588   5.251 -0.0566  0.1442  0.1752
21175SOL    HW164813   1.390   5.639   5.325 -0.1327 -1.6936  1.4698
21175SOL    HW264814   1.498   5.542   5.284  0.1918 -0.3432 -1.0322
21176SOL     OW64815   5.314   5.340   5.189 -0.0785  0.4637 -0.7140
21176SOL    HW164816   5.300   5.360   5.097  0.9580  1.1543 -0.7475
21176SOL    HW264817   5.227   5.340   5.228 -0.4465  1.1817 -1.5064
21177SOL     OW64818   0.643   0.405   1.197 -0.1037  0.4378 -0.2619
21177SOL    HW164819   0.616   0.491   1.165 -0.5376  1.0408  1.6021
21177SOL    HW264820   0.673   0.421   1.287  1.6122 -1.0673 -0.4950
21178SOL     OW64821   0.632   3.461   8.710  0.2637  0.3144 -0.1121
21178SOL    HW164822   0.700   3.394   8.717 -0.1987 -0.5579 -2.7354
21178SOL    HW264823   0.656   3.512   8.633 -1.1595  1.0597 -0.1043
21179SOL     OW64824   8.131   1.886   0.533 -0.4426  0.4522  0.1588
21179SOL    HW164825   8.042   1.893   0.499 -0.0209  0.0175 -1.0911
21179SOL    HW264826   8.184   1.935   0.471  0.2763  0.1477  0.5208
21180SOL     OW64827   1.916   3.793   7.291 -0.1915 -0.2085  0.0766
21180SOL    HW164828   1.937   3.780   7.199 -0.7578 -0.6138 -0.0034
21180SOL    HW264829   1.825   3.826   7.290 -0.3638 -0.6590  0.5068
21181SOL     OW64830   1.384   8.287   2.639 -0.0647  0.1160 -0.0174
21181SOL    HW164831   1.360   8.214   2.695 -0.6823  0.0678 -0.3408
21181SOL    HW264832   1.450   8.251   2.579 -0.6393 -0.2826 -0.4198
21182SOL     OW64833   1.152   7.062   2.393  0.1034 -0.1301 -0.3773
21182SOL    HW164834   1.175   7.149   2.361 -0.4006  0.1488  0.0065
21182SOL    HW264835   1.189   7.057   2.481 -1.5412  0.4550  0.3829
21183SOL     OW64836   5.690   6.509   2.328  0.1199  0.3914 -0.2367
21183SOL    HW164837   5.685   6.415   2.310  1.1543  0.5195 -1.2835
21183SOL    HW264838   5.733   6.515   2.413 -1.9997 -0.1305  0.9431
21184SOL     OW64839   7.090   5.724   5.652 -0.5446 -0.1249  0.1517
21184SOL    HW164840   7.172   5.773   5.646 -0.1488 -0.8708 -0.8499
21184SOL    HW264841   7.024   5.789   5.675 -0.0670  0.9124 -1.3390
21185SOL     OW64842   6.879   8.398   2.128 -0.2466 -0.1835  0.3307
21185SOL    HW164843   6.931   8.421   2.205 -0.7628  0.2573  0.5462
21185SOL    HW264844   6.940   8.348   2.073 -0.2071 -1.5403  1.5481
21186SOL     OW64845   7.061   3.156   4.304 -0.3546  0.0303  0.6281
21186SOL    HW164846   6.968   3.168   4.284 -0.2453  0.7666  0.5454
21186SOL    HW264847   7.065   3.166   4.399 -0.4930 -0.9402  0.7463
21187SOL     OW64848   6.719   0.962   5.531 -0.5794  0.0951  0.7273
21187SOL    HW164849   6.738   1.050   5.498  1.1278 -0.3482  0.4287
21187SOL    HW264850   6.686   0.915   5.454  1.6029 -0.3983 -0.0011
21188SOL     OW64851   6.694   3.015   4.348  0.0851 -0.3881  0.0457
21188SOL    HW164852   6.677   3.090   4.404 -0.9121 -1.2016  0.8851
21188SOL    HW264853   6.607   2.980   4.327  0.5290 -1.7525  0.3220
21189SOL     OW64854   3.526   3.214   2.784 -0.0039 -0.3533 -0.2261
21189SOL    HW164855   3.470   3.291   2.796  0.8323  0.5205 -1.6674
21189SOL    HW264856   3.567   3.201   2.869  0.1089  1.0155 -0.0479
21190SOL     OW64857   7.546   2.970   3.865 -0.5263  0.3071 -0.3014
21190SOL    HW164858   7.451   2.969   3.879 -0.9776  0.4103 -2.8458
21190SOL    HW264859   7.581   2.923   3.941 -2.5686  0.4625  0.8357
21191SOL     OW64860   1.479   1.206   0.330 -0.1783 -0.0851 -0.2611
21191SOL    HW164861   1.542   1.157   0.277 -0.5902  0.1062 -0.9482
21191SOL    HW264862   1.400   1.209   0.276 -0.7303 -0.1944  0.5305
21192SOL     OW64863   3.980   1.419   6.505 -0.2525  0.8296  0.0224
21192SOL    HW164864   4.036   1.342   6.496  0.1888  1.2748 -1.2515
21192SOL    HW264865   4.031   1.491   6.467 -0.8790  1.6440  0.6906
21193SOL     OW64866   3.491   4.855   3.541 -0.3792 -0.2641 -0.4568
21193SOL    HW164867   3.513   4.865   3.449 -0.8920  0.2628 -0.5232
21193SOL    HW264868   3.576   4.857   3.586 -0.2226  1.3204 -0.7543
21194SOL     OW64869   7.868   0.193   8.224 -0.0011  0.3244 -0.0922
21194SOL    HW164870   7.816   0.223   8.299  0.8234  1.6204 -0.0143
21194SOL    HW264871   7.814   0.214   8.148  0.3396  1.5865 -0.0057
21195SOL     OW64872   0.962   2.127   7.281  0.0366 -0.2162 -0.0026
21195SOL    HW164873   0.880   2.176   7.274  0.0551 -0.1836  0.0101
21195SOL    HW264874   0.935   2.035   7.282  0.0988 -0.2789 -1.6754
21196SOL     OW64875   4.585   3.644   4.879  0.1589 -0.6213  0.6363
21196SOL    HW164876   4.535   3.704   4.934  1.0922  1.6049 -0.7797
21196SOL    HW264877   4.521   3.610   4.816 -0.0931  0.1507  0.4674
21197SOL     OW64878   7.201   5.102   5.798  0.6542  0.2966  0.1183
21197SOL    HW164879   7.291   5.081   5.773  1.2238  1.5710  0.9911
21197SOL    HW264880   7.182   5.184   5.753 -0.1754 -0.0814 -0.2510
21198SOL     OW64881   0.216   2.303   1.604  0.2624 -0.1474  0.0316
21198SOL    HW164882   0.234   2.350   1.685  1.0001  1.8063 -1.2020
21198SOL    HW264883   0.254   2.216   1.618  0.8425  0.3130  1.5621
21199SOL     OW64884   0.941   5.326   8.122  0.1539 -0.0671  0.1372
21199SOL    HW164885   0.948   5.302   8.214 -0.0875 -2.7573 -0.4609
21199SOL    HW264886   1.031   5.328   8.090  0.1934  0.0778  0.2610
21200SOL     OW64887   7.226   6.016   4.698 -0.2026 -0.0313  0.2026
21200SOL    HW164888   7.236   6.085   4.632 -0.0942  0.5529  0.8165
21200SOL    HW264889   7.205   5.938   4.647 -2.1616  0.8222 -0.3930
21201SOL     OW64890   1.001   1.456   2.699  0.3715 -0.6238 -0.2564
21201SOL    HW164891   0.921   1.508   2.692  0.1696 -0.8402  0.3863
21201SOL    HW264892   1.070   1.514   2.666  0.1797  0.1275  0.6335
21202SOL     OW64893   2.349   2.727   2.044  0.3508  0.4207 -0.2048
21202SOL    HW164894   2.405   2.777   1.985  1.4881  1.0272  1.3146
21202SOL    HW264895   2.321   2.651   1.993  1.6529  0.6812 -1.3615
21203SOL     OW64896   6.488   0.117   6.988  0.1455 -0.0905  0.1051
21203SOL    HW164897   6.530   0.113   6.902  2.2732  1.0998  1.0092
21203SOL    HW264898   6.480   0.026   7.016  1.2828 -0.3950 -0.5235
21204SOL     OW64899   8.679   2.391   2.386  0.0742  0.0663 -0.4646
21204SOL    HW164900   8.602   2.419   2.338  0.2055  1.2963  0.0119
21204SOL    HW264901   8.673   2.295   2.387 -2.7100  0.1624  1.6093
21205SOL     OW64902   7.674   1.414   4.145 -0.2912  0.2767  0.2117
21205SOL    HW164903   7.751   1.394   4.198  0.3175 -0.7653 -1.0270
21205SOL    HW264904   7.672   1.346   4.078 -0.6678  1.8811 -1.5027
21206SOL     OW64905   6.020   3.916   7.719 -0.8530  0.0015 -0.4141
21206SOL    HW164906   6.098   3.971   7.729 -2.5509  2.7104 -1.0145
21206SOL    HW264907   5.979   3.917   7.806 -0.1039 -1.7573  0.0132
21207SOL     OW64908   5.259   1.997   0.308 -0.2133  0.2755 -0.5669
21207SOL    HW164909   5.291   2.074   0.262  0.7029  0.1617 -0.1448
21207SOL    HW264910   5.214   2.033   0.385 -1.4347  0.4478 -1.3257
21208SOL     OW64911   2.101   3.007   4.508 -0.7506  0.4386  0.6964
21208SOL    HW164912   2.174   2.948   4.525 -1.5030 -0.2295  1.7387
21208SOL    HW264913   2.101   3.018   4.413 -0.2353 -0.7853  0.5288
21209SOL     OW64914   0.268   1.752   1.852  0.0127 -0.4712  0.1190
21209SOL    HW164915   0.325   1.764   1.928 -0.1033 -0.4868  0.2076
21209SOL    HW264916   0.301   1.672   1.811 -0.0309 -0.5544  0.2461
21210SOL     OW64917   2.027   6.236   3.135 -0.0551 -0.0173 -0.1528
21210SOL    HW164918   2.048   6.226   3.042 -1.4490  1.7712 -0.7131
21210SOL    HW264919   2.109   6.215   3.180  0.7593 -0.5586 -1.7922
21211SOL     OW64920   1.114   3.566   5.821 -0.4560  0.6560  0.1815
21211SOL    HW164921   1.108   3.639   5.759  0.6211 -0.9459 -1.9365
21211SOL    HW264922   1.027   3.526   5.819 -1.0319  1.7637  1.3004
21212SOL     OW64923   6.264   4.165   2.346  0.0449 -0.1436  0.6353
21212SOL    HW164924   6.178   4.149   2.307 -0.5763  3.0744  0.4839
21212SOL    HW264925   6.326   4.143   2.277 -0.6857 -1.2142  0.2907
21213SOL     OW64926   1.463   0.077   5.240 -0.2200  0.7039  0.5585
21213SOL    HW164927   1.419  -0.007   5.252 -2.7979  1.5717 -1.5719
21213SOL    HW264928   1.429   0.132   5.310  0.2714  0.3871  1.0460
21214SOL     OW64929   1.736   7.080   1.205 -0.4932  0.9840 -0.1993
21214SOL    HW164930   1.720   7.083   1.110 -1.2994 -1.2367 -0.1872
21214SOL    HW264931   1.654   7.048   1.242  0.4782 -0.2064  1.0241
21215SOL     OW64932   6.188   6.620   6.043 -0.8536  0.0287 -0.0850
21215SOL    HW164933   6.110   6.669   6.068  0.2616  1.1904  1.3358
21215SOL    HW264934   6.250   6.687   6.015 -0.0717 -0.7852 -0.3380
21216SOL     OW64935   5.018   2.452   7.784  0.1805 -0.6626  0.6220
21216SOL    HW164936   5.100   2.476   7.827 -1.0769  2.3665  1.5566
21216SOL    HW264937   5.007   2.359   7.803  1.9982 -0.4936  2.8676
21217SOL     OW64938   4.809   2.777   7.290 -0.2588 -0.4749  0.1052
21217SOL    HW164939   4.730   2.802   7.241  0.5441  0.9743 -0.5083
21217SOL    HW264940   4.824   2.686   7.266 -0.8371 -0.2855 -1.0782
21218SOL     OW64941   1.301   0.978   4.311  0.2340  0.6391  0.2343
21218SOL    HW164942   1.256   0.941   4.387 -0.4146 -0.4906 -0.6686
21218SOL    HW264943   1.393   0.960   4.327  0.0185 -0.4366  0.3211
21219SOL     OW64944   5.061   0.760   0.724  0.3653  0.0938 -0.5977
21219SOL    HW164945   5.142   0.717   0.752  0.0294 -0.2720 -0.1749
21219SOL    HW264946   5.091   0.835   0.671  1.0515  1.0928  1.0995
21220SOL     OW64947   7.152   3.729   1.063 -0.4571 -0.2570  0.2463
21220SOL    HW164948   7.197   3.803   1.103 -1.3244  1.3877 -1.6240
21220SOL    HW264949   7.153   3.749   0.969 -0.9905 -2.4899 -0.2872
21221SOL     OW64950   8.023   2.228   7.544 -0.2266  0.4272 -0.6129
21221SOL    HW164951   8.062   2.193   7.624  1.1832  1.3170 -0.8707
21221SOL    HW264952   7.990   2.314   7.569 -0.8308  0.2321 -0.7233
21222SOL     OW64953   5.371   4.316   1.920  0.2213  0.6821 -0.3827
21222SOL    HW164954   5.413   4.326   1.835  0.9852  0.3996 -0.0493
21222SOL    HW264955   5.438   4.344   1.983 -0.7510  2.1243  0.0768
21223SOL     OW64956   0.265   5.701   0.918  0.3958  0.3017  0.5087
21223SOL    HW164957   0.298   5.611   0.921  0.2558  0.2685  2.4358
21223SOL    HW264958   0.259   5.722   0.825  0.3539 -1.7090  0.0233
21224SOL     OW64959   7.315   1.179   5.533 -0.0430 -0.2156  0.2418
21224SOL    HW164960   7.247   1.153   5.596  1.8745 -1.0734  2.0478
21224SOL    HW264961   7.353   1.258   5.571 -0.0900  0.3341 -0.8320
21225SOL     OW64962   7.928   0.361   1.357 -0.2299 -0.6306 -0.3781
21225SOL    HW164963   8.019   0.353   1.387 -0.4404  1.0562  0.8700
21225SOL    HW264964   7.877   0.312   1.422 -0.3046 -0.6552 -0.4555
21226SOL     OW64965   8.099   0.302   8.087 -0.2310  0.2915  0.6409
21226SOL    HW164966   8.166   0.321   8.152 -0.4713  1.7170  0.5014
21226SOL    HW264967   8.022   0.276   8.138  0.1579 -0.5403  0.8272
21227SOL     OW64968   5.821   2.030   5.798 -0.2067  0.2861 -0.0559
21227SOL    HW164969   5.809   2.121   5.823 -1.2028  0.0569  0.3839
21227SOL    HW264970   5.787   1.980   5.872  0.8342 -0.4560 -0.0579
21228SOL     OW64971   1.137   1.244   3.194  0.3596  0.2009 -0.0062
21228SOL    HW164972   1.106   1.276   3.278 -0.2912  0.2079 -0.2408
21228SOL    HW264973   1.162   1.153   3.210 -1.7762 -0.4893 -0.2475
21229SOL     OW64974   0.994   1.397   1.851 -0.1745  0.5492  0.4356
21229SOL    HW164975   1.036   1.405   1.937  1.0224  0.6105 -0.1308
21229SOL    HW264976   1.066   1.407   1.788 -0.6554 -1.7128 -0.5640
21230SOL     OW64977   2.812   3.411   8.270 -0.5598  0.4641 -0.0696
21230SOL    HW164978   2.737   3.403   8.330  0.3484 -0.9195  0.9377
21230SOL    HW264979   2.886   3.434   8.327  0.4440 -1.4736 -0.5338
21231SOL     OW64980   6.349   6.935   2.745  0.0552 -0.2160 -0.4124
21231SOL    HW164981   6.312   6.849   2.723 -1.3898 -0.1639  1.5279
21231SOL    HW264982   6.390   6.922   2.831  0.4035  0.8802 -0.4025
21232SOL     OW64983   1.277   8.594   4.455 -0.3123 -0.2927  0.2200
21232SOL    HW164984   1.354   8.539   4.443 -0.0893  0.1053 -0.2283
21232SOL    HW264985   1.253   8.584   4.547 -1.0197 -2.1160 -0.1096
21233SOL     OW64986   1.127   1.390   3.432  0.5954  0.0487  0.4126
21233SOL    HW164987   1.111   1.466   3.376  0.6347 -0.1112  0.1819
21233SOL    HW264988   1.206   1.413   3.481  0.9473 -0.0811 -0.0839
21234SOL     OW64989   6.550   0.523   2.955  0.4405  0.0786 -0.0037
21234SOL    HW164990   6.548   0.612   2.990  0.7562 -0.2402  0.8495
21234SOL    HW264991   6.505   0.530   2.871 -1.9944  0.5343  1.2342
21235SOL     OW64992   6.635   6.902   6.658 -0.4219 -0.1484  0.2017
21235SOL    HW164993   6.628   6.839   6.586 -0.7379 -0.2578  0.3270
21235SOL    HW264994   6.614   6.852   6.736  4.7465 -1.4445  1.1680
21236SOL     OW64995   1.657   6.010   2.817 -0.1187 -0.7080 -0.2426
21236SOL    HW164996   1.726   6.075   2.806 -0.6972 -0.0634 -0.1671
21236SOL    HW264997   1.653   5.964   2.733  0.6724 -1.0302 -0.1088
21237SOL     OW64998   6.090   6.611   6.693 -0.5282 -0.1001 -0.4478
21237SOL    HW164999   6.159   6.661   6.649 -0.2147 -1.7040 -1.8774
21237SOL    HW265000   6.031   6.678   6.729 -0.0945  1.2945 -2.2001
21238SOL     OW65001   1.162   5.239   3.296  0.8263 -0.7122 -0.3359
21238SOL    HW165002   1.075   5.252   3.261  0.5558 -0.0352  0.5676
21238SOL    HW265003   1.193   5.326   3.320  1.0195 -1.1287  1.0328
21239SOL     OW65004   7.251   7.999   0.022  0.0871 -0.6152 -0.2629
21239SOL    HW165005   7.281   8.084   0.054 -0.1765 -0.7122  0.2525
21239SOL    HW265006   7.191   7.968   0.090 -1.8362 -0.0615 -1.6536
21240SOL     OW65007   6.545   1.148   4.034  0.4306  0.3987  0.2564
21240SOL    HW165008   6.631   1.105   4.032  1.0772  1.6226  0.4916
21240SOL    HW265009   6.485   1.081   4.068  1.5775 -0.0322  1.5424
21241SOL     OW65010   8.615   5.711   7.539  0.2281 -0.1774  0.0260
21241SOL    HW165011   8.545   5.659   7.498  0.1218 -0.0893  0.0934
21241SOL    HW265012   8.586   5.723   7.630 -0.0484  0.5190 -0.1452
21242SOL     OW65013   8.173   1.148   1.811  0.0042  0.2842  0.5836
21242SOL    HW165014   8.090   1.173   1.770 -0.0423 -0.9042 -0.0999
21242SOL    HW265015   8.169   1.187   1.898 -0.7436  1.2400  0.1468
21243SOL     OW65016   6.672   5.334   7.352 -0.0912 -0.5761  0.5621
21243SOL    HW165017   6.665   5.337   7.257 -2.0346  1.9652  0.6927
21243SOL    HW265018   6.637   5.248   7.376 -0.7097 -0.7689 -0.9215
21244SOL     OW65019   7.584   2.090   2.309 -0.5073 -0.0003  0.0650
21244SOL    HW165020   7.625   2.015   2.265 -1.6243 -1.1378  0.8760
21244SOL    HW265021   7.656   2.151   2.325  0.0586  0.1379 -2.6164
21245SOL     OW65022   4.261   7.698   6.753 -0.5301 -0.0310  0.2492
21245SOL    HW165023   4.301   7.709   6.667 -2.0195 -1.8418 -0.7454
21245SOL    HW265024   4.217   7.613   6.749 -0.2506 -0.4104  2.9795
21246SOL     OW65025   5.186   8.488   3.259 -0.2913 -0.3524 -0.5347
21246SOL    HW165026   5.281   8.482   3.262 -0.0828  2.1526  0.2083
21246SOL    HW265027   5.167   8.581   3.276 -2.9363 -1.1301  1.4251
21247SOL     OW65028   6.738   1.808   5.434 -0.4011 -0.2122  0.5508
21247SOL    HW165029   6.644   1.817   5.453 -0.5591  1.8119 -0.8780
21247SOL    HW265030   6.780   1.809   5.520 -1.5880  0.2967  1.1482
21248SOL     OW65031   4.563   3.898   3.936  0.4035  0.4367  0.3988
21248SOL    HW165032   4.502   3.826   3.925 -1.2326  1.5081  1.8604
21248SOL    HW265033   4.519   3.973   3.896 -0.3533  1.7096  3.3251
21249SOL     OW65034   6.596   0.058   2.354 -0.3752 -0.0309 -0.1005
21249SOL    HW165035   6.682   0.099   2.349  0.3134 -1.1372  1.7815
21249SOL    HW265036   6.612  -0.035   2.336 -1.5009  0.0444 -1.6611
21250SOL     OW65037   3.367   2.338   3.002  0.1396 -0.7387  0.3642
21250SOL    HW165038   3.271   2.345   3.004  0.2201  0.5927  1.6710
21250SOL    HW265039   3.395   2.412   2.949  0.4911  0.1155  1.6946
21251SOL     OW65040   4.146   0.517   6.544  0.0328 -0.0724  0.0243
21251SOL    HW165041   4.236   0.508   6.511  0.1535  0.2998  0.2389
21251SOL    HW265042   4.103   0.436   6.518 -0.0259  0.4092 -1.4794
21252SOL     OW65043   8.458   2.652   0.083  0.1205 -0.0036  0.4711
21252SOL    HW165044   8.442   2.745   0.068 -1.7586 -0.1235  1.5264
21252SOL    HW265045   8.495   2.647   0.171 -2.2135 -0.3863  1.5163
21253SOL     OW65046   6.281   2.763   6.399 -0.8235 -0.6439  0.1230
21253SOL    HW165047   6.371   2.762   6.432 -0.0099 -2.0363 -1.9170
21253SOL    HW265048   6.242   2.841   6.438  2.0176  1.4032 -0.7418
21254SOL     OW65049   0.461   2.897   8.243 -0.2297  0.0780  0.1339
21254SOL    HW165050   0.420   2.982   8.224 -2.3356 -0.6787  1.0551
21254SOL    HW265051   0.531   2.917   8.305 -1.2008  1.0670  0.9392
21255SOL     OW65052   1.743   2.100   3.530 -0.2140 -0.1770 -0.1015
21255SOL    HW165053   1.665   2.045   3.539 -0.0162 -0.7310 -1.4995
21255SOL    HW265054   1.780   2.076   3.445  1.2288  0.4106  0.3236
21256SOL     OW65055   3.536   3.832   1.560 -0.3910  0.1236  0.1554
21256SOL    HW165056   3.606   3.858   1.620  1.2697 -3.4663  0.0228
21256SOL    HW265057   3.462   3.813   1.618  0.2956 -0.6083  0.8197
21257SOL     OW65058   4.202   6.199   1.934 -0.0240  0.1883 -0.3774
21257SOL    HW165059   4.107   6.192   1.936  0.0546 -0.7746  0.5486
21257SOL    HW265060   4.219   6.278   1.883 -1.3365  0.7600  0.0320
21258SOL     OW65061   8.032   0.143   8.475 -0.3257 -0.1890  0.1033
21258SOL    HW165062   8.063   0.058   8.508 -2.5443 -0.6972  1.1243
21258SOL    HW265063   8.016   0.128   8.382  2.4288  0.1362 -0.4807
21259SOL     OW65064   1.092   4.420   1.811 -0.3627 -0.4420  0.0391
21259SOL    HW165065   1.113   4.513   1.822 -0.7275 -0.5188  1.8086
21259SOL    HW265066   0.997   4.419   1.798 -0.2301 -0.5185 -0.9705
21260SOL     OW65067   0.721   3.304   6.732 -0.3003 -0.0331  0.1067
21260SOL    HW165068   0.627   3.286   6.742 -1.7830  5.0170 -1.8932
21260SOL    HW265069   0.749   3.332   6.819 -0.1395 -2.7538  1.0373
21261SOL     OW65070   6.637   4.785   2.346 -0.5545 -0.3830  0.1553
21261SOL    HW165071   6.629   4.865   2.398  1.0665  0.7294 -1.2205
21261SOL    HW265072   6.700   4.806   2.278  0.6926 -3.1571  0.3152
21262SOL     OW65073   7.844   2.949   2.637  0.0788  0.9990  0.4688
21262SOL    HW165074   7.807   2.936   2.724  0.1587  1.8835  0.6469
21262SOL    HW265075   7.769   2.976   2.583  0.0685  0.6663  0.3168
21263SOL     OW65076   3.030   3.999   7.887 -0.2627 -0.4385  0.5405
21263SOL    HW165077   3.020   3.904   7.880 -0.4597 -0.5140  1.7861
21263SOL    HW265078   2.942   4.031   7.906 -0.3052  0.0629 -0.4184
21264SOL     OW65079   5.556   5.674   7.104 -0.1628 -1.0293  0.0277
21264SOL    HW165080   5.508   5.644   7.026 -2.0801  0.9153  0.3483
21264SOL    HW265081   5.537   5.608   7.170 -2.2647 -0.4950  0.0458
21265SOL     OW65082   4.486   7.451   5.161 -0.5982  0.5398  0.1026
21265SOL    HW165083   4.536   7.504   5.222 -0.1109 -0.6724  0.7722
21265SOL    HW265084   4.528   7.467   5.076 -0.0416  0.7000  0.4034
21266SOL     OW65085   7.627   5.716   2.732  0.0802 -0.1651 -1.0896
21266SOL    HW165086   7.603   5.701   2.640  2.8453 -0.7711 -1.8084
21266SOL    HW265087   7.555   5.677   2.782  0.6286 -4.0705 -3.0014
21267SOL     OW65088   2.849   3.720   0.346 -0.7466  0.4917  0.0064
21267SOL    HW165089   2.869   3.799   0.397 -2.4089  1.5564 -0.8986
21267SOL    HW265090   2.776   3.680   0.393 -1.5544  0.8773 -0.8923
21268SOL     OW65091   4.637   8.653   6.029  0.4886 -0.3007 -0.2202
21268SOL    HW165092   4.593   8.722   6.079  1.8022  0.7698 -0.4876
21268SOL    HW265093   4.654   8.584   6.093 -0.2768 -0.1143  0.1983
21269SOL     OW65094   3.238   3.190   5.618 -0.6829 -0.1294  0.0409
21269SOL    HW165095   3.221   3.154   5.705 -1.7876 -1.3262 -0.6482
21269SOL    HW265096   3.152   3.214   5.584 -0.5785 -1.8958 -1.6423
21270SOL     OW65097   0.869   5.725   7.033 -0.1785  0.1166 -0.2158
21270SOL    HW165098   0.856   5.748   6.941 -1.0001  0.8057  0.0643
21270SOL    HW265099   0.817   5.645   7.045 -0.8502  0.5644 -0.1159
21271SOL     OW65100   1.439   4.536   2.160 -0.3150 -0.1210  0.5733
21271SOL    HW165101   1.517   4.591   2.156 -0.0838 -0.2765  2.4337
21271SOL    HW265102   1.472   4.446   2.154 -0.5861 -0.1525 -1.0644
21272SOL     OW65103   4.350   0.634   7.005 -0.5494 -0.5447  0.2781
21272SOL    HW165104   4.355   0.621   7.100  0.7458  1.8025  0.5992
21272SOL    HW265105   4.256   0.641   6.988 -0.8657 -2.1532  1.1740
21273SOL     OW65106   7.111   7.150   8.276 -0.0334 -0.1854 -0.2098
21273SOL    HW165107   7.063   7.133   8.195 -0.6664  2.2687 -0.4290
21273SOL    HW265108   7.071   7.091   8.340  0.0416 -1.7006 -1.4930
21274SOL     OW65109   5.590   2.990   3.279 -0.0529  0.3049 -0.1806
21274SOL    HW165110   5.513   3.047   3.287  0.4505  0.7396  2.2075
21274SOL    HW265111   5.661   3.050   3.256  0.3007  0.5512  1.4567
21275SOL     OW65112   2.035   0.138   2.880 -0.1251  0.1025 -0.0752
21275SOL    HW165113   2.036   0.233   2.883  1.3313  0.0943  0.0149
21275SOL    HW265114   2.044   0.111   2.972 -0.4726 -0.1357 -0.1061
21276SOL     OW65115   4.111   2.588   3.153 -0.2834 -0.4774  0.0977
21276SOL    HW165116   4.165   2.511   3.168 -1.3087 -1.6796 -1.8788
21276SOL    HW265117   4.137   2.650   3.220  2.0694 -1.7678  0.4624
21277SOL     OW65118   5.379   4.993   5.444  0.5122  0.3424  0.4419
21277SOL    HW165119   5.432   4.984   5.524 -1.3762 -0.0652  1.7317
21277SOL    HW265120   5.414   4.927   5.385  1.0112 -0.3966  1.5170
21278SOL     OW65121   5.644   1.968   0.086 -0.1100 -0.4156  0.4043
21278SOL    HW165122   5.690   1.967   0.170  1.1467 -1.0929 -0.2599
21278SOL    HW265123   5.602   2.054   0.082  1.4459  0.4089  0.8703
21279SOL     OW65124   5.471   5.031   1.027  0.0436 -0.2928  0.1512
21279SOL    HW165125   5.499   5.102   1.085  0.1261  1.1862 -1.6009
21279SOL    HW265126   5.432   5.076   0.952 -2.3117 -2.1753  0.1306
21280SOL     OW65127   0.169   1.943   2.733  0.1209  0.8352  0.0899
21280SOL    HW165128   0.249   1.909   2.773  0.9715  1.4812 -0.9947
21280SOL    HW265129   0.146   1.879   2.666 -1.5479 -0.4700  1.7995
21281SOL     OW65130   2.609   0.470   8.181  0.3521 -0.5774 -0.4806
21281SOL    HW165131   2.608   0.374   8.178 -0.0698 -0.6012  0.2770
21281SOL    HW265132   2.687   0.491   8.232  0.4186 -0.5216 -0.6067
21282SOL     OW65133   1.308   4.307   0.040  0.2493  0.1283  0.1177
21282SOL    HW165134   1.362   4.343  -0.030  0.4834  2.7122  1.4840
21282SOL    HW265135   1.247   4.379   0.062 -2.6045 -2.0254 -0.1756
21283SOL     OW65136   7.068   0.048   0.949 -0.8419 -0.1695 -0.3631
21283SOL    HW165137   7.013   0.005   1.015 -0.9801  2.4826  1.4130
21283SOL    HW265138   7.026   0.132   0.934 -0.2240 -0.2713 -3.1510
21284SOL     OW65139   6.391   1.673   5.932  0.0099 -0.3262  0.0011
21284SOL    HW165140   6.312   1.692   5.982  0.0076  1.0373 -0.4883
21284SOL    HW265141   6.360   1.652   5.844  0.2003  0.6497 -0.3103
21285SOL     OW65142   5.153   7.615   1.583  0.2349  0.3732 -0.1770
21285SOL    HW165143   5.161   7.565   1.501 -0.3620  0.6430 -0.4138
21285SOL    HW265144   5.108   7.695   1.556 -1.5834 -0.2923  0.6997
21286SOL     OW65145   0.919   5.688   3.537 -0.1862 -0.3085 -0.2256
21286SOL    HW165146   0.959   5.759   3.587  2.6164 -3.0917  1.8598
21286SOL    HW265147   0.834   5.673   3.580 -1.0788  1.9668 -1.0381
21287SOL     OW65148   3.368   1.728   8.117  0.5103 -0.0696  0.0794
21287SOL    HW165149   3.286   1.725   8.067  0.3595 -0.0034  0.3200
21287SOL    HW265150   3.342   1.759   8.204  0.4618 -2.0770  0.8235
21288SOL     OW65151   7.739   0.560   2.220  0.4219  0.2124  0.2400
21288SOL    HW165152   7.733   0.540   2.126 -0.6951  0.0578  0.3327
21288SOL    HW265153   7.684   0.636   2.232  2.7872  2.0252  0.3240
21289SOL     OW65154   6.384   1.099   5.705  0.2180 -0.7984 -0.3485
21289SOL    HW165155   6.382   1.006   5.686  0.1353 -0.4467 -2.2138
21289SOL    HW265156   6.425   1.105   5.792  2.3694 -2.4320 -1.1508
21290SOL     OW65157   2.828   7.310   3.874 -0.0970  0.1814  0.0577
21290SOL    HW165158   2.817   7.405   3.874  0.7257  0.2872 -0.6251
21290SOL    HW265159   2.892   7.293   3.943  0.4170  0.2167 -0.4028
21291SOL     OW65160   4.939   7.972   7.236 -0.1397  0.1402 -0.3910
21291SOL    HW165161   4.877   8.045   7.230  0.4395  0.6123 -0.7727
21291SOL    HW265162   4.938   7.932   7.149  1.1626  1.0589 -0.8584
21292SOL     OW65163   2.808   0.418   1.804  0.3467  0.1919 -0.0407
21292SOL    HW165164   2.808   0.356   1.877  0.7087 -0.0539 -0.2447
21292SOL    HW265165   2.816   0.363   1.726 -0.6051  0.4146 -0.3082
21293SOL     OW65166   4.626   3.691   6.425 -0.2506 -0.0207  0.1021
21293SOL    HW165167   4.720   3.711   6.429 -0.4349  1.3614 -1.3249
21293SOL    HW265168   4.589   3.739   6.498 -0.0476  0.9396 -0.4040
21294SOL     OW65169   5.828   5.491   1.742  0.0460  0.4518  0.0345
21294SOL    HW165170   5.810   5.435   1.667  1.9755 -0.2413  0.0512
21294SOL    HW265171   5.800   5.439   1.818  0.1399  0.2653 -0.0597
21295SOL     OW65172   7.782   0.418   6.264  0.2537  0.0481 -0.7089
21295SOL    HW165173   7.739   0.503   6.257 -2.4170 -1.1490 -0.2188
21295SOL    HW265174   7.823   0.404   6.178  0.8197  1.8219 -0.7581
21296SOL     OW65175   0.768   6.154   0.429  0.1108  0.2101  0.4951
21296SOL    HW165176   0.839   6.217   0.416 -1.2702  1.8022  0.3340
21296SOL    HW265177   0.811   6.068   0.431  1.9939  1.1168  0.2382
21297SOL     OW65178   1.329   8.543   0.127  0.3501 -0.0688 -0.3358
21297SOL    HW165179   1.281   8.607   0.179  0.5894 -1.0224  1.1115
21297SOL    HW265180   1.282   8.460   0.141  1.6620 -0.7668  0.1219
21298SOL     OW65181   2.080   2.009   5.247 -0.2258 -0.9332  0.6584
21298SOL    HW165182   2.080   2.003   5.342 -1.9750  1.4667  0.8900
21298SOL    HW265183   1.988   2.015   5.222  0.2034 -1.1706 -1.1858
21299SOL     OW65184   7.089   1.237   4.727 -0.2734  0.1593 -0.0681
21299SOL    HW165185   7.020   1.223   4.663 -0.3552 -0.1334  0.0824
21299SOL    HW265186   7.159   1.281   4.678 -0.1553 -0.4544 -0.4710
21300SOL     OW65187   0.178   3.558   5.200  0.2558 -0.3041 -0.0096
21300SOL    HW165188   0.084   3.573   5.206  0.2863 -0.1403  0.0457
21300SOL    HW265189   0.200   3.514   5.283  0.1557 -0.7179 -0.2016
21301SOL     OW65190   0.493   0.326   3.375  0.2609 -0.2698 -0.0775
21301SOL    HW165191   0.566   0.372   3.415  0.4263 -0.5178 -0.0877
21301SOL    HW265192   0.421   0.388   3.378 -0.2605 -0.8758  2.2830
21302SOL     OW65193   0.135   4.966   0.939  0.2898  0.0040 -0.5063
21302SOL    HW165194   0.135   5.039   1.001 -2.2080 -0.0433 -0.3482
21302SOL    HW265195   0.184   4.896   0.983  0.7010  0.8083  0.3280
21303SOL     OW65196   8.456   0.981   7.581 -0.0360 -0.1858 -0.0953
21303SOL    HW165197   8.439   0.920   7.653 -0.0143 -0.4341 -0.3003
21303SOL    HW265198   8.421   1.065   7.612 -2.5595 -0.8644 -0.8697
21304SOL     OW65199   2.098   6.176   3.821  0.4443 -0.5207  0.5670
21304SOL    HW165200   2.181   6.188   3.775  0.1334 -0.6674 -0.0481
21304SOL    HW265201   2.037   6.234   3.776  0.0919 -0.7940  0.6893
21305SOL     OW65202   5.050   0.896   5.417  0.0336  0.2809  0.2866
21305SOL    HW165203   4.969   0.947   5.405  0.5458  0.7184 -1.6017
21305SOL    HW265204   5.023   0.821   5.469 -1.0053  1.8026  2.0831
21306SOL     OW65205   3.709   2.797   8.557  0.2124 -0.1795 -0.1216
21306SOL    HW165206   3.640   2.854   8.522  0.8110  0.2908 -0.5565
21306SOL    HW265207   3.776   2.857   8.589  2.1827 -0.5245 -3.1707
21307SOL     OW65208   6.120   5.811   4.295  0.2452 -0.0057 -0.2616
21307SOL    HW165209   6.133   5.756   4.217 -0.8909  1.0451 -1.2258
21307SOL    HW265210   6.209   5.827   4.327  0.6257 -2.6009  0.2393
21308SOL     OW65211   3.307   7.704   4.816 -0.1295 -0.2911 -0.1607
21308SOL    HW165212   3.368   7.631   4.829 -1.7525 -1.6719 -0.0678
21308SOL    HW265213   3.327   7.765   4.887  0.2165 -1.3721  0.6924
21309SOL     OW65214   6.030   5.889   4.572  0.0664  0.0539 -0.2588
21309SOL    HW165215   6.043   5.840   4.491  2.3676  1.5836 -0.9428
21309SOL    HW265216   5.978   5.966   4.545 -0.8989 -0.4354  0.1670
21310SOL     OW65217   5.611   2.034   8.410  0.0623  0.6171  0.5245
21310SOL    HW165218   5.692   2.041   8.461  0.3251  2.5551 -0.0845
21310SOL    HW265219   5.630   2.078   8.328 -1.5292  0.8684  0.2586
21311SOL     OW65220   2.981   0.187   1.452 -0.0415 -0.1601 -1.3183
21311SOL    HW165221   2.961   0.206   1.360  0.2660  0.9357 -1.1811
21311SOL    HW265222   2.902   0.212   1.500  0.1431  0.2079 -1.1967
21312SOL     OW65223   8.284   0.877   5.066 -0.0860  0.1085 -0.1292
21312SOL    HW165224   8.268   0.903   5.156  1.0685  0.6048 -0.0523
21312SOL    HW265225   8.282   0.960   5.016  0.4714 -0.0108 -0.3633
21313SOL     OW65226   5.587   1.572   5.806 -0.0270  0.1959  0.2251
21313SOL    HW165227   5.574   1.514   5.731  1.1697 -0.3406  0.4244
21313SOL    HW265228   5.668   1.543   5.846 -1.0400 -0.0390  2.2246
21314SOL     OW65229   3.455   5.473   0.460  0.2766  0.4770 -0.2750
21314SOL    HW165230   3.493   5.420   0.389 -1.1769 -1.4110  0.2527
21314SOL    HW265231   3.365   5.440   0.468  0.2942  0.8770  2.2091
21315SOL     OW65232   3.597   5.214   1.565  0.9412  0.0225  0.7768
21315SOL    HW165233   3.629   5.129   1.593 -0.0410 -0.3743  0.7042
21315SOL    HW265234   3.619   5.219   1.472 -1.4038 -1.3144  0.0927
21316SOL     OW65235   1.442   0.161   1.630 -0.6209 -0.4261  0.5663
21316SOL    HW165236   1.423   0.242   1.583 -1.1382 -0.9447 -0.1410
21316SOL    HW265237   1.460   0.097   1.561  0.3852 -0.7762  1.1300
21317SOL     OW65238   1.187   3.928   0.530 -0.5430 -0.3152  0.0980
21317SOL    HW165239   1.151   3.850   0.571  0.8301 -1.0942 -0.1320
21317SOL    HW265240   1.113   3.989   0.526 -1.8700 -1.9037 -0.5228
21318SOL     OW65241   5.790   3.529   3.319 -0.1297  0.0947  0.0706
21318SOL    HW165242   5.885   3.524   3.315 -0.1779 -2.1847  0.6054
21318SOL    HW265243   5.770   3.550   3.410 -0.1660  0.9553 -0.1211
21319SOL     OW65244   5.189   0.463   1.766  0.9317 -0.0389 -0.0003
21319SOL    HW165245   5.241   0.399   1.815  1.8929  0.3315 -0.5146
21319SOL    HW265246   5.210   0.445   1.674 -1.1479 -0.9987 -0.3504
21320SOL     OW65247   5.079   3.807   5.294 -0.5415 -0.4221 -0.3542
21320SOL    HW165248   5.089   3.799   5.389 -0.1428 -0.9041 -0.4305
21320SOL    HW265249   5.154   3.759   5.258  1.1549  2.3408 -0.8870
21321SOL     OW65250   0.530   7.825   4.941  0.4635  0.2703  0.2744
21321SOL    HW165251   0.524   7.914   4.976  0.5754  0.3693  0.0492
21321SOL    HW265252   0.519   7.837   4.846  0.6075  0.0589  0.2308
21322SOL     OW65253   1.664   3.057   4.894  0.1006 -0.2554 -0.4648
21322SOL    HW165254   1.620   3.107   4.826  1.7009 -0.0451 -1.3813
21322SOL    HW265255   1.727   3.118   4.932  2.2629 -1.5516 -1.7549
21323SOL     OW65256   4.778   6.906   4.988 -0.2664 -0.1212  0.3981
21323SOL    HW165257   4.757   6.981   4.933 -1.0917 -0.5396  0.1259
21323SOL    HW265258   4.727   6.919   5.068 -1.1211 -0.8169 -0.0069
21324SOL     OW65259   6.302   7.474   4.778  0.5579  0.1138 -0.1687
21324SOL    HW165260   6.283   7.411   4.847  1.8966 -0.1912 -0.0497
21324SOL    HW265261   6.274   7.558   4.814 -2.0779 -0.4705 -0.6712
21325SOL     OW65262   6.843   2.571   0.040 -0.2502  0.4432 -0.6936
21325SOL    HW165263   6.882   2.516   0.108 -2.3097 -1.5841 -1.0129
21325SOL    HW265264   6.898   2.557  -0.037  1.1749  1.5034  0.1108
21326SOL     OW65265   4.100   6.903   2.653 -0.0876  0.2302 -0.2506
21326SOL    HW165266   4.165   6.909   2.582  0.8359 -0.0059  0.5496
21326SOL    HW265267   4.082   6.809   2.661 -0.1648  0.2531 -0.1480
21327SOL     OW65268   4.131   1.303   0.744  0.5310 -0.5534  0.3858
21327SOL    HW165269   4.174   1.220   0.723  0.5790 -0.4429  0.0572
21327SOL    HW265270   4.131   1.352   0.662 -0.7279 -0.7739  0.2368
21328SOL     OW65271   5.656   0.443   7.382 -0.4153  0.1827  0.0859
21328SOL    HW165272   5.618   0.378   7.323  0.6389 -1.6387  1.3176
21328SOL    HW265273   5.614   0.427   7.466  0.9633  0.0108  0.7790
21329SOL     OW65274   5.021   6.829   5.103 -0.0936  0.2713 -0.2690
21329SOL    HW165275   4.944   6.859   5.054 -0.2267 -1.7583 -1.4060
21329SOL    HW265276   4.991   6.751   5.149  1.1299 -0.2072 -0.2547
21330SOL     OW65277   2.334   4.064   4.050  0.3756  0.1748 -0.3624
21330SOL    HW165278   2.321   4.120   3.973  0.9461  1.8718  0.7190
21330SOL    HW265279   2.251   4.018   4.061  0.0094  0.5366 -1.5118
21331SOL     OW65280   0.100   5.203   7.133 -0.0404  0.4236  0.1243
21331SOL    HW165281   0.144   5.151   7.200  1.1984  0.8613 -0.3087
21331SOL    HW265282   0.058   5.274   7.181 -0.0704  0.1333  0.5325
21332SOL     OW65283   4.754   5.511   4.336 -0.3933 -0.2231  0.2840
21332SOL    HW165284   4.755   5.417   4.352 -1.2566 -0.5984 -1.5861
21332SOL    HW265285   4.665   5.539   4.357  0.7256  0.9318  4.2418
21333SOL     OW65286   4.860   2.570   7.611 -0.3933 -0.3023  0.0531
21333SOL    HW165287   4.933   2.525   7.653  1.1228 -0.1126 -2.1832
21333SOL    HW265288   4.892   2.660   7.597 -1.4992  0.1121  0.0564
21334SOL     OW65289   4.827   3.255   4.441  0.4787  0.0059 -0.1357
21334SOL    HW165290   4.783   3.322   4.494  1.8432  0.0151  1.0602
21334SOL    HW265291   4.757   3.211   4.395 -0.5863  1.3115  0.1710
21335SOL     OW65292   7.406   3.573   7.533 -0.5881 -0.3389  0.3557
21335SOL    HW165293   7.392   3.630   7.458 -2.6240  0.9715  1.6459
21335SOL    HW265294   7.332   3.513   7.532 -1.3615  0.5259  1.9859
21336SOL     OW65295   6.556   8.034   7.236 -0.5955 -0.5036  0.1848
21336SOL    HW165296   6.599   8.088   7.170 -1.5632  1.6022  1.1839
21336SOL    HW265297   6.468   8.071   7.244 -1.3470 -2.3293  0.8403
21337SOL     OW65298   2.596   8.616   0.181 -0.2511 -0.6377  0.1761
21337SOL    HW165299   2.512   8.617   0.226 -0.7589  0.1731 -0.7746
21337SOL    HW265300   2.590   8.541   0.121  0.1885 -1.3342  0.9796
21338SOL     OW65301   8.450   1.728   3.679 -0.3060  0.6159 -0.4288
21338SOL    HW165302   8.525   1.727   3.619  0.5420 -1.0663  0.5839
21338SOL    HW265303   8.483   1.686   3.758 -2.4754 -0.6750 -0.1497
21339SOL     OW65304   2.810   4.902   4.778  0.2013  0.1500 -0.0068
21339SOL    HW165305   2.790   4.910   4.871  1.1092 -2.2256  0.4699
21339SOL    HW265306   2.726   4.881   4.737  0.0127 -0.0017  0.4541
21340SOL     OW65307   0.513   0.513   2.517  0.6292  0.0631 -0.0762
21340SOL    HW165308   0.598   0.476   2.539 -0.0550  0.5853  4.4124
21340SOL    HW265309   0.521   0.606   2.536 -0.4074  0.5430 -1.7460
21341SOL     OW65310   0.208   5.081   1.690 -0.7785 -0.0301  0.0858
21341SOL    HW165311   0.226   5.110   1.600 -0.7111 -2.6487 -0.8406
21341SOL    HW265312   0.115   5.099   1.703 -1.2820 -1.3795 -1.2962
21342SOL     OW65313   0.703   2.226   1.492 -0.5526 -0.2046 -0.3156
21342SOL    HW165314   0.750   2.280   1.554 -2.8602  0.8767  0.6061
21342SOL    HW265315   0.694   2.280   1.414 -1.7535  0.2846  0.1466
21343SOL     OW65316   8.373   6.373   1.236 -0.4985 -0.1309 -0.3053
21343SOL    HW165317   8.301   6.312   1.254 -0.3441 -0.0200  0.7101
21343SOL    HW265318   8.449   6.333   1.277  0.2594 -0.7169 -2.1569
21344SOL     OW65319   2.043   7.293   6.029 -0.3546 -0.2921 -0.2807
21344SOL    HW165320   2.133   7.299   5.998 -0.9916 -0.9584 -2.4920
21344SOL    HW265321   2.050   7.281   6.124  1.8508 -0.0780 -0.3724
21345SOL     OW65322   6.788   5.026   2.634 -1.1224  0.0763 -0.3149
21345SOL    HW165323   6.859   4.966   2.655 -0.3480  0.3431 -1.9689
21345SOL    HW265324   6.708   4.978   2.653 -0.5153 -1.3357 -1.1850
21346SOL     OW65325   2.116   0.934   8.459  1.0323 -0.3054 -0.0034
21346SOL    HW165326   2.180   1.004   8.454 -1.0527  1.6499 -1.9514
21346SOL    HW265327   2.060   0.948   8.382 -1.4642 -2.1055  1.3599
21347SOL     OW65328   1.368   4.928   3.360  0.5140 -0.0879 -0.3796
21347SOL    HW165329   1.445   4.881   3.393  1.2227  0.5776 -1.0259
21347SOL    HW265330   1.346   4.989   3.429  0.1382 -0.7448  0.0920
21348SOL     OW65331   7.705   7.714   2.895 -0.5632  0.0806  0.7638
21348SOL    HW165332   7.794   7.695   2.922  0.2693  2.6016  0.0356
21348SOL    HW265333   7.651   7.653   2.946  1.2279  1.2535  4.3517
21349SOL     OW65334   5.890   5.442   4.777  0.0420 -0.2903 -0.1346
21349SOL    HW165335   5.957   5.456   4.710  0.2908 -1.5420 -0.1627
21349SOL    HW265336   5.938   5.413   4.855 -0.1197  2.1721  0.9849
21350SOL     OW65337   4.849   3.191   1.194  0.0141  0.4221 -0.5333
21350SOL    HW165338   4.861   3.212   1.101 -0.1071  1.1265 -0.3984
21350SOL    HW265339   4.816   3.102   1.195 -1.7257  1.0187 -1.2581
21351SOL     OW65340   4.644   7.591   5.347  0.5541  0.4732 -0.1174
21351SOL    HW165341   4.731   7.628   5.332  2.1616 -3.0230 -0.3143
21351SOL    HW265342   4.660   7.507   5.389 -2.6070 -1.0575 -1.6046
21352SOL     OW65343   3.042   4.137   2.273 -0.2630  0.1683 -0.0132
21352SOL    HW165344   2.997   4.054   2.290  0.5972 -0.1630  0.7184
21352SOL    HW265345   3.131   4.123   2.303  0.4515  0.7041 -1.7434
21353SOL     OW65346   1.286   6.775   3.487  0.4079  0.1751 -0.7321
21353SOL    HW165347   1.227   6.814   3.422 -1.0044  0.7370  0.7887
21353SOL    HW265348   1.229   6.720   3.541  1.5841 -0.5075 -0.1423
21354SOL     OW65349   7.472   3.622   4.859  0.1874  0.3530  0.2003
21354SOL    HW165350   7.535   3.627   4.932 -0.0943 -0.6170  0.5262
21354SOL    HW265351   7.426   3.706   4.862  1.3207  1.0104  0.0780
21355SOL     OW65352   4.471   4.527   8.180  0.1269  0.3283 -0.2280
21355SOL    HW165353   4.376   4.544   8.182  0.1843  0.6722  1.1791
21355SOL    HW265354   4.485   4.464   8.252  0.9927  0.4218 -0.3048
21356SOL     OW65355   4.092   1.339   8.079 -0.7159 -0.3615  0.4331
21356SOL    HW165356   4.177   1.382   8.089 -1.2539  0.5558  1.2155
21356SOL    HW265357   4.076   1.299   8.165 -0.0630 -2.5001 -0.3725
21357SOL     OW65358   5.620   1.305   7.931 -0.5342 -0.2185  0.2798
21357SOL    HW165359   5.595   1.378   7.873  0.2552  0.3657  0.6571
21357SOL    HW265360   5.536   1.264   7.954 -1.3002  2.0702  2.0207
21358SOL     OW65361   4.444   1.157   4.458 -0.1272  0.2702 -0.1295
21358SOL    HW165362   4.377   1.091   4.477  0.7690 -0.4932  0.4773
21358SOL    HW265363   4.408   1.207   4.385 -1.5341  0.1545  0.4571
21359SOL     OW65364   3.624   0.965   8.498  0.1699  0.4567 -0.1502
21359SOL    HW165365   3.575   0.937   8.421  0.9260 -1.3626 -0.0101
21359SOL    HW265366   3.714   0.972   8.468  0.5420 -0.6595  0.6195
21360SOL     OW65367   0.707   2.045   4.348  0.0583  0.8748 -0.0442
21360SOL    HW165368   0.682   1.965   4.394 -3.0918  0.7524 -1.6837
21360SOL    HW265369   0.660   2.115   4.393  1.6994  1.6591  0.5253
21361SOL     OW65370   0.758   8.586   2.479 -0.3080 -0.1732  0.0070
21361SOL    HW165371   0.809   8.639   2.540 -1.1236  0.3809  0.2068
21361SOL    HW265372   0.729   8.647   2.412 -2.8400  0.0679  1.2237
21362SOL     OW65373   7.456   5.413   3.210 -0.0708 -0.3687  0.0070
21362SOL    HW165374   7.511   5.420   3.132  0.8365  0.4876  0.6990
21362SOL    HW265375   7.397   5.488   3.204  0.4121  0.0557  0.4396
21363SOL     OW65376   1.342   7.529   2.307 -0.4101  0.3693 -0.1449
21363SOL    HW165377   1.399   7.544   2.383 -0.3100  1.1417 -0.3639
21363SOL    HW265378   1.399   7.541   2.231 -0.7469  0.6531 -0.3561
21364SOL     OW65379   0.904   3.994   2.972  0.2001 -0.3571  0.1953
21364SOL    HW165380   0.818   3.984   3.013  0.2908  0.2093  0.5267
21364SOL    HW265381   0.884   4.009   2.879 -0.1236  1.0006  0.4619
21365SOL     OW65382   4.332   5.132   2.445 -0.3498 -0.7922  0.5302
21365SOL    HW165383   4.331   5.167   2.356 -0.0995  1.3243  1.2960
21365SOL    HW265384   4.424   5.131   2.469 -0.4569 -0.8368  0.9452
21366SOL     OW65385   4.623   2.497   4.224 -0.0530  0.6223 -0.1444
21366SOL    HW165386   4.652   2.409   4.201  0.7576  1.1586 -1.3137
21366SOL    HW265387   4.677   2.521   4.300  2.7584  1.5894 -2.2578
21367SOL     OW65388   0.076   1.037   0.938 -0.3039  0.6394 -0.1756
21367SOL    HW165389   0.053   1.083   1.018 -0.6246  0.9237 -0.4279
21367SOL    HW265390   0.139   1.095   0.894 -0.3206  0.6037 -0.2477
21368SOL     OW65391   2.905   4.895   7.519 -0.1706  0.3158 -0.5850
21368SOL    HW165392   2.875   4.820   7.571  0.5157 -0.3179 -1.0784
21368SOL    HW265393   2.904   4.969   7.581  0.1515 -0.3164  0.1979
21369SOL     OW65394   1.677   0.327   1.962  0.0201 -0.3106  0.1524
21369SOL    HW165395   1.695   0.400   1.903  1.8765 -0.5628  0.3646
21369SOL    HW265396   1.646   0.368   2.042 -1.4119  0.0851 -0.5629
21370SOL     OW65397   3.116   3.270   4.288  0.3155 -0.3042 -0.4249
21370SOL    HW165398   3.096   3.191   4.338  1.1373 -0.2739 -0.0398
21370SOL    HW265399   3.033   3.319   4.288  0.5084  0.1265  1.6915
21371SOL     OW65400   5.385   1.666   0.772  0.3338  0.0921  0.1376
21371SOL    HW165401   5.400   1.612   0.695 -0.0046  0.4329 -0.1726
21371SOL    HW265402   5.305   1.714   0.752  0.6767  0.7725  0.3638
21372SOL     OW65403   1.312   7.636   0.890 -0.0287 -0.3419 -0.0094
21372SOL    HW165404   1.288   7.580   0.816 -0.8538 -0.9296  0.6845
21372SOL    HW265405   1.240   7.699   0.896  0.3103  0.0513 -0.0434
21373SOL     OW65406   6.355   5.895   5.714  0.0471  0.1888 -0.5658
21373SOL    HW165407   6.422   5.844   5.667 -1.0109  0.0697 -2.0119
21373SOL    HW265408   6.272   5.867   5.676 -0.8944  0.0627  1.4574
21374SOL     OW65409   8.672   6.306   1.474 -0.3688  0.2061 -0.4025
21374SOL    HW165410   8.736   6.263   1.531 -1.4539 -0.5753  0.2513
21374SOL    HW265411   8.587   6.278   1.507 -1.0968  1.8629 -0.7449
21375SOL     OW65412   1.571   5.461   3.872 -0.4769  0.1018 -0.1593
21375SOL    HW165413   1.568   5.551   3.905  1.7338  0.1972 -0.0622
21375SOL    HW265414   1.504   5.414   3.922 -0.6025  1.3611  0.8930
21376SOL     OW65415   6.577   1.524   5.241 -0.1825 -0.1119  0.2060
21376SOL    HW165416   6.669   1.548   5.251 -0.0147 -0.6554  0.0374
21376SOL    HW265417   6.577   1.461   5.168 -0.7259  0.1185  0.0019
21377SOL     OW65418   5.031   8.410   5.868  0.8640 -0.5833 -0.9827
21377SOL    HW165419   5.118   8.387   5.836  1.1332  1.7404 -2.1751
21377SOL    HW265420   5.046   8.479   5.933 -0.0743  0.5593 -1.9249
21378SOL     OW65421   0.141   3.495   7.631 -0.3452 -0.1569  0.1929
21378SOL    HW165422   0.130   3.516   7.538  0.1755  1.5132  0.4662
21378SOL    HW265423   0.074   3.429   7.648  0.2891 -1.3353 -1.6064
21379SOL     OW65424   3.505   6.616   7.365  0.0717  0.3933  0.4180
21379SOL    HW165425   3.579   6.628   7.305  0.3697  0.9664  0.8913
21379SOL    HW265426   3.458   6.699   7.361  0.0278  0.3919  0.8884
21380SOL     OW65427   4.368   7.921   3.983  0.8405 -0.3513 -0.0679
21380SOL    HW165428   4.396   7.911   4.074  2.1612 -0.2249 -0.4270
21380SOL    HW265429   4.450   7.920   3.933  0.1421 -0.3819 -1.2528
21381SOL     OW65430   6.723   7.479   1.588  0.3592  0.1586 -0.5421
21381SOL    HW165431   6.777   7.551   1.622  0.5604 -0.4360  0.4601
21381SOL    HW265432   6.787   7.413   1.560  0.1743  0.0984 -0.8150
21382SOL     OW65433   5.692   3.018   7.781  0.0995 -0.5229  0.3243
21382SOL    HW165434   5.745   3.027   7.860  0.7466  0.5453 -0.2140
21382SOL    HW265435   5.691   2.924   7.763  1.2970 -0.6145  0.6833
21383SOL     OW65436   3.226   7.995   1.876 -0.0342 -0.0795 -0.3304
21383SOL    HW165437   3.227   7.915   1.822  0.2365 -1.5503  1.7430
21383SOL    HW265438   3.140   8.033   1.860  0.1686 -0.2383 -2.0580
21384SOL     OW65439   3.304   5.548   1.775 -0.2227 -0.4987  0.0031
21384SOL    HW165440   3.255   5.528   1.695  0.1076 -2.0838  0.1762
21384SOL    HW265441   3.364   5.474   1.787  1.1851  0.6797  0.6157
21385SOL     OW65442   2.429   7.274   6.261 -0.3432  0.1045 -0.0077
21385SOL    HW165443   2.368   7.212   6.221 -1.3068  0.3634  0.9775
21385SOL    HW265444   2.421   7.353   6.208 -0.7490  0.0735 -0.0012
21386SOL     OW65445   3.413   3.262   4.338  0.3304 -0.0423 -0.5233
21386SOL    HW165446   3.462   3.329   4.387  2.4447 -0.6287 -1.7102
21386SOL    HW265447   3.402   3.191   4.401 -1.4582  1.1348  0.5836
21387SOL     OW65448   7.793   5.559   0.804 -0.4340  0.2792 -0.1108
21387SOL    HW165449   7.726   5.627   0.811 -0.3158  0.2413  1.9882
21387SOL    HW265450   7.745   5.477   0.812 -0.4140  0.1571 -1.1886
21388SOL     OW65451   3.993   0.010   0.581  0.4071 -0.1685  0.1572
21388SOL    HW165452   4.081   0.047   0.589  0.4095  0.1682 -1.2385
21388SOL    HW265453   4.008  -0.084   0.565  0.6662  0.3070 -2.8878
21389SOL     OW65454   0.001   5.299   7.549 -0.0776 -0.3213 -0.8067
21389SOL    HW165455  -0.058   5.227   7.571 -0.6039  0.1873 -0.5262
21389SOL    HW265456  -0.028   5.372   7.605 -0.3061  0.4667 -1.9216
21390SOL     OW65457   4.505   5.301   0.189 -0.2782  0.7610 -0.2588
21390SOL    HW165458   4.413   5.275   0.185 -0.0553 -0.1978  0.3446
21390SOL    HW265459   4.525   5.335   0.102 -0.1071 -2.9153 -1.8317
21391SOL     OW65460   2.596   0.624   4.447 -0.0963 -0.7603 -0.6974
21391SOL    HW165461   2.567   0.697   4.392  0.8063 -0.3965 -0.7021
21391SOL    HW265462   2.587   0.657   4.536 -3.2798 -1.9542 -0.4317
21392SOL     OW65463   4.376   1.802   6.489  0.0545 -0.5527  0.7908
21392SOL    HW165464   4.416   1.763   6.412 -0.3684  0.4703  0.0379
21392SOL    HW265465   4.283   1.810   6.468 -0.1628 -0.7674  1.6154
21393SOL     OW65466   0.275   6.710   6.623 -0.4728  0.1113 -0.0781
21393SOL    HW165467   0.304   6.655   6.551 -1.2270 -0.8592  0.3376
21393SOL    HW265468   0.270   6.652   6.699 -1.1803  0.7573  0.3977
21394SOL     OW65469   2.104   7.652   6.518 -0.0815 -0.3409 -0.0890
21394SOL    HW165470   2.081   7.615   6.433  1.3386 -1.4903 -0.0176
21394SOL    HW265471   2.135   7.577   6.569  1.6087  0.7034  0.5229
21395SOL     OW65472   8.110   3.207   3.391 -0.4149  0.1918  0.2011
21395SOL    HW165473   8.165   3.132   3.371 -0.6419  0.1520 -0.3051
21395SOL    HW265474   8.041   3.173   3.448  1.7426  0.8399  3.4115
21396SOL     OW65475   7.281   1.296   6.753 -0.0097  0.1012  0.0026
21396SOL    HW165476   7.211   1.360   6.744 -0.3694 -0.1800  0.7425
21396SOL    HW265477   7.260   1.229   6.687  1.6217  1.8129 -2.4145
21397SOL     OW65478   6.996   8.316   2.990 -0.0678 -0.5455  0.1731
21397SOL    HW165479   7.027   8.341   2.903  0.2018  1.8899  0.8919
21397SOL    HW265480   6.903   8.340   2.991 -0.2604 -1.2822  0.3076
21398SOL     OW65481   3.784   6.025   0.171  0.5640 -0.7720 -0.0563
21398SOL    HW165482   3.872   6.039   0.204  0.6782 -0.5995 -0.4280
21398SOL    HW265483   3.748   5.955   0.225 -0.2208  1.2326  2.2112
21399SOL     OW65484   5.617   5.506   4.953 -0.5500 -0.2748  0.0307
21399SOL    HW165485   5.647   5.561   4.881 -0.6418  1.1201  1.0184
21399SOL    HW265486   5.684   5.516   5.021  0.4721 -2.9836 -0.4640
21400SOL     OW65487   1.553   5.062   8.299  0.3331  0.1380  0.8108
21400SOL    HW165488   1.490   5.004   8.256  1.1977 -0.9247  0.9388
21400SOL    HW265489   1.637   5.018   8.289  1.1934  1.8271  0.0801
21401SOL     OW65490   3.259   2.773   6.298 -0.4249  0.0242 -0.3563
21401SOL    HW165491   3.284   2.853   6.251  0.9008 -0.4785 -0.5501
21401SOL    HW265492   3.295   2.784   6.386 -0.0672 -0.4238 -0.4391
21402SOL     OW65493   2.528   4.680   7.189  0.1595 -0.0127 -0.4549
21402SOL    HW165494   2.506   4.772   7.175  1.1787  1.0335  3.5609
21402SOL    HW265495   2.595   4.661   7.123  0.7436  2.4869 -0.6852
21403SOL     OW65496   0.062   3.445   1.020  0.0775  0.2327 -0.6606
21403SOL    HW165497   0.070   3.521   0.962  0.3251  1.4054  0.8215
21403SOL    HW265498  -0.016   3.464   1.073  0.7467 -0.0009  0.4471
21404SOL     OW65499   1.830   2.151   1.950  0.2334  0.0564  0.0480
21404SOL    HW165500   1.812   2.095   1.875 -0.7658 -0.1260  0.4095
21404SOL    HW265501   1.772   2.226   1.939 -0.4723 -0.3294  1.0135
21405SOL     OW65502   2.606   0.862   6.846  0.5296 -0.0140 -0.0787
21405SOL    HW165503   2.561   0.780   6.868  1.7793 -1.0020 -1.0299
21405SOL    HW265504   2.564   0.891   6.765  1.1938 -0.6473 -0.6693
21406SOL     OW65505   6.397   2.783   1.654  0.6097 -0.1088  0.0920
21406SOL    HW165506   6.469   2.813   1.710  0.5738  0.1216  0.0171
21406SOL    HW265507   6.425   2.697   1.623 -0.0456 -0.9165  1.6778
21407SOL     OW65508   7.042   3.164   3.205  0.2665  0.0574  0.5816
21407SOL    HW165509   7.132   3.144   3.181  0.0025  0.8219 -1.2014
21407SOL    HW265510   7.017   3.237   3.148 -1.8147 -0.8017  0.3070
21408SOL     OW65511   1.147   3.242   6.899  0.0006  0.5335  1.1386
21408SOL    HW165512   1.065   3.224   6.945 -1.0244  0.0786 -0.7544
21408SOL    HW265513   1.177   3.326   6.934 -0.4210 -0.0321  2.9779
21409SOL     OW65514   1.924   4.407   4.640  0.0487 -0.4064 -0.1009
21409SOL    HW165515   1.834   4.385   4.616  0.1424 -3.6886  1.9246
21409SOL    HW265516   1.977   4.372   4.569 -0.1592  0.9001 -0.9457
21410SOL     OW65517   3.123   2.198   2.401  0.1054 -0.3428 -0.2750
21410SOL    HW165518   3.157   2.281   2.435 -1.4348  0.0117  0.4861
21410SOL    HW265519   3.117   2.211   2.306  1.0687 -0.0479 -0.3003
21411SOL     OW65520   8.653   5.908   6.520 -0.2588 -0.0864  0.0729
21411SOL    HW165521   8.565   5.906   6.481 -0.4679 -0.3146  0.5408
21411SOL    HW265522   8.673   5.816   6.538  0.2316 -0.0697 -0.3568
21412SOL     OW65523   5.506   1.076   3.393 -0.8614  0.0921 -0.3012
21412SOL    HW165524   5.412   1.092   3.398 -0.8393  0.3609 -0.6848
21412SOL    HW265525   5.546   1.157   3.424 -0.7497 -0.3988  0.9099
21413SOL     OW65526   4.796   0.485   0.775  0.2317 -0.1557 -0.2892
21413SOL    HW165527   4.881   0.448   0.799  1.2602  1.8496 -0.6385
21413SOL    HW265528   4.742   0.409   0.753  1.2549 -1.6361  1.9702
21414SOL     OW65529   3.163   5.166   1.231 -0.4694 -0.0631 -0.0598
21414SOL    HW165530   3.253   5.166   1.200 -0.8091  0.8078 -1.0963
21414SOL    HW265531   3.111   5.197   1.157 -1.8499 -2.1798 -0.0786
21415SOL     OW65532   6.905   7.398   3.498 -0.0429 -0.7076  0.6817
21415SOL    HW165533   6.857   7.331   3.450  0.0911 -1.2688  1.3263
21415SOL    HW265534   6.989   7.357   3.519  1.7517  0.9593 -2.4016
21416SOL     OW65535   6.147   5.090   1.069  0.2306  0.2241  0.4199
21416SOL    HW165536   6.058   5.087   1.033  1.0179 -2.0684 -1.5605
21416SOL    HW265537   6.198   5.136   1.003  0.7599  0.4704  0.9933
21417SOL     OW65538   2.098   3.795   0.070 -0.0233 -0.0111 -0.1200
21417SOL    HW165539   2.087   3.791  -0.025 -0.7141 -0.3903 -0.0292
21417SOL    HW265540   2.185   3.757   0.085 -1.1819 -3.1053 -0.3869
21418SOL     OW65541   0.116   0.549   5.720 -0.4611 -0.8017 -0.5474
21418SOL    HW165542   0.165   0.485   5.772 -0.8578 -0.3941  0.3445
21418SOL    HW265543   0.064   0.597   5.784 -0.6472 -0.0073 -1.2823
21419SOL     OW65544   5.770   4.856   5.834 -0.0861  0.7290  0.3790
21419SOL    HW165545   5.812   4.855   5.921  0.2804 -0.2603  0.2007
21419SOL    HW265546   5.838   4.825   5.774 -0.8133 -0.1313 -0.0293
21420SOL     OW65547   3.939   5.515   8.428  0.3637  0.1714 -0.5612
21420SOL    HW165548   3.895   5.559   8.500  0.1209  2.0647 -1.8025
21420SOL    HW265549   3.968   5.586   8.370  1.4728 -1.2282 -1.8047
21421SOL     OW65550   2.301   1.472   0.002  0.0048  0.0652  0.0074
21421SOL    HW165551   2.370   1.408   0.022 -0.5518 -0.4049  0.4932
21421SOL    HW265552   2.347   1.555  -0.006  0.4921 -0.0292  1.5197
21422SOL     OW65553   8.566   7.340   0.685 -0.4842 -0.2595  0.0180
21422SOL    HW165554   8.621   7.382   0.752  1.4740 -0.5838 -1.2938
21422SOL    HW265555   8.552   7.251   0.717  1.9054 -0.9703 -0.7034
21423SOL     OW65556   7.909   3.491   2.195 -0.2572 -0.0656  0.1278
21423SOL    HW165557   7.861   3.483   2.113 -1.2064 -1.0861  0.7502
21423SOL    HW265558   7.869   3.426   2.253 -0.0024  1.0049  1.5883
21424SOL     OW65559   6.185   7.852   1.045 -0.3447 -0.1156  0.2901
21424SOL    HW165560   6.153   7.813   0.964  0.4576  1.0954 -0.6518
21424SOL    HW265561   6.233   7.782   1.089  1.7435 -0.0724 -1.7318
21425SOL     OW65562   0.752   8.598   7.495  0.0299 -0.4348  0.4250
21425SOL    HW165563   0.822   8.606   7.559  1.2448  0.9471 -1.0023
21425SOL    HW265564   0.784   8.531   7.433 -0.3544 -0.5089  0.3013
21426SOL     OW65565   5.626   8.450   3.965  0.1971  0.3018 -1.0107
21426SOL    HW165566   5.720   8.450   3.982 -0.1569 -0.1584  1.1926
21426SOL    HW265567   5.603   8.357   3.961 -0.5231  0.3365  1.0350
21427SOL     OW65568   0.827   4.362   1.238  0.0175 -0.1389 -0.4033
21427SOL    HW165569   0.814   4.453   1.209 -1.8237 -0.5398 -0.9945
21427SOL    HW265570   0.867   4.370   1.325  2.3377  1.1598 -1.5176
21428SOL     OW65571   0.779   3.443   6.956 -0.1066  0.1468 -0.3164
21428SOL    HW165572   0.857   3.470   6.909  1.0460 -1.1826  0.7450
21428SOL    HW265573   0.811   3.382   7.023 -1.7434  1.3061  1.6481
21429SOL     OW65574   1.136   2.532   1.931 -0.0616 -0.2464 -0.6084
21429SOL    HW165575   1.222   2.556   1.964 -1.1028 -0.2355  2.3556
21429SOL    HW265576   1.110   2.455   1.981 -1.6998 -0.3554 -1.5364
21430SOL     OW65577   8.215   1.756   7.609  0.1821  0.0237  0.3110
21430SOL    HW165578   8.226   1.838   7.658  2.6787  2.3438 -3.6138
21430SOL    HW265579   8.289   1.702   7.637 -0.9746 -0.6816  2.2532
21431SOL     OW65580   1.064   6.026   1.078  0.5006  0.2328  0.1262
21431SOL    HW165581   1.053   5.976   1.159 -0.4194 -0.1183 -0.1973
21431SOL    HW265582   1.125   6.096   1.101  2.4945 -1.5031  0.3536
21432SOL     OW65583   1.721   7.853   6.350  0.5355  0.5117 -0.8075
21432SOL    HW165584   1.772   7.933   6.344 -1.7582  2.2809  1.0798
21432SOL    HW265585   1.734   7.822   6.439  1.9482 -1.7539 -1.6915
21433SOL     OW65586   2.723   3.369   3.720 -0.0199  0.0713  0.2063
21433SOL    HW165587   2.716   3.284   3.677 -0.3668  0.6105 -0.8216
21433SOL    HW265588   2.650   3.369   3.783 -0.7205  0.0534 -0.5856
21434SOL     OW65589   0.300   4.254   8.701  0.2968  0.4487 -0.2115
21434SOL    HW165590   0.311   4.177   8.645  0.8053  0.5634 -0.2759
21434SOL    HW265591   0.218   4.294   8.672 -1.3440 -1.4699  1.5036
21435SOL     OW65592   1.248   1.388   6.096 -0.6639 -0.1862  0.0331
21435SOL    HW165593   1.172   1.332   6.112 -0.4011 -0.3773  0.6230
21435SOL    HW265594   1.285   1.404   6.183 -0.0690 -0.0332 -0.2441
21436SOL     OW65595   0.943   7.483   5.683 -0.0458  0.7836 -0.2903
21436SOL    HW165596   0.885   7.465   5.609  2.0862 -1.1599 -1.6452
21436SOL    HW265597   0.928   7.411   5.744  1.0673  0.0699 -0.8095
21437SOL     OW65598   5.345   4.269   4.358 -0.5167  0.4038  0.8555
21437SOL    HW165599   5.348   4.338   4.424  1.0511  0.8887  0.3224
21437SOL    HW265600   5.391   4.195   4.399 -1.1021  0.0938  0.9602
21438SOL     OW65601   7.858   0.059   2.539  0.1991 -0.2538 -0.0061
21438SOL    HW165602   7.829   0.136   2.489  0.7277 -0.2249 -0.2762
21438SOL    HW265603   7.829   0.077   2.629 -1.0537 -0.4633 -0.3498
21439SOL     OW65604   5.251   6.563   2.101 -0.6171  0.3301  0.1056
21439SOL    HW165605   5.330   6.528   2.061 -1.3333 -1.3479  0.0622
21439SOL    HW265606   5.221   6.630   2.040 -1.1967 -1.5525 -1.8120
21440SOL     OW65607   5.901   0.302   0.895 -0.3200 -0.6307  0.1002
21440SOL    HW165608   5.831   0.346   0.944 -1.4163 -0.3983 -1.6238
21440SOL    HW265609   5.981   0.340   0.931 -1.1715  1.8347 -0.3614
21441SOL     OW65610   0.929   5.609   8.056  0.0607  0.0101 -0.9214
21441SOL    HW165611   0.905   5.529   8.102  2.4559 -0.3094 -0.0906
21441SOL    HW265612   0.846   5.642   8.020 -1.4427 -1.2887  1.1322
21442SOL     OW65613   6.585   6.809   1.739  0.8016 -0.3579 -0.2686
21442SOL    HW165614   6.513   6.768   1.691  1.1688  0.0970 -1.2405
21442SOL    HW265615   6.646   6.738   1.759 -0.1504 -0.8435  1.0394
21443SOL     OW65616   1.867   2.583   1.370 -0.3227 -0.2730  0.4710
21443SOL    HW165617   1.808   2.536   1.312 -0.6499  0.9817 -0.2672
21443SOL    HW265618   1.842   2.675   1.360  0.5876  0.1175  1.5005
21444SOL     OW65619   4.393   4.088   3.804 -0.1466 -0.4753  0.4819
21444SOL    HW165620   4.300   4.089   3.780  0.0691  0.9263 -0.4069
21444SOL    HW265621   4.437   4.053   3.726  0.3869  2.4324 -0.6615
21445SOL     OW65622   1.767   3.977   4.702  0.2088  0.1942 -0.1258
21445SOL    HW165623   1.789   3.890   4.736  1.4318 -0.0250 -1.3542
21445SOL    HW265624   1.804   4.038   4.766  0.9019 -0.2087 -0.1306
21446SOL     OW65625   1.179   0.450   7.109  0.4752  0.1207 -0.7626
21446SOL    HW165626   1.152   0.485   7.024 -1.3492  0.8465  0.0517
21446SOL    HW265627   1.134   0.366   7.116 -0.7241  0.7962  0.1148
21447SOL     OW65628   1.231   3.432   0.480 -0.5617  0.2074 -0.0595
21447SOL    HW165629   1.168   3.427   0.408  1.0582 -0.8207 -1.4766
21447SOL    HW265630   1.268   3.519   0.473 -0.2991  0.0557 -0.5752
21448SOL     OW65631   7.116   7.776   1.772  0.1662 -0.4519 -0.0746
21448SOL    HW165632   7.084   7.802   1.858  0.9411 -0.5214  0.2386
21448SOL    HW265633   7.212   7.779   1.779  0.2453 -1.1968 -0.7024
21449SOL     OW65634   6.214   7.701   4.905 -0.5218 -0.3138 -0.2850
21449SOL    HW165635   6.217   7.688   5.000  0.1924 -0.5561 -0.3334
21449SOL    HW265636   6.172   7.786   4.894  1.0589  0.5813  0.3239
21450SOL     OW65637   4.544   3.701   7.284  0.0291 -0.9793 -0.7610
21450SOL    HW165638   4.622   3.648   7.264  0.5476  0.2268 -2.0850
21450SOL    HW265639   4.562   3.739   7.369  0.6840 -1.0918 -0.8435
21451SOL     OW65640   2.291   3.226   3.738  0.3692  0.0730  0.7221
21451SOL    HW165641   2.365   3.275   3.774  1.1299 -0.4216 -0.0963
21451SOL    HW265642   2.328   3.139   3.720  0.2992  0.5274 -1.9852
21452SOL     OW65643   2.900   8.310   7.826 -0.2588  0.2175 -0.2203
21452SOL    HW165644   2.924   8.309   7.733  1.3505  1.2603  0.1480
21452SOL    HW265645   2.813   8.350   7.828 -0.7591 -0.7504 -1.3478
21453SOL     OW65646   4.045   3.406   0.014 -0.0563  0.2662 -0.3124
21453SOL    HW165647   4.037   3.315  -0.016  1.1531 -0.7650  2.1664
21453SOL    HW265648   3.962   3.423   0.059  0.4650 -0.3832  0.9581
21454NA      NA65649   7.192   3.359   2.379  0.1956 -0.6198 -0.2867
21455NA      NA65650   2.702   7.801   7.456 -0.1981  0.0197  0.4428
21456NA      NA65651   3.217   4.866   4.601  0.3486 -0.3896  0.0052
21457NA      NA65652   8.326   7.606   0.449  0.5484 -0.0563  0.2755
21458NA      NA65653   7.302   3.565   4.452  0.1066  0.1437  0.4993
21459NA      NA65654   7.303   4.782   8.584  0.0789 -0.2801 -0.2420
21460NA      NA65655   2.550   5.918   5.059  0.9490  0.2199 -0.0667
21461NA      NA65656   4.004   3.606   5.481 -0.0660 -0.1829  0.2060
21462NA      NA65657   7.766   7.570   2.269 -0.3222 -0.4779  0.4493
21463NA      NA65658   6.100   4.335   1.397 -0.7476  0.1497  0.5160
21464NA      NA65659   8.260   8.156   4.093 -0.7512  0.1365  0.3257
21465NA      NA65660   6.294   6.074   6.290 -0.0381  0.1991  0.4955
21466NA      NA65661   5.998   0.681   6.920 -0.2157  0.0503  0.0821
21467NA      NA65662   4.911   6.915   2.787  0.1574 -0.0320 -0.0253
21468NA      NA65663   0.071   5.576   2.265  0.2899 -0.2286 -0.1022
21469NA      NA65664   8.322   1.787   5.083  0.4629 -0.3909 -0.5608
21470NA      NA65665   0.130   5.071   0.745  0.3386  0.2481 -0.5199
21471NA      NA65666   5.501   6.040   3.920 -0.5200  0.2673 -0.0493
21472NA      NA65667   3.494   6.240   4.996  0.0421  0.2990 -0.4481
21473NA      NA65668   3.277   3.267   4.154 -0.1381 -0.2795 -0.2292
21474NA      NA65669   8.584   0.897   7.432  0.5639  0.2081 -0.2399
21475NA      NA65670   5.514   1.673   7.891 -0.1717 -0.0157 -0.5886
21476NA      NA65671   6.277   7.561   7.092 -0.5045  0.1145  0.4503
21477NA      NA65672   7.590   2.246   1.442 -0.2479  0.2042  0.3532
21478NA      NA65673   0.300   7.632   2.888  0.0446  0.2431  0.0880
21479NA      NA65674   2.840   4.759   1.679 -0.2512  0.4048  0.7588
21480NA      NA65675   0.351   8.356   6.745 -0.2310 -0.6790 -0.0350
21481NA      NA65676   0.238   3.457   0.056  0.3147  0.2967 -0.0301
21482NA      NA65677   2.669   3.825   5.909  0.3933  0.3594  0.1937
21483NA      NA65678   3.652   7.545   6.819 -0.1545  0.0986 -0.2344
21484NA      NA65679   7.475   5.772   7.687  0.3753 -0.0735 -0.1565
21485NA      NA65680   6.457   5.311   5.267  0.3071 -0.1682 -0.1863
21486NA      NA65681   3.944   1.370   7.931  0.4213  0.0395 -0.1207
21487NA      NA65682   0.969   0.021   1.559  0.0111  0.1861 -0.0224
21488NA      NA65683   8.584   8.326   7.194 -0.1449  0.3856 -0.3946
21489NA      NA65684   6.728   6.050   4.167 -0.5831  0.0241  0.6245
21490NA      NA65685   0.791   4.776   6.166 -0.0656 -0.6829  0.3080
21491NA      NA65686   6.388   7.244   4.363  0.0067 -0.0956  0.7988
21492NA      NA65687   7.128   5.043   1.211  0.2020  0.3799  0.2123
21493NA      NA65688   1.640   2.821   4.887 -0.0305  0.0936 -0.2919
21494NA      NA65689   1.381   4.537   3.639 -0.3375 -0.0201 -0.4265
21495NA      NA65690   7.891   5.686   6.615  0.0305  0.2196 -0.2394
21496NA      NA65691   3.424   2.873   7.645  0.5661 -0.0976  0.3390
21497NA      NA65692   2.519   1.851   7.033  0.4128  0.2720 -0.0958
21498NA      NA65693   8.602   4.250   4.554  0.1761  0.0158 -0.5582
21499NA      NA65694   0.597   1.014   0.774 -0.2154  0.0518 -0.2533
21500NA      NA65695   1.419   1.773   7.903  0.0072 -0.0274  0.2423
21501NA      NA65696   1.508   1.594   7.036 -0.2982 -0.2519  0.0268
21502NA      NA65697   3.669   0.144   7.280  0.5279 -0.7100  0.5147
21503NA      NA65698   6.463   5.325   3.986  0.0280 -0.3294 -0.3605
21504NA      NA65699   1.021   5.712   5.225  0.1234 -0.1457  0.1715
21505NA      NA65700   6.873   7.971   0.163 -0.0720 -0.4406 -0.0762
21506NA      NA65701   4.848   3.198   7.468 -0.3105  0.3590  0.0560
21507NA      NA65702   5.007   6.280   2.252  0.4127  0.4531 -0.3081
21508NA      NA65703   4.620   6.548   6.195  0.6478  0.7859 -0.1123
21509NA      NA65704   5.127   6.515   4.398  0.4148 -0.3033 -0.0218
21510NA      NA65705   1.885   2.387   5.194 -0.6412  0.1424  0.0721
21511NA      NA65706   2.288   5.575   2.596 -0.0563  0.0159  0.1378
21512NA      NA65707   1.835   8.597   0.344  0.3194  0.1566 -0.3613
21513NA      NA65708   6.513   5.570   2.817 -0.3127 -0.2442  0.2603
21514NA      NA65709   6.680   3.259   6.862 -0.2492 -0.0856  0.2347
21515CL      CL65710   2.597   6.614   1.555  0.3197 -0.1247 -0.1034
21516CL      CL65711   4.115   5.742   3.676 -0.3463  0.0796  0.2637
21517CL      CL65712   0.283   1.950   6.848 -0.1881  0.0598  0.2944
21518CL      CL65713   3.227   4.359   4.788  0.1596  0.0212 -0.0837
21519CL      CL65714   4.673   4.521   4.951 -0.0671  0.2267  0.1135
21520CL      CL65715   2.384   7.989   7.797 -0.0612  0.1007  0.3034
21521CL      CL65716   6.572   6.933   3.898  0.1694 -0.1298 -0.1677
21522CL      CL65717   4.230   0.059   2.874  0.0449  0.2042 -0.3469
21523CL      CL65718   7.095   4.117   0.143 -0.1987 -0.0138  0.1745
21524CL      CL65719   7.894   0.878   0.781 -0.0088  0.0381 -0.0748
21525CL      CL65720   4.853   2.130   2.559  0.3836 -0.4119  0.0473
21526CL      CL65721   6.457   7.438   0.365 -0.1412 -0.0549 -0.3199
21527CL      CL65722   7.177   0.098   0.107  0.1814  0.1482 -0.0921
21528CL      CL65723   4.718   1.177   1.480 -0.3013  0.2576 -0.3475
21529CL      CL65724   5.303   1.567   5.140  0.4309  0.3315 -0.1717
21530CL      CL65725   3.340   2.779   6.606 -0.0611  0.3252  0.6265
21531CL      CL65726   1.060   1.660   8.141 -0.1992 -0.1498 -0.1818
21532CL      CL65727   5.226   1.267   6.461 -0.0626  0.2008 -0.0758
21533CL      CL65728   4.310   3.094   6.041 -0.1648  0.0283 -0.0918
21534CL      CL65729   0.694   0.294   2.691  0.1044  0.5552  0.2211
21535CL      CL65730   5.827   7.127   4.346 -0.4472  0.1355 -0.0963
21536CL      CL65731   5.197   1.483   7.601 -0.3541 -0.2086  0.1683
21537CL      CL65732   4.792   3.251   2.630  0.0745 -0.3205 -0.0508
21538CL      CL65733   4.565   1.578   0.755 -0.1371  0.0090 -0.0208
21539CL      CL65734   6.760   5.645   6.976 -0.1860  0.2929  0.0550
21540CL      CL65735   3.617   0.934   1.990 -0.2138 -0.1075 -0.1900
21541CL      CL65736   6.792   2.244   2.682 -0.2516  0.3526 -0.2411
21542CL      CL65737   3.879   0.333   2.624  0.0615  0.4462 -0.0345
21543CL      CL65738   4.088   1.700   8.556 -0.2238  0.0408 -0.2369
21544CL      CL65739   7.661   4.651   4.636 -0.5599 -0.2173  0.0388
21545CL      CL65740   0.251   0.540   4.782  0.3133  0.4662 -0.0689
21546CL      CL65741   3.378   4.707   4.120  0.3193  0.5189  0.0555
21547CL      CL65742   8.243   8.458   2.112 -0.1050 -0.2120 -0.2530
21548CL      CL65743   7.016   5.639   3.622  0.3110  0.1905 -0.4987
21549CL      CL65744   4.538   1.159   6.102 -0.2253 -0.1208  0.2402
21550CL      CL65745   4.215   1.223   3.107 -0.0305 -0.4175 -0.0860
21551CL      CL65746   6.815   1.636   6.789  0.1651 -0.2057  0.0997
21552CL      CL65747   3.789   4.245   1.683 -0.2136 -0.0069 -0.0804
21553CL      CL65748   4.470   3.086   3.865  0.3908  0.1551  0.0751
21554CL      CL65749   7.951   7.467   8.707  0.0528 -0.1619  0.0390
21555CL      CL65750   7.091   8.125   2.054 -0.3245 -0.2947  0.1296
21556CL      CL65751   6.854   0.860   2.827  0.3193  0.2340 -0.2447
21557CL      CL65752   3.903   7.512   3.536 -0.3932 -0.1457  0.3695
21558CL      CL65753   4.599   3.435   2.041  0.1999 -0.2045 -0.3667
21559CL      CL65754   3.774   0.739   4.402  0.4682 -0.3106  0.1130
21560CL      CL65755   0.928   0.457   3.738 -0.6041 -0.1991  0.1316
21561CL      CL65756   1.127   6.631   6.511  0.8137 -0.1522  0.2933
21562CL      CL65757   4.255   0.270   5.108  0.2756 -0.2949 -0.2044
21563CL      CL65758   2.687   3.100   3.358  0.2038 -0.3322 -0.1858
21564CL      CL65759   4.065   1.957   3.129  0.0423  0.0579  0.4433
21565CL      CL65760   6.202   1.391   1.584  0.1708  0.5636  0.1867
21566CL      CL65761   6.768   3.612   2.423 -0.0269  0.1080 -0.3383
21567CL      CL65762   5.235   2.911   8.481 -0.0430  0.1152  0.1753
21568CL      CL65763   0.918   5.541   0.253  0.1364  0.1633 -0.2355
21569CL      CL65764   4.683   8.337   6.136 -0.0482  0.2207  0.1431
21570CL      CL65765   0.070   4.524   0.458  0.2276  0.1623  0.2457
21571CL      CL65766   6.413   1.131   2.328  0.3848 -0.3263  0.4108
21572CL      CL65767   8.300   1.701   2.771 -0.2682  0.1731  0.1201
21573CL      CL65768   1.500   3.216   6.490  0.1672 -0.1904 -0.2013
21574CL      CL65769   5.387   8.344   1.701  0.1530 -0.2071  0.5438
21575CL      CL65770   2.625   8.424   7.952  0.2970  0.3994  0.0777
21576CL      CL65771   5.647   1.382   3.465  0.0065 -0.0732  0.1899
21577CL      CL65772   7.931   7.968   0.475  0.0161 -0.4901 -0.2305
21578CL      CL65773   5.847   3.709   3.641  0.4941 -0.1945  0.0771
21579CL      CL65774   5.222   2.974   2.210  0.1974 -0.0281  0.0271
21580CL      CL65775   4.819   6.792   0.313 -0.1572 -0.4250  0.2852
21581CL      CL65776   3.890   3.638   0.702 -0.0866  0.2112 -0.2788
21582CL      CL65777   5.167   4.815   3.160 -0.3464  0.0402  0.0085
21583CL      CL65778   6.300   7.719   6.887 -0.2069  0.2159 -0.0512
21584CL      CL65779   5.245   3.674   5.848 -0.1320 -0.2167  0.1110
21585CL      CL65780   8.525   3.983   6.896 -0.0915 -0.3417 -0.4509
21586CL      CL65781   2.963   5.578   5.105 -0.2782  0.0200  0.0978
21587CL      CL65782   8.314   5.628   7.489  0.2535  0.2825  0.1159
21588CL      CL65783   1.398   0.822   1.018  0.1228  0.1172  0.1342
21589CL      CL65784   2.653   3.979   1.142 -0.2838 -0.7212 -0.1256
21590CL      CL65785   6.491   4.050   8.225  0.0719 -0.1576  0.2319
21591CL      CL65786   2.457   2.664   4.023 -0.6989 -0.3670 -0.3542
21592CL      CL65787   5.069   2.077   0.552  0.1283  0.1105  0.0353
21593CL      CL65788   2.796   2.321   6.159  0.2454  0.2942  0.0128
21594CL      CL65789   6.234   2.440   0.508  0.1398 -0.1422 -0.1946
21595CL      CL65790   1.898   1.294   5.394 -0.5034  0.4899 -0.1516
21596CL      CL65791   5.949   2.300   6.972  0.1509  0.2599  0.3942
21597CL      CL65792   2.845   2.447   1.177 -0.4982  0.2601  0.2565
21598CL      CL65793   0.581   7.421   2.712  0.2487  0.2841 -0.2086
21599CL      CL65794   8.230   6.951   3.485  0.2570  0.2497  0.0805
21600CL      CL65795   4.088   6.041   2.933 -0.0096  0.2154 -0.0267
21601CL      CL65796   0.218   5.867   5.501 -0.1829  0.0050  0.0405
21602CL      CL65797   6.417   5.814   4.433 -0.2384 -0.4828  0.0914
21603CL      CL65798   8.078   8.024   4.026  0.3175  0.3174 -0.0143
21604CL      CL65799   3.121   6.204   4.240  0.1427 -0.0277  1.0285
21605CL      CL65800   4.584   6.916   5.264  0.2311  0.3023  0.3064
21606CL      CL65801   3.316   6.568   6.303  0.0070 -0.1297 -0.1048
21607CL      CL65802   5.930   7.668   3.775 -0.4911 -0.4090  0.1611
21608CL      CL65803   1.278   2.629   0.226  0.0971  0.2808 -0.2773
21609CL      CL65804   4.843   0.761   5.834  0.1847 -0.1276  0.0356
21610CL      CL65805   6.079   0.341   2.166 -0.1200  0.1181 -0.0302
21611CL      CL65806   6.866   5.924   5.708  0.2274 -0.4291  0.1970
21612CL      CL65807   7.265   3.789   5.433 -0.2711  0.0137  0.0832
21613CL      CL65808   7.689   2.757   8.079  0.0355 -0.0008  0.4353
21614CL      CL65809   1.298   6.879   4.519 -0.2455  0.1142 -0.0012
21615CL      CL65810   1.180   1.762   2.406 -0.2272 -0.1100  0.3884
21616CL      CL65811   4.896   4.924   2.220 -0.1516 -0.0976 -0.1786
21617CL      CL65812   4.187   2.399   1.740  0.1331  0.2373  0.1510
21618CL      CL65813   3.986   3.417   5.051 -0.3907 -0.0767  0.1618
21619CL      CL65814   6.709   1.732   4.033  0.1888  0.1908 -0.5240
21620CL      CL65815   5.704   6.261   2.724 -0.1863 -0.3819 -0.4977
21621CL      CL65816   6.414   4.091   2.092 -0.1495 -0.2996  0.2329
   8.71265   8.71265   8.71265
